 *******************************************************************************
 ** Site#: 14399        For non-commercial use only    Version 18.184L 64BITS **
 *******************************************************************************
 ** Cite this program as: MOPAC2016, Version: 18.184L, James J. P. Stewart,   **
 ** Stewart Computational Chemistry, web: HTTP://OpenMOPAC.net. Days left:  20**
 *******************************************************************************
 **                                                                           **
 **                                MOPAC2016                                  **
 **                                                                           **
 *******************************************************************************

                              PM3 CALCULATION RESULTS

 *******************************************************************************
 *  CALCULATION DONE:                                Thu Jun 13 15:47:34 2019  *
 *  PM3        - The PM3 Hamiltonian to be used
 *  PRECISE    - CRITERIA TO BE INCREASED BY 100 TIMES
 *  NOSYM      - POINT-GROUP SYMMETRY SET TO C1
 *  THREADS=1  - MULTI-THREADING NOT USED
 *  T=         - A TIME OF 172800.0 SECONDS REQUESTED
 *  DUMP=N     - RESTART FILE WRITTEN EVERY  7200.000 SECONDS
 *******************************************************************************
pm3  precise nosym THREADS=1
 InChI=1S/C9H12/c1-7-6-8-4-2-3-5-9(7)8/h2-5,7-9H,6H2,1H3

   ATOM   CHEMICAL          X               Y               Z
  NUMBER   SYMBOL      (ANGSTROMS)     (ANGSTROMS)     (ANGSTROMS)
 
     1       C          1.10340000  *  -0.49660000  *  -0.39380000  *
     2       C          0.03530000  *  -0.42590000  *   0.70420000  *
     3       C         -0.13540000  *   1.07870000  *   0.42950000  *
     4       C          0.93340000  *   1.00180000  *  -0.66130000  *
     5       C          2.49290000  *  -0.86900000  *   0.13080000  *
     6       C         -1.48160000  *   1.50980000  *  -0.09730000  *
     7       C         -1.16320000  *  -1.29260000  *   0.40660000  *
     8       C         -2.48390000  *   0.64960000  *  -0.27960000  *
     9       C         -2.32040000  *  -0.78730000  *  -0.02230000  *
    10       H          0.80660000  *  -1.11260000  *  -1.27300000  *
    11       H          0.18810000  *   1.69690000  *   1.29580000  *
    12       H          0.42740000  *  -0.61260000  *   1.72890000  *
    13       H          1.83050000  *   1.61080000  *  -0.41200000  *
    14       H          0.54610000  *   1.19880000  *  -1.68600000  *
    15       H          2.78170000  *  -0.23160000  *   0.99460000  *
    16       H          3.24270000  *  -0.73950000  *  -0.67770000  *
    17       H          2.49560000  *  -1.93180000  *   0.45170000  *
    18       H         -1.63480000  *   2.55600000  *  -0.33000000  *
    19       H         -1.07640000  *  -2.36170000  *   0.55370000  *
    20       H         -3.43430000  *   1.01050000  *  -0.65150000  *
    21       H         -3.15390000  *  -1.45170000  *  -0.21140000  *
 


          CARTESIAN COORDINATES 

    NO.       ATOM           X           Y           Z

     1         C          1.1034     -0.4966     -0.3938
     2         C          0.0353     -0.4259      0.7042
     3         C         -0.1354      1.0787      0.4295
     4         C          0.9334      1.0018     -0.6613
     5         C          2.4929     -0.8690      0.1308
     6         C         -1.4816      1.5098     -0.0973
     7         C         -1.1632     -1.2926      0.4066
     8         C         -2.4839      0.6496     -0.2796
     9         C         -2.3204     -0.7873     -0.0223
    10         H          0.8066     -1.1126     -1.2730
    11         H          0.1881      1.6969      1.2958
    12         H          0.4274     -0.6126      1.7289
    13         H          1.8305      1.6108     -0.4120
    14         H          0.5461      1.1988     -1.6860
    15         H          2.7817     -0.2316      0.9946
    16         H          3.2427     -0.7395     -0.6777
    17         H          2.4956     -1.9318      0.4517
    18         H         -1.6348      2.5560     -0.3300
    19         H         -1.0764     -2.3617      0.5537
    20         H         -3.4343      1.0105     -0.6515
    21         H         -3.1539     -1.4517     -0.2114

  H: (PM3): J. J. P. STEWART, J. COMP. CHEM. 10, 209 (1989).
  C: (PM3): J. J. P. STEWART, J. COMP. CHEM. 10, 209 (1989).

           Empirical Formula: C9 H12  =    21 atoms



      MOLECULAR POINT GROUP   :   C1  


      RHF CALCULATION, NO. OF DOUBLY OCCUPIED LEVELS = 24


          Geometry optimization using EF

          DIAGONAL MATRIX USED AS START HESSIAN

 CYCLE:     1 TIME:   0.031 TIME LEFT:  2.00D  GRAD.:    90.964 HEAT:  28.92469
 CYCLE:     2 TIME:   0.059 TIME LEFT:  2.00D  GRAD.:    36.365 HEAT:  26.84316
 CYCLE:     3 TIME:   0.023 TIME LEFT:  2.00D  GRAD.:    60.195 HEAT:  26.72800
 CYCLE:     4 TIME:   0.031 TIME LEFT:  2.00D  GRAD.:    57.154 HEAT:  26.53116
 CYCLE:     5 TIME:   0.027 TIME LEFT:  2.00D  GRAD.:    60.682 HEAT:  26.11051
 CYCLE:     6 TIME:   0.043 TIME LEFT:  2.00D  GRAD.:    43.623 HEAT:  25.66527
 CYCLE:     7 TIME:   0.027 TIME LEFT:  2.00D  GRAD.:    21.308 HEAT:  25.29426
 CYCLE:     8 TIME:   0.039 TIME LEFT:  2.00D  GRAD.:    17.034 HEAT:  25.20206
 CYCLE:     9 TIME:   0.027 TIME LEFT:  2.00D  GRAD.:    13.452 HEAT:  25.13604
 CYCLE:    10 TIME:   0.035 TIME LEFT:  2.00D  GRAD.:    19.509 HEAT:  25.13252
 CYCLE:    11 TIME:   0.027 TIME LEFT:  2.00D  GRAD.:    15.910 HEAT:  25.09326
 CYCLE:    12 TIME:   0.039 TIME LEFT:  2.00D  GRAD.:     9.773 HEAT:  25.04064
 CYCLE:    13 TIME:   0.035 TIME LEFT:  2.00D  GRAD.:     6.342 HEAT:  25.02220
 CYCLE:    14 TIME:   0.023 TIME LEFT:  2.00D  GRAD.:     4.789 HEAT:  25.01243
 CYCLE:    15 TIME:   0.043 TIME LEFT:  2.00D  GRAD.:     5.195 HEAT:  25.00770
 CYCLE:    16 TIME:   0.027 TIME LEFT:  2.00D  GRAD.:     3.915 HEAT:  25.00183
 CYCLE:    17 TIME:   0.031 TIME LEFT:  2.00D  GRAD.:     4.838 HEAT:  24.99895
 CYCLE:    18 TIME:   0.027 TIME LEFT:  2.00D  GRAD.:     6.171 HEAT:  24.99874
 CYCLE:    19 TIME:   0.027 TIME LEFT:  2.00D  GRAD.:     5.032 HEAT:  24.99238
 CYCLE:    20 TIME:   0.027 TIME LEFT:  2.00D  GRAD.:     3.000 HEAT:  24.98569
 CYCLE:    21 TIME:   0.031 TIME LEFT:  2.00D  GRAD.:     3.373 HEAT:  24.98394
 CYCLE:    22 TIME:   0.027 TIME LEFT:  2.00D  GRAD.:     3.583 HEAT:  24.98096
 CYCLE:    23 TIME:   0.027 TIME LEFT:  2.00D  GRAD.:     1.762 HEAT:  24.97604
 CYCLE:    24 TIME:   0.031 TIME LEFT:  2.00D  GRAD.:     2.205 HEAT:  24.97276
 CYCLE:    25 TIME:   0.027 TIME LEFT:  2.00D  GRAD.:     2.460 HEAT:  24.96893
 CYCLE:    26 TIME:   0.027 TIME LEFT:  2.00D  GRAD.:     2.419 HEAT:  24.96722
 CYCLE:    27 TIME:   0.031 TIME LEFT:  2.00D  GRAD.:     1.578 HEAT:  24.96550
 CYCLE:    28 TIME:   0.027 TIME LEFT:  2.00D  GRAD.:     1.494 HEAT:  24.96444
 CYCLE:    29 TIME:   0.031 TIME LEFT:  2.00D  GRAD.:     0.955 HEAT:  24.96319
 CYCLE:    30 TIME:   0.027 TIME LEFT:  2.00D  GRAD.:     0.839 HEAT:  24.96182
 CYCLE:    31 TIME:   0.027 TIME LEFT:  2.00D  GRAD.:     0.788 HEAT:  24.96078
 CYCLE:    32 TIME:   0.027 TIME LEFT:  2.00D  GRAD.:     0.630 HEAT:  24.95993
 CYCLE:    33 TIME:   0.031 TIME LEFT:  2.00D  GRAD.:     0.776 HEAT:  24.95888
 CYCLE:    34 TIME:   0.027 TIME LEFT:  2.00D  GRAD.:     1.089 HEAT:  24.95791
 CYCLE:    35 TIME:   0.027 TIME LEFT:  2.00D  GRAD.:     0.787 HEAT:  24.95689
 CYCLE:    36 TIME:   0.027 TIME LEFT:  2.00D  GRAD.:     0.565 HEAT:  24.95605
 CYCLE:    37 TIME:   0.031 TIME LEFT:  2.00D  GRAD.:     0.511 HEAT:  24.95546
 CYCLE:    38 TIME:   0.027 TIME LEFT:  2.00D  GRAD.:     0.480 HEAT:  24.95509
 CYCLE:    39 TIME:   0.027 TIME LEFT:  2.00D  GRAD.:     0.442 HEAT:  24.95451
 CYCLE:    40 TIME:   0.031 TIME LEFT:  2.00D  GRAD.:     0.432 HEAT:  24.95390
 CYCLE:    41 TIME:   0.027 TIME LEFT:  2.00D  GRAD.:     0.469 HEAT:  24.95348
 CYCLE:    42 TIME:   0.027 TIME LEFT:  2.00D  GRAD.:     0.503 HEAT:  24.95301
 CYCLE:    43 TIME:   0.031 TIME LEFT:  2.00D  GRAD.:     0.555 HEAT:  24.95240
 CYCLE:    44 TIME:   0.027 TIME LEFT:  2.00D  GRAD.:     0.637 HEAT:  24.95158
 CYCLE:    45 TIME:   0.031 TIME LEFT:  2.00D  GRAD.:     0.571 HEAT:  24.95076
 CYCLE:    46 TIME:   0.027 TIME LEFT:  2.00D  GRAD.:     0.422 HEAT:  24.95012
 CYCLE:    47 TIME:   0.027 TIME LEFT:  2.00D  GRAD.:     0.341 HEAT:  24.94970
 CYCLE:    48 TIME:   0.027 TIME LEFT:  2.00D  GRAD.:     0.345 HEAT:  24.94942
 CYCLE:    49 TIME:   0.031 TIME LEFT:  2.00D  GRAD.:     0.338 HEAT:  24.94916
 CYCLE:    50 TIME:   0.027 TIME LEFT:  2.00D  GRAD.:     0.301 HEAT:  24.94888
 CYCLE:    51 TIME:   0.027 TIME LEFT:  2.00D  GRAD.:     0.252 HEAT:  24.94868
 CYCLE:    52 TIME:   0.027 TIME LEFT:  2.00D  GRAD.:     0.219 HEAT:  24.94854
 CYCLE:    53 TIME:   0.031 TIME LEFT:  2.00D  GRAD.:     0.211 HEAT:  24.94844
 CYCLE:    54 TIME:   0.027 TIME LEFT:  2.00D  GRAD.:     0.199 HEAT:  24.94834
 CYCLE:    55 TIME:   0.027 TIME LEFT:  2.00D  GRAD.:     0.160 HEAT:  24.94826
 CYCLE:    56 TIME:   0.031 TIME LEFT:  2.00D  GRAD.:     0.103 HEAT:  24.94821
 CYCLE:    57 TIME:   0.027 TIME LEFT:  2.00D  GRAD.:     0.066 HEAT:  24.94819
 CYCLE:    58 TIME:   0.027 TIME LEFT:  2.00D  GRAD.:     0.053 HEAT:  24.94819
 CYCLE:    59 TIME:   0.031 TIME LEFT:  2.00D  GRAD.:     0.053 HEAT:  24.94818
 CYCLE:    60 TIME:   0.027 TIME LEFT:  2.00D  GRAD.:     0.028 HEAT:  24.94818

     GRADIENT =  0.02790  IS LESS THAN CUTOFF =  0.05000



 -------------------------------------------------------------------------------
 pm3  precise nosym THREADS=1
 InChI=1S/C9H12/c1-7-6-8-4-2-3-5-9(7)8/h2-5,7-9H,6H2,1H3



     GEOMETRY OPTIMISED USING EIGENVECTOR FOLLOWING (EF).     
     SCF FIELD WAS ACHIEVED                                   


                              PM3 CALCULATION
                                                       MOPAC2016 (Version: 18.184L)
                                                       Thu Jun 13 15:47:36 2019
                                                       No. of days remaining =  20




          FINAL HEAT OF FORMATION =         24.94818 KCAL/MOL =     104.38317 KJ/MOL


          TOTAL ENERGY            =      -1250.67403 EV
          ELECTRONIC ENERGY       =      -6696.54819 EV  POINT GROUP:     C1  
          CORE-CORE REPULSION     =       5445.87416 EV
          COSMO AREA              =        165.90 SQUARE ANGSTROMS
          COSMO VOLUME            =        168.16 CUBIC ANGSTROMS

          GRADIENT NORM           =          0.02790 = 0.00609 PER ATOM
          IONIZATION POTENTIAL    =          8.956251 EV
          HOMO LUMO ENERGIES (EV) =         -8.956  0.244
          NO. OF FILLED LEVELS    =         24
          MOLECULAR WEIGHT        =        120.1938

          MOLECULAR DIMENSIONS (Angstroms)

            Atom       Atom       Distance
            H    20    H    16     6.92770
            H    19    H    18     4.71601
            H    10    H    11     3.01128


          SCF CALCULATIONS        =         68
 
          WALL-CLOCK TIME         =          1.867 SECONDS
          COMPUTATION TIME        =          0.873 SECONDS




   ATOM   CHEMICAL          X               Y               Z
  NUMBER   SYMBOL      (ANGSTROMS)     (ANGSTROMS)     (ANGSTROMS)
 
     1       C          1.12608031  *  -0.49029523  *  -0.39148556  *
     2       C          0.01918818  *  -0.42431891  *   0.70161416  *
     3       C         -0.16261851  *   1.09434771  *   0.42028029  *
     4       C          0.95130642  *   1.02585218  *  -0.65200775  *
     5       C          2.48606149  *  -0.89900259  *   0.10770929  *
     6       C         -1.48897506  *   1.50506214  *  -0.09793180  *
     7       C         -1.15820819  *  -1.28209428  *   0.43088320  *
     8       C         -2.48477534  *   0.63098482  *  -0.28996442  *
     9       C         -2.31728156  *  -0.78554456  *  -0.01932125  *
    10       H          0.83452284  *  -1.11630738  *  -1.26116610  *
    11       H          0.09766926  *   1.73250558  *   1.29090911  *
    12       H          0.39723655  *  -0.63610635  *   1.72475394  *
    13       H          1.83975967  *   1.63593345  *  -0.42801193  *
    14       H          0.62525392  *   1.28148860  *  -1.67125656  *
    15       H          2.80535067  *  -0.29920820  *   0.97094897  *
    16       H          3.24559287  *  -0.77687063  *  -0.67519411  *
    17       H          2.49283914  *  -1.95160624  *   0.41855904  *
    18       H         -1.61425778  *   2.57083232  *  -0.31763410  *
    19       H         -1.03039137  *  -2.35359022  *   0.61918739  *
    20       H         -3.46139527  *   0.95782127  *  -0.66219166  *
    21       H         -3.17931846  *  -1.43580062  *  -0.20155711  *

                             CARTESIAN COORDINATES

   1    C        1.126080308    -0.490295228    -0.391485561
   2    C        0.019188178    -0.424318910     0.701614159
   3    C       -0.162618509     1.094347712     0.420280293
   4    C        0.951306418     1.025852177    -0.652007752
   5    C        2.486061487    -0.899002587     0.107709291
   6    C       -1.488975060     1.505062144    -0.097931805
   7    C       -1.158208192    -1.282094285     0.430883198
   8    C       -2.484775336     0.630984820    -0.289964420
   9    C       -2.317281562    -0.785544565    -0.019321250
  10    H        0.834522842    -1.116307380    -1.261166097
  11    H        0.097669261     1.732505577     1.290909112
  12    H        0.397236551    -0.636106346     1.724753937
  13    H        1.839759671     1.635933449    -0.428011927
  14    H        0.625253924     1.281488599    -1.671256555
  15    H        2.805350666    -0.299208196     0.970948970
  16    H        3.245592873    -0.776870631    -0.675194105
  17    H        2.492839137    -1.951606235     0.418559035
  18    H       -1.614257776     2.570832315    -0.317634103
  19    H       -1.030391369    -2.353590215     0.619187386
  20    H       -3.461395267     0.957821271    -0.662191656
  21    H       -3.179318465    -1.435800618    -0.201557110


           Empirical Formula: C9 H12  =    21 atoms



      MOLECULAR POINT GROUP   :   C1  


                  EIGENVALUES  
 -41.98083 -34.70262 -30.74210 -28.62172 -24.99842 -22.60871 -20.97685 -19.15442
 -17.88464 -16.75787 -16.00403 -15.52331 -14.68150 -14.52428 -14.47169 -13.25347
 -13.14803 -12.82785 -12.39966 -11.84064 -11.52503 -11.40965 -11.11386  -8.95625
   0.24382   2.07432   3.24496   3.29922   3.38775   3.46815   3.57609   3.77867
   3.83611   3.88293   3.97825   4.20654   4.28014   4.36906   4.51327   4.57724
   4.64832   4.78264   5.10064   5.27127   5.41258   5.49419   6.04008   6.27791


              NET ATOMIC CHARGES AND DIPOLE CONTRIBUTIONS

  ATOM NO.   TYPE          CHARGE      No. of ELECS.   s-Pop       p-Pop       
    1          C          -0.084378        4.0844     1.19036     2.89402
    2          C          -0.058600        4.0586     1.18077     2.87783
    3          C          -0.055517        4.0555     1.17622     2.87930
    4          C          -0.102792        4.1028     1.17735     2.92544
    5          C          -0.102865        4.1029     1.13738     2.96548
    6          C          -0.123288        4.1233     1.19288     2.93041
    7          C          -0.122987        4.1230     1.19275     2.93024
    8          C          -0.108457        4.1085     1.17829     2.93016
    9          C          -0.108485        4.1085     1.17836     2.93013
   10          H           0.075896        0.9241     0.92410
   11          H           0.074263        0.9257     0.92574
   12          H           0.078157        0.9218     0.92184
   13          H           0.057835        0.9422     0.94217
   14          H           0.061305        0.9387     0.93870
   15          H           0.040379        0.9596     0.95962
   16          H           0.040506        0.9595     0.95949
   17          H           0.040174        0.9598     0.95983
   18          H           0.099675        0.9003     0.90032
   19          H           0.099864        0.9001     0.90014
   20          H           0.099657        0.9003     0.90034
   21          H           0.099659        0.9003     0.90034
 DIPOLE           X         Y         Z       TOTAL
 POINT-CHG.     0.346     0.002    -0.011     0.346
 HYBRID        -0.008     0.005     0.016     0.018
 SUM            0.338     0.007     0.004     0.338


          ATOMIC ORBITAL ELECTRON POPULATIONS

     Atom    s        px        py        pz   
    1  C   1.19036   0.94729   0.96488   0.98185
    2  C   1.18077   0.94887   0.94403   0.98492
    3  C   1.17622   0.93945   0.95947   0.98038
    4  C   1.17735   0.97945   0.95803   0.98796
    5  C   1.13738   0.95794   1.00462   1.00292
    6  C   1.19288   0.95450   0.98237   0.99354
    7  C   1.19275   0.95393   0.98300   0.99331
    8  C   1.17829   0.98027   0.94159   1.00831
    9  C   1.17836   0.97330   0.95287   1.00396
   10  H   0.92410
   11  H   0.92574
   12  H   0.92184
   13  H   0.94217
   14  H   0.93870
   15  H   0.95962
   16  H   0.95949
   17  H   0.95983
   18  H   0.90032
   19  H   0.90014
   20  H   0.90034
   21  H   0.90034
 *******************************************************************************
 ** Site#: 14399        For non-commercial use only    Version 18.184L 64BITS **
 *******************************************************************************
 ** Cite this program as: MOPAC2016, Version: 18.184L, James J. P. Stewart,   **
 ** Stewart Computational Chemistry, web: HTTP://OpenMOPAC.net. Days left:  20**
 *******************************************************************************
 **                                                                           **
 **                                MOPAC2016                                  **
 **                                                                           **
 *******************************************************************************

                              PM3 CALCULATION RESULTS

 *******************************************************************************
 *  CALCULATION DONE:                                Thu Jun 13 15:47:36 2019  *
 *  PM3        - The PM3 Hamiltonian to be used
 *  OLDGEO     - PREVIOUS GEOMETRY TO BE USED
 *  PRECISE    - CRITERIA TO BE INCREASED BY 100 TIMES
 *  NOSYM      - POINT-GROUP SYMMETRY SET TO C1
 *  THREADS=1  - MULTI-THREADING NOT USED
 *  T=         - A TIME OF 172800.0 SECONDS REQUESTED
 *  DUMP=N     - RESTART FILE WRITTEN EVERY  7200.000 SECONDS
 *  THERMO     - THERMODYNAMIC QUANTITIES TO BE CALCULATED
 *******************************************************************************
oldgeo thermo nosym precise THREADS=1  pm3
 InChI=1S/C9H12/c1-7-6-8-4-2-3-5-9(7)8/h2-5,7-9H,6H2,1H3

   ATOM   CHEMICAL          X               Y               Z
  NUMBER   SYMBOL      (ANGSTROMS)     (ANGSTROMS)     (ANGSTROMS)
 
     1       C          1.12608031  *  -0.49029523  *  -0.39148556  *
     2       C          0.01918818  *  -0.42431891  *   0.70161416  *
     3       C         -0.16261851  *   1.09434771  *   0.42028029  *
     4       C          0.95130642  *   1.02585218  *  -0.65200775  *
     5       C          2.48606149  *  -0.89900259  *   0.10770929  *
     6       C         -1.48897506  *   1.50506214  *  -0.09793180  *
     7       C         -1.15820819  *  -1.28209428  *   0.43088320  *
     8       C         -2.48477534  *   0.63098482  *  -0.28996442  *
     9       C         -2.31728156  *  -0.78554456  *  -0.01932125  *
    10       H          0.83452284  *  -1.11630738  *  -1.26116610  *
    11       H          0.09766926  *   1.73250558  *   1.29090911  *
    12       H          0.39723655  *  -0.63610635  *   1.72475394  *
    13       H          1.83975967  *   1.63593345  *  -0.42801193  *
    14       H          0.62525392  *   1.28148860  *  -1.67125656  *
    15       H          2.80535067  *  -0.29920820  *   0.97094897  *
    16       H          3.24559287  *  -0.77687063  *  -0.67519411  *
    17       H          2.49283914  *  -1.95160624  *   0.41855904  *
    18       H         -1.61425778  *   2.57083232  *  -0.31763410  *
    19       H         -1.03039137  *  -2.35359022  *   0.61918739  *
    20       H         -3.46139527  *   0.95782127  *  -0.66219166  *
    21       H         -3.17931846  *  -1.43580062  *  -0.20155711  *
 


          CARTESIAN COORDINATES 

    NO.       ATOM           X           Y           Z

     1         C          1.1261     -0.4903     -0.3915
     2         C          0.0192     -0.4243      0.7016
     3         C         -0.1626      1.0943      0.4203
     4         C          0.9513      1.0259     -0.6520
     5         C          2.4861     -0.8990      0.1077
     6         C         -1.4890      1.5051     -0.0979
     7         C         -1.1582     -1.2821      0.4309
     8         C         -2.4848      0.6310     -0.2900
     9         C         -2.3173     -0.7855     -0.0193
    10         H          0.8345     -1.1163     -1.2612
    11         H          0.0977      1.7325      1.2909
    12         H          0.3972     -0.6361      1.7248
    13         H          1.8398      1.6359     -0.4280
    14         H          0.6253      1.2815     -1.6713
    15         H          2.8054     -0.2992      0.9709
    16         H          3.2456     -0.7769     -0.6752
    17         H          2.4928     -1.9516      0.4186
    18         H         -1.6143      2.5708     -0.3176
    19         H         -1.0304     -2.3536      0.6192
    20         H         -3.4614      0.9578     -0.6622
    21         H         -3.1793     -1.4358     -0.2016

  H: (PM3): J. J. P. STEWART, J. COMP. CHEM. 10, 209 (1989).
  C: (PM3): J. J. P. STEWART, J. COMP. CHEM. 10, 209 (1989).

           Empirical Formula: C9 H12  =    21 atoms



      MOLECULAR POINT GROUP   :   C1  


      RHF CALCULATION, NO. OF DOUBLY OCCUPIED LEVELS = 24



          HEAT OF FORMATION =      24.948176 KCALS/MOLE


          CARTESIAN COORDINATE DERIVATIVES

   NUMBER  ATOM         X            Y            Z

     1       C      0.001489    -0.008049     0.004949
     2       C      0.003609     0.001790     0.002308
     3       C     -0.003211    -0.004901    -0.001186
     4       C     -0.002380    -0.001864    -0.003082
     5       C      0.001414    -0.005761     0.002125
     6       C     -0.005395     0.000297    -0.007453
     7       C      0.004508    -0.003704     0.001514
     8       C     -0.001734    -0.006989     0.003211
     9       C     -0.000432     0.011200     0.003651
    10       H     -0.004449     0.004571    -0.001386
    11       H     -0.000932     0.002329     0.000410
    12       H      0.004351     0.002695     0.001434
    13       H     -0.003126     0.003651    -0.003838
    14       H      0.002805     0.002879     0.002853
    15       H     -0.004590     0.003593    -0.003455
    16       H     -0.000218     0.007832    -0.006718
    17       H     -0.003442    -0.002077     0.000716
    18       H      0.003404    -0.001193     0.001023
    19       H      0.004550    -0.004552     0.004381
    20       H     -0.001275    -0.001212     0.002538
    21       H      0.005056    -0.000537    -0.003994
 


          GRADIENT NORM =   0.03105


          TIME FOR SCF CALCULATION =    0.02

          TIME FOR DERIVATIVES     =    0.02

          MOLECULAR WEIGHT =  120.19



          ROTATIONAL CONSTANTS IN CM(-1)

          A =    0.10950420   B =    0.04673152   C =    0.03651748



           PRINCIPAL MOMENTS OF INERTIA IN UNITS OF 10**(-40)*GRAM-CM**2

          A =      255.6320   B =      599.0127   C =      766.5582


          ORIENTATION OF MOLECULE IN FORCE CALCULATION

    NO.       ATOM         X         Y         Z

     1          C      -1.3082   -0.6052   -0.5791
     2          C       0.2489   -0.6052   -0.5791
     3          C       0.2450    0.9500   -0.5791
     4          C      -1.3026    0.9430   -0.5977
     5          C      -1.9418   -1.2552   -1.7798
     6          C       0.8415    1.6014    0.6111
     7          C       0.8595   -1.2547    0.6044
     8          C       1.3775    0.9003    1.6179
     9          C       1.3884   -0.5515    1.6136
    10          H      -1.7380   -1.0262    0.3544
    11          H       0.6982    1.3864   -1.4940
    12          H       0.6895   -1.0402   -1.5017
    13          H      -1.7510    1.3932   -1.4966
    14          H      -1.7755    1.4139    0.2769
    15          H      -1.5374   -0.8619   -2.7225
    16          H      -3.0262   -1.0858   -1.7924
    17          H      -1.7730   -2.3397   -1.7770
    18          H       0.8215    2.6965    0.6248
    19          H       0.8554   -2.3500    0.6118
    20          H       1.8243    1.4021    2.4826
    21          H       1.8458   -1.0516    2.4738


    FIRST DERIVATIVES WILL BE USED IN THE CALCULATION OF SECOND DERIVATIVES

          ESTIMATED TIME TO COMPLETE CALCULATION =        9.84 SECONDS

    FOR POINT-GROUP C1   THERE ARE   1 UNIQUE SYMMETRY FUNCTIONS.

 STEP:   1 TIME =     0.05 SECS, INTEGRAL =      0.05 TIME LEFT: 172799.91
 STEP:   2 TIME =     0.06 SECS, INTEGRAL =      0.11 TIME LEFT: 172799.85
 STEP:   3 TIME =     0.04 SECS, INTEGRAL =      0.16 TIME LEFT: 172799.80
 STEP:   4 TIME =     0.04 SECS, INTEGRAL =      0.20 TIME LEFT: 172799.77
 STEP:   5 TIME =     0.04 SECS, INTEGRAL =      0.23 TIME LEFT: 172799.73
 STEP:   6 TIME =     0.04 SECS, INTEGRAL =      0.27 TIME LEFT: 172799.69
 STEP:   7 TIME =     0.04 SECS, INTEGRAL =      0.31 TIME LEFT: 172799.65
 STEP:   8 TIME =     0.06 SECS, INTEGRAL =      0.37 TIME LEFT: 172799.59
 STEP:   9 TIME =     0.05 SECS, INTEGRAL =      0.42 TIME LEFT: 172799.54
 STEP:  10 TIME =     0.05 SECS, INTEGRAL =      0.46 TIME LEFT: 172799.50
 STEP:  11 TIME =     0.04 SECS, INTEGRAL =      0.50 TIME LEFT: 172799.46
 STEP:  12 TIME =     0.04 SECS, INTEGRAL =      0.54 TIME LEFT: 172799.42
 STEP:  13 TIME =     0.04 SECS, INTEGRAL =      0.58 TIME LEFT: 172799.38
 STEP:  14 TIME =     0.04 SECS, INTEGRAL =      0.62 TIME LEFT: 172799.34
 STEP:  15 TIME =     0.04 SECS, INTEGRAL =      0.66 TIME LEFT: 172799.30
 STEP:  16 TIME =     0.04 SECS, INTEGRAL =      0.70 TIME LEFT: 172799.26
 STEP:  17 TIME =     0.04 SECS, INTEGRAL =      0.74 TIME LEFT: 172799.22
 STEP:  18 TIME =     0.05 SECS, INTEGRAL =      0.79 TIME LEFT: 172799.17
 STEP:  19 TIME =     0.05 SECS, INTEGRAL =      0.84 TIME LEFT: 172799.12
 STEP:  20 TIME =     0.04 SECS, INTEGRAL =      0.88 TIME LEFT: 172799.08
 STEP:  21 TIME =     0.04 SECS, INTEGRAL =      0.92 TIME LEFT: 172799.04
 STEP:  22 TIME =     0.04 SECS, INTEGRAL =      0.96 TIME LEFT: 172799.00
 STEP:  23 TIME =     0.04 SECS, INTEGRAL =      1.00 TIME LEFT: 172798.96
 STEP:  24 TIME =     0.04 SECS, INTEGRAL =      1.04 TIME LEFT: 172798.93
 STEP:  25 TIME =     0.04 SECS, INTEGRAL =      1.07 TIME LEFT: 172798.89
 STEP:  26 TIME =     0.04 SECS, INTEGRAL =      1.11 TIME LEFT: 172798.85
 STEP:  27 TIME =     0.04 SECS, INTEGRAL =      1.15 TIME LEFT: 172798.81
 STEP:  28 TIME =     0.06 SECS, INTEGRAL =      1.21 TIME LEFT: 172798.75
 STEP:  29 TIME =     0.05 SECS, INTEGRAL =      1.26 TIME LEFT: 172798.70
 STEP:  30 TIME =     0.04 SECS, INTEGRAL =      1.30 TIME LEFT: 172798.66
 STEP:  31 TIME =     0.04 SECS, INTEGRAL =      1.34 TIME LEFT: 172798.62
 STEP:  32 TIME =     0.04 SECS, INTEGRAL =      1.37 TIME LEFT: 172798.59
 STEP:  33 TIME =     0.04 SECS, INTEGRAL =      1.41 TIME LEFT: 172798.55
 STEP:  34 TIME =     0.04 SECS, INTEGRAL =      1.45 TIME LEFT: 172798.51
 STEP:  35 TIME =     0.04 SECS, INTEGRAL =      1.49 TIME LEFT: 172798.47
 STEP:  36 TIME =     0.04 SECS, INTEGRAL =      1.53 TIME LEFT: 172798.43
 STEP:  37 TIME =     0.04 SECS, INTEGRAL =      1.57 TIME LEFT: 172798.39
 STEP:  38 TIME =     0.05 SECS, INTEGRAL =      1.62 TIME LEFT: 172798.34
 STEP:  39 TIME =     0.05 SECS, INTEGRAL =      1.67 TIME LEFT: 172798.29
 STEP:  40 TIME =     0.04 SECS, INTEGRAL =      1.71 TIME LEFT: 172798.25
 STEP:  41 TIME =     0.04 SECS, INTEGRAL =      1.75 TIME LEFT: 172798.21
 STEP:  42 TIME =     0.04 SECS, INTEGRAL =      1.79 TIME LEFT: 172798.17
 STEP:  43 TIME =     0.04 SECS, INTEGRAL =      1.83 TIME LEFT: 172798.13
 STEP:  44 TIME =     0.04 SECS, INTEGRAL =      1.87 TIME LEFT: 172798.09
 STEP:  45 TIME =     0.04 SECS, INTEGRAL =      1.91 TIME LEFT: 172798.05
 STEP:  46 TIME =     0.04 SECS, INTEGRAL =      1.95 TIME LEFT: 172798.01
 STEP:  47 TIME =     0.04 SECS, INTEGRAL =      1.99 TIME LEFT: 172797.97
 STEP:  48 TIME =     0.06 SECS, INTEGRAL =      2.05 TIME LEFT: 172797.91
 STEP:  49 TIME =     0.05 SECS, INTEGRAL =      2.09 TIME LEFT: 172797.87
 STEP:  50 TIME =     0.04 SECS, INTEGRAL =      2.13 TIME LEFT: 172797.83
 STEP:  51 TIME =     0.04 SECS, INTEGRAL =      2.17 TIME LEFT: 172797.79
 STEP:  52 TIME =     0.04 SECS, INTEGRAL =      2.21 TIME LEFT: 172797.75
 STEP:  53 TIME =     0.04 SECS, INTEGRAL =      2.25 TIME LEFT: 172797.71
 STEP:  54 TIME =     0.04 SECS, INTEGRAL =      2.29 TIME LEFT: 172797.67
 STEP:  55 TIME =     0.04 SECS, INTEGRAL =      2.33 TIME LEFT: 172797.63
 STEP:  56 TIME =     0.04 SECS, INTEGRAL =      2.37 TIME LEFT: 172797.59
 STEP:  57 TIME =     0.04 SECS, INTEGRAL =      2.41 TIME LEFT: 172797.55
 STEP:  58 TIME =     0.05 SECS, INTEGRAL =      2.46 TIME LEFT: 172797.50
 STEP:  59 TIME =     0.04 SECS, INTEGRAL =      2.50 TIME LEFT: 172797.46
 STEP:  60 TIME =     0.04 SECS, INTEGRAL =      2.54 TIME LEFT: 172797.42
 STEP:  61 TIME =     0.04 SECS, INTEGRAL =      2.57 TIME LEFT: 172797.39
 STEP:  62 TIME =     0.04 SECS, INTEGRAL =      2.62 TIME LEFT: 172797.34
 STEP:  63 TIME =     0.04 SECS, INTEGRAL =      2.66 TIME LEFT: 172797.30

(To convert to Hartree/Bohr^2, multiply by (10^(-21) x N x a0^2)/(4.184 x 627.51) =  0.0642)


           FORCE MATRIX IN MILLIDYNES/ANGSTROM


                  C  1       C  2       C  3       C  4       C  5       C  6
 ------------------------------------------------------------------------------
     C    1  14.465942
     C    2   3.135660  14.798959
     C    3   1.787556   3.224242  14.893101
     C    4   3.464283   1.800656   3.435632  14.308491
     C    5   4.629776   0.548389   0.041426   0.554145  14.519118
     C    6   0.046261   0.576002   5.105159   0.583407   0.004971  18.133815
     C    7   0.575048   5.112782   0.574575   0.045225   0.033649   0.152124
     C    8   0.021893   0.116285   0.859164   0.040307   0.002872  10.301596
     C    9   0.040772   0.862414   0.116173   0.022030   0.006425   1.106889
     H   10   4.431932   0.437824   0.025570   0.428912   0.421729   0.003280
     H   11   0.028304   0.421896   4.419144   0.434161   0.003732   0.406228
     H   12   0.442480   4.396711   0.421713   0.027867   0.030939   0.033050
     H   13   0.451897   0.029541   0.441108   4.678965   0.026941   0.032533
     H   14   0.441822   0.028959   0.452875   4.704745   0.032992   0.025335
     H   15   0.468409   0.020399   0.002413   0.019668   4.711602   0.000753
     H   16   0.450499   0.047547   0.003771   0.012115   4.745832   0.000937
     H   17   0.452756   0.012611   0.003314   0.048454   4.746850   0.001198
     H   18   0.005808   0.045028   0.430909   0.006632   0.001587   4.835437
     H   19   0.007573   0.431211   0.044869   0.005301   0.001415   0.013276
     H   20   0.001428   0.003919   0.120534   0.016527   0.000553   0.442472
     H   21   0.016088   0.120353   0.004096   0.001266   0.001782   0.046792


                  C  7       C  8       C  9       H 10       H 11       H 12
 ------------------------------------------------------------------------------
     C    7  18.133579
     C    8   1.107417  18.392977
     C    9  10.295594   5.624715  18.392463
     H   10   0.031861   0.001535   0.005000   4.928706
     H   11   0.032902   0.041215   0.012120   0.001169   4.900026
     H   12   0.406739   0.011748   0.041207   0.029632   0.029736   4.885511
     H   13   0.002425   0.004907   0.002431   0.030751   0.026002   0.002923
     H   14   0.003590   0.004767   0.001650   0.027464   0.031276   0.000888
     H   15   0.000911   0.000283   0.000738   0.044683   0.001017   0.020348
     H   16   0.006155   0.000745   0.001508   0.029626   0.000659   0.002977
     H   17   0.002257   0.000514   0.000869   0.029637   0.000647   0.005454
     H   18   0.013600   0.444686   0.126629   0.000758   0.032308   0.005355
     H   19   4.834636   0.126797   0.444757   0.003801   0.005392   0.032502
     H   20   0.046873   4.848720   0.433681   0.000279   0.013832   0.000673
     H   21   0.442460   0.433919   4.848526   0.000746   0.000649   0.013576


                  H 13       H 14       H 15       H 16       H 17       H 18
 ------------------------------------------------------------------------------
     H   13   5.302529
     H   14   0.547340   5.322329
     H   15   0.017594   0.001504   5.451078
     H   16   0.005419   0.001791   0.572391   5.471928
     H   17   0.003082   0.005563   0.571277   0.567288   5.472988
     H   18   0.001086   0.003980   0.000223   0.000272   0.000322   5.209335
     H   19   0.001017   0.000787   0.000460   0.000409   0.000987   0.010758
     H   20   0.001991   0.000933   0.000085   0.000104   0.000143   0.065473
     H   21   0.000173   0.000288   0.000168   0.000382   0.000187   0.007130


                  H 19       H 20       H 21
 ------------------------------------------
     H   19   5.207524
     H   20   0.007205   5.211768
     H   21   0.065501   0.033157   5.211853


          HEAT OF FORMATION =      24.948176 KCALS/MOLE

          ZERO POINT ENERGY     115.683 KCAL/MOL


           NORMAL COORDINATE ANALYSIS (Total motion = 1 Angstrom)


   Root No.       1         2         3         4         5         6         7         8

                 1 A       2 A       3 A       4 A       5 A       6 A       7 A       8 A   

                  91.9     171.9     183.0     237.4     318.1     421.7     430.7     517.4
  
           1    0.0071   -0.0059   -0.0200   -0.0056   -0.0220   -0.0319    0.0068    0.0190
           2    0.0184   -0.0033    0.0123   -0.0063    0.0222   -0.0001   -0.0096   -0.0063
           3    0.0062   -0.0038   -0.0078    0.0032    0.0340   -0.0203    0.0333   -0.0028
           4    0.0072   -0.0056   -0.0212   -0.0028   -0.0244   -0.0246    0.0074    0.0128
           5    0.0099   -0.0030    0.0030   -0.0283   -0.0054    0.0003    0.0049    0.0260
           6   -0.0117    0.0098    0.0218    0.0134    0.0143    0.0125    0.0094    0.0133
           7    0.0153   -0.0070   -0.0103    0.0124   -0.0015   -0.0120   -0.0238   -0.0153
           8    0.0101   -0.0029    0.0020   -0.0276   -0.0066   -0.0023    0.0056    0.0258
           9   -0.0044    0.0085    0.0166   -0.0077   -0.0172    0.0228    0.0011   -0.0182
          10    0.0157   -0.0057   -0.0095    0.0147   -0.0033   -0.0159   -0.0223   -0.0229
          11    0.0177   -0.0032    0.0131   -0.0073    0.0223    0.0037   -0.0125   -0.0075
          12   -0.0415   -0.0094   -0.0331   -0.0102    0.0148   -0.0109   -0.0321   -0.0133
          13   -0.0175   -0.0027    0.0137   -0.0271    0.0524   -0.0218    0.0142   -0.0024
          14   -0.0233    0.0054   -0.0150    0.0426    0.0030   -0.0213    0.0335    0.0066
          15    0.0427   -0.0108   -0.0116   -0.0135    0.0061   -0.0235    0.0101    0.0038
          16   -0.0176   -0.0149   -0.0142   -0.0250    0.0011    0.0527   -0.0064    0.0254
          17   -0.0030   -0.0003   -0.0024   -0.0058   -0.0066   -0.0036   -0.0055   -0.0105
          18    0.0198    0.0111    0.0212   -0.0017   -0.0213   -0.0036   -0.0042   -0.0204
          19    0.0182    0.0048   -0.0181    0.0290    0.0093    0.0432    0.0262   -0.0191
          20   -0.0027    0.0002   -0.0015   -0.0043   -0.0125    0.0153   -0.0072    0.0044
          21   -0.0248    0.0062    0.0172    0.0123   -0.0101   -0.0120   -0.0062    0.0244
          22   -0.0271    0.0115    0.0368   -0.0243   -0.0317   -0.0007    0.0153   -0.0300
          23   -0.0126    0.0024   -0.0044    0.0130   -0.0083    0.0057   -0.0093   -0.0201
          24    0.0182   -0.0011   -0.0070    0.0101   -0.0052    0.0328   -0.0173    0.0059
          25    0.0004    0.0265    0.0380    0.0333    0.0061   -0.0005   -0.0216    0.0374
          26   -0.0123    0.0025   -0.0046    0.0135   -0.0083    0.0067   -0.0098   -0.0187
          27   -0.0088   -0.0065   -0.0101   -0.0012   -0.0124    0.0194    0.0197    0.0089
          28    0.0198   -0.0167   -0.0423   -0.0175   -0.0455   -0.0518    0.0131    0.0333
          29    0.0543    0.0004    0.0315   -0.0056    0.0332    0.0074   -0.0063   -0.0181
          30    0.0287   -0.0074   -0.0097   -0.0030    0.0263   -0.0267    0.0358   -0.0007
          31    0.0434    0.0031    0.0182    0.0300   -0.0059   -0.0173   -0.0212   -0.0477
          32    0.0164   -0.0036   -0.0048   -0.0435   -0.0278   -0.0119    0.0113    0.0290
          33    0.0128    0.0129    0.0269   -0.0061   -0.0288    0.0141    0.0043   -0.0327
          34   -0.0081    0.0006   -0.0135   -0.0138   -0.0541   -0.0360   -0.0048    0.0478
          35    0.0153   -0.0011    0.0010   -0.0450   -0.0225    0.0099    0.0165    0.0235
          36   -0.0216    0.0114    0.0255    0.0157    0.0065    0.0013   -0.0021    0.0315
          37    0.0422    0.0047    0.0254    0.0209   -0.0187    0.0168    0.0036   -0.0350
          38   -0.0099   -0.0091    0.0003   -0.0080    0.0205    0.0111   -0.0759   -0.0334
          39   -0.0686   -0.0177   -0.0572   -0.0141    0.0221   -0.0239   -0.0794   -0.0212
          40   -0.0050   -0.0171   -0.0363    0.0204    0.0275   -0.0401   -0.0654   -0.0405
          41    0.0496    0.0009    0.0322    0.0085    0.0396    0.0019    0.0356   -0.0112
          42   -0.0700   -0.0179   -0.0583   -0.0153    0.0226   -0.0240   -0.0833   -0.0220
          43   -0.0332    0.1561   -0.0220   -0.0619    0.1064   -0.0215    0.0286   -0.0187
          44   -0.0609   -0.1438    0.0262    0.1025    0.0008   -0.0318    0.0738    0.0125
          45    0.0203   -0.0050   -0.0097   -0.0038    0.0274   -0.0274    0.0317   -0.0006
          46   -0.0170    0.0283    0.0014   -0.0302    0.0503   -0.0241    0.0168   -0.0003
          47   -0.0190    0.1980   -0.0947    0.0275   -0.0218   -0.0357    0.0501    0.0259
          48    0.0565   -0.1277   -0.0016    0.0287   -0.0688   -0.0338    0.0068    0.0332
          49   -0.0224   -0.1965    0.0934   -0.0109    0.0788   -0.0104    0.0016   -0.0211
          50   -0.0239   -0.0240   -0.0029    0.0454    0.0068   -0.0198    0.0324    0.0042
          51    0.0809    0.0940   -0.0265   -0.0808    0.0300   -0.0069   -0.0402   -0.0141
          52   -0.0344   -0.0389   -0.0447   -0.0678    0.0119    0.1535    0.0237    0.0830
          53   -0.0035   -0.0009   -0.0032   -0.0066   -0.0063   -0.0010   -0.0048   -0.0093
          54    0.0389    0.0205    0.0407   -0.0040   -0.0269   -0.0560   -0.0079   -0.0159
          55    0.0399    0.0029   -0.0492    0.0664    0.0450    0.1485    0.0518   -0.0673
          56   -0.0029    0.0002   -0.0013   -0.0044   -0.0127    0.0144   -0.0073    0.0045
          57   -0.0468    0.0106    0.0294    0.0180   -0.0300   -0.0572   -0.0291    0.0164
          58   -0.0528    0.0151    0.0614   -0.0671   -0.0679    0.0028    0.0745   -0.1024
          59   -0.0207    0.0043   -0.0060    0.0267   -0.0051    0.0063   -0.0037   -0.0088
          60    0.0362   -0.0040   -0.0188    0.0242    0.0116    0.0307   -0.0510    0.0372
          61    0.0063    0.0480    0.0677    0.0765    0.0408    0.0159   -0.0721    0.1092
          62   -0.0201    0.0044   -0.0065    0.0275   -0.0012   -0.0031   -0.0043   -0.0150
          63   -0.0164   -0.0168   -0.0270   -0.0159   -0.0269    0.0053    0.0495   -0.0276


   Root No.       9        10        11        12        13        14        15        16

                 9 A      10 A      11 A      12 A      13 A      14 A      15 A      16 A   

                 555.6     589.4     733.9     761.6     827.7     867.8     902.1     926.6
  
           1   -0.0015   -0.0143   -0.0270    0.0056   -0.0142   -0.0073    0.0160    0.0063
           2    0.0249   -0.0172   -0.0273   -0.0099   -0.0032   -0.0014   -0.0162    0.0107
           3   -0.0223    0.0303    0.0216    0.0034    0.0080    0.0033   -0.0030   -0.0130
           4    0.0100   -0.0153   -0.0167   -0.0088    0.0082    0.0122   -0.0202   -0.0222
           5    0.0103    0.0013    0.0294    0.0073    0.0019    0.0082    0.0254   -0.0205
           6   -0.0022   -0.0470    0.0250    0.0021   -0.0070   -0.0167    0.0291   -0.0136
           7   -0.0111    0.0081    0.0281    0.0098   -0.0004   -0.0033   -0.0020    0.0064
           8   -0.0003   -0.0170    0.0321    0.0082   -0.0007   -0.0199   -0.0225   -0.0049
           9   -0.0406   -0.0193   -0.0246   -0.0145    0.0041    0.0295    0.0164    0.0120
          10   -0.0112   -0.0015    0.0261    0.0175    0.0156    0.0178    0.0026   -0.0040
          11    0.0259   -0.0188   -0.0210   -0.0078    0.0006    0.0088    0.0175   -0.0269
          12    0.0065   -0.0062   -0.0009   -0.0036    0.0039    0.0341   -0.0041   -0.0092
          13   -0.0064    0.0114   -0.0169    0.0028   -0.0094   -0.0093    0.0194    0.0190
          14   -0.0060    0.0072   -0.0162   -0.0015   -0.0048   -0.0025   -0.0129    0.0226
          15   -0.0044    0.0065   -0.0164    0.0020   -0.0054   -0.0062    0.0034    0.0106
          16   -0.0294    0.0129    0.0085   -0.0230   -0.0285   -0.0020   -0.0068    0.0002
          17   -0.0518   -0.0482    0.0247   -0.0027    0.0076    0.0008   -0.0134    0.0325
          18   -0.0094    0.0103    0.0014    0.0104    0.0090   -0.0195   -0.0096    0.0051
          19    0.0299   -0.0246    0.0065   -0.0279    0.0241   -0.0098   -0.0032   -0.0038
          20    0.0260    0.0660    0.0118    0.0133    0.0088    0.0245    0.0183    0.0362
          21    0.0147   -0.0188   -0.0027    0.0070   -0.0081    0.0034   -0.0150   -0.0027
          22    0.0156    0.0214    0.0049   -0.0121   -0.0327   -0.0103   -0.0019   -0.0066
          23   -0.0175    0.0104   -0.0138   -0.0041   -0.0076   -0.0127   -0.0002   -0.0179
          24   -0.0070    0.0487   -0.0196    0.0042   -0.0007   -0.0304   -0.0054   -0.0235
          25    0.0119    0.0087    0.0032   -0.0175    0.0291    0.0008    0.0033    0.0145
          26   -0.0129    0.0179   -0.0153   -0.0017   -0.0071   -0.0119   -0.0009   -0.0154
          27    0.0536   -0.0007    0.0146    0.0097    0.0012    0.0237   -0.0096    0.0205
          28   -0.0034    0.0083   -0.0539    0.0061   -0.0177    0.0247    0.0058   -0.0239
          29    0.0284   -0.0258   -0.0340   -0.0135    0.0037   -0.0294   -0.0218    0.0108
          30   -0.0212    0.0352    0.0044    0.0024    0.0081    0.0041   -0.0095   -0.0240
          31   -0.0185    0.0076    0.0408    0.0372    0.0224   -0.0271    0.0641    0.0271
          32    0.0129    0.0171    0.0228    0.0113    0.0076   -0.0000   -0.0911   -0.0299
          33   -0.0370   -0.0027   -0.0218    0.0012    0.0191    0.0244    0.0150    0.0121
          34    0.0123   -0.0464   -0.0440    0.0010   -0.0120    0.0412    0.0022   -0.0809
          35   -0.0155   -0.0299    0.0224   -0.0071    0.0072    0.0402    0.0528   -0.0817
          36    0.0114   -0.0471    0.0149    0.0133   -0.0188   -0.0176    0.0243   -0.0144
          37   -0.0639    0.0015   -0.0097   -0.0163    0.0234    0.1594    0.0273   -0.0062
          38    0.0691   -0.0604   -0.0440   -0.0034    0.0039   -0.0267    0.0694    0.0078
          39    0.0566   -0.0297    0.0068    0.0172    0.0018   -0.0588    0.0127    0.0104
          40    0.0451    0.0023    0.0692    0.0541    0.0319   -0.0719    0.0091   -0.0406
          41   -0.0074    0.0243   -0.0025   -0.0162    0.0198    0.0885   -0.0163   -0.1072
          42    0.0576   -0.0293    0.0124    0.0216    0.0029   -0.0621    0.0177    0.0149
          43   -0.0217    0.0493    0.0128    0.0012    0.0172    0.0121   -0.0349   -0.0340
          44   -0.0364    0.0396    0.0196    0.0096    0.0070   -0.0098    0.0191   -0.0392
          45   -0.0226    0.0346    0.0103    0.0059    0.0102   -0.0005   -0.0057   -0.0357
          46   -0.0089    0.0127   -0.0164    0.0048   -0.0112   -0.0126    0.0302    0.0174
          47   -0.0206    0.0075   -0.0140    0.0126   -0.0217   -0.0315    0.0781    0.0174
          48    0.0022   -0.0326   -0.0513    0.0122   -0.0454   -0.0452    0.1107    0.0713
          49    0.0055    0.0157   -0.0232   -0.0101    0.0055    0.0158   -0.0695    0.0317
          50   -0.0047    0.0082   -0.0171   -0.0033   -0.0028    0.0004   -0.0251    0.0243
          51    0.0347   -0.0240   -0.0619   -0.0164   -0.0119    0.0106   -0.0747    0.0928
          52   -0.0776   -0.0189   -0.0745    0.0912    0.1796   -0.0608   -0.0078    0.0274
          53   -0.0524   -0.0483    0.0222   -0.0001    0.0127   -0.0003   -0.0132    0.0329
          54    0.0218    0.0019    0.0900   -0.0347   -0.0861   -0.0183   -0.0603    0.0257
          55    0.0401   -0.0819   -0.0033    0.1272   -0.1734    0.0226   -0.0325    0.0132
          56    0.0256    0.0657    0.0117    0.0121    0.0103    0.0246    0.0185    0.0362
          57   -0.0059    0.0122   -0.0411   -0.0833    0.0784   -0.0459   -0.0603   -0.0135
          58    0.0346   -0.0190   -0.0506    0.1697    0.0972   -0.0405   -0.0214   -0.0320
          59    0.0304    0.0229   -0.0246   -0.0014    0.0029    0.0199    0.0141   -0.0329
          60   -0.0446    0.0616    0.0158   -0.0913   -0.0740   -0.0353   -0.0049   -0.0020
          61   -0.0370   -0.0110   -0.0469    0.1722   -0.0647    0.0694   -0.0604   -0.0165
          62   -0.0122   -0.0400   -0.0164   -0.0109    0.0010   -0.0032   -0.0261   -0.0324
          63    0.0796   -0.0244    0.0403   -0.0967    0.0558   -0.0080    0.0081    0.0277


   Root No.      17        18        19        20        21        22        23        24

                17 A      18 A      19 A      20 A      21 A      22 A      23 A      24 A   

                 943.9     946.8     971.0     998.3    1001.3    1045.8    1047.8    1064.2
  
           1    0.0161   -0.0018    0.0009   -0.0023   -0.0063    0.0084   -0.0080    0.0043
           2   -0.0061    0.0105   -0.0018   -0.0003   -0.0017   -0.0005   -0.0020   -0.0173
           3    0.0036   -0.0019    0.0004   -0.0060    0.0010   -0.0002    0.0048   -0.0007
           4   -0.0199   -0.0001   -0.0003   -0.0063   -0.0043   -0.0173   -0.0010   -0.0122
           5   -0.0198    0.0246   -0.0013   -0.0013    0.0026    0.0100   -0.0024   -0.0057
           6   -0.0060    0.0277   -0.0010    0.0040    0.0053   -0.0041   -0.0201    0.0096
           7   -0.0037    0.0139   -0.0059   -0.0020   -0.0094    0.0217   -0.0083   -0.0205
           8    0.0205   -0.0045    0.0077    0.0131    0.0137    0.0121   -0.0053    0.0026
           9   -0.0132   -0.0079   -0.0029   -0.0024    0.0026   -0.0035    0.0206    0.0092
          10    0.0044    0.0012    0.0145    0.0172    0.0251   -0.0166    0.0029    0.0124
          11    0.0234   -0.0250   -0.0029   -0.0115   -0.0147    0.0073   -0.0042    0.0083
          12    0.0231    0.0164    0.0045    0.0011   -0.0019    0.0043   -0.0131   -0.0107
          13    0.0148    0.0018   -0.0036    0.0018    0.0101   -0.0075    0.0105   -0.0033
          14   -0.0130    0.0237    0.0038   -0.0006    0.0030    0.0015    0.0024    0.0124
          15   -0.0161   -0.0108   -0.0003    0.0111    0.0014    0.0007   -0.0037    0.0037
          16   -0.0000   -0.0020   -0.0316    0.0133   -0.0128   -0.0009    0.0163    0.0096
          17    0.0013   -0.0166   -0.0122   -0.0137   -0.0213   -0.0154   -0.0016   -0.0161
          18    0.0047   -0.0051    0.0124   -0.0119   -0.0020   -0.0040   -0.0106   -0.0054
          19    0.0027    0.0014   -0.0303   -0.0129    0.0161    0.0015   -0.0111    0.0074
          20   -0.0026   -0.0059   -0.0012   -0.0016   -0.0079   -0.0166   -0.0096    0.0205
          21    0.0039   -0.0077    0.0157    0.0063   -0.0066    0.0066    0.0111   -0.0056
          22   -0.0043   -0.0050    0.0232   -0.0243    0.0178   -0.0010   -0.0137   -0.0117
          23   -0.0032    0.0081   -0.0006   -0.0010    0.0020    0.0001    0.0014   -0.0236
          24    0.0036    0.0134   -0.0132    0.0130   -0.0102   -0.0035    0.0012   -0.0141
          25    0.0039   -0.0014    0.0210    0.0199   -0.0239    0.0005    0.0156   -0.0115
          26    0.0031    0.0047    0.0059    0.0059    0.0071    0.0037   -0.0046    0.0235
          27   -0.0009   -0.0155   -0.0177   -0.0174    0.0069    0.0018    0.0055   -0.0156
          28    0.0092   -0.0376    0.0069   -0.0349   -0.0835    0.1111   -0.0357    0.0286
          29   -0.0460   -0.0493   -0.0115    0.0445    0.0409   -0.0970    0.0192   -0.0701
          30   -0.0184   -0.0446   -0.0013    0.0004   -0.0150    0.0046    0.0011   -0.0128
          31   -0.0439    0.0095   -0.0020   -0.0785   -0.0407    0.1486    0.0373    0.0297
          32    0.0426   -0.0209    0.0453    0.0693    0.0981    0.0139    0.0725   -0.0095
          33   -0.0216   -0.0186    0.0171   -0.0148    0.0265    0.0615    0.0814    0.0293
          34   -0.0838    0.0073    0.0329    0.0040   -0.0473   -0.1063   -0.0237    0.0778
          35   -0.0781    0.0303    0.0052   -0.0034    0.0338    0.0166    0.1147    0.0224
          36   -0.0090    0.0282    0.0129    0.0109   -0.0295   -0.0510   -0.0871    0.0410
          37    0.0277    0.0060    0.0135    0.1070    0.0684    0.0223   -0.0838   -0.0037
          38   -0.0635   -0.1070   -0.0230    0.0691    0.0363    0.0273   -0.0366    0.0234
          39   -0.0356   -0.0291   -0.0055   -0.0039    0.0025   -0.0037    0.0155    0.0062
          40   -0.0202   -0.0168    0.0284   -0.0752   -0.0061   -0.0955    0.1096    0.0661
          41    0.1112    0.0263    0.0250   -0.0989   -0.0636   -0.0657    0.0460    0.0210
          42   -0.0407   -0.0240   -0.0032   -0.0022    0.0082   -0.0008    0.0197    0.0120
          43   -0.0645   -0.0632    0.0047    0.0231   -0.0254    0.0221   -0.0301    0.0072
          44   -0.0337   -0.0931   -0.0082    0.0304   -0.0099    0.0003   -0.0180   -0.0182
          45   -0.0573   -0.0838   -0.0016    0.0326   -0.0180    0.0118   -0.0287   -0.0033
          46    0.0209   -0.0078   -0.0062    0.0040    0.0119   -0.0098    0.0120   -0.0077
          47    0.0464   -0.0328   -0.0170    0.0108    0.0239   -0.0249    0.0215   -0.0250
          48    0.0916    0.0293   -0.0185   -0.0007    0.0496   -0.0456    0.0473   -0.0155
          49   -0.0541    0.0501    0.0166   -0.0018   -0.0093    0.0187   -0.0091    0.0372
          50   -0.0238    0.0291    0.0065   -0.0004    0.0004    0.0047   -0.0003    0.0176
          51   -0.0401    0.1353    0.0220   -0.0153    0.0108    0.0107    0.0095    0.0599
          52    0.0139   -0.0268    0.1521   -0.0594    0.0416    0.0114   -0.0531    0.0253
          53    0.0013   -0.0171   -0.0080   -0.0158   -0.0200   -0.0150   -0.0021   -0.0194
          54    0.0433   -0.0310   -0.0631    0.0411   -0.0188   -0.0006   -0.0051    0.1231
          55    0.0151   -0.0312    0.1535    0.0576   -0.0635    0.0083    0.0315    0.0286
          56   -0.0026   -0.0059   -0.0023   -0.0019   -0.0070   -0.0160   -0.0095    0.0232
          57    0.0486   -0.0361   -0.0563   -0.0089    0.0451    0.0286   -0.0070    0.1151
          58    0.0280    0.0523   -0.1300    0.0932   -0.0837   -0.0153    0.0135    0.0116
          59   -0.0093    0.0166    0.0078    0.0156    0.0395    0.0536    0.0544   -0.0762
          60   -0.0089   -0.0214    0.0607   -0.0576    0.0201   -0.0274   -0.0439    0.0033
          61   -0.0161   -0.0361   -0.1264   -0.0920    0.0890    0.0180   -0.0076    0.0026
          62    0.0110   -0.0087    0.0111    0.0107    0.0322    0.0746    0.0471    0.0553
          63    0.0149   -0.0060    0.0634    0.0445   -0.0389    0.0341    0.0489   -0.0058


   Root No.      25        26        27        28        29        30        31        32

                25 A      26 A      27 A      28 A      29 A      30 A      31 A      32 A   

                1080.3    1115.7    1138.2    1139.1    1144.2    1156.3    1178.6    1187.8
  
           1   -0.0103   -0.0199    0.0309    0.0092    0.0095   -0.0084   -0.0130   -0.0306
           2    0.0214   -0.0049    0.0095   -0.0022    0.0004   -0.0141    0.0215    0.0185
           3    0.0003    0.0077   -0.0015   -0.0154    0.0035    0.0411   -0.0100   -0.0024
           4    0.0195    0.0079   -0.0091   -0.0207   -0.0079    0.0264    0.0146   -0.0418
           5    0.0087    0.0104    0.0088   -0.0188    0.0004   -0.0022    0.0189   -0.0084
           6   -0.0023   -0.0157    0.0149   -0.0069    0.0038   -0.0036    0.0101   -0.0038
           7    0.0239    0.0068   -0.0080   -0.0060    0.0002   -0.0083    0.0185    0.0225
           8   -0.0080   -0.0110   -0.0062    0.0171    0.0104    0.0026   -0.0198   -0.0046
           9    0.0001   -0.0174    0.0159   -0.0071   -0.0024   -0.0034    0.0129   -0.0083
          10   -0.0214   -0.0058    0.0175    0.0095    0.0057   -0.0086   -0.0092   -0.0028
          11   -0.0128    0.0000   -0.0102    0.0014    0.0005    0.0060   -0.0134   -0.0180
          12    0.0185   -0.0037   -0.0001    0.0137    0.0043   -0.0065   -0.0086    0.0010
          13    0.0048    0.0095   -0.0115   -0.0008   -0.0034    0.0012    0.0027    0.0133
          14   -0.0136    0.0027   -0.0024    0.0005   -0.0003    0.0043   -0.0059   -0.0024
          15   -0.0029   -0.0001   -0.0163    0.0117   -0.0063   -0.0316    0.0079   -0.0120
          16   -0.0013   -0.0058   -0.0013   -0.0021   -0.0044    0.0022   -0.0023   -0.0021
          17   -0.0114    0.0091   -0.0106   -0.0003    0.0024    0.0008   -0.0008    0.0071
          18    0.0002    0.0115    0.0014    0.0026   -0.0069   -0.0032    0.0020    0.0071
          19   -0.0018   -0.0043   -0.0037    0.0014    0.0015   -0.0066   -0.0022    0.0100
          20    0.0097   -0.0086    0.0066   -0.0041    0.0054   -0.0011    0.0010   -0.0030
          21    0.0008    0.0109   -0.0007   -0.0050    0.0061    0.0031   -0.0002   -0.0091
          22   -0.0060    0.0048   -0.0021    0.0033    0.0003   -0.0016   -0.0031    0.0034
          23   -0.0161   -0.0021   -0.0081    0.0060   -0.0026    0.0049   -0.0049    0.0003
          24   -0.0133    0.0052   -0.0040    0.0046   -0.0003    0.0009   -0.0071    0.0009
          25   -0.0054    0.0041   -0.0023    0.0016    0.0002    0.0008   -0.0034   -0.0010
          26    0.0153    0.0027    0.0092   -0.0058   -0.0032    0.0011    0.0030   -0.0085
          27   -0.0115    0.0047   -0.0046    0.0064    0.0010   -0.0039   -0.0066    0.0061
          28   -0.0872   -0.0157    0.1080   -0.0540    0.0148    0.0210    0.0475    0.2091
          29    0.1123   -0.0548    0.1515    0.0395    0.0472    0.0671   -0.0857    0.0333
          30    0.0054   -0.0131    0.0990   -0.0257    0.0274    0.0927   -0.0315    0.1200
          31    0.0867   -0.0651   -0.0875    0.0405    0.0256    0.0558   -0.0963   -0.0461
          32   -0.0027   -0.1119   -0.0753   -0.1279   -0.0013   -0.0337    0.0178    0.0710
          33    0.0356   -0.1048   -0.0573   -0.0541    0.0032    0.0116   -0.0260   -0.0062
          34    0.0375   -0.0217   -0.1284    0.0695   -0.0265    0.0100   -0.0800    0.1768
          35   -0.0075    0.1331    0.0198    0.1122    0.0995   -0.0259   -0.0151    0.0565
          36    0.0148   -0.0901   -0.0496   -0.0270   -0.0517    0.0007   -0.0192    0.0745
          37   -0.0288    0.0581   -0.0380   -0.0151   -0.0071    0.0395   -0.0033    0.0183
          38   -0.0673    0.0675   -0.0612   -0.0717   -0.0233    0.0981    0.0091   -0.0079
          39   -0.0059   -0.0023    0.0028   -0.0118   -0.0008    0.0175   -0.0007   -0.0040
          40   -0.0661   -0.0176    0.0264   -0.0376   -0.0285   -0.0230    0.0563    0.0073
          41   -0.0026   -0.0115   -0.0134   -0.0020   -0.0270   -0.0315    0.0304   -0.0133
          42   -0.0110   -0.0050    0.0072   -0.0111    0.0007    0.0084    0.0026    0.0032
          43   -0.0129   -0.0215   -0.0000    0.0274   -0.0050   -0.0715    0.0126   -0.0199
          44    0.0214   -0.0138   -0.0097    0.0265   -0.0084   -0.0740    0.0230   -0.0093
          45    0.0034   -0.0191   -0.0170    0.0342   -0.0110   -0.0940    0.0236   -0.0279
          46    0.0098    0.0106   -0.0140    0.0007   -0.0048   -0.0046    0.0060    0.0192
          47    0.0327    0.0177   -0.0277    0.0038   -0.0108   -0.0202    0.0176    0.0357
          48    0.0302    0.0412   -0.0576   -0.0054   -0.0174    0.0093    0.0092    0.0656
          49   -0.0452   -0.0057    0.0045    0.0098    0.0009   -0.0110   -0.0131   -0.0137
          50   -0.0199    0.0004    0.0001    0.0027    0.0002    0.0009   -0.0076   -0.0047
          51   -0.0671    0.0149   -0.0144   -0.0018   -0.0023    0.0243   -0.0263   -0.0065
          52    0.0359    0.0314    0.0120    0.0502   -0.0636    0.0406    0.0438    0.0023
          53   -0.0128    0.0083   -0.0124   -0.0004    0.0038    0.0002   -0.0017    0.0083
          54    0.0477    0.0268    0.0342    0.1001   -0.1355    0.0962    0.0783   -0.0211
          55    0.0388    0.0276   -0.0180   -0.0014    0.0897    0.0166    0.0488   -0.0102
          56    0.0116   -0.0075    0.0076   -0.0046    0.0074   -0.0018    0.0022   -0.0032
          57    0.0540    0.0236   -0.0315    0.0206    0.1905   -0.0040    0.0917    0.0319
          58    0.0028    0.0272   -0.0013   -0.0315    0.0183   -0.0162   -0.0294   -0.0070
          59   -0.0517   -0.0913   -0.0132    0.1455   -0.0838    0.0797    0.1020    0.0294
          60    0.0018    0.0474   -0.0017   -0.0578    0.0361   -0.0352   -0.0571   -0.0102
          61    0.0068    0.0244    0.0111   -0.0057   -0.0346   -0.0227   -0.0238    0.0115
          62    0.0676    0.0838    0.0756   -0.0500   -0.1620   -0.0855   -0.0877    0.0318
          63    0.0116    0.0430    0.0262   -0.0154   -0.0717   -0.0429   -0.0499    0.0240


   Root No.      33        34        35        36        37        38        39        40

                33 A      34 A      35 A      36 A      37 A      38 A      39 A      40 A   

                1220.7    1228.3    1252.3    1325.9    1360.2    1399.3    1408.9    1414.7
  
           1    0.0050    0.0204   -0.0327    0.0249   -0.0199    0.0071   -0.0010   -0.0014
           2    0.0051   -0.0173    0.0377    0.0425   -0.0091    0.0074   -0.0030    0.0109
           3   -0.0136    0.0233    0.0130    0.0245   -0.0072    0.0099    0.0009   -0.0042
           4   -0.0065   -0.0104    0.0185   -0.0054    0.0178   -0.0008   -0.0031    0.0181
           5   -0.0154   -0.0147   -0.0090   -0.0343   -0.0295   -0.0015    0.0035   -0.0157
           6    0.0115    0.0082   -0.0038    0.0077    0.0106    0.0002   -0.0089    0.0321
           7    0.0016    0.0450   -0.0259    0.0033    0.0156   -0.0013    0.0074   -0.0241
           8   -0.0161   -0.0266    0.0072    0.0215    0.0319   -0.0020    0.0058   -0.0182
           9   -0.0139    0.0058    0.0107    0.0037    0.0086   -0.0009    0.0076   -0.0280
          10   -0.0101   -0.0015    0.0452   -0.0189   -0.0048   -0.0043   -0.0098    0.0217
          11   -0.0071    0.0422    0.0141   -0.0267   -0.0028    0.0018    0.0063   -0.0148
          12    0.0086   -0.0124   -0.0070   -0.0064   -0.0006   -0.0013   -0.0017    0.0058
          13   -0.0004   -0.0072    0.0071    0.0020   -0.0047   -0.0282   -0.0204   -0.0070
          14   -0.0008    0.0033   -0.0098   -0.0008   -0.0076   -0.0251    0.0226    0.0033
          15    0.0037   -0.0058   -0.0020    0.0075   -0.0126    0.0140   -0.0027    0.0003
          16   -0.0071   -0.0051   -0.0009    0.0029    0.0057   -0.0002   -0.0007    0.0051
          17   -0.0000    0.0019   -0.0085   -0.0046   -0.0103    0.0010   -0.0044    0.0159
          18   -0.0166    0.0065   -0.0103    0.0053    0.0140   -0.0006    0.0001    0.0054
          19    0.0082   -0.0007    0.0018   -0.0004    0.0053   -0.0011    0.0040   -0.0126
          20   -0.0025    0.0110   -0.0012    0.0124    0.0102    0.0009   -0.0048    0.0179
          21    0.0163   -0.0027    0.0086   -0.0016    0.0138   -0.0019    0.0076   -0.0212
          22   -0.0029   -0.0023   -0.0027   -0.0008   -0.0042    0.0004   -0.0018    0.0056
          23    0.0172   -0.0073    0.0052   -0.0124   -0.0296    0.0016   -0.0027    0.0001
          24   -0.0048   -0.0090   -0.0020   -0.0019   -0.0090    0.0009   -0.0038    0.0118
          25    0.0034   -0.0021    0.0016   -0.0022   -0.0048    0.0001    0.0006   -0.0031
          26    0.0151    0.0043    0.0095    0.0071    0.0293   -0.0028    0.0091   -0.0232
          27    0.0068   -0.0016    0.0008   -0.0036   -0.0093    0.0001    0.0014   -0.0071
          28    0.0338   -0.0703    0.0647   -0.0255    0.0311   -0.0128   -0.0129    0.0264
          29    0.0185   -0.0268   -0.1202   -0.0691   -0.0027   -0.0112    0.0108   -0.0143
          30    0.0059   -0.0232   -0.0142   -0.0494    0.0204   -0.0070    0.0017   -0.0034
          31    0.0302   -0.1286    0.0150    0.0003   -0.0071   -0.0008   -0.0113    0.0372
          32    0.0876    0.1094   -0.0462   -0.0191   -0.0303    0.0030   -0.0136    0.0456
          33    0.0515   -0.0154    0.0049   -0.0162   -0.0332    0.0020   -0.0112    0.0337
          34   -0.0274    0.0456    0.0071    0.0365   -0.0220    0.0110    0.0028   -0.0319
          35    0.0895    0.0795   -0.0073    0.0579    0.0276    0.0043   -0.0121    0.0470
          36   -0.0498   -0.0109   -0.0084   -0.0158   -0.0359    0.0030    0.0007   -0.0219
          37    0.0333   -0.1276   -0.0877    0.0622   -0.0400    0.0247    0.0339   -0.0686
          38    0.0114   -0.0199   -0.1160    0.0593    0.0436   -0.0092   -0.0319    0.0755
          39   -0.0043    0.0189   -0.0064   -0.0031    0.0355   -0.0188   -0.0374    0.0848
          40    0.0076   -0.1142   -0.0708    0.0615   -0.0251    0.0196    0.0414   -0.0984
          41    0.0375   -0.0736   -0.1414    0.0200    0.0539   -0.0231   -0.0324    0.0709
          42   -0.0062   -0.0107    0.0140    0.0125   -0.0374    0.0230    0.0421   -0.0943
          43    0.0144   -0.0170   -0.0216   -0.0566    0.0383   -0.0723    0.2224    0.0587
          44    0.0150   -0.0312   -0.0080   -0.0535    0.0489   -0.1008   -0.2050   -0.0560
          45    0.0163   -0.0249   -0.0147   -0.0463    0.0352   -0.0630    0.0086    0.0035
          46    0.0015   -0.0143    0.0081   -0.0142    0.0102    0.0397   -0.0220   -0.0051
          47    0.0061   -0.0370    0.0123   -0.0657    0.0584    0.3111   -0.0832   -0.0126
          48   -0.0008   -0.0394    0.0164   -0.0950    0.0710   -0.0880    0.1825    0.0436
          49    0.0057   -0.0006   -0.0389   -0.0741    0.0496    0.3217    0.0565    0.0213
          50    0.0010    0.0018   -0.0178   -0.0197    0.0075    0.0410    0.0167    0.0032
          51    0.0002    0.0019   -0.0552   -0.1070    0.0726   -0.1073   -0.1574   -0.0529
          52    0.0601    0.0230    0.0012   -0.0241   -0.0376    0.0015   -0.0020   -0.0005
          53   -0.0011    0.0019   -0.0097   -0.0044   -0.0107    0.0011   -0.0049    0.0175
          54    0.1168    0.0096    0.0233   -0.0454   -0.0787    0.0038   -0.0056    0.0038
          55   -0.0583   -0.0145   -0.0209   -0.0226   -0.0366    0.0023   -0.0072    0.0185
          56   -0.0038    0.0116   -0.0020    0.0127    0.0106    0.0010   -0.0053    0.0196
          57   -0.1071   -0.0225   -0.0540   -0.0387   -0.0756    0.0039   -0.0147    0.0348
          58    0.0272   -0.0098    0.0097   -0.0070   -0.0170    0.0008   -0.0009   -0.0020
          59   -0.1036    0.0217   -0.0473    0.0110    0.0207    0.0002   -0.0068    0.0321
          60    0.0504   -0.0233    0.0220   -0.0135   -0.0353    0.0018   -0.0029   -0.0004
          61   -0.0246   -0.0017   -0.0094   -0.0015   -0.0166    0.0017   -0.0055    0.0149
          62   -0.1040    0.0013   -0.0353    0.0137   -0.0198    0.0043   -0.0177    0.0548
          63   -0.0479   -0.0045   -0.0198   -0.0015   -0.0353    0.0036   -0.0112    0.0286


   Root No.      41        42        43        44        45        46        47        48

                41 A      42 A      43 A      44 A      45 A      46 A      47 A      48 A   

                1419.8    1433.0    1486.6    1850.0    1863.1    2939.0    2949.7    2954.3
  
           1    0.0082   -0.0273    0.0311    0.0000    0.0016   -0.0033   -0.0047    0.0181
           2    0.0123   -0.0294    0.0259   -0.0013    0.0004   -0.0041   -0.0050    0.0175
           3    0.0092   -0.0333    0.0223    0.0004   -0.0001    0.0087    0.0093   -0.0385
           4    0.0162    0.0123   -0.0364    0.0099    0.0119    0.0157    0.0072    0.0066
           5   -0.0187   -0.0004    0.0431   -0.0051   -0.0063   -0.0163   -0.0067   -0.0057
           6    0.0224    0.0097   -0.0358    0.0175    0.0227   -0.0332   -0.0151   -0.0127
           7   -0.0154   -0.0107   -0.0353    0.0096   -0.0123   -0.0083    0.0168    0.0020
           8   -0.0158   -0.0123   -0.0442    0.0049   -0.0065   -0.0088    0.0161    0.0016
           9   -0.0244   -0.0238   -0.0322    0.0169   -0.0233    0.0172   -0.0333   -0.0050
          10   -0.0169   -0.0019    0.0211   -0.0003   -0.0012   -0.0006    0.0004    0.0001
          11    0.0198    0.0179   -0.0176    0.0014    0.0001    0.0001    0.0001    0.0007
          12    0.0019    0.0079    0.0010    0.0002    0.0006   -0.0018    0.0021    0.0039
          13   -0.0101    0.0230   -0.0113   -0.0003   -0.0005    0.0004    0.0004   -0.0014
          14   -0.0129    0.0232   -0.0120   -0.0000   -0.0001    0.0004    0.0004   -0.0014
          15   -0.0240    0.0423   -0.0184   -0.0002   -0.0003   -0.0003   -0.0003    0.0012
          16    0.0072    0.0122    0.0206   -0.0609    0.0612    0.0001   -0.0000   -0.0000
          17    0.0147    0.0128    0.0224    0.0572   -0.0496    0.0007   -0.0014   -0.0002
          18    0.0124    0.0235    0.0362   -0.1151    0.1154    0.0001   -0.0001    0.0000
          19   -0.0070    0.0054    0.0209   -0.0625   -0.0593   -0.0001   -0.0001    0.0004
          20    0.0145    0.0026   -0.0229   -0.0591   -0.0483    0.0013    0.0006    0.0005
          21   -0.0097    0.0112    0.0368   -0.1190   -0.1124   -0.0002   -0.0000    0.0001
          22    0.0036    0.0005   -0.0009    0.0490   -0.0516   -0.0001    0.0002    0.0000
          23   -0.0113   -0.0297   -0.0456   -0.1202    0.0702   -0.0000   -0.0001   -0.0000
          24    0.0073    0.0007   -0.0018    0.0905   -0.0965   -0.0000    0.0001    0.0000
          25   -0.0037   -0.0044   -0.0013    0.0492    0.0496    0.0002    0.0000    0.0001
          26   -0.0078    0.0192    0.0460    0.1228    0.0672    0.0001    0.0001   -0.0000
          27   -0.0079   -0.0085   -0.0011    0.0942    0.0943    0.0001    0.0001   -0.0000
          28    0.0001    0.0422   -0.0430    0.0022    0.0041    0.0483    0.0533   -0.2207
          29   -0.0130    0.0444   -0.0161   -0.0020   -0.0010    0.0488    0.0528   -0.2130
          30   -0.0067    0.0319   -0.0326    0.0026    0.0009   -0.1075   -0.1153    0.4656
          31    0.0159    0.0176    0.0230    0.0052   -0.0012    0.1054   -0.2034   -0.0292
          32    0.0406    0.0260    0.0146    0.0162   -0.0005    0.0983   -0.1973   -0.0296
          33    0.0190    0.0078    0.0253    0.0175   -0.0129   -0.2080    0.4019    0.0583
          34   -0.0165   -0.0324    0.0353    0.0060    0.0017   -0.1972   -0.0886   -0.0772
          35    0.0440    0.0122   -0.0154   -0.0164    0.0000    0.1915    0.0903    0.0734
          36   -0.0241   -0.0182    0.0263    0.0186    0.0131    0.4009    0.1812    0.1508
          37    0.1054    0.0266   -0.0115   -0.0027    0.0049    0.0033   -0.0055   -0.0123
          38   -0.0913   -0.0573    0.0380   -0.0011    0.0017   -0.0045    0.0095    0.0103
          39   -0.1040   -0.0407    0.0404    0.0010   -0.0029    0.0093   -0.0166   -0.0247
          40    0.0734    0.0067   -0.0442    0.0017   -0.0036   -0.0055    0.0038    0.0133
          41   -0.1018   -0.0251    0.0085    0.0022   -0.0014    0.0057   -0.0069   -0.0097
          42    0.1046    0.0306   -0.0445    0.0023   -0.0006    0.0119   -0.0107   -0.0236
          43    0.0411   -0.0830    0.0272   -0.0004   -0.0001   -0.0016   -0.0020    0.0090
          44    0.0724   -0.0760    0.0269   -0.0003    0.0001   -0.0024   -0.0024    0.0085
          45    0.0425   -0.0581    0.0189   -0.0002    0.0002    0.0045    0.0043   -0.0143
          46   -0.0034    0.0072   -0.0052   -0.0004   -0.0007   -0.0006   -0.0018    0.0119
          47    0.0136   -0.0314    0.0087    0.0000   -0.0002    0.0005    0.0007   -0.0036
          48    0.0538   -0.0953    0.0209   -0.0005   -0.0009    0.0005    0.0005   -0.0019
          49    0.0028   -0.0318    0.0085    0.0005    0.0004    0.0012    0.0011   -0.0033
          50   -0.0045    0.0060   -0.0057    0.0001    0.0001   -0.0027   -0.0030    0.0106
          51    0.0777   -0.0886    0.0211    0.0004    0.0002    0.0005    0.0006   -0.0022
          52   -0.0084   -0.0204   -0.0200    0.0073   -0.0184    0.0005   -0.0005   -0.0000
          53    0.0160    0.0135    0.0228    0.0786   -0.0713   -0.0054    0.0171    0.0033
          54   -0.0136   -0.0405   -0.0340    0.0191   -0.0372    0.0013   -0.0020   -0.0002
          55    0.0051   -0.0124   -0.0198    0.0092    0.0193   -0.0006   -0.0000    0.0002
          56    0.0158    0.0034   -0.0236   -0.0810   -0.0692   -0.0135   -0.0097   -0.0063
          57    0.0068   -0.0260   -0.0352    0.0197    0.0362   -0.0023   -0.0008   -0.0007
          58   -0.0080   -0.0179   -0.0256    0.0222   -0.0210   -0.0005    0.0014    0.0002
          59    0.0370    0.0436    0.0468    0.0278   -0.0913   -0.0003    0.0008    0.0001
          60   -0.0139   -0.0338   -0.0450    0.0458   -0.0444   -0.0007    0.0017    0.0002
          61    0.0058   -0.0108   -0.0250    0.0235    0.0219    0.0013    0.0007    0.0005
          62    0.0339   -0.0056   -0.0483   -0.0308   -0.0905   -0.0008   -0.0004   -0.0003
          63    0.0102   -0.0222   -0.0456    0.0470    0.0426    0.0016    0.0009    0.0007


   Root No.      49        50        51        52        53        54        55        56

                49 A      50 A      51 A      52 A      53 A      54 A      55 A      56 A   

                3038.1    3048.4    3051.9    3065.8    3074.4    3076.8    3084.3    3101.9
  
           1    0.0011   -0.0000    0.0000    0.0000   -0.0000    0.0009    0.0002    0.0005
           2    0.0012   -0.0000    0.0000   -0.0000    0.0000    0.0009   -0.0002   -0.0006
           3   -0.0027    0.0000    0.0000    0.0000    0.0000   -0.0018    0.0001   -0.0003
           4    0.0003    0.0002   -0.0002    0.0002   -0.0001   -0.0001   -0.0002   -0.0009
           5   -0.0002   -0.0001    0.0004   -0.0002    0.0005   -0.0000   -0.0002    0.0009
           6   -0.0006   -0.0002    0.0006   -0.0006    0.0008   -0.0001   -0.0003    0.0002
           7    0.0011   -0.0002   -0.0003   -0.0002   -0.0001   -0.0000   -0.0000    0.0007
           8    0.0011   -0.0001   -0.0005   -0.0002   -0.0005   -0.0000    0.0000   -0.0004
           9   -0.0026    0.0001    0.0006    0.0006    0.0009   -0.0000    0.0000    0.0001
          10   -0.0006    0.0000    0.0000   -0.0000   -0.0001   -0.0005    0.0001    0.0296
          11    0.0008   -0.0000   -0.0000   -0.0000    0.0000    0.0003    0.0003   -0.0296
          12   -0.0549    0.0000    0.0003    0.0001    0.0001   -0.0005    0.0008   -0.0023
          13    0.0000    0.0000   -0.0000    0.0000    0.0001    0.0289    0.0393    0.0007
          14   -0.0005   -0.0000    0.0000   -0.0000    0.0001    0.0264   -0.0411    0.0005
          15    0.0004   -0.0000   -0.0000    0.0000   -0.0001   -0.0311    0.0015   -0.0005
          16    0.0004    0.0002    0.0004    0.0015    0.0015    0.0000   -0.0000    0.0001
          17   -0.0005   -0.0161   -0.0222   -0.0225   -0.0180    0.0001    0.0000   -0.0001
          18    0.0002   -0.0004   -0.0001    0.0019    0.0021   -0.0000   -0.0000    0.0000
          19    0.0000    0.0000    0.0002   -0.0012    0.0012    0.0000   -0.0000    0.0000
          20    0.0002   -0.0179    0.0214   -0.0224    0.0174   -0.0001    0.0000    0.0001
          21    0.0000    0.0003    0.0001   -0.0021    0.0022    0.0000    0.0000    0.0001
          22    0.0000    0.0086    0.0067   -0.0079   -0.0102    0.0000    0.0000   -0.0000
          23    0.0001    0.0096    0.0082   -0.0058   -0.0092    0.0000    0.0000   -0.0000
          24    0.0000    0.0167    0.0130   -0.0151   -0.0196    0.0001    0.0000   -0.0001
          25    0.0000   -0.0092    0.0061    0.0084   -0.0103    0.0001    0.0000   -0.0000
          26   -0.0000    0.0100   -0.0074   -0.0061    0.0091   -0.0000   -0.0000    0.0000
          27    0.0000   -0.0173    0.0114    0.0158   -0.0193    0.0001    0.0000   -0.0001
          28   -0.0141    0.0000    0.0001   -0.0000    0.0000   -0.0077    0.0013   -0.0012
          29   -0.0178   -0.0001    0.0002   -0.0001    0.0001   -0.0075   -0.0006   -0.0024
          30    0.0295   -0.0000   -0.0003    0.0001   -0.0000    0.0233   -0.0009    0.0036
          31   -0.0183    0.0014    0.0034    0.0027    0.0031   -0.0002    0.0001    0.0011
          32   -0.0137    0.0009    0.0025    0.0020    0.0025   -0.0002    0.0000    0.0004
          33    0.0277   -0.0041   -0.0083   -0.0069   -0.0074    0.0002   -0.0001   -0.0016
          34   -0.0027   -0.0015    0.0029   -0.0025    0.0028   -0.0009   -0.0012    0.0012
          35    0.0027    0.0010   -0.0022    0.0019   -0.0023    0.0001    0.0005   -0.0012
          36    0.0051    0.0046   -0.0077    0.0067   -0.0070   -0.0008    0.0014   -0.0027
          37    0.1829   -0.0003   -0.0011   -0.0003   -0.0001    0.0043   -0.0014   -0.1637
          38   -0.1850    0.0002    0.0010    0.0003    0.0000   -0.0049    0.0022    0.1658
          39    0.3528   -0.0004   -0.0019   -0.0005    0.0001    0.0081   -0.0029   -0.3697
          40   -0.1762    0.0002    0.0012    0.0003    0.0009    0.0017    0.0024   -0.1953
          41    0.1744   -0.0003   -0.0013   -0.0004   -0.0010   -0.0015   -0.0021    0.1930
          42    0.3070   -0.0004   -0.0022   -0.0005   -0.0018   -0.0036   -0.0043    0.3971
          43    0.0020   -0.0000    0.0000    0.0000   -0.0005   -0.1724    0.0263   -0.0025
          44    0.0023   -0.0000    0.0000    0.0000   -0.0005   -0.1688   -0.0148   -0.0031
          45   -0.0035    0.0000   -0.0000   -0.0001    0.0012    0.3975   -0.0131    0.0060
          46   -0.0000   -0.0001   -0.0000   -0.0000   -0.0008   -0.2224   -0.4364   -0.0075
          47   -0.0001    0.0000    0.0000   -0.0000    0.0002    0.0538    0.0564    0.0012
          48    0.0000    0.0000   -0.0000   -0.0000   -0.0000   -0.0136    0.0060   -0.0003
          49   -0.0014   -0.0000    0.0000   -0.0000    0.0001    0.0507   -0.0595    0.0013
          50    0.0087    0.0002   -0.0003    0.0003   -0.0005   -0.1995    0.4502   -0.0050
          51    0.0001   -0.0000   -0.0000    0.0000   -0.0000   -0.0108   -0.0113   -0.0001
          52    0.0001   -0.0024   -0.0038   -0.0047   -0.0038   -0.0000    0.0000    0.0003
          53    0.0059    0.1920    0.2635    0.2509    0.1923   -0.0008   -0.0003    0.0012
          54   -0.0000    0.0044    0.0052    0.0030    0.0020    0.0000   -0.0000    0.0001
          55    0.0000   -0.0004    0.0000    0.0010   -0.0010    0.0000   -0.0001   -0.0000
          56   -0.0029    0.2124   -0.2541    0.2500   -0.1851    0.0011   -0.0004   -0.0010
          57    0.0000   -0.0036    0.0035   -0.0015    0.0008    0.0000   -0.0000    0.0001
          58   -0.0004   -0.1009   -0.0815    0.0798    0.1054   -0.0005   -0.0001    0.0005
          59   -0.0004   -0.1134   -0.0950    0.0871    0.1196   -0.0005   -0.0001    0.0005
          60   -0.0006   -0.1954   -0.1580    0.1545    0.2040   -0.0009   -0.0002    0.0008
          61   -0.0003    0.1082   -0.0742   -0.0857    0.1068   -0.0005   -0.0001    0.0004
          62    0.0004   -0.1186    0.0846    0.0913   -0.1180    0.0006    0.0001   -0.0004
          63   -0.0006    0.2037   -0.1397   -0.1613    0.2009   -0.0010   -0.0002    0.0007


   Root No.      57

                57 A   

                3177.8
  
           1   -0.0003
           2   -0.0003
           3   -0.0002
           4    0.0000
           5    0.0001
           6    0.0001
           7    0.0000
           8    0.0000
           9    0.0000
          10    0.0001
          11   -0.0001
          12    0.0002
          13   -0.0114
          14   -0.0116
          15   -0.0185
          16   -0.0000
          17    0.0000
          18   -0.0000
          19    0.0000
          20    0.0000
          21   -0.0000
          22    0.0000
          23    0.0000
          24    0.0000
          25    0.0000
          26   -0.0000
          27    0.0000
          28    0.0007
          29    0.0006
          30   -0.0032
          31    0.0000
          32    0.0000
          33   -0.0001
          34    0.0001
          35   -0.0007
          36   -0.0016
          37   -0.0014
          38    0.0009
          39   -0.0031
          40   -0.0003
          41    0.0003
          42    0.0008
          43   -0.1239
          44   -0.1208
          45    0.2543
          46    0.3224
          47   -0.0604
          48   -0.0119
          49   -0.0601
          50    0.3225
          51   -0.0165
          52    0.0000
          53   -0.0000
          54   -0.0000
          55   -0.0000
          56   -0.0002
          57   -0.0000
          58   -0.0000
          59   -0.0000
          60   -0.0000
          61   -0.0000
          62    0.0000
          63   -0.0000


           MASS-WEIGHTED COORDINATE ANALYSIS (NORMAL COORDINATES)


   Root No.       1         2         3         4         5         6         7         8

                 1 A       2 A       3 A       4 A       5 A       6 A       7 A       8 A   

                  91.9     171.9     183.0     237.4     318.1     421.7     430.7     517.4
  
           1    0.0613   -0.0484   -0.1801   -0.0480   -0.1908   -0.2444    0.0605    0.1648
           2    0.1592   -0.0267    0.1103   -0.0543    0.1919   -0.0007   -0.0856   -0.0547
           3    0.0540   -0.0308   -0.0703    0.0278    0.2941   -0.1554    0.2971   -0.0238
           4    0.0626   -0.0458   -0.1911   -0.0239   -0.2118   -0.1890    0.0663    0.1108
           5    0.0862   -0.0247    0.0270   -0.2427   -0.0469    0.0026    0.0440    0.2252
           6   -0.1016    0.0799    0.1960    0.1148    0.1240    0.0955    0.0841    0.1147
           7    0.1325   -0.0568   -0.0929    0.1065   -0.0130   -0.0919   -0.2122   -0.1323
           8    0.0872   -0.0234    0.0177   -0.2372   -0.0571   -0.0176    0.0503    0.2229
           9   -0.0385    0.0691    0.1490   -0.0660   -0.1487    0.1750    0.0100   -0.1579
          10    0.1363   -0.0467   -0.0853    0.1261   -0.0290   -0.1221   -0.1988   -0.1984
          11    0.1531   -0.0264    0.1178   -0.0623    0.1929    0.0282   -0.1112   -0.0651
[...]
 T-DIPOLE    0.0661         C  1 -- C  2         +11.9% ( 51.6%)     12.9%
 TRAVEL      0.0900         C  1 -- H 10         +11.7% ( 51.3%)      0.2%
 RED. MASS   1.0207         C  1 -- C  3          +8.7% ( 44.3%)     67.6%
 EFF. MASS   6.2768

 VIBRATION   37   37A         ATOM PAIR      ENERGY CONTRIBUTION    RADIAL
 FREQ.      1360.19         C  2 -- C  3          +9.9% ( 46.7%)     99.8%
 T-DIPOLE    0.1032         C  8 -- C  9          +9.7% ( 46.1%)    100.0%
 TRAVEL      0.0842         C  1 -- C  3          +6.5% ( 37.9%)     91.7%
 RED. MASS   0.6387         C  1 -- C  2          +6.2% ( 37.1%)     66.0%
 EFF. MASS   6.9941

 VIBRATION   38   38A         ATOM PAIR      ENERGY CONTRIBUTION    RADIAL
 FREQ.      1399.35         C  5 -- H 17         +41.7% ( 57.8%)      1.8%
 T-DIPOLE    0.0587         C  5 -- H 16         +38.0% ( 55.2%)      2.7%
 TRAVEL      0.1653         C  5 -- H 15          +8.3% ( 25.8%)     75.2%
 RED. MASS   0.4191         C  1 -- C  5          +6.8% ( 23.4%)     28.4%
 EFF. MASS   1.7637

 VIBRATION   39   39A         ATOM PAIR      ENERGY CONTRIBUTION    RADIAL
 FREQ.      1408.95         C  5 -- H 15         +42.9% ( 60.3%)      0.0%
 T-DIPOLE    0.0557         C  5 -- H 16         +19.4% ( 40.6%)      8.6%
 TRAVEL      0.1575         C  5 -- H 17         +13.8% ( 34.2%)     15.2%
 RED. MASS   0.3519         C  1 -- C  5          +4.2% ( 19.0%)      0.0%
 EFF. MASS   1.9292

 VIBRATION   40   40A         ATOM PAIR      ENERGY CONTRIBUTION    RADIAL
 FREQ.      1414.70         C  2 -- C  7         +10.5% ( 46.5%)     99.6%
 T-DIPOLE    0.0740         C  2 -- C  3          +9.5% ( 44.3%)      0.1%
 TRAVEL      0.0856         C  4 -- H 14          +8.0% ( 40.7%)      2.2%
 RED. MASS   0.6516         C  3 -- C  4          +7.6% ( 39.7%)     65.8%
 EFF. MASS   6.5081

 VIBRATION   41   41A         ATOM PAIR      ENERGY CONTRIBUTION    RADIAL
 FREQ.      1419.76         C  4 -- H 13         +10.5% ( 43.5%)      2.7%
 T-DIPOLE    0.0465         C  4 -- H 14          +9.2% ( 40.6%)      4.8%
 TRAVEL      0.0940         C  2 -- C  3          +6.9% ( 35.3%)      0.3%
 RED. MASS   0.4129         C  3 -- C  6          +6.7% ( 34.8%)     97.0%
 EFF. MASS   5.3804

 VIBRATION   42   42A         ATOM PAIR      ENERGY CONTRIBUTION    RADIAL
 FREQ.      1432.95         C  1 -- C  5         +15.3% ( 59.6%)     98.6%
 T-DIPOLE    0.0996         C  5 -- H 15          +8.9% ( 45.5%)      3.8%
 TRAVEL      0.0762         C  5 -- H 16          +7.5% ( 41.7%)      4.3%
 RED. MASS   1.1064         C  5 -- H 17          +7.3% ( 41.1%)      4.2%
 EFF. MASS   8.0990

 VIBRATION   43   43A         ATOM PAIR      ENERGY CONTRIBUTION    RADIAL
 FREQ.      1486.56         C  2 -- C  7          +9.6% ( 51.8%)     94.7%
 T-DIPOLE    0.0560         C  2 -- C  3          +9.2% ( 50.6%)     99.8%
 TRAVEL      0.0649         C  3 -- C  6          +9.1% ( 50.5%)     93.0%
 RED. MASS   1.3560         C  1 -- C  2          +6.9% ( 43.9%)     55.3%
 EFF. MASS  10.7737

 VIBRATION   44   44A         ATOM PAIR      ENERGY CONTRIBUTION    RADIAL
 FREQ.      1849.96         C  7 -- C  9         +22.4% ( 70.5%)     99.1%
 T-DIPOLE    0.2614         C  6 -- C  8         +21.1% ( 68.5%)     99.0%
 TRAVEL      0.0552         C  8 -- C  9         +16.7% ( 60.9%)    100.0%
 RED. MASS   2.8702         C  9 -- H 21          +7.4% ( 40.5%)      1.7%
 EFF. MASS  11.9545

 VIBRATION   45   45A         ATOM PAIR      ENERGY CONTRIBUTION    RADIAL
 FREQ.      1863.12         C  6 -- C  8         +22.8% ( 70.0%)     99.2%
 T-DIPOLE    0.3350         C  7 -- C  9         +21.5% ( 68.0%)     99.1%
 TRAVEL      0.0554         C  8 -- C  9         +12.1% ( 51.0%)      0.0%
 RED. MASS   2.6835         C  3 -- C  6          +8.1% ( 41.8%)     56.2%
 EFF. MASS  11.7845

 VIBRATION   46   46A         ATOM PAIR      ENERGY CONTRIBUTION    RADIAL
 FREQ.      2939.02         C  2 -- H 12         +71.2% ( 86.4%)    100.0%
 T-DIPOLE    0.0891         C  3 -- H 11         +19.4% ( 45.1%)    100.0%
 TRAVEL      0.1257         C  1 -- H 10          +4.9% ( 22.7%)    100.0%
 RED. MASS   0.5565         C  2 -- C  3          +1.0% ( 10.5%)      1.8%
 EFF. MASS   1.4529

 VIBRATION   47   47A         ATOM PAIR      ENERGY CONTRIBUTION    RADIAL
 FREQ.      2949.66         C  3 -- H 11         +74.6% ( 88.2%)    100.0%
 T-DIPOLE    0.1035         C  2 -- H 12         +15.0% ( 39.5%)    100.0%
 TRAVEL      0.1257         C  1 -- H 10          +5.9% ( 24.7%)    100.0%
 RED. MASS   0.5903         C  2 -- C  3          +1.0% ( 10.0%)     54.9%
 EFF. MASS   1.4471

 VIBRATION   48   48A         ATOM PAIR      ENERGY CONTRIBUTION    RADIAL
 FREQ.      2954.25         C  1 -- H 10         +84.5% ( 93.9%)    100.0%
 T-DIPOLE    0.1338         C  2 -- H 12          +9.2% ( 31.0%)     99.9%
 TRAVEL      0.1258         C  3 -- H 11          +1.4% ( 12.0%)    100.0%
 RED. MASS   0.7320         C  1 -- C  4          +0.9% (  9.9%)     12.5%
 EFF. MASS   1.4423

 VIBRATION   49   49A         ATOM PAIR      ENERGY CONTRIBUTION    RADIAL
 FREQ.      3038.15         C  4 -- H 13         +52.6% ( 75.5%)     97.4%
 T-DIPOLE    0.0852         C  4 -- H 14         +43.3% ( 68.6%)     96.3%
 TRAVEL      0.1199         C  2 -- C  4          +1.1% ( 11.1%)      0.1%
 RED. MASS   0.5155         C  3 -- C  4          +1.1% ( 11.0%)      0.2%
 EFF. MASS   1.5434

 VIBRATION   50   50A         ATOM PAIR      ENERGY CONTRIBUTION    RADIAL
 FREQ.      3048.41         C  9 -- H 21         +31.2% ( 56.7%)    100.0%
 T-DIPOLE    0.1900         C  8 -- H 20         +28.4% ( 54.2%)    100.0%
 TRAVEL      0.1225         C  7 -- H 19         +20.9% ( 46.4%)    100.0%
 RED. MASS   0.2449         C  6 -- H 18         +17.1% ( 42.0%)    100.0%
 EFF. MASS   1.4733

 VIBRATION   51   51A         ATOM PAIR      ENERGY CONTRIBUTION    RADIAL
 FREQ.      3051.85         C  6 -- H 18         +32.8% ( 58.1%)    100.0%
 T-DIPOLE    0.2931         C  7 -- H 19         +30.4% ( 56.0%)    100.0%
 TRAVEL      0.1232         C  8 -- H 20         +19.1% ( 44.4%)    100.0%
 RED. MASS   0.2536         C  9 -- H 21         +15.1% ( 39.5%)     99.9%
 EFF. MASS   1.4564

 VIBRATION   52   52A         ATOM PAIR      ENERGY CONTRIBUTION    RADIAL
 FREQ.      3065.78         C  6 -- H 18         +29.5% ( 55.2%)     99.9%
 T-DIPOLE    0.4081         C  7 -- H 19         +29.3% ( 55.0%)     99.9%
 TRAVEL      0.1183         C  9 -- H 21         +19.7% ( 45.0%)     99.8%
 RED. MASS   0.2443         C  8 -- H 20         +17.8% ( 42.9%)     99.8%
 EFF. MASS   1.5729

 VIBRATION   53   53A         ATOM PAIR      ENERGY CONTRIBUTION    RADIAL
 FREQ.      3074.39         C  8 -- H 20         +31.6% ( 57.0%)    100.0%
 T-DIPOLE    0.3088         C  9 -- H 21         +31.0% ( 56.4%)    100.0%
 TRAVEL      0.1168         C  6 -- H 18         +17.5% ( 42.4%)     99.9%
 RED. MASS   0.2540         C  7 -- H 19         +16.2% ( 40.8%)     99.9%
 EFF. MASS   1.6066

 VIBRATION   54   54A         ATOM PAIR      ENERGY CONTRIBUTION    RADIAL
 FREQ.      3076.84         C  5 -- H 15         +67.5% ( 84.8%)     99.0%
 T-DIPOLE    0.0106         C  5 -- H 16         +17.2% ( 42.8%)     85.1%
 TRAVEL      0.1207         C  5 -- H 17         +14.1% ( 38.7%)     81.4%
 RED. MASS   0.5337         C  1 -- C  5          +1.0% ( 10.3%)      0.0%
 EFF. MASS   1.5042

 VIBRATION   55   55A         ATOM PAIR      ENERGY CONTRIBUTION    RADIAL
 FREQ.      3084.28         C  5 -- H 17         +50.5% ( 73.3%)     97.3%
 T-DIPOLE    0.0189         C  5 -- H 16         +47.4% ( 71.1%)     96.8%
 TRAVEL      0.1204         C  5 -- H 15          +1.0% ( 10.4%)      1.6%
 RED. MASS   0.5099         C  1 -- C  5          +1.0% ( 10.4%)      0.0%
 EFF. MASS   1.5077

 VIBRATION   56   56A         ATOM PAIR      ENERGY CONTRIBUTION    RADIAL
 FREQ.      3101.87         C  4 -- H 14         +54.1% ( 72.9%)     97.7%
 T-DIPOLE    0.0892         C  4 -- H 13         +43.8% ( 65.7%)     96.4%
 TRAVEL      0.1302         C  2 -- C  4          +0.7% (  8.2%)     99.6%
 RED. MASS   0.4883         C  1 -- C  4          +0.7% (  8.2%)     49.1%
 EFF. MASS   1.2821

 VIBRATION   57   57A         ATOM PAIR      ENERGY CONTRIBUTION    RADIAL
 FREQ.      3177.77         C  5 -- H 17         +34.8% ( 56.8%)     97.3%
 T-DIPOLE    0.0376         C  5 -- H 16         +34.8% ( 56.7%)     97.3%
 TRAVEL      0.1366         C  5 -- H 15         +30.1% ( 52.8%)     96.5%
 RED. MASS   0.3282         C  1 -- C  5          +0.3% (  5.2%)     99.6%
 EFF. MASS   1.1370

      SYMMETRY NUMBER FOR POINT-GROUP C1  =  1


          SYSTEM IS A GROUND STATE



 InChI=1S/C9H12/c1-7-6-8-4-2-3-5-9(7)8/h2-5,7-9H,6H2,1H3


          MOLECULE IS NOT LINEAR

          THERE ARE 57 GENUINE VIBRATIONS IN THIS SYSTEM
          THIS THERMODYNAMICS CALCULATION IS LIMITED TO
          MOLECULES WHICH HAVE NO INTERNAL ROTATIONS




                    CALCULATED THERMODYNAMIC PROPERTIES
                                          *
   TEMP. (K)   PARTITION FUNCTION   H.O.F.    ENTHALPY  HEAT CAPACITY ENTROPY
                                   KCAL/MOL   CAL/MOLE    CAL/K/MOL  CAL/K/MOL


 298.00  VIB.     0.3230D+02                  3117.8951    25.3364    17.3684
         ROT.     0.3865D+06                   888.2813     2.9808    28.5459
         INT.     0.1248D+08                  4006.1764    28.3173    45.9143
         TRA.     0.1274D+28                  1480.4688     4.9680    40.2640
         TOT.                       24.948    5486.6452    33.2853    86.1784

 200.00  VIB.     0.6469D+01                  1201.9957    14.1824     9.7200
         ROT.     0.2125D+06                   596.1620     2.9808    27.3573
         INT.     0.1375D+07                  1798.1576    17.1632    37.0773
         TRA.     0.7004D+27                   993.6033     4.9680    38.2829
         TOT.                       22.253    2791.7609    22.1313    75.3602

 210.00  VIB.     0.7535D+01                  1348.8110    15.1870    10.4361
         ROT.     0.2286D+06                   625.9700     2.9808    27.5027
         INT.     0.1723D+07                  1974.7811    18.1678    37.9388
         TRA.     0.7536D+27                  1043.2834     4.9680    38.5253
         TOT.                       22.480    3018.0645    23.1358    76.4641

 220.00  VIB.     0.8800D+01                  1505.8607    16.2291    11.1665
         ROT.     0.2452D+06                   655.7781     2.9808    27.6414
         INT.     0.2157D+07                  2161.6388    19.2099    38.8079
         TRA.     0.8081D+27                  1092.9636     4.9680    38.7564
         TOT.                       22.716    3254.6024    24.1779    77.5643

 230.00  VIB.     0.1031D+02                  1673.5119    17.3069    11.9116
         ROT.     0.2621D+06                   685.5862     2.9808    27.7739
         INT.     0.2701D+07                  2359.0982    20.2877    39.6855
         TRA.     0.8638D+27                  1142.6437     4.9680    38.9773
         TOT.                       22.963    3501.7419    25.2558    78.6627

 240.00  VIB.     0.1210D+02                  1852.1103    18.4180    12.6715
         ROT.     0.2793D+06                   715.3943     2.9808    27.9007
         INT.     0.3380D+07                  2567.5046    21.3988    40.5723
         TRA.     0.9207D+27                  1192.3239     4.9680    39.1887
         TOT.                       23.221    3759.8285    26.3669    79.7610

 250.00  VIB.     0.1424D+02                  2041.9727    19.5592    13.4464
         ROT.     0.2970D+06                   745.2024     2.9808    28.0224
         INT.     0.4230D+07                  2787.1751    22.5400    41.4689
         TRA.     0.9789D+27                  1242.0041     4.9680    39.3915
         TOT.                       23.491    4029.1792    27.5080    80.8604

 260.00  VIB.     0.1681D+02                  2243.3823    20.7268    14.2362
         ROT.     0.3150D+06                   775.0105     2.9808    28.1393
         INT.     0.5295D+07                  3018.3928    23.7076    42.3756
         TRA.     0.1038D+28                  1291.6842     4.9680    39.5863
         TOT.                       23.772    4310.0770    28.6757    81.9619

 270.00  VIB.     0.1989D+02                  2456.5848    21.9171    15.0407
         ROT.     0.3333D+06                   804.8186     2.9808    28.2518
         INT.     0.6630D+07                  3261.4034    24.8979    43.2925
         TRA.     0.1099D+28                  1341.3644     4.9680    39.7738
         TOT.                       24.064    4602.7678    29.8659    83.0664

 280.00  VIB.     0.2360D+02                  2681.7867    23.1261    15.8596
         ROT.     0.3520D+06                   834.6267     2.9808    28.3602
         INT.     0.8306D+07                  3516.4134    26.1069    44.2198
         TRA.     0.1160D+28                  1391.0445     4.9680    39.9545
         TOT.                       24.369    4907.4580    31.0749    84.1743

 290.00  VIB.     0.2806D+02                  2919.1547    24.3496    16.6924
         ROT.     0.3710D+06                   864.4348     2.9808    28.4648
         INT.     0.1041D+08                  3783.5895    27.3305    45.1573
         TRA.     0.1223D+28                  1440.7247     4.9680    40.1289
         TOT.                       24.686    5224.3142    32.2985    85.2861

 300.00  VIB.     0.3346D+02                  3168.8155    25.5840    17.5387
         ROT.     0.3904D+06                   894.2429     2.9808    28.5659
         INT.     0.1306D+08                  4063.0584    28.5648    46.1046
         TRA.     0.1287D+28                  1490.4049     4.9680    40.2973
         TOT.                       25.015    5553.4633    33.5328    86.4019

 310.00  VIB.     0.4000D+02                  3430.8575    26.8253    18.3978
         ROT.     0.4101D+06                   924.0510     2.9808    28.6636
         INT.     0.1640D+08                  4354.9086    29.8061    47.0614
         TRA.     0.1352D+28                  1540.0850     4.9680    40.4602
         TOT.                       25.357    5894.9936    34.7741    87.5216

 320.00  VIB.     0.4793D+02                  3705.3326    28.0700    19.2691
         ROT.     0.4301D+06                   953.8591     2.9808    28.7583
         INT.     0.2061D+08                  4659.1917    31.0508    48.0274
         TRA.     0.1418D+28                  1589.7652     4.9680    40.6179
         TOT.                       25.710    6248.9569    36.0188    88.6453

 330.00  VIB.     0.5757D+02                  3992.2581    29.3148    20.1520
         ROT.     0.4504D+06                   983.6672     2.9808    28.8500
         INT.     0.2593D+08                  4975.9253    32.2956    49.0019
         TRA.     0.1485D+28                  1639.4454     4.9680    40.7708
         TOT.                       26.077    6615.3706    37.2637    89.7727

 340.00  VIB.     0.6932D+02                  4291.6196    30.5567    21.0455
         ROT.     0.4710D+06                  1013.4753     2.9808    28.9390
         INT.     0.3265D+08                  5305.0949    33.5375    49.9845
         TRA.     0.1553D+28                  1689.1255     4.9680    40.9191
         TOT.                       26.456    6994.2204    38.5056    90.9036

 350.00  VIB.     0.8365D+02                  4603.3738    31.7930    21.9492
         ROT.     0.4919D+06                  1043.2834     2.9808    29.0254
         INT.     0.4115D+08                  5646.6572    34.7738    50.9745
         TRA.     0.1622D+28                  1738.8057     4.9680    41.0631
         TOT.                       26.847    7385.4629    39.7418    92.0376

 360.00  VIB.     0.1012D+03                  4927.4514    33.0210    22.8620
         ROT.     0.5132D+06                  1073.0915     2.9808    29.1094
         INT.     0.5192D+08                  6000.5429    36.0018    51.9714
         TRA.     0.1692D+28                  1788.4859     4.9680    41.2031
         TOT.                       27.251    7789.0288    40.9698    93.1744

 370.00  VIB.     0.1226D+03                  5263.7598    34.2388    23.7834
         ROT.     0.5347D+06                  1102.8996     2.9808    29.1910
         INT.     0.6558D+08                  6366.6594    37.2196    52.9744
         TRA.     0.1762D+28                  1838.1660     4.9680    41.3392
         TOT.                       27.666    8204.8254    42.1876    94.3136

 380.00  VIB.     0.1490D+03                  5612.1861    35.4443    24.7125
         ROT.     0.5565D+06                  1132.7077     2.9808    29.2705
         INT.     0.8291D+08                  6744.8938    38.4251    53.9830
         TRA.     0.1834D+28                  1887.8462     4.9680    41.4717
         TOT.                       28.094    8632.7399    43.3931    95.4547

 390.00  VIB.     0.1813D+03                  5972.5996    36.6360    25.6486
         ROT.     0.5786D+06                  1162.5158     2.9808    29.3479
         INT.     0.1049D+09                  7135.1154    39.6168    54.9966
         TRA.     0.1907D+28                  1937.5263     4.9680    41.6007
         TOT.                       28.534    9072.6417    44.5848    96.5973

 400.00  VIB.     0.2212D+03                  6344.8546    37.8124    26.5911
         ROT.     0.6010D+06                  1192.3239     2.9808    29.4234
         INT.     0.1329D+09                  7537.1785    40.7932    56.0145
         TRA.     0.1981D+28                  1987.2065     4.9680    41.7265
         TOT.                       28.986    9524.3850    45.7612    97.7410

   *: NOTE: HEATS OF FORMATION ARE RELATIVE TO THE
            ELEMENTS IN THEIR STANDARD STATE AT 298K
              (=  Standard Enthalpy of Formation).

            Hvib:  Zero-point energy is not included.
                   frequencies of less than zero cm-1 are not included.
            Hrot = (3/2)RT
            Htra = (3/2)RT + pV = (5/2)RT

            Heat capacity is Cp, not Cv

          For more information, see: HTTP://OpenMOPAC.net/Manual/thermochemistry.html


           FORCE CONSTANT IN CARTESIAN COORDINATES (Millidynes/A)

    ATOM   CHEMICAL       X               Y               Z
   NUMBER   SYMBOL  FORCE CONSTANT  FORCE CONSTANT  FORCE CONSTANT

      1       C        7.757131        8.025597        8.864766
      2       C        7.706077        8.091553        9.338727
      3       C        7.955047        8.090036        9.277505
      4       C        7.844501        7.837143        8.647497
      5       C        8.390577        8.403473        8.351903
      6       C        4.933424       11.338575       11.028740
      7       C        4.932814       11.351749       11.021285
      8       C        4.752474       11.568306       11.315988
      9       C        4.759100       11.576882       11.303426
     10       H        1.351349        1.309879        3.596864
     11       H        1.377332        1.353882        3.446613
     12       H        1.361103        1.345283        3.473439
     13       H        1.413993        1.441769        3.760334
     14       H        1.512545        1.494499        3.620681
     15       H        1.372984        1.335369        4.056797
     16       H        5.257689        0.791499        0.700791
     17       H        0.790430        5.257998        0.703382
     18       H        0.420782        5.140728        0.676483
     19       H        0.420124        5.141018        0.674203
     20       H        1.167089        1.691240        3.401297
     21       H        1.202873        1.684926        3.371659

 **********************
 *                    *
 * JOB ENDED NORMALLY *
 *                    *
 **********************



 TOTAL JOB TIME:             7.07 SECONDS

 == MOPAC DONE ==
