 *******************************************************************************
 ** Site#: 14399        For non-commercial use only    Version 18.184L 64BITS **
 *******************************************************************************
 ** Cite this program as: MOPAC2016, Version: 18.184L, James J. P. Stewart,   **
 ** Stewart Computational Chemistry, web: HTTP://OpenMOPAC.net. Days left:  20**
 *******************************************************************************
 **                                                                           **
 **                                MOPAC2016                                  **
 **                                                                           **
 *******************************************************************************

                              PM3 CALCULATION RESULTS

 *******************************************************************************
 *  CALCULATION DONE:                                Thu Jun 13 15:43:37 2019  *
 *  PM3        - The PM3 Hamiltonian to be used
 *  NONR       - DO NOT USE NEWTON-RAPHSON STEP IN EF
 *  PRECISE    - CRITERIA TO BE INCREASED BY 100 TIMES
 *  NOSYM      - POINT-GROUP SYMMETRY SET TO C1
 *  THREADS=1  - MULTI-THREADING NOT USED
 *  T=         - A TIME OF 172800.0 SECONDS REQUESTED
 *  DUMP=N     - RESTART FILE WRITTEN EVERY  7200.000 SECONDS
 *  GNORM=     - EXIT WHEN GRADIENT NORM DROPS BELOW   0.00    
 *******************************************************************************
pm3  precise nosym gnorm=0.0 nonr THREADS=1
 InChI=1S/C6H10/c1-6-4-2-3-5-6/h4H,2-3,5H2,1H3

   ATOM   CHEMICAL          X               Y               Z
  NUMBER   SYMBOL      (ANGSTROMS)     (ANGSTROMS)     (ANGSTROMS)
 
     1       C         -1.55280000  *   0.57860000  *   0.31950000  *
     2       C         -0.12350000  *   1.12610000  *   0.25020000  *
     3       C         -1.45880000  *  -0.91690000  *  -0.00390000  *
     4       C          2.19360000  *  -0.01170000  *  -0.28360000  *
     5       C          0.70710000  *  -0.05650000  *  -0.10240000  *
     6       C         -0.01220000  *  -1.15870000  *  -0.23960000  *
     7       H         -1.97650000  *   0.72900000  *   1.33660000  *
     8       H         -2.20190000  *   1.09500000  *  -0.42130000  *
     9       H         -0.03320000  *   1.90530000  *  -0.53710000  *
    10       H          0.19380000  *   1.53680000  *   1.23310000  *
    11       H         -2.03870000  *  -1.16490000  *  -0.91860000  *
    12       H         -1.81190000  *  -1.53320000  *   0.85060000  *
    13       H          2.57110000  *   1.01920000  *  -0.11740000  *
    14       H          2.68120000  *  -0.69370000  *   0.44430000  *
    15       H          2.45570000  *  -0.32740000  *  -1.31530000  *
    16       H          0.40710000  *  -2.12710000  *  -0.49500000  *
 


          CARTESIAN COORDINATES 

    NO.       ATOM           X           Y           Z

     1         C         -1.5528      0.5786      0.3195
     2         C         -0.1235      1.1261      0.2502
     3         C         -1.4588     -0.9169     -0.0039
     4         C          2.1936     -0.0117     -0.2836
     5         C          0.7071     -0.0565     -0.1024
     6         C         -0.0122     -1.1587     -0.2396
     7         H         -1.9765      0.7290      1.3366
     8         H         -2.2019      1.0950     -0.4213
     9         H         -0.0332      1.9053     -0.5371
    10         H          0.1938      1.5368      1.2331
    11         H         -2.0387     -1.1649     -0.9186
    12         H         -1.8119     -1.5332      0.8506
    13         H          2.5711      1.0192     -0.1174
    14         H          2.6812     -0.6937      0.4443
    15         H          2.4557     -0.3274     -1.3153
    16         H          0.4071     -2.1271     -0.4950

  H: (PM3): J. J. P. STEWART, J. COMP. CHEM. 10, 209 (1989).
  C: (PM3): J. J. P. STEWART, J. COMP. CHEM. 10, 209 (1989).

           Empirical Formula: C6 H10  =    16 atoms



      MOLECULAR POINT GROUP   :   C1  


      RHF CALCULATION, NO. OF DOUBLY OCCUPIED LEVELS = 17


          Geometry optimization using EF

  GNORM HAS BEEN SET TOO LOW, RESET TO 0.01

  SPECIFY LET AS KEYWORD TO ALLOW GNORM LESS THAN 0.01

          DIAGONAL MATRIX USED AS START HESSIAN

 CYCLE:     1 TIME:   0.020 TIME LEFT:  2.00D  GRAD.:    65.460 HEAT: -4.459253
 CYCLE:     2 TIME:   0.039 TIME LEFT:  2.00D  GRAD.:    52.520 HEAT: -5.195812
 CYCLE:     3 TIME:   0.020 TIME LEFT:  2.00D  GRAD.:    31.918 HEAT: -5.731333
 CYCLE:     4 TIME:   0.031 TIME LEFT:  2.00D  GRAD.:    21.781 HEAT: -6.002985
 CYCLE:     5 TIME:   0.023 TIME LEFT:  2.00D  GRAD.:    21.334 HEAT: -6.162092
 CYCLE:     6 TIME:   0.027 TIME LEFT:  2.00D  GRAD.:    18.456 HEAT: -6.304098
 CYCLE:     7 TIME:   0.023 TIME LEFT:  2.00D  GRAD.:    20.525 HEAT: -6.304748
 CYCLE:     8 TIME:   0.027 TIME LEFT:  2.00D  GRAD.:    12.216 HEAT: -6.423280
 CYCLE:     9 TIME:   0.031 TIME LEFT:  2.00D  GRAD.:     6.444 HEAT: -6.472483
 CYCLE:    10 TIME:   0.027 TIME LEFT:  2.00D  GRAD.:     7.114 HEAT: -6.489963
 CYCLE:    11 TIME:   0.020 TIME LEFT:  2.00D  GRAD.:     5.639 HEAT: -6.520863
 CYCLE:    12 TIME:   0.023 TIME LEFT:  2.00D  GRAD.:     5.573 HEAT: -6.540920
 CYCLE:    13 TIME:   0.023 TIME LEFT:  2.00D  GRAD.:     6.824 HEAT: -6.571067
 CYCLE:    14 TIME:   0.031 TIME LEFT:  2.00D  GRAD.:     6.094 HEAT: -6.587308
 CYCLE:    15 TIME:   0.020 TIME LEFT:  2.00D  GRAD.:     6.793 HEAT: -6.599868
 CYCLE:    16 TIME:   0.023 TIME LEFT:  2.00D  GRAD.:     7.654 HEAT: -6.602738
 CYCLE:    17 TIME:   0.023 TIME LEFT:  2.00D  GRAD.:     3.874 HEAT: -6.623292
 CYCLE:    18 TIME:   0.023 TIME LEFT:  2.00D  GRAD.:     3.674 HEAT: -6.631437
 CYCLE:    19 TIME:   0.023 TIME LEFT:  2.00D  GRAD.:     2.684 HEAT: -6.642052
 CYCLE:    20 TIME:   0.020 TIME LEFT:  2.00D  GRAD.:     2.241 HEAT: -6.649561
 CYCLE:    21 TIME:   0.129 TIME LEFT:  2.00D  GRAD.:     2.819 HEAT: -6.654615
 CYCLE:    22 TIME:   0.023 TIME LEFT:  2.00D  GRAD.:     1.699 HEAT: -6.657873
 CYCLE:    23 TIME:   0.023 TIME LEFT:  2.00D  GRAD.:     1.885 HEAT: -6.659138
 CYCLE:    24 TIME:   0.023 TIME LEFT:  2.00D  GRAD.:     0.961 HEAT: -6.660870
 CYCLE:    25 TIME:   0.023 TIME LEFT:  2.00D  GRAD.:     1.074 HEAT: -6.661345
 CYCLE:    26 TIME:   0.020 TIME LEFT:  2.00D  GRAD.:     0.471 HEAT: -6.661936
 CYCLE:    27 TIME:   0.023 TIME LEFT:  2.00D  GRAD.:     0.300 HEAT: -6.662139
 CYCLE:    28 TIME:   0.023 TIME LEFT:  2.00D  GRAD.:     0.244 HEAT: -6.662326
 CYCLE:    29 TIME:   0.023 TIME LEFT:  2.00D  GRAD.:     0.195 HEAT: -6.662386
 CYCLE:    30 TIME:   0.023 TIME LEFT:  2.00D  GRAD.:     0.134 HEAT: -6.662428
 CYCLE:    31 TIME:   0.023 TIME LEFT:  2.00D  GRAD.:     0.092 HEAT: -6.662456
 CYCLE:    32 TIME:   0.023 TIME LEFT:  2.00D  GRAD.:     0.061 HEAT: -6.662476
 CYCLE:    33 TIME:   0.020 TIME LEFT:  2.00D  GRAD.:     0.054 HEAT: -6.662481
 CYCLE:    34 TIME:   0.023 TIME LEFT:  2.00D  GRAD.:     0.052 HEAT: -6.662487
 CYCLE:    35 TIME:   0.023 TIME LEFT:  2.00D  GRAD.:     0.098 HEAT: -6.662503
 CYCLE:    36 TIME:   0.023 TIME LEFT:  2.00D  GRAD.:     0.075 HEAT: -6.662511
 CYCLE:    37 TIME:   0.023 TIME LEFT:  2.00D  GRAD.:     0.063 HEAT: -6.662518
 CYCLE:    38 TIME:   0.023 TIME LEFT:  2.00D  GRAD.:     0.036 HEAT: -6.662532
 CYCLE:    39 TIME:   0.020 TIME LEFT:  2.00D  GRAD.:     0.132 HEAT: -6.662524
 CYCLE:    40 TIME:   0.023 TIME LEFT:  2.00D  GRAD.:     0.040 HEAT: -6.662550
 CYCLE:    41 TIME:   0.023 TIME LEFT:  2.00D  GRAD.:     0.035 HEAT: -6.662552
 CYCLE:    42 TIME:   0.023 TIME LEFT:  2.00D  GRAD.:     0.030 HEAT: -6.662555
 CYCLE:    43 TIME:   0.023 TIME LEFT:  2.00D  GRAD.:     0.019 HEAT: -6.662556
 CYCLE:    44 TIME:   0.023 TIME LEFT:  2.00D  GRAD.:     0.017 HEAT: -6.662557
 CYCLE:    45 TIME:   0.023 TIME LEFT:  2.00D  GRAD.:     0.016 HEAT: -6.662558
 CYCLE:    46 TIME:   0.020 TIME LEFT:  2.00D  GRAD.:     0.028 HEAT: -6.662561
 CYCLE:    47 TIME:   0.023 TIME LEFT:  2.00D  GRAD.:     0.031 HEAT: -6.662564
 CYCLE:    48 TIME:   0.023 TIME LEFT:  2.00D  GRAD.:     0.034 HEAT: -6.662567
 CYCLE:    49 TIME:   0.023 TIME LEFT:  2.00D  GRAD.:     0.040 HEAT: -6.662575
 CYCLE:    50 TIME:   0.023 TIME LEFT:  2.00D  GRAD.:     0.032 HEAT: -6.662576
 CYCLE:    51 TIME:   0.023 TIME LEFT:  2.00D  GRAD.:     0.040 HEAT: -6.662585
 CYCLE:    52 TIME:   0.020 TIME LEFT:  2.00D  GRAD.:     0.023 HEAT: -6.662589
 CYCLE:    53 TIME:   0.023 TIME LEFT:  2.00D  GRAD.:     0.019 HEAT: -6.662594
 CYCLE:    54 TIME:   0.023 TIME LEFT:  2.00D  GRAD.:     0.025 HEAT: -6.662601
 CYCLE:    55 TIME:   0.023 TIME LEFT:  2.00D  GRAD.:     0.050 HEAT: -6.662621
 CYCLE:    56 TIME:   0.023 TIME LEFT:  2.00D  GRAD.:     0.072 HEAT: -6.662641
 CYCLE:    57 TIME:   0.262 TIME LEFT:  2.00D  GRAD.:     3.272 HEAT: -6.659916
 CYCLE:    58 TIME:   0.023 TIME LEFT:  2.00D  GRAD.:     3.261 HEAT: -6.659974
 CYCLE:    59 TIME:   0.023 TIME LEFT:  2.00D  GRAD.:     1.065 HEAT: -6.662326
 CYCLE:    60 TIME:   0.023 TIME LEFT:  2.00D  GRAD.:     0.031 HEAT: -6.662653
 CYCLE:    61 TIME:   0.020 TIME LEFT:  2.00D  GRAD.:     0.089 HEAT: -6.662686
 CYCLE:    62 TIME:   0.023 TIME LEFT:  2.00D  GRAD.:     0.043 HEAT: -6.662731
 CYCLE:    63 TIME:   0.074 TIME LEFT:  2.00D  GRAD.:     0.058 HEAT: -6.662804
 CYCLE:    64 TIME:   0.062 TIME LEFT:  2.00D  GRAD.:     0.088 HEAT: -6.663067
 CYCLE:    65 TIME:   0.051 TIME LEFT:  2.00D  GRAD.:     0.139 HEAT: -6.663357
 CYCLE:    66 TIME:   0.047 TIME LEFT:  2.00D  GRAD.:     0.429 HEAT: -6.664496
 CYCLE:    67 TIME:   0.039 TIME LEFT:  2.00D  GRAD.:     2.640 HEAT: -6.667581
 CYCLE:    68 TIME:   0.023 TIME LEFT:  2.00D  GRAD.:     4.040 HEAT: -6.679494
 CYCLE:    69 TIME:   0.047 TIME LEFT:  2.00D  GRAD.:     6.840 HEAT: -6.671948
 CYCLE:    70 TIME:   0.023 TIME LEFT:  2.00D  GRAD.:     6.761 HEAT: -6.672603
 CYCLE:    71 TIME:   0.023 TIME LEFT:  2.00D  GRAD.:     3.522 HEAT: -6.685367
 CYCLE:    72 TIME:   0.023 TIME LEFT:  2.00D  GRAD.:     2.441 HEAT: -6.690439
 CYCLE:    73 TIME:   0.020 TIME LEFT:  2.00D  GRAD.:     0.648 HEAT: -6.701131
 CYCLE:    74 TIME:   0.023 TIME LEFT:  2.00D  GRAD.:     1.859 HEAT: -6.705188
 CYCLE:    75 TIME:   0.023 TIME LEFT:  2.00D  GRAD.:     4.583 HEAT: -6.707961
 CYCLE:    76 TIME:   0.023 TIME LEFT:  2.00D  GRAD.:     3.411 HEAT: -6.712173
 CYCLE:    77 TIME:   0.023 TIME LEFT:  2.00D  GRAD.:     3.107 HEAT: -6.714720
 CYCLE:    78 TIME:   0.023 TIME LEFT:  2.00D  GRAD.:     1.842 HEAT: -6.722334
 CYCLE:    79 TIME:   0.023 TIME LEFT:  2.00D  GRAD.:     1.570 HEAT: -6.738858
 CYCLE:    80 TIME:   0.027 TIME LEFT:  2.00D  GRAD.:     3.906 HEAT: -6.787840
 CYCLE:    81 TIME:   0.027 TIME LEFT:  2.00D  GRAD.:     3.210 HEAT: -6.796420
 CYCLE:    82 TIME:   0.023 TIME LEFT:  2.00D  GRAD.:     1.951 HEAT: -6.804709
 CYCLE:    83 TIME:   0.023 TIME LEFT:  2.00D  GRAD.:     0.847 HEAT: -6.812942
 CYCLE:    84 TIME:   0.023 TIME LEFT:  2.00D  GRAD.:     0.960 HEAT: -6.819537
 CYCLE:    85 TIME:   0.023 TIME LEFT:  2.00D  GRAD.:     2.027 HEAT: -6.838202
 CYCLE:    86 TIME:   0.023 TIME LEFT:  2.00D  GRAD.:     5.702 HEAT: -6.860891
 CYCLE:    87 TIME:   0.062 TIME LEFT:  2.00D  GRAD.:     4.784 HEAT: -6.885880
 CYCLE:    88 TIME:   0.023 TIME LEFT:  2.00D  GRAD.:     3.905 HEAT: -6.904610
 CYCLE:    89 TIME:   0.020 TIME LEFT:  2.00D  GRAD.:     5.307 HEAT: -6.935278
 CYCLE:    90 TIME:   0.023 TIME LEFT:  2.00D  GRAD.:     3.989 HEAT: -6.999561
 CYCLE:    91 TIME:   0.031 TIME LEFT:  2.00D  GRAD.:     7.806 HEAT: -7.009694
 CYCLE:    92 TIME:   0.020 TIME LEFT:  2.00D  GRAD.:     4.204 HEAT: -7.031813
 CYCLE:    93 TIME:   0.023 TIME LEFT:  2.00D  GRAD.:     2.860 HEAT: -7.039976
 CYCLE:    94 TIME:   0.023 TIME LEFT:  2.00D  GRAD.:     2.001 HEAT: -7.054370
 CYCLE:    95 TIME:   0.023 TIME LEFT:  2.00D  GRAD.:     2.942 HEAT: -7.064612
 CYCLE:    96 TIME:   0.020 TIME LEFT:  2.00D  GRAD.:     2.579 HEAT: -7.072594
 CYCLE:    97 TIME:   0.023 TIME LEFT:  2.00D  GRAD.:     1.766 HEAT: -7.077315
 CYCLE:    98 TIME:   0.023 TIME LEFT:  2.00D  GRAD.:     1.314 HEAT: -7.080720
 CYCLE:    99 TIME:   0.023 TIME LEFT:  2.00D  GRAD.:     2.199 HEAT: -7.081337
 CYCLE:   100 TIME:   0.023 TIME LEFT:  2.00D  GRAD.:     0.784 HEAT: -7.083497
 CYCLE:   101 TIME:   0.020 TIME LEFT:  2.00D  GRAD.:     0.480 HEAT: -7.084367
 CYCLE:   102 TIME:   0.023 TIME LEFT:  2.00D  GRAD.:     0.407 HEAT: -7.084738
 CYCLE:   103 TIME:   0.023 TIME LEFT:  2.00D  GRAD.:     0.641 HEAT: -7.085397
 CYCLE:   104 TIME:   0.023 TIME LEFT:  2.00D  GRAD.:     0.607 HEAT: -7.085707
 CYCLE:   105 TIME:   0.023 TIME LEFT:  2.00D  GRAD.:     0.592 HEAT: -7.086450
 CYCLE:   106 TIME:   0.023 TIME LEFT:  2.00D  GRAD.:     0.695 HEAT: -7.087976
 CYCLE:   107 TIME:   0.020 TIME LEFT:  2.00D  GRAD.:     1.197 HEAT: -7.091668
 CYCLE:   108 TIME:   0.023 TIME LEFT:  2.00D  GRAD.:     1.387 HEAT: -7.093639
 CYCLE:   109 TIME:   0.023 TIME LEFT:  2.00D  GRAD.:     2.015 HEAT: -7.098046
 CYCLE:   110 TIME:   0.023 TIME LEFT:  2.00D  GRAD.:     2.416 HEAT: -7.099230
 CYCLE:   111 TIME:   0.023 TIME LEFT:  2.00D  GRAD.:     0.869 HEAT: -7.104495
 CYCLE:   112 TIME:   0.023 TIME LEFT:  2.00D  GRAD.:     1.322 HEAT: -7.106704
 CYCLE:   113 TIME:   0.023 TIME LEFT:  2.00D  GRAD.:     0.743 HEAT: -7.108049
 CYCLE:   114 TIME:   0.023 TIME LEFT:  2.00D  GRAD.:     0.590 HEAT: -7.108579
 CYCLE:   115 TIME:   0.023 TIME LEFT:  2.00D  GRAD.:     0.333 HEAT: -7.109331
 CYCLE:   116 TIME:   0.020 TIME LEFT:  2.00D  GRAD.:     0.228 HEAT: -7.109528
 CYCLE:   117 TIME:   0.023 TIME LEFT:  2.00D  GRAD.:     0.228 HEAT: -7.109640
 CYCLE:   118 TIME:   0.023 TIME LEFT:  2.00D  GRAD.:     0.292 HEAT: -7.109744
 CYCLE:   119 TIME:   0.023 TIME LEFT:  2.00D  GRAD.:     0.160 HEAT: -7.109849
 CYCLE:   120 TIME:   0.020 TIME LEFT:  2.00D  GRAD.:     0.146 HEAT: -7.109884
 CYCLE:   121 TIME:   0.023 TIME LEFT:  2.00D  GRAD.:     0.085 HEAT: -7.109931
 CYCLE:   122 TIME:   0.023 TIME LEFT:  2.00D  GRAD.:     0.069 HEAT: -7.109941
 CYCLE:   123 TIME:   0.023 TIME LEFT:  2.00D  GRAD.:     0.049 HEAT: -7.109953
 CYCLE:   124 TIME:   0.023 TIME LEFT:  2.00D  GRAD.:     0.053 HEAT: -7.109959
 CYCLE:   125 TIME:   0.023 TIME LEFT:  2.00D  GRAD.:     0.071 HEAT: -7.109970
 CYCLE:   126 TIME:   0.023 TIME LEFT:  2.00D  GRAD.:     0.046 HEAT: -7.109978
 CYCLE:   127 TIME:   0.020 TIME LEFT:  2.00D  GRAD.:     0.022 HEAT: -7.109985
 CYCLE:   128 TIME:   0.023 TIME LEFT:  2.00D  GRAD.:     0.017 HEAT: -7.109984
 CYCLE:   129 TIME:   0.023 TIME LEFT:  2.00D  GRAD.:     0.023 HEAT: -7.109986
 CYCLE:   130 TIME:   0.023 TIME LEFT:  2.00D  GRAD.:     0.008 HEAT: -7.109988

     GRADIENT =  0.00841  IS LESS THAN CUTOFF =  0.01000



 -------------------------------------------------------------------------------
 pm3  precise nosym gnorm=0.0 nonr THREADS=1
 InChI=1S/C6H10/c1-6-4-2-3-5-6/h4H,2-3,5H2,1H3



     GEOMETRY OPTIMISED USING EIGENVECTOR FOLLOWING (EF).     
     SCF FIELD WAS ACHIEVED                                   


                              PM3 CALCULATION
                                                       MOPAC2016 (Version: 18.184L)
                                                       Thu Jun 13 15:43:41 2019
                                                       No. of days remaining =  20




          FINAL HEAT OF FORMATION =         -7.10999 KCAL/MOL =     -29.74819 KJ/MOL


          TOTAL ENERGY            =       -865.47760 EV
          ELECTRONIC ENERGY       =      -3827.30165 EV  POINT GROUP:     C1  
          CORE-CORE REPULSION     =       2961.82405 EV
          COSMO AREA              =        133.49 SQUARE ANGSTROMS
          COSMO VOLUME            =        123.36 CUBIC ANGSTROMS

          GRADIENT NORM           =          0.00841 = 0.00210 PER ATOM
          IONIZATION POTENTIAL    =          9.278457 EV
          HOMO LUMO ENERGIES (EV) =         -9.278  1.082
          NO. OF FILLED LEVELS    =         17
          MOLECULAR WEIGHT        =         82.1450

          MOLECULAR DIMENSIONS (Angstroms)

            Atom       Atom       Distance
            H    14    H     8     5.26671
            H    12    H    15     4.18537
            H    10    H    11     3.39319


          SCF CALCULATIONS        =        148
 
          WALL-CLOCK TIME         =          3.652 SECONDS
          COMPUTATION TIME        =          1.116 SECONDS




   ATOM   CHEMICAL          X               Y               Z
  NUMBER   SYMBOL      (ANGSTROMS)     (ANGSTROMS)     (ANGSTROMS)
 
     1       C         -1.55274726  *   0.59356392  *   0.25891969  *
     2       C         -0.11650442  *   1.12584378  *   0.14625188  *
     3       C         -1.46300842  *  -0.92794957  *   0.06555114  *
     4       C          2.18740373  *   0.02013468  *  -0.26937121  *
     5       C          0.72735054  *  -0.08891672  *  -0.10295593  *
     6       C         -0.01092818  *  -1.20819372  *  -0.14634946  *
     7       H         -1.99792717  *   0.84749757  *   1.23735741  *
     8       H         -2.21115203  *   1.05548399  *  -0.49814073  *
     9       H         -0.00493738  *   1.85580928  *  -0.67664134  *
    10       H          0.20909796  *   1.64702218  *   1.06538791  *
    11       H         -2.05896525  *  -1.27368152  *  -0.79907312  *
    12       H         -1.84508016  *  -1.48243373  *   0.94238478  *
    13       H          2.64776209  *   0.46329458  *   0.62400117  *
    14       H          2.65516620  *  -0.95790583  *  -0.43946420  *
    15       H          2.43327035  *   0.66469714  *  -1.12408927  *
    16       H          0.35675493  *  -2.22054632  *  -0.31271632  *

                             CARTESIAN COORDINATES

   1    C       -1.552747260     0.593563919     0.258919695
   2    C       -0.116504419     1.125843781     0.146251877
   3    C       -1.463008417    -0.927949567     0.065551140
   4    C        2.187403730     0.020134681    -0.269371210
   5    C        0.727350537    -0.088916717    -0.102955933
   6    C       -0.010928180    -1.208193718    -0.146349458
   7    H       -1.997927169     0.847497574     1.237357406
   8    H       -2.211152033     1.055483988    -0.498140731
   9    H       -0.004937378     1.855809281    -0.676641342
  10    H        0.209097961     1.647022179     1.065387907
  11    H       -2.058965248    -1.273681518    -0.799073124
  12    H       -1.845080163    -1.482433728     0.942384779
  13    H        2.647762090     0.463294584     0.624001169
  14    H        2.655166203    -0.957905829    -0.439464201
  15    H        2.433270347     0.664697136    -1.124089268
  16    H        0.356754934    -2.220546324    -0.312716318


           Empirical Formula: C6 H10  =    16 atoms



      MOLECULAR POINT GROUP   :   C1  


                  EIGENVALUES  
 -40.20938 -31.61873 -28.07855 -24.63742 -20.29108 -18.10519 -16.60308 -16.41493
 -14.40360 -14.23773 -13.33855 -13.23956 -12.79221 -12.63354 -12.40143 -11.77190
  -9.27846   1.08183   3.37084   3.63576   3.76476   3.78706   3.94785   4.13920
   4.20965   4.34783   4.43904   4.45692   4.53314   4.66657   5.08416   5.24277
   5.73119   6.10825


              NET ATOMIC CHARGES AND DIPOLE CONTRIBUTIONS

  ATOM NO.   TYPE          CHARGE      No. of ELECS.   s-Pop       p-Pop       
    1          C          -0.097677        4.0977     1.16552     2.93215
    2          C          -0.055557        4.0556     1.15299     2.90257
    3          C          -0.060346        4.0603     1.15291     2.90744
    4          C          -0.050549        4.0505     1.11762     2.93292
    5          C          -0.135824        4.1358     1.20368     2.93214
    6          C          -0.159536        4.1595     1.20034     2.95920
    7          H           0.049073        0.9509     0.95093
    8          H           0.049071        0.9509     0.95093
    9          H           0.054850        0.9451     0.94515
   10          H           0.054853        0.9451     0.94515
   11          H           0.054102        0.9459     0.94590
   12          H           0.054102        0.9459     0.94590
   13          H           0.044206        0.9558     0.95579
   14          H           0.041842        0.9582     0.95816
   15          H           0.044236        0.9558     0.95576
   16          H           0.113153        0.8868     0.88685
 DIPOLE           X         Y         Z       TOTAL
 POINT-CHG.     0.040     0.164     0.014     0.170
 HYBRID         0.001     0.004     0.000     0.004
 SUM            0.042     0.169     0.015     0.174


          ATOMIC ORBITAL ELECTRON POPULATIONS

     Atom    s        px        py        pz   
    1  C   1.16552   0.96239   0.95646   1.01330
    2  C   1.15299   0.93832   0.95565   1.00860
    3  C   1.15291   0.94824   0.95249   1.00671
    4  C   1.11762   0.92115   1.00869   1.00308
    5  C   1.20368   0.95867   0.96151   1.01196
    6  C   1.20034   0.95846   0.97279   1.02794
    7  H   0.95093
    8  H   0.95093
    9  H   0.94515
   10  H   0.94515
   11  H   0.94590
   12  H   0.94590
   13  H   0.95579
   14  H   0.95816
   15  H   0.95576
   16  H   0.88685
 *******************************************************************************
 ** Site#: 14399        For non-commercial use only    Version 18.184L 64BITS **
 *******************************************************************************
 ** Cite this program as: MOPAC2016, Version: 18.184L, James J. P. Stewart,   **
 ** Stewart Computational Chemistry, web: HTTP://OpenMOPAC.net. Days left:  20**
 *******************************************************************************
 **                                                                           **
 **                                MOPAC2016                                  **
 **                                                                           **
 *******************************************************************************

                              PM3 CALCULATION RESULTS

 *******************************************************************************
 *  CALCULATION DONE:                                Thu Jun 13 15:43:41 2019  *
 *  PM3        - The PM3 Hamiltonian to be used
 *  OLDGEO     - PREVIOUS GEOMETRY TO BE USED
 *  PRECISE    - CRITERIA TO BE INCREASED BY 100 TIMES
 *  NOSYM      - POINT-GROUP SYMMETRY SET TO C1
 *  THREADS=1  - MULTI-THREADING NOT USED
 *  T=         - A TIME OF 172800.0 SECONDS REQUESTED
 *  DUMP=N     - RESTART FILE WRITTEN EVERY  7200.000 SECONDS
 *  THERMO     - THERMODYNAMIC QUANTITIES TO BE CALCULATED
 *******************************************************************************
oldgeo thermo nosym precise THREADS=1  pm3
 InChI=1S/C6H10/c1-6-4-2-3-5-6/h4H,2-3,5H2,1H3

   ATOM   CHEMICAL          X               Y               Z
  NUMBER   SYMBOL      (ANGSTROMS)     (ANGSTROMS)     (ANGSTROMS)
 
     1       C         -1.55274726  *   0.59356392  *   0.25891969  *
     2       C         -0.11650442  *   1.12584378  *   0.14625188  *
     3       C         -1.46300842  *  -0.92794957  *   0.06555114  *
     4       C          2.18740373  *   0.02013468  *  -0.26937121  *
     5       C          0.72735054  *  -0.08891672  *  -0.10295593  *
     6       C         -0.01092818  *  -1.20819372  *  -0.14634946  *
     7       H         -1.99792717  *   0.84749757  *   1.23735741  *
     8       H         -2.21115203  *   1.05548399  *  -0.49814073  *
     9       H         -0.00493738  *   1.85580928  *  -0.67664134  *
    10       H          0.20909796  *   1.64702218  *   1.06538791  *
    11       H         -2.05896525  *  -1.27368152  *  -0.79907312  *
    12       H         -1.84508016  *  -1.48243373  *   0.94238478  *
    13       H          2.64776209  *   0.46329458  *   0.62400117  *
    14       H          2.65516620  *  -0.95790583  *  -0.43946420  *
    15       H          2.43327035  *   0.66469714  *  -1.12408927  *
    16       H          0.35675493  *  -2.22054632  *  -0.31271632  *
 


          CARTESIAN COORDINATES 

    NO.       ATOM           X           Y           Z

     1         C         -1.5527      0.5936      0.2589
     2         C         -0.1165      1.1258      0.1463
     3         C         -1.4630     -0.9279      0.0656
     4         C          2.1874      0.0201     -0.2694
     5         C          0.7274     -0.0889     -0.1030
     6         C         -0.0109     -1.2082     -0.1463
     7         H         -1.9979      0.8475      1.2374
     8         H         -2.2112      1.0555     -0.4981
     9         H         -0.0049      1.8558     -0.6766
    10         H          0.2091      1.6470      1.0654
    11         H         -2.0590     -1.2737     -0.7991
    12         H         -1.8451     -1.4824      0.9424
    13         H          2.6478      0.4633      0.6240
    14         H          2.6552     -0.9579     -0.4395
    15         H          2.4333      0.6647     -1.1241
    16         H          0.3568     -2.2205     -0.3127

  H: (PM3): J. J. P. STEWART, J. COMP. CHEM. 10, 209 (1989).
  C: (PM3): J. J. P. STEWART, J. COMP. CHEM. 10, 209 (1989).

           Empirical Formula: C6 H10  =    16 atoms



      MOLECULAR POINT GROUP   :   C1  


      RHF CALCULATION, NO. OF DOUBLY OCCUPIED LEVELS = 17



          HEAT OF FORMATION =      -7.109988 KCALS/MOLE


          CARTESIAN COORDINATE DERIVATIVES

   NUMBER  ATOM         X            Y            Z

     1       C      0.000534     0.000349    -0.001000
     2       C     -0.000911     0.000732     0.002078
     3       C      0.000750     0.000811     0.006833
     4       C     -0.000091    -0.001852     0.000906
     5       C     -0.001226    -0.000134    -0.001731
     6       C     -0.001034     0.000466    -0.003677
     7       H      0.001594    -0.000585    -0.000688
     8       H      0.001528    -0.000570     0.000429
     9       H     -0.000459    -0.003628     0.000787
    10       H      0.000144     0.003621    -0.001457
    11       H     -0.003661    -0.003020     0.000354
    12       H      0.002703     0.004086    -0.000849
    13       H      0.001825    -0.001998     0.000270
    14       H      0.000931     0.000379    -0.004331
    15       H     -0.001357     0.001156     0.002675
    16       H     -0.001271     0.000190    -0.000600
 


          GRADIENT NORM =   0.01417


          TIME FOR SCF CALCULATION =    0.02

          TIME FOR DERIVATIVES     =    0.01

          MOLECULAR WEIGHT =   82.14



          ROTATIONAL CONSTANTS IN CM(-1)

          A =    0.23241635   B =    0.10271293   C =    0.07523445



           PRINCIPAL MOMENTS OF INERTIA IN UNITS OF 10**(-40)*GRAM-CM**2

          A =      120.4424   B =      272.5341   C =      372.0739


          ORIENTATION OF MOLECULE IN FORCE CALCULATION

    NO.       ATOM         X         Y         Z

     1          C      -1.2147   -1.1586    0.0000
     2          C       0.3212   -1.1586    0.0000
     3          C      -1.6439    0.3166    0.0000
     4          C       2.1230    0.7007    0.0000
     5          C       0.7076    0.2907   -0.0001
     6          C      -0.3675    1.0931   -0.0001
     7          H      -1.6147   -1.6923   -0.8804
     8          H      -1.6147   -1.6923    0.8805
     9          H       0.7389   -1.6753    0.8838
    10          H       0.7389   -1.6753   -0.8837
    11          H      -2.2576    0.5717    0.8835
    12          H      -2.2576    0.5717   -0.8834
    13          H       2.6415    0.3053   -0.8839
    14          H       2.2339    1.7924   -0.0045
    15          H       2.6390    0.3130    0.8888
    16          H      -0.3623    2.1829   -0.0003


    FIRST DERIVATIVES WILL BE USED IN THE CALCULATION OF SECOND DERIVATIVES

          ESTIMATED TIME TO COMPLETE CALCULATION =        5.25 SECONDS

    FOR POINT-GROUP C1   THERE ARE   1 UNIQUE SYMMETRY FUNCTIONS.

 STEP:   1 TIME =     0.04 SECS, INTEGRAL =      0.04 TIME LEFT: 172799.94
 STEP:   2 TIME =     0.03 SECS, INTEGRAL =      0.07 TIME LEFT: 172799.91
 STEP:   3 TIME =     0.03 SECS, INTEGRAL =      0.09 TIME LEFT: 172799.88
 STEP:   4 TIME =     0.03 SECS, INTEGRAL =      0.12 TIME LEFT: 172799.85
 STEP:   5 TIME =     0.03 SECS, INTEGRAL =      0.15 TIME LEFT: 172799.82
 STEP:   6 TIME =     0.03 SECS, INTEGRAL =      0.18 TIME LEFT: 172799.79
 STEP:   7 TIME =     0.03 SECS, INTEGRAL =      0.21 TIME LEFT: 172799.77
 STEP:   8 TIME =     0.03 SECS, INTEGRAL =      0.23 TIME LEFT: 172799.74
 STEP:   9 TIME =     0.03 SECS, INTEGRAL =      0.26 TIME LEFT: 172799.71
 STEP:  10 TIME =     0.03 SECS, INTEGRAL =      0.29 TIME LEFT: 172799.68
 STEP:  11 TIME =     0.02 SECS, INTEGRAL =      0.31 TIME LEFT: 172799.66
 STEP:  12 TIME =     0.02 SECS, INTEGRAL =      0.33 TIME LEFT: 172799.64
 STEP:  13 TIME =     0.02 SECS, INTEGRAL =      0.36 TIME LEFT: 172799.62
 STEP:  14 TIME =     0.02 SECS, INTEGRAL =      0.38 TIME LEFT: 172799.59
 STEP:  15 TIME =     0.02 SECS, INTEGRAL =      0.40 TIME LEFT: 172799.57
 STEP:  16 TIME =     0.02 SECS, INTEGRAL =      0.43 TIME LEFT: 172799.55
 STEP:  17 TIME =     0.02 SECS, INTEGRAL =      0.45 TIME LEFT: 172799.52
 STEP:  18 TIME =     0.02 SECS, INTEGRAL =      0.47 TIME LEFT: 172799.50
 STEP:  19 TIME =     0.02 SECS, INTEGRAL =      0.50 TIME LEFT: 172799.48
 STEP:  20 TIME =     0.02 SECS, INTEGRAL =      0.52 TIME LEFT: 172799.45
 STEP:  21 TIME =     0.03 SECS, INTEGRAL =      0.55 TIME LEFT: 172799.43
 STEP:  22 TIME =     0.02 SECS, INTEGRAL =      0.57 TIME LEFT: 172799.40
 STEP:  23 TIME =     0.02 SECS, INTEGRAL =      0.59 TIME LEFT: 172799.38
 STEP:  24 TIME =     0.02 SECS, INTEGRAL =      0.62 TIME LEFT: 172799.36
 STEP:  25 TIME =     0.02 SECS, INTEGRAL =      0.64 TIME LEFT: 172799.33
 STEP:  26 TIME =     0.02 SECS, INTEGRAL =      0.66 TIME LEFT: 172799.31
 STEP:  27 TIME =     0.02 SECS, INTEGRAL =      0.69 TIME LEFT: 172799.29
 STEP:  28 TIME =     0.03 SECS, INTEGRAL =      0.72 TIME LEFT: 172799.25
 STEP:  29 TIME =     0.03 SECS, INTEGRAL =      0.75 TIME LEFT: 172799.22
 STEP:  30 TIME =     0.03 SECS, INTEGRAL =      0.78 TIME LEFT: 172799.20
 STEP:  31 TIME =     0.02 SECS, INTEGRAL =      0.80 TIME LEFT: 172799.17
 STEP:  32 TIME =     0.02 SECS, INTEGRAL =      0.82 TIME LEFT: 172799.15
 STEP:  33 TIME =     0.02 SECS, INTEGRAL =      0.85 TIME LEFT: 172799.12
 STEP:  34 TIME =     0.03 SECS, INTEGRAL =      0.88 TIME LEFT: 172799.10
 STEP:  35 TIME =     0.03 SECS, INTEGRAL =      0.90 TIME LEFT: 172799.07
 STEP:  36 TIME =     0.02 SECS, INTEGRAL =      0.93 TIME LEFT: 172799.05
 STEP:  37 TIME =     0.02 SECS, INTEGRAL =      0.95 TIME LEFT: 172799.02
 STEP:  38 TIME =     0.02 SECS, INTEGRAL =      0.97 TIME LEFT: 172799.00
 STEP:  39 TIME =     0.02 SECS, INTEGRAL =      1.00 TIME LEFT: 172798.98
 STEP:  40 TIME =     0.02 SECS, INTEGRAL =      1.02 TIME LEFT: 172798.95
 STEP:  41 TIME =     0.02 SECS, INTEGRAL =      1.04 TIME LEFT: 172798.93
 STEP:  42 TIME =     0.02 SECS, INTEGRAL =      1.07 TIME LEFT: 172798.91
 STEP:  43 TIME =     0.03 SECS, INTEGRAL =      1.09 TIME LEFT: 172798.88
 STEP:  44 TIME =     0.03 SECS, INTEGRAL =      1.12 TIME LEFT: 172798.85
 STEP:  45 TIME =     0.03 SECS, INTEGRAL =      1.15 TIME LEFT: 172798.82
 STEP:  46 TIME =     0.03 SECS, INTEGRAL =      1.18 TIME LEFT: 172798.79
 STEP:  47 TIME =     0.02 SECS, INTEGRAL =      1.21 TIME LEFT: 172798.77
 STEP:  48 TIME =     0.02 SECS, INTEGRAL =      1.23 TIME LEFT: 172798.74

(To convert to Hartree/Bohr^2, multiply by (10^(-21) x N x a0^2)/(4.184 x 627.51) =  0.0642)


           FORCE MATRIX IN MILLIDYNES/ANGSTROM


                  C  1       C  2       C  3       C  4       C  5       C  6
 ------------------------------------------------------------------------------
     C    1  14.265505
     C    2   3.771192  14.613002
     C    3   3.757272   0.739675  14.676910
     C    4   0.047759   0.516883   0.128011  14.853066
     C    5   0.874075   4.532041   1.172720   5.433061  18.892986
     C    6   0.885373   1.137283   4.761961   0.724542  10.272586  18.348765
     H    7   4.573350   0.440735   0.440839   0.004045   0.028106   0.027803
     H    8   4.573378   0.440800   0.440906   0.004029   0.028097   0.027782
     H    9   0.436744   4.517958   0.027341   0.012614   0.438829   0.035603
     H   10   0.436781   4.518067   0.027398   0.012708   0.438711   0.035585
     H   11   0.436970   0.027723   4.517313   0.018480   0.036043   0.428745
     H   12   0.436976   0.027751   4.517463   0.018401   0.036037   0.428703
     H   13   0.002122   0.014079   0.017656   4.702332   0.450989   0.031864
     H   14   0.007592   0.043047   0.003325   4.752546   0.471919   0.027447
     H   15   0.002121   0.014013   0.017612   4.701878   0.450643   0.031620
     H   16   0.042249   0.106010   0.410468   0.054965   0.460031   5.011262


                  H  7       H  8       H  9       H 10       H 11       H 12
 ------------------------------------------------------------------------------
     H    7   5.180366
     H    8   0.585040   5.180362
     H    9   0.027384   0.029000   5.123771
     H   10   0.028994   0.027392   0.572027   5.123766
     H   11   0.027401   0.029055   0.001264   0.004163   5.124300
     H   12   0.029058   0.027394   0.004164   0.001267   0.573940   5.124315
     H   13   0.000338   0.000379   0.000979   0.006330   0.002195   0.003131
     H   14   0.000784   0.000773   0.001267   0.001270   0.000502   0.000485
     H   15   0.000382   0.000320   0.006206   0.000982   0.003122   0.002183
     H   16   0.003008   0.003006   0.014711   0.014693   0.014355   0.014302


                  H 13       H 14       H 15       H 16
 ------------------------------------------------------
     H   13   5.412930
     H   14   0.558231   5.456364
     H   15   0.571627   0.558459   5.412546
     H   16   0.006730   0.013214   0.006768   5.413319


          HEAT OF FORMATION =      -7.109988 KCALS/MOLE

          ZERO POINT ENERGY      89.886 KCAL/MOL


           NORMAL COORDINATE ANALYSIS (Total motion = 1 Angstrom)


   Root No.       1         2         3         4         5         6         7         8

                 1 A       2 A       3 A       4 A       5 A       6 A       7 A       8 A   

                 109.0     122.5     223.4     340.2     456.0     613.5     713.0     757.1
  
           1    0.0000    0.0000   -0.0000   -0.0243   -0.0000   -0.0565   -0.0254    0.0000
           2   -0.0000   -0.0000   -0.0000    0.0066   -0.0000   -0.0242   -0.0678   -0.0000
           3    0.0459   -0.0092   -0.0041    0.0000   -0.0058    0.0000    0.0000   -0.0193
           4    0.0000    0.0000   -0.0000   -0.0171   -0.0000   -0.0445   -0.0495    0.0000
           5    0.0000    0.0001   -0.0000   -0.0389    0.0000    0.0371    0.0102   -0.0000
           6   -0.0381    0.0294    0.0161    0.0000   -0.0066   -0.0000   -0.0000   -0.0113
           7   -0.0000   -0.0000   -0.0000    0.0135   -0.0000   -0.0212    0.0929    0.0000
           8   -0.0000   -0.0000   -0.0000    0.0169   -0.0000   -0.0346   -0.0297    0.0000
           9   -0.0233   -0.0038   -0.0457   -0.0000    0.0001   -0.0000    0.0000   -0.0215
          10   -0.0000   -0.0000    0.0000   -0.0123    0.0000    0.0823   -0.0293   -0.0000
          11   -0.0000   -0.0001    0.0000    0.0623   -0.0000    0.0235    0.0019   -0.0000
          12    0.0210   -0.0109   -0.0443   -0.0000   -0.0065    0.0000   -0.0000    0.0048
          13   -0.0000   -0.0000    0.0000    0.0172   -0.0000    0.0460   -0.0181   -0.0000
          14    0.0000    0.0001   -0.0000   -0.0456    0.0000    0.0297    0.0202   -0.0000
          15   -0.0055    0.0047    0.0371    0.0000    0.0915   -0.0000    0.0000    0.0129
          16   -0.0000   -0.0000    0.0000    0.0322   -0.0000   -0.0026    0.0330    0.0000
          17    0.0000    0.0000    0.0000   -0.0256   -0.0000   -0.0302    0.0708    0.0000
          18   -0.0019   -0.0083    0.0646   -0.0000   -0.0352   -0.0000   -0.0000   -0.0029
          19   -0.0525    0.0237    0.0094   -0.0400    0.0001   -0.0504   -0.0477   -0.0670
          20   -0.0611    0.0116   -0.0258    0.0186    0.0028   -0.0365   -0.0648   -0.1040
          21    0.1072   -0.0271    0.0075    0.0000   -0.0076    0.0033    0.0059    0.0788
          22    0.0526   -0.0236   -0.0094   -0.0400   -0.0001   -0.0504   -0.0477    0.0670
          23    0.0611   -0.0117    0.0258    0.0186   -0.0028   -0.0365   -0.0648    0.1040
          24    0.1072   -0.0271    0.0075    0.0000   -0.0076   -0.0032   -0.0059    0.0788
          25    0.0497   -0.0226   -0.0117   -0.0362    0.0157   -0.0599   -0.0338   -0.0570
          26   -0.0391    0.0242   -0.0067   -0.0535   -0.1209    0.0319    0.0288    0.0483
          27   -0.0848    0.0545    0.0178   -0.0000   -0.0877    0.0027    0.0028    0.0469
          28   -0.0497    0.0227    0.0117   -0.0362   -0.0157   -0.0599   -0.0339    0.0570
          29    0.0392   -0.0240    0.0067   -0.0534    0.1209    0.0318    0.0288   -0.0483
          30   -0.0848    0.0545    0.0178    0.0001   -0.0876   -0.0026   -0.0028    0.0468
          31   -0.0390    0.0054   -0.0998    0.0216    0.0447   -0.0178    0.1075    0.1068
          32    0.0312   -0.0019    0.0001    0.0366    0.0047   -0.0208   -0.0290   -0.0405
          33   -0.0597    0.0006   -0.1162    0.0001    0.0308   -0.0009    0.0073    0.0690
          34    0.0389   -0.0055    0.0998    0.0216   -0.0447   -0.0178    0.1075   -0.1068
          35   -0.0312    0.0018   -0.0001    0.0366   -0.0047   -0.0208   -0.0290    0.0405
          36   -0.0597    0.0006   -0.1162   -0.0001    0.0308    0.0009   -0.0074    0.0690
          37   -0.0006   -0.0695   -0.0529    0.0272   -0.0876    0.0876   -0.0387   -0.0364
          38    0.0595    0.1885   -0.0321    0.1186   -0.0263    0.0218   -0.0041   -0.0111
          39   -0.0060   -0.1363   -0.0615   -0.0009   -0.0477    0.0030   -0.0020   -0.0124
          40    0.0001   -0.0001   -0.0002   -0.1204   -0.0003    0.1023   -0.0226   -0.0002
          41    0.0003    0.0008   -0.0002    0.0752   -0.0001    0.0219    0.0015   -0.0001
          42    0.0942    0.2122   -0.0916    0.0004   -0.0533    0.0001    0.0000   -0.0153
          43    0.0005    0.0697    0.0532    0.0267    0.0881    0.0878   -0.0386    0.0366
          44   -0.0599   -0.1899    0.0323    0.1177    0.0265    0.0218   -0.0041    0.0111
          45   -0.0054   -0.1345   -0.0617    0.0005   -0.0476   -0.0031    0.0020   -0.0124
          46   -0.0000   -0.0001    0.0000    0.0660   -0.0000   -0.0619    0.0045    0.0000
          47    0.0000    0.0000    0.0000   -0.0251   -0.0000   -0.0298    0.0708    0.0000
          48    0.0148   -0.0211    0.1139   -0.0001   -0.1685    0.0001   -0.0001    0.0951


   Root No.       9        10        11        12        13        14        15        16

                 9 A      10 A      11 A      12 A      13 A      14 A      15 A      16 A   

                 830.9     895.6     951.8     987.4     990.4    1014.9    1022.7    1045.3
  
           1    0.0000    0.0000   -0.0029    0.0000    0.0225   -0.0000    0.0152    0.0251
           2   -0.0000   -0.0000    0.0033    0.0001    0.0204    0.0000    0.0590    0.0061
           3    0.0177    0.0117   -0.0000   -0.0120    0.0000   -0.0181    0.0000    0.0000
           4    0.0000    0.0000    0.0104   -0.0000   -0.0139   -0.0000   -0.0197   -0.0319
           5   -0.0000   -0.0001   -0.0497   -0.0001   -0.0315    0.0001    0.0335    0.0129
           6    0.0242   -0.0294    0.0000    0.0075    0.0000    0.0257   -0.0001   -0.0000
           7    0.0000    0.0000    0.0085    0.0000    0.0037    0.0000    0.0395   -0.0177
           8   -0.0000    0.0000    0.0007   -0.0000   -0.0108   -0.0000   -0.0416   -0.0042
           9   -0.0236    0.0164   -0.0000    0.0248   -0.0000    0.0217   -0.0000    0.0000
          10   -0.0000   -0.0000    0.0039    0.0001    0.0258   -0.0001   -0.0277   -0.0052
          11    0.0000    0.0000    0.0450    0.0000   -0.0139   -0.0000   -0.0015    0.0131
          12    0.0016    0.0215    0.0000   -0.0197    0.0001    0.0246   -0.0000   -0.0000
          13   -0.0000   -0.0000   -0.0026   -0.0000   -0.0102    0.0000    0.0182    0.0042
          14    0.0000   -0.0000    0.0166    0.0000    0.0073   -0.0000   -0.0030   -0.0093
          15   -0.0056    0.0096   -0.0001    0.0156   -0.0001   -0.0301    0.0001    0.0000
          16    0.0000   -0.0000   -0.0109   -0.0000   -0.0128    0.0000    0.0015    0.0194
          17    0.0000    0.0000    0.0064    0.0001    0.0380   -0.0001   -0.0449    0.0085
          18   -0.0223   -0.0255    0.0001   -0.0329    0.0001   -0.0178    0.0000   -0.0000
          19    0.0855   -0.0267   -0.0408   -0.0676    0.0046   -0.0092    0.0018    0.0765
          20    0.0294    0.0729    0.0300    0.0034    0.0334   -0.0577    0.0813   -0.0354
          21   -0.0418   -0.0220    0.0007    0.0182   -0.0010    0.0231   -0.0074    0.0004
          22   -0.0855    0.0267   -0.0410    0.0675    0.0043    0.0093    0.0018    0.0766
          23   -0.0294   -0.0728    0.0303   -0.0032    0.0337    0.0577    0.0811   -0.0355
          24   -0.0418   -0.0220   -0.0006    0.0182    0.0010    0.0231    0.0073   -0.0004
          25    0.0777   -0.0242   -0.0252   -0.1032   -0.0603    0.0252   -0.0745   -0.0720
          26   -0.0614    0.0877   -0.0944   -0.0855   -0.0839   -0.0600    0.0090   -0.0154
          27   -0.0521    0.0360   -0.0085    0.0069   -0.0072   -0.0234    0.0094    0.0028
          28   -0.0777    0.0242   -0.0255    0.1028   -0.0608   -0.0250   -0.0747   -0.0720
          29    0.0614   -0.0878   -0.0943    0.0849   -0.0841    0.0605    0.0085   -0.0155
          30   -0.0521    0.0360    0.0084    0.0070    0.0071   -0.0235   -0.0093   -0.0028
          31    0.0863   -0.0386    0.0085   -0.0575   -0.0305   -0.0927    0.0518   -0.0613
          32    0.0291    0.0689    0.0031    0.0285   -0.0813   -0.1218   -0.0424   -0.0952
          33    0.0303   -0.0328    0.0000   -0.0255   -0.0024   -0.0082    0.0089   -0.0046
          34   -0.0863    0.0386    0.0085    0.0573   -0.0304    0.0929    0.0516   -0.0612
          35   -0.0291   -0.0688    0.0034   -0.0289   -0.0807    0.1220   -0.0426   -0.0951
          36    0.0303   -0.0328    0.0001   -0.0255    0.0025   -0.0083   -0.0089    0.0046
          37   -0.0162   -0.1088   -0.0839    0.0858    0.0864   -0.1059   -0.0647   -0.0336
          38   -0.0051   -0.0313   -0.0834    0.0241    0.0559   -0.0292   -0.0311   -0.0223
          39   -0.0063   -0.0306    0.0037    0.0213    0.0040   -0.0267   -0.0068   -0.0007
          40   -0.0000   -0.0003    0.2580    0.0004   -0.0740   -0.0005   -0.0220    0.0593
          41   -0.0000   -0.0002    0.0157    0.0001   -0.0008   -0.0002   -0.0045    0.0060
          42   -0.0091   -0.0372   -0.0000    0.0256   -0.0001   -0.0328   -0.0000    0.0000
          43    0.0162    0.1093   -0.0820   -0.0860    0.0865    0.1062   -0.0648   -0.0332
          44    0.0051    0.0315   -0.0828   -0.0242    0.0559    0.0292   -0.0310   -0.0222
          45   -0.0063   -0.0306   -0.0037    0.0212   -0.0043   -0.0267    0.0069    0.0008
          46    0.0000   -0.0000   -0.0517   -0.0004   -0.1061    0.0001   -0.1269    0.1936
          47    0.0000    0.0000    0.0072    0.0001    0.0399   -0.0001   -0.0470    0.0063
          48    0.2448    0.0854   -0.0003    0.1326   -0.0003    0.0315    0.0000    0.0000


   Root No.      17        18        19        20        21        22        23        24

                17 A      18 A      19 A      20 A      21 A      22 A      23 A      24 A   

                1070.1    1103.8    1116.5    1119.5    1224.8    1232.5    1292.5    1348.1
  
           1    0.0000    0.0000    0.0002    0.0296    0.0166   -0.0306    0.0573   -0.0058
           2    0.0000   -0.0000   -0.0001   -0.0171   -0.0024   -0.0051   -0.0503   -0.0043
           3   -0.0034   -0.0041    0.0545   -0.0003   -0.0000    0.0000   -0.0000   -0.0000
           4   -0.0000   -0.0000   -0.0002   -0.0280    0.0065    0.0535   -0.0139    0.0245
           5    0.0001    0.0000    0.0000    0.0028    0.0075    0.0223    0.0068    0.0208
           6    0.0031    0.0336   -0.0246    0.0001   -0.0000   -0.0000    0.0000    0.0000
           7    0.0000    0.0000   -0.0000   -0.0036    0.0080   -0.0150   -0.0039    0.0234
           8   -0.0000    0.0000    0.0001    0.0237   -0.0239   -0.0080    0.0332    0.0491
           9    0.0039   -0.0286   -0.0282    0.0002    0.0000    0.0000    0.0000   -0.0000
          10   -0.0000   -0.0000    0.0000    0.0016    0.0071   -0.0117    0.0029   -0.0184
          11   -0.0000   -0.0000    0.0000    0.0014   -0.0066   -0.0122   -0.0006   -0.0016
          12    0.0159    0.0081    0.0019   -0.0000   -0.0000    0.0000    0.0000   -0.0000
          13    0.0000   -0.0000   -0.0000    0.0009   -0.0201    0.0299    0.0165   -0.0113
          14   -0.0000   -0.0000    0.0000    0.0016    0.0202    0.0275    0.0088   -0.0105
          15   -0.0336   -0.0224   -0.0055    0.0001    0.0000   -0.0000   -0.0000    0.0000
          16    0.0000   -0.0000   -0.0001   -0.0088   -0.0419    0.0190    0.0034   -0.0182
          17   -0.0000   -0.0000   -0.0001   -0.0115   -0.0117    0.0094   -0.0130   -0.0217
          18    0.0233    0.0187   -0.0002   -0.0000   -0.0000   -0.0000   -0.0000    0.0000
          19    0.0467   -0.2196    0.0531    0.1285   -0.0463   -0.0174   -0.1414   -0.0344
          20   -0.0448    0.1545    0.0882   -0.0864    0.0537   -0.0523    0.0825   -0.0689
          21    0.0027    0.0021   -0.0222   -0.0025   -0.0047    0.0194    0.0086    0.0458
          22   -0.0464    0.2199   -0.0517    0.1286   -0.0463   -0.0174   -0.1414   -0.0344
          23    0.0447   -0.1547   -0.0892   -0.0853    0.0537   -0.0523    0.0825   -0.0689
          24    0.0028    0.0021   -0.0221    0.0027    0.0047   -0.0194   -0.0086   -0.0458
          25   -0.1151    0.0241   -0.1549   -0.0779   -0.0595   -0.0992   -0.0589   -0.0626
          26   -0.0976   -0.0569   -0.0493   -0.0445   -0.0460   -0.1441    0.0248   -0.0106
          27   -0.0005   -0.0103    0.0206   -0.0024   -0.0007   -0.0225    0.0279    0.0195
          28    0.1149   -0.0244    0.1540   -0.0795   -0.0595   -0.0991   -0.0589   -0.0626
          29    0.0976    0.0568    0.0489   -0.0452   -0.0461   -0.1441    0.0249   -0.0106
          30   -0.0005   -0.0103    0.0206    0.0023    0.0007    0.0225   -0.0279   -0.0195
          31    0.0413    0.0545    0.0053    0.0538    0.0839   -0.0253   -0.0743    0.0204
          32    0.1324    0.0077   -0.1572    0.1315    0.0759    0.0104    0.0053   -0.1069
          33   -0.0056    0.0059    0.0220    0.0069    0.0205   -0.0105   -0.0357    0.0373
          34   -0.0412   -0.0543   -0.0046    0.0539    0.0839   -0.0252   -0.0743    0.0204
          35   -0.1323   -0.0074    0.1587    0.1302    0.0759    0.0105    0.0053   -0.1069
          36   -0.0056    0.0059    0.0219   -0.0071   -0.0205    0.0105    0.0357   -0.0373
          37   -0.0653   -0.0318   -0.0082    0.0008    0.0517   -0.0668   -0.0477    0.0828
          38   -0.0175   -0.0084   -0.0021   -0.0007    0.0251   -0.0202   -0.0176    0.0128
          39   -0.0162   -0.0076   -0.0024    0.0005    0.0097   -0.0226   -0.0176    0.0437
          40   -0.0003   -0.0002    0.0000    0.0045    0.0050   -0.1271   -0.0601    0.0798
          41   -0.0001   -0.0001   -0.0000    0.0009   -0.0037   -0.0041    0.0029   -0.0083
          42   -0.0204   -0.0100   -0.0029    0.0001    0.0001   -0.0002   -0.0001    0.0003
          43    0.0657    0.0320    0.0082    0.0005    0.0514   -0.0670   -0.0478    0.0829
          44    0.0177    0.0084    0.0021   -0.0008    0.0249   -0.0201   -0.0175    0.0126
          45   -0.0161   -0.0076   -0.0024   -0.0004   -0.0097    0.0226    0.0176   -0.0435
          46    0.0000   -0.0001   -0.0007   -0.1143    0.2213    0.0073   -0.0371   -0.0233
          47   -0.0000   -0.0000   -0.0001   -0.0101   -0.0137    0.0108   -0.0129   -0.0230
          48   -0.0486   -0.0336   -0.0080    0.0001    0.0000    0.0000    0.0000    0.0000


   Root No.      25        26        27        28        29        30        31        32

                25 A      26 A      27 A      28 A      29 A      30 A      31 A      32 A   

                1362.0    1390.8    1390.9    1396.1    1411.1    1424.4    1485.0    1880.3
  
           1    0.0037    0.0000    0.0033   -0.0050   -0.0239   -0.0250   -0.0008   -0.0056
           2   -0.0035    0.0000    0.0119   -0.0121    0.0038   -0.0374    0.0021   -0.0077
           3    0.0000   -0.0000    0.0000    0.0000    0.0000    0.0000    0.0000   -0.0000
           4    0.0189    0.0000    0.0175   -0.0083    0.0130    0.0211   -0.0239   -0.0102
           5    0.0158   -0.0000   -0.0162    0.0228   -0.0215    0.0017   -0.0697    0.0075
           6   -0.0000    0.0003    0.0000   -0.0000    0.0000    0.0000    0.0000    0.0000
           7   -0.0109   -0.0000   -0.0129    0.0176    0.0527   -0.0161   -0.0193    0.0129
           8   -0.0319    0.0001   -0.0075    0.0082    0.0066    0.0161    0.0066    0.0001
           9   -0.0000   -0.0001    0.0000    0.0000   -0.0000   -0.0000   -0.0000   -0.0000
          10   -0.0318    0.0002    0.0127   -0.0084    0.0121    0.0027   -0.0838   -0.0520
          11    0.0010   -0.0007   -0.0154   -0.0208    0.0007    0.0013   -0.0349   -0.0069
          12   -0.0001   -0.0437    0.0003    0.0003   -0.0000   -0.0000    0.0000    0.0000
          13   -0.0061   -0.0000   -0.0049   -0.0024   -0.0061   -0.0011    0.0702    0.2349
          14   -0.0250    0.0000   -0.0075   -0.0007    0.0154   -0.0065    0.1091   -0.1236
          15    0.0000   -0.0011    0.0000    0.0000   -0.0000   -0.0000    0.0000    0.0000
          16    0.0274    0.0000    0.0030   -0.0022   -0.0282    0.0052    0.0229   -0.1922
          17    0.0188   -0.0000    0.0093   -0.0101   -0.0139    0.0051   -0.0256    0.1106
          18   -0.0000   -0.0002    0.0000    0.0000   -0.0000    0.0000    0.0000   -0.0000
          19   -0.0166   -0.0004   -0.0248    0.0215    0.0722    0.1017    0.0263   -0.0018
          20    0.0281   -0.0001   -0.0441    0.0385   -0.0079    0.1503   -0.0010   -0.0020
          21   -0.0087    0.0002    0.0404   -0.0368   -0.0314   -0.1480   -0.0100   -0.0070
          22   -0.0166    0.0001   -0.0248    0.0215    0.0722    0.1017    0.0263   -0.0018
          23    0.0281   -0.0003   -0.0441    0.0385   -0.0079    0.1503   -0.0011   -0.0020
          24    0.0087   -0.0002   -0.0404    0.0368    0.0314    0.1480    0.0100    0.0070
          25   -0.0619   -0.0008   -0.0736    0.0488   -0.0537   -0.0669    0.0214    0.0243
          26    0.0181   -0.0015    0.0811   -0.0758    0.0566    0.0242    0.0519    0.0319
          27    0.0346   -0.0005    0.0871   -0.0739    0.0665    0.0476    0.0419    0.0031
          28   -0.0619    0.0007   -0.0736    0.0488   -0.0537   -0.0669    0.0214    0.0243
          29    0.0181    0.0016    0.0811   -0.0759    0.0567    0.0243    0.0520    0.0319
          30   -0.0346   -0.0006   -0.0871    0.0739   -0.0665   -0.0476   -0.0419   -0.0031
          31   -0.0608    0.0006    0.0354   -0.0490   -0.1255    0.0624    0.0128    0.0197
          32    0.0819    0.0002    0.0043   -0.0016    0.0255   -0.0572   -0.0214    0.0216
          33   -0.0588    0.0002    0.0263   -0.0379   -0.1121    0.0657    0.0272    0.0046
          34   -0.0608   -0.0001    0.0354   -0.0490   -0.1255    0.0624    0.0128    0.0197
          35    0.0820   -0.0005    0.0043   -0.0016    0.0255   -0.0572   -0.0214    0.0216
          36    0.0588   -0.0002   -0.0263    0.0379    0.1121   -0.0657   -0.0272   -0.0045
          37    0.0969   -0.0725   -0.0761   -0.0258   -0.0107   -0.0059    0.0933   -0.0252
          38    0.0138   -0.2403    0.1113    0.1313   -0.0158   -0.0042    0.0767   -0.0016
          39    0.0576    0.0508   -0.0992   -0.0748   -0.0038   -0.0020    0.0410    0.0047
          40    0.1177    0.0016    0.0656    0.1176   -0.0458   -0.0032    0.0626    0.0519
          41   -0.0095    0.0014   -0.0102   -0.0193    0.0038    0.0012   -0.0369   -0.0173
          42    0.0008    0.4293   -0.0023   -0.0018    0.0003    0.0001   -0.0000    0.0000
          43    0.0973    0.0686   -0.0772   -0.0268   -0.0107   -0.0058    0.0929   -0.0248
          44    0.0140    0.2476    0.1093    0.1296   -0.0154   -0.0041    0.0758   -0.0016
          45   -0.0573    0.0543    0.0975    0.0731    0.0040    0.0020   -0.0413   -0.0048
          46   -0.0471   -0.0001   -0.0084   -0.0041    0.0468   -0.0210    0.0437    0.0565
          47    0.0194   -0.0000    0.0100   -0.0115   -0.0149    0.0063   -0.0269    0.1551
          48   -0.0000    0.0008   -0.0000    0.0000    0.0000   -0.0000   -0.0000   -0.0000


   Root No.      33        34        35        36        37        38        39        40

                33 A      34 A      35 A      36 A      37 A      38 A      39 A      40 A   

                2969.7    2975.0    2994.3    3053.5    3054.4    3067.4    3071.6    3078.3
  
           1   -0.0000   -0.0000    0.0000   -0.0019    0.0026    0.0000   -0.0208    0.0001
           2    0.0000   -0.0000    0.0000   -0.0016    0.0040    0.0000   -0.0278    0.0002
           3    0.0174    0.0004   -0.0345   -0.0000    0.0000   -0.0000    0.0000    0.0000
           4   -0.0000    0.0000    0.0000   -0.0192    0.0062   -0.0000    0.0019    0.0003
           5    0.0000   -0.0000   -0.0000    0.0239   -0.0075    0.0000   -0.0031    0.0001
           6   -0.0217   -0.0307   -0.0135   -0.0000   -0.0000    0.0001    0.0000    0.0000
           7   -0.0000    0.0000   -0.0000   -0.0093   -0.0269   -0.0000   -0.0037    0.0001
           8   -0.0000   -0.0000    0.0000    0.0038    0.0111    0.0000    0.0010    0.0000
           9   -0.0225    0.0300   -0.0133    0.0000   -0.0000   -0.0001   -0.0000    0.0000
          10    0.0000    0.0000    0.0000   -0.0000   -0.0000    0.0000    0.0000    0.0143
          11   -0.0000   -0.0000   -0.0000   -0.0001   -0.0000   -0.0001   -0.0002   -0.0485
          12   -0.0001   -0.0001   -0.0001    0.0000    0.0000   -0.0577   -0.0000    0.0001
          13   -0.0000    0.0000   -0.0000    0.0001    0.0006   -0.0000    0.0005    0.0004
          14    0.0000    0.0000    0.0000    0.0005   -0.0002    0.0000    0.0001   -0.0002
          15   -0.0001    0.0001   -0.0001    0.0000    0.0000   -0.0001    0.0000    0.0000
          16    0.0000    0.0000    0.0000    0.0001   -0.0005    0.0000    0.0000   -0.0005
          17    0.0000   -0.0000   -0.0000   -0.0002   -0.0014    0.0000   -0.0008   -0.0007
          18   -0.0001   -0.0001   -0.0001   -0.0000    0.0000   -0.0002    0.0000   -0.0000
          19   -0.0477    0.0016    0.0976    0.0071   -0.0162   -0.0001    0.1254   -0.0008
          20   -0.0636   -0.0037    0.1301    0.0114   -0.0207   -0.0001    0.1674   -0.0010
          21   -0.1047   -0.0025    0.2066    0.0206   -0.0405   -0.0001    0.3188   -0.0020
          22    0.0477   -0.0016   -0.0976    0.0071   -0.0162   -0.0000    0.1254   -0.0008
          23    0.0636    0.0037   -0.1302    0.0114   -0.0207   -0.0001    0.1674   -0.0010
          24   -0.1047   -0.0026    0.2066   -0.0206    0.0405    0.0001   -0.3188    0.0019
          25    0.0626    0.0904    0.0420    0.1157   -0.0352   -0.0007   -0.0155   -0.0002
          26   -0.0793   -0.1120   -0.0491   -0.1433    0.0440    0.0003    0.0178    0.0007
          27    0.1310    0.1851    0.0808    0.2814   -0.0863   -0.0010   -0.0358   -0.0010
          28   -0.0626   -0.0904   -0.0420    0.1156   -0.0352    0.0008   -0.0155   -0.0001
          29    0.0793    0.1120    0.0491   -0.1432    0.0440   -0.0004    0.0178    0.0007
          30    0.1310    0.1852    0.0808   -0.2814    0.0863   -0.0012    0.0358    0.0009
          31   -0.0971    0.1299   -0.0583    0.0574    0.1599   -0.0000    0.0220   -0.0004
          32    0.0393   -0.0541    0.0262   -0.0241   -0.0666    0.0001   -0.0102    0.0002
          33    0.1356   -0.1807    0.0798   -0.0950   -0.2650    0.0001   -0.0368    0.0006
          34    0.0971   -0.1299    0.0583    0.0574    0.1600    0.0002    0.0220   -0.0004
          35   -0.0393    0.0541   -0.0262   -0.0241   -0.0666   -0.0001   -0.0102    0.0002
          36    0.1356   -0.1807    0.0798    0.0950    0.2650    0.0004    0.0368   -0.0007
          37   -0.0003   -0.0006   -0.0002    0.0002   -0.0001   -0.2142   -0.0007   -0.1077
          38    0.0000    0.0001    0.0000    0.0002   -0.0000    0.1768    0.0004    0.0711
          39    0.0003    0.0006    0.0002    0.0000    0.0001    0.3584    0.0012    0.2094
          40    0.0000    0.0000    0.0000    0.0002   -0.0000   -0.0001    0.0002    0.0421
          41    0.0000    0.0000    0.0000    0.0024   -0.0006   -0.0014    0.0021    0.4381
          42   -0.0000   -0.0001   -0.0000   -0.0000    0.0000   -0.0290   -0.0000   -0.0019
          43    0.0002    0.0006    0.0001    0.0001   -0.0002    0.2140   -0.0005   -0.1060
          44   -0.0000   -0.0001   -0.0000    0.0003    0.0000   -0.1743    0.0003    0.0684
          45    0.0002    0.0006    0.0001   -0.0002   -0.0002    0.3622   -0.0010   -0.2085
          46    0.0000    0.0000   -0.0000   -0.0003   -0.0013   -0.0000    0.0002   -0.0007
          47   -0.0000    0.0000    0.0000   -0.0040    0.0174   -0.0001    0.0150    0.0089
          48   -0.0007    0.0003   -0.0005   -0.0000   -0.0000    0.0005   -0.0000   -0.0000


   Root No.      41        42

                41 A      42 A   

                3123.7    3166.4
  
           1    0.0011   -0.0000
           2    0.0016    0.0000
           3    0.0000    0.0000
           4   -0.0011    0.0001
           5    0.0017   -0.0000
           6    0.0000    0.0000
           7    0.0024   -0.0000
           8   -0.0009    0.0000
           9   -0.0000   -0.0000
          10   -0.0002   -0.0232
          11    0.0009   -0.0088
          12   -0.0000    0.0000
          13   -0.0058   -0.0003
          14    0.0032   -0.0000
          15   -0.0000    0.0000
          16    0.0042    0.0002
          17   -0.0716    0.0003
          18    0.0000   -0.0000
          19   -0.0039    0.0000
          20   -0.0049    0.0000
          21   -0.0097    0.0000
          22   -0.0039    0.0000
          23   -0.0049    0.0000
          24    0.0097   -0.0000
          25    0.0041   -0.0005
          26   -0.0049    0.0004
          27    0.0097   -0.0010
          28    0.0041   -0.0006
          29   -0.0049    0.0004
          30   -0.0097    0.0010
          31   -0.0114    0.0001
          32    0.0022   -0.0000
          33    0.0168   -0.0001
          34   -0.0114    0.0001
          35    0.0022   -0.0000
          36   -0.0167    0.0002
          37    0.0045    0.1311
          38   -0.0030   -0.1200
          39   -0.0079   -0.2565
          40    0.0004    0.0163
          41   -0.0057    0.3427
          42    0.0000   -0.0014
          43    0.0045    0.1302
          44   -0.0030   -0.1177
          45    0.0081    0.2576
          46    0.0054   -0.0005
          47    0.8019   -0.0047
          48   -0.0001    0.0000


           MASS-WEIGHTED COORDINATE ANALYSIS (NORMAL COORDINATES)


   Root No.       1         2         3         4         5         6         7         8

                 1 A       2 A       3 A       4 A       5 A       6 A       7 A       8 A   

                 109.0     122.5     223.4     340.2     456.0     613.5     713.0     757.1
  
           1    0.0001    0.0004   -0.0000   -0.1865   -0.0000   -0.3626   -0.1485    0.0001
           2   -0.0000   -0.0000   -0.0000    0.0507   -0.0000   -0.1554   -0.3966   -0.0001
           3    0.4212   -0.0728   -0.0314    0.0001   -0.0424    0.0000    0.0000   -0.1918
           4    0.0001    0.0003   -0.0000   -0.1317   -0.0000   -0.2860   -0.2895    0.0000
           5    0.0002    0.0004   -0.0000   -0.2993    0.0001    0.2380    0.0597   -0.0001
           6   -0.3500    0.2341    0.1232    0.0002   -0.0487   -0.0000   -0.0000   -0.1127
           7   -0.0001   -0.0001   -0.0000    0.1035   -0.0001   -0.1364    0.5432    0.0001
           8   -0.0000   -0.0002   -0.0000    0.1299   -0.0000   -0.2221   -0.1739    0.0001
           9   -0.2142   -0.0301   -0.3492   -0.0001    0.0009   -0.0000    0.0001   -0.2139
          10   -0.0000   -0.0000    0.0001   -0.0947    0.0002    0.5284   -0.1711   -0.0001
          11   -0.0002   -0.0007    0.0001    0.4790   -0.0000    0.1508    0.0111   -0.0000
          12    0.1925   -0.0866   -0.3386   -0.0000   -0.0481    0.0002   -0.0000    0.0482
          13   -0.0001   -0.0003    0.0000    0.1325   -0.0000    0.2954   -0.1058   -0.0001
          14    0.0002    0.0005   -0.0000   -0.3506    0.0001    0.1906    0.1182   -0.0000
          15   -0.0503    0.0371    0.2834    0.0001    0.6736   -0.0002    0.0001    0.1284
          16   -0.0001   -0.0004    0.0000    0.2476   -0.0001   -0.0169    0.1930    0.0000
          17    0.0001    0.0003    0.0000   -0.1967   -0.0000   -0.1937    0.4140    0.0001
          18   -0.0170   -0.0659    0.4940   -0.0002   -0.2596   -0.0001   -0.0000   -0.0289
          19   -0.1397    0.0546    0.0207   -0.0892    0.0003   -0.0938   -0.0808   -0.1931
          20   -0.1627    0.0268   -0.0572    0.0413    0.0059   -0.0679   -0.1098   -0.2995
          21    0.2852   -0.0624    0.0166    0.0000   -0.0163    0.0061    0.0100    0.2270
          22    0.1399   -0.0543   -0.0208   -0.0892   -0.0003   -0.0938   -0.0808    0.1931
          23    0.1626   -0.0269    0.0572    0.0415   -0.0059   -0.0679   -0.1098    0.2995
          24    0.2852   -0.0624    0.0166    0.0001   -0.0163   -0.0060   -0.0100    0.2270
          25    0.1324   -0.0520   -0.0259   -0.0806    0.0335   -0.1114   -0.0573   -0.1640
          26   -0.1041    0.0557   -0.0148   -0.1191   -0.2580    0.0594    0.0488    0.1392
          27   -0.2257    0.1255    0.0393   -0.0001   -0.1870    0.0049    0.0047    0.1350
          28   -0.1322    0.0523    0.0258   -0.0806   -0.0336   -0.1114   -0.0573    0.1641
          29    0.1042   -0.0553    0.0148   -0.1190    0.2579    0.0591    0.0488   -0.1392
          30   -0.2257    0.1255    0.0393    0.0002   -0.1870   -0.0048   -0.0047    0.1349
          31   -0.1037    0.0125   -0.2211    0.0482    0.0954   -0.0330    0.1820    0.3077
          32    0.0829   -0.0043    0.0001    0.0815    0.0100   -0.0388   -0.0491   -0.1167
          33   -0.1589    0.0014   -0.2574    0.0002    0.0658   -0.0017    0.0124    0.1987
          34    0.1036   -0.0127    0.2211    0.0482   -0.0954   -0.0332    0.1822   -0.3076
          35   -0.0829    0.0041   -0.0001    0.0815   -0.0101   -0.0388   -0.0492    0.1167
          36   -0.1589    0.0014   -0.2574   -0.0002    0.0658    0.0017   -0.0125    0.1987
          37   -0.0015   -0.1601   -0.1171    0.0606   -0.1868    0.1629   -0.0655   -0.1048
          38    0.1582    0.4342   -0.0710    0.2643   -0.0562    0.0406   -0.0070   -0.0319
          39   -0.0158   -0.3140   -0.1363   -0.0021   -0.1017    0.0057   -0.0034   -0.0356
          40    0.0001   -0.0003   -0.0005   -0.2683   -0.0007    0.1902   -0.0382   -0.0005
          41    0.0007    0.0019   -0.0003    0.1674   -0.0003    0.0408    0.0026   -0.0002
          42    0.2507    0.4888   -0.2028    0.0010   -0.1138    0.0001    0.0000   -0.0442
          43    0.0014    0.1606    0.1178    0.0595    0.1879    0.1634   -0.0654    0.1053
          44   -0.1594   -0.4375    0.0714    0.2622    0.0565    0.0405   -0.0069    0.0321
          45   -0.0145   -0.3098   -0.1366    0.0010   -0.1016   -0.0058    0.0034   -0.0356
          46   -0.0000   -0.0002    0.0000    0.1470   -0.0000   -0.1151    0.0077    0.0001
          47    0.0000    0.0001    0.0000   -0.0560   -0.0001   -0.0555    0.1199    0.0001
          48    0.0394   -0.0485    0.2523   -0.0001   -0.3596    0.0002   -0.0001    0.2739


   Root No.       9        10        11        12        13        14        15        16

                 9 A      10 A      11 A      12 A      13 A      14 A      15 A      16 A   

                 830.9     895.6     951.8     987.4     990.4    1014.9    1022.7    1045.3
  
           1    0.0000    0.0001   -0.0234    0.0005    0.2108   -0.0002    0.1167    0.2399
           2   -0.0000   -0.0001    0.0266    0.0006    0.1904    0.0002    0.4533    0.0585
           3    0.1586    0.1204   -0.0002   -0.1198    0.0000   -0.1725    0.0002    0.0001
           4    0.0000    0.0001    0.0837   -0.0002   -0.1302   -0.0000   -0.1514   -0.3057
           5   -0.0001   -0.0006   -0.4010   -0.0011   -0.2943    0.0013    0.2574    0.1238
           6    0.2179   -0.3028    0.0003    0.0744    0.0003    0.2447   -0.0005   -0.0001
           7    0.0001    0.0000    0.0686    0.0002    0.0343    0.0004    0.3034   -0.1691
           8   -0.0000    0.0002    0.0054   -0.0004   -0.1009   -0.0002   -0.3196   -0.0398
           9   -0.2118    0.1690   -0.0001    0.2463   -0.0003    0.2067   -0.0003    0.0000
          10   -0.0001   -0.0001    0.0311    0.0007    0.2416   -0.0010   -0.2132   -0.0502
          11    0.0001    0.0003    0.3630    0.0000   -0.1303   -0.0001   -0.0115    0.1253
          12    0.0141    0.2209    0.0003   -0.1961    0.0010    0.2344   -0.0003   -0.0001
          13   -0.0001   -0.0002   -0.0211   -0.0001   -0.0954    0.0002    0.1400    0.0406
          14    0.0000   -0.0000    0.1339    0.0004    0.0680   -0.0004   -0.0228   -0.0888
          15   -0.0506    0.0988   -0.0007    0.1556   -0.0012   -0.2865    0.0006    0.0001
          16    0.0001   -0.0001   -0.0880   -0.0004   -0.1197    0.0003    0.0112    0.1861
          17    0.0001    0.0001    0.0516    0.0008    0.3549   -0.0012   -0.3448    0.0818
          18   -0.2005   -0.2626    0.0006   -0.3275    0.0006   -0.1692    0.0001   -0.0001
          19    0.2225   -0.0795   -0.0954   -0.1947    0.0125   -0.0255    0.0040    0.2121
          20    0.0765    0.2171    0.0702    0.0099    0.0905   -0.1593    0.1811   -0.0983
          21   -0.1088   -0.0655    0.0015    0.0526   -0.0026    0.0636   -0.0165    0.0012
          22   -0.2224    0.0794   -0.0958    0.1945    0.0115    0.0257    0.0040    0.2123
          23   -0.0765   -0.2170    0.0709   -0.0092    0.0913    0.1592    0.1806   -0.0986
          24   -0.1088   -0.0655   -0.0014    0.0526    0.0026    0.0636    0.0163   -0.0012
          25    0.2022   -0.0721   -0.0590   -0.2974   -0.1632    0.0694   -0.1659   -0.1996
          26   -0.1599    0.2613   -0.2206   -0.2464   -0.2274   -0.1655    0.0200   -0.0428
          27   -0.1356    0.1073   -0.0198    0.0200   -0.0195   -0.0647    0.0210    0.0079
          28   -0.2023    0.0721   -0.0596    0.2963   -0.1648   -0.0690   -0.1663   -0.1997
          29    0.1597   -0.2616   -0.2204    0.2447   -0.2277    0.1668    0.0189   -0.0430
          30   -0.1355    0.1073    0.0196    0.0202    0.0192   -0.0648   -0.0208   -0.0078
          31    0.2247   -0.1150    0.0199   -0.1656   -0.0825   -0.2556    0.1154   -0.1699
          32    0.0758    0.2052    0.0072    0.0821   -0.2202   -0.3359   -0.0944   -0.2641
          33    0.0788   -0.0978    0.0001   -0.0734   -0.0064   -0.0227    0.0198   -0.0127
          34   -0.2246    0.1151    0.0199    0.1653   -0.0825    0.2563    0.1148   -0.1698
          35   -0.0758   -0.2050    0.0080   -0.0833   -0.2185    0.3365   -0.0949   -0.2637
          36    0.0789   -0.0979    0.0002   -0.0734    0.0067   -0.0228   -0.0197    0.0127
          37   -0.0422   -0.3242   -0.1961    0.2473    0.2340   -0.2921   -0.1441   -0.0931
          38   -0.0132   -0.0933   -0.1950    0.0695    0.1515   -0.0804   -0.0692   -0.0620
          39   -0.0163   -0.0913    0.0087    0.0613    0.0109   -0.0737   -0.0152   -0.0020
          40   -0.0000   -0.0010    0.6029    0.0012   -0.2003   -0.0013   -0.0490    0.1645
          41   -0.0001   -0.0005    0.0367    0.0004   -0.0022   -0.0005   -0.0101    0.0165
          42   -0.0236   -0.1108   -0.0001    0.0737   -0.0002   -0.0906   -0.0000    0.0000
          43    0.0422    0.3258   -0.1916   -0.2479    0.2343    0.2928   -0.1443   -0.0920
          44    0.0132    0.0937   -0.1936   -0.0697    0.1514    0.0806   -0.0691   -0.0616
          45   -0.0163   -0.0911   -0.0086    0.0611   -0.0116   -0.0735    0.0154    0.0021
          46    0.0000   -0.0000   -0.1209   -0.0011   -0.2874    0.0004   -0.2824    0.5369
          47    0.0001    0.0001    0.0169    0.0003    0.1080   -0.0004   -0.1046    0.0175
          48    0.6370    0.2545   -0.0008    0.3821   -0.0009    0.0867    0.0000    0.0001


   Root No.      17        18        19        20        21        22        23        24

                17 A      18 A      19 A      20 A      21 A      22 A      23 A      24 A   

                1070.1    1103.8    1116.5    1119.5    1224.8    1232.5    1292.5    1348.1
  
           1    0.0004    0.0003    0.0014    0.2636    0.1481   -0.2478    0.4663   -0.0531
           2    0.0001   -0.0001   -0.0008   -0.1522   -0.0214   -0.0411   -0.4092   -0.0397
           3   -0.0328   -0.0316    0.4442   -0.0023   -0.0000    0.0001   -0.0000   -0.0000
           4   -0.0004   -0.0003   -0.0013   -0.2489    0.0578    0.4337   -0.1134    0.2249
           5    0.0005    0.0001    0.0002    0.0245    0.0674    0.1811    0.0555    0.1906
           6    0.0297    0.2621   -0.2004    0.0008   -0.0000   -0.0001    0.0000    0.0000
           7    0.0001    0.0000   -0.0001   -0.0325    0.0717   -0.1220   -0.0318    0.2150
           8   -0.0001    0.0001    0.0011    0.2112   -0.2132   -0.0652    0.2699    0.4512
           9    0.0374   -0.2231   -0.2298    0.0014    0.0000    0.0000    0.0000   -0.0000
          10   -0.0003   -0.0001    0.0000    0.0138    0.0630   -0.0952    0.0234   -0.1685
          11   -0.0001   -0.0000    0.0001    0.0124   -0.0585   -0.0986   -0.0051   -0.0146
          12    0.1531    0.0629    0.0152   -0.0003   -0.0001    0.0002    0.0001   -0.0004
          13    0.0000   -0.0000   -0.0000    0.0082   -0.1800    0.2425    0.1344   -0.1038
          14   -0.0002   -0.0000    0.0000    0.0143    0.1804    0.2232    0.0720   -0.0960
          15   -0.3241   -0.1747   -0.0446    0.0006    0.0001   -0.0001   -0.0001    0.0000
          16    0.0000   -0.0001   -0.0005   -0.0782   -0.3747    0.1542    0.0277   -0.1675
          17   -0.0004   -0.0002   -0.0007   -0.1025   -0.1044    0.0765   -0.1062   -0.1996
          18    0.2242    0.1460   -0.0018   -0.0002   -0.0000   -0.0000   -0.0000    0.0000
          19    0.1303   -0.4958    0.1255    0.3313   -0.1198   -0.0409   -0.3333   -0.0916
          20   -0.1251    0.3487    0.2085   -0.2228    0.1390   -0.1229    0.1944   -0.1833
          21    0.0076    0.0047   -0.0523   -0.0064   -0.0123    0.0455    0.0202    0.1218
          22   -0.1297    0.4964   -0.1221    0.3317   -0.1198   -0.0410   -0.3333   -0.0916
          23    0.1249   -0.3491   -0.2107   -0.2200    0.1390   -0.1229    0.1945   -0.1833
          24    0.0077    0.0047   -0.0523    0.0070    0.0123   -0.0455   -0.0202   -0.1219
          25   -0.3213    0.0545   -0.3660   -0.2008   -0.1539   -0.2329   -0.1388   -0.1663
          26   -0.2725   -0.1284   -0.1166   -0.1147   -0.1191   -0.3384    0.0585   -0.0282
          27   -0.0014   -0.0233    0.0487   -0.0062   -0.0017   -0.0528    0.0657    0.0518
          28    0.3208   -0.0550    0.3640   -0.2049   -0.1541   -0.2327   -0.1389   -0.1664
          29    0.2727    0.1281    0.1155   -0.1166   -0.1193   -0.3385    0.0586   -0.0282
          30   -0.0014   -0.0233    0.0487    0.0058    0.0017    0.0529   -0.0657   -0.0518
          31    0.1154    0.1229    0.0126    0.1386    0.2171   -0.0593   -0.1751    0.0543
          32    0.3698    0.0174   -0.3713    0.3392    0.1964    0.0245    0.0125   -0.2843
          33   -0.0157    0.0132    0.0520    0.0178    0.0530   -0.0248   -0.0842    0.0991
          34   -0.1151   -0.1225   -0.0109    0.1391    0.2171   -0.0593   -0.1751    0.0543
          35   -0.3696   -0.0166    0.3750    0.3358    0.1965    0.0246    0.0126   -0.2844
          36   -0.0157    0.0132    0.0517   -0.0184   -0.0530    0.0248    0.0843   -0.0992
          37   -0.1825   -0.0719   -0.0194    0.0020    0.1339   -0.1569   -0.1125    0.2201
          38   -0.0490   -0.0189   -0.0050   -0.0018    0.0649   -0.0474   -0.0416    0.0341
          39   -0.0452   -0.0172   -0.0057    0.0012    0.0251   -0.0530   -0.0414    0.1161
          40   -0.0008   -0.0004    0.0001    0.0116    0.0130   -0.2985   -0.1416    0.2121
          41   -0.0003   -0.0001   -0.0000    0.0024   -0.0097   -0.0097    0.0068   -0.0221
          42   -0.0569   -0.0226   -0.0069    0.0002    0.0003   -0.0004   -0.0003    0.0009
          43    0.1833    0.0723    0.0195    0.0013    0.1330   -0.1572   -0.1126    0.2204
          44    0.0493    0.0190    0.0050   -0.0020    0.0644   -0.0471   -0.0413    0.0336
          45   -0.0450   -0.0171   -0.0057   -0.0010   -0.0251    0.0530    0.0414   -0.1156
          46    0.0001   -0.0003   -0.0016   -0.2948    0.5728    0.0170   -0.0875   -0.0619
          47   -0.0001   -0.0001   -0.0002   -0.0261   -0.0354    0.0254   -0.0304   -0.0612
          48   -0.1358   -0.0759   -0.0189    0.0002    0.0001    0.0000    0.0000    0.0000


   Root No.      25        26        27        28        29        30        31        32

                25 A      26 A      27 A      28 A      29 A      30 A      31 A      32 A   

                1362.0    1390.8    1390.9    1396.1    1411.1    1424.4    1485.0    1880.3
  
           1    0.0348    0.0001    0.0312   -0.0491   -0.2051   -0.2008   -0.0044   -0.0157
           2   -0.0328    0.0002    0.1143   -0.1191    0.0323   -0.3003    0.0111   -0.0217
           3    0.0000   -0.0001    0.0000    0.0000    0.0000    0.0000    0.0000   -0.0000
           4    0.1758    0.0002    0.1674   -0.0814    0.1119    0.1693   -0.1250   -0.0287
           5    0.1475   -0.0001   -0.1557    0.2242   -0.1843    0.0140   -0.3640    0.0212
           6   -0.0000    0.0017    0.0000   -0.0000    0.0000    0.0000    0.0000    0.0000
           7   -0.1019   -0.0003   -0.1235    0.1727    0.4526   -0.1296   -0.1007    0.0365
           8   -0.2969    0.0003   -0.0715    0.0806    0.0570    0.1293    0.0343    0.0002
           9   -0.0000   -0.0007    0.0000    0.0000   -0.0000   -0.0000   -0.0000   -0.0000
          10   -0.2960    0.0011    0.1215   -0.0825    0.1036    0.0219   -0.4376   -0.1465
          11    0.0093   -0.0043   -0.1475   -0.2044    0.0056    0.0105   -0.1820   -0.0194
          12   -0.0009   -0.2582    0.0032    0.0028   -0.0003   -0.0001    0.0001    0.0000
          13   -0.0572   -0.0000   -0.0470   -0.0232   -0.0522   -0.0091    0.3667    0.6622
          14   -0.2325    0.0001   -0.0722   -0.0072    0.1323   -0.0524    0.5698   -0.3484
          15    0.0001   -0.0063    0.0001    0.0001   -0.0001   -0.0000    0.0000    0.0000
          16    0.2555    0.0000    0.0292   -0.0221   -0.2420    0.0415    0.1198   -0.5416
          17    0.1755   -0.0002    0.0888   -0.0997   -0.1195    0.0413   -0.1338    0.3118
          18   -0.0000   -0.0012    0.0000    0.0000   -0.0000    0.0000    0.0000   -0.0000
          19   -0.0448   -0.0007   -0.0689    0.0613    0.1795    0.2365    0.0398   -0.0014
          20    0.0759   -0.0001   -0.1224    0.1099   -0.0197    0.3496   -0.0016   -0.0016
          21   -0.0234    0.0003    0.1123   -0.1050   -0.0782   -0.3442   -0.0152   -0.0057
          22   -0.0448    0.0001   -0.0689    0.0612    0.1795    0.2365    0.0398   -0.0015
          23    0.0759   -0.0006   -0.1224    0.1098   -0.0197    0.3496   -0.0016   -0.0016
          24    0.0234   -0.0003   -0.1123    0.1050    0.0782    0.3442    0.0152    0.0057
          25   -0.1670   -0.0014   -0.2045    0.1392   -0.1335   -0.1556    0.0323    0.0199
          26    0.0488   -0.0025    0.2253   -0.2162    0.1408    0.0564    0.0786    0.0260
          27    0.0933   -0.0008    0.2419   -0.2106    0.1655    0.1108    0.0634    0.0026
          28   -0.1670    0.0013   -0.2046    0.1392   -0.1335   -0.1557    0.0323    0.0198
          29    0.0488    0.0028    0.2253   -0.2164    0.1409    0.0564    0.0786    0.0260
          30   -0.0933   -0.0011   -0.2419    0.2107   -0.1655   -0.1108   -0.0634   -0.0025
          31   -0.1642    0.0009    0.0983   -0.1398   -0.3121    0.1453    0.0194    0.0161
          32    0.2212    0.0003    0.0119   -0.0044    0.0635   -0.1331   -0.0324    0.0176
          33   -0.1587    0.0004    0.0730   -0.1081   -0.2788    0.1528    0.0411    0.0037
          34   -0.1642   -0.0002    0.0983   -0.1398   -0.3121    0.1453    0.0193    0.0161
          35    0.2212   -0.0009    0.0120   -0.0045    0.0635   -0.1331   -0.0324    0.0177
          36    0.1588   -0.0004   -0.0730    0.1081    0.2788   -0.1529   -0.0411   -0.0037
          37    0.2614   -0.1240   -0.2116   -0.0736   -0.0265   -0.0137    0.1411   -0.0205
          38    0.0373   -0.4111    0.3091    0.3743   -0.0392   -0.0097    0.1159   -0.0013
          39    0.1556    0.0869   -0.2757   -0.2133   -0.0094   -0.0046    0.0619    0.0038
          40    0.3175    0.0027    0.1822    0.3352   -0.1140   -0.0075    0.0946    0.0424
          41   -0.0256    0.0025   -0.0285   -0.0550    0.0096    0.0029   -0.0558   -0.0141
          42    0.0021    0.7345   -0.0064   -0.0052    0.0007    0.0001   -0.0001    0.0000
          43    0.2626    0.1173   -0.2146   -0.0764   -0.0265   -0.0136    0.1406   -0.0202
          44    0.0379    0.4236    0.3038    0.3693   -0.0382   -0.0095    0.1147   -0.0013
          45   -0.1547    0.0928    0.2708    0.2085    0.0099    0.0046   -0.0625   -0.0039
          46   -0.1271   -0.0001   -0.0232   -0.0117    0.1163   -0.0489    0.0661    0.0461
          47    0.0523   -0.0001    0.0277   -0.0326   -0.0370    0.0146   -0.0407    0.1267
          48   -0.0000    0.0014   -0.0000    0.0000    0.0000   -0.0000   -0.0000   -0.0000


   Root No.      33        34        35        36        37        38        39        40

                33 A      34 A      35 A      36 A      37 A      38 A      39 A      40 A   

                2969.7    2975.0    2994.3    3053.5    3054.4    3067.4    3071.6    3078.3
  
           1   -0.0000   -0.0000    0.0000   -0.0129    0.0185    0.0000   -0.1286    0.0007
           2    0.0000   -0.0000    0.0000   -0.0106    0.0281    0.0001   -0.1714    0.0012
           3    0.1488    0.0030   -0.2672   -0.0000    0.0000   -0.0000    0.0000    0.0000
           4   -0.0000    0.0000    0.0000   -0.1283    0.0435   -0.0000    0.0117    0.0019
           5    0.0000   -0.0000   -0.0000    0.1599   -0.0533    0.0001   -0.0193    0.0004
           6   -0.1857   -0.2180   -0.1041   -0.0000   -0.0000    0.0006    0.0000    0.0000
           7   -0.0000    0.0000   -0.0000   -0.0624   -0.1901   -0.0001   -0.0226    0.0006
           8   -0.0000   -0.0000    0.0000    0.0252    0.0785    0.0000    0.0060    0.0001
           9   -0.1921    0.2127   -0.1029    0.0000   -0.0000   -0.0004   -0.0000    0.0000
          10    0.0000    0.0000    0.0000   -0.0001   -0.0002    0.0001    0.0002    0.0839
[...]
 EFF. MASS   3.8225

 VIBRATION   21   21A         ATOM PAIR      ENERGY CONTRIBUTION    RADIAL
 FREQ.      1224.76         C  6 -- H 16         +32.9% ( 70.8%)      0.6%
 T-DIPOLE    0.0256         C  3 -- C  6         +11.8% ( 42.4%)     50.0%
 TRAVEL      0.1233         C  5 -- C  6          +8.9% ( 36.9%)      0.2%
 RED. MASS   0.4952         C  3 -- H 12          +7.3% ( 33.3%)      1.6%
 EFF. MASS   3.6232

 VIBRATION   22   22A         ATOM PAIR      ENERGY CONTRIBUTION    RADIAL
 FREQ.      1232.54         C  2 -- H  9         +18.5% ( 58.6%)      0.4%
 T-DIPOLE    0.0212         C  2 -- H 10         +18.5% ( 58.6%)      0.4%
 TRAVEL      0.0966         C  1 -- C  2         +14.7% ( 52.2%)     90.4%
 RED. MASS   0.8647         C  2 -- C  5         +10.4% ( 43.8%)      0.2%
 EFF. MASS   5.8577

 VIBRATION   23   23A         ATOM PAIR      ENERGY CONTRIBUTION    RADIAL
 FREQ.      1292.51         C  1 -- H  8         +22.5% ( 64.8%)      0.0%
 T-DIPOLE    0.0233         C  1 -- H  7         +22.5% ( 64.8%)      0.0%
 TRAVEL      0.0918         C  1 -- C  3         +18.9% ( 59.5%)     88.3%
 RED. MASS   1.9064         C  1 -- C  2         +14.7% ( 52.5%)     60.9%
 EFF. MASS   6.1869

 VIBRATION   24   24A         ATOM PAIR      ENERGY CONTRIBUTION    RADIAL
 FREQ.      1348.06         C  3 -- C  6         +16.8% ( 53.0%)     77.6%
 T-DIPOLE    0.0075         C  3 -- H 12         +15.1% ( 50.2%)      0.0%
 TRAVEL      0.0943         C  3 -- H 11         +15.1% ( 50.2%)      0.0%
 RED. MASS   0.9465         C  1 -- C  3          +9.7% ( 40.3%)     50.3%
 EFF. MASS   5.6265

 VIBRATION   25   25A         ATOM PAIR      ENERGY CONTRIBUTION    RADIAL
 FREQ.      1361.96         C  3 -- C  6         +12.1% ( 42.6%)     86.5%
 T-DIPOLE    0.0505         C  4 -- H 14         +10.5% ( 39.7%)      0.2%
 TRAVEL      0.1001         C  3 -- H 12          +9.2% ( 37.2%)      0.3%
 RED. MASS   0.4452         C  3 -- H 11          +9.2% ( 37.2%)      0.3%
 EFF. MASS   4.9460

 VIBRATION   26   26A         ATOM PAIR      ENERGY CONTRIBUTION    RADIAL
 FREQ.      1390.84         C  4 -- H 14         +54.3% ( 63.8%)      0.0%
 T-DIPOLE    0.0623         C  4 -- H 15         +20.7% ( 39.4%)     11.0%
 TRAVEL      0.1757         C  4 -- H 13         +19.8% ( 38.5%)     12.1%
 RED. MASS   0.4249         C  4 -- C  5          +5.1% ( 19.6%)      0.0%
 EFF. MASS   1.5709

 VIBRATION   27   27A         ATOM PAIR      ENERGY CONTRIBUTION    RADIAL
 FREQ.      1390.90         C  4 -- H 13         +17.4% ( 40.5%)      2.4%
 T-DIPOLE    0.0524         C  4 -- H 15         +17.1% ( 40.1%)      2.6%
 TRAVEL      0.1439         C  2 -- H 10         +15.1% ( 37.7%)      4.6%
 RED. MASS   0.1999         C  2 -- H  9         +15.1% ( 37.7%)      4.6%
 EFF. MASS   2.3398

 VIBRATION   28   28A         ATOM PAIR      ENERGY CONTRIBUTION    RADIAL
 FREQ.      1396.12         C  4 -- H 13         +15.7% ( 40.1%)      0.2%
 T-DIPOLE    0.0301         C  4 -- H 15         +15.3% ( 39.6%)      0.3%
 TRAVEL      0.1348         C  2 -- H 10         +11.4% ( 34.3%)      5.1%
 RED. MASS   0.2007         C  2 -- H  9         +11.4% ( 34.3%)      5.1%
 EFF. MASS   2.6597

 VIBRATION   29   29A         ATOM PAIR      ENERGY CONTRIBUTION    RADIAL
 FREQ.      1411.05         C  3 -- H 12         +17.3% ( 52.0%)      6.2%
 T-DIPOLE    0.0164         C  3 -- H 11         +17.3% ( 52.0%)      6.2%
 TRAVEL      0.0957         C  3 -- C  6         +17.0% ( 51.5%)     91.4%
 RED. MASS   0.7152         C  1 -- C  3         +11.6% ( 42.5%)      5.9%
 EFF. MASS   5.2149

 VIBRATION   30   30A         ATOM PAIR      ENERGY CONTRIBUTION    RADIAL
 FREQ.      1424.38         C  1 -- H  7         +26.6% ( 54.1%)      5.4%
 T-DIPOLE    0.0339         C  1 -- H  8         +26.6% ( 54.1%)      5.4%
 TRAVEL      0.1261         C  1 -- C  3         +10.8% ( 34.4%)     81.3%
 RED. MASS   0.4166         C  1 -- C  2         +10.6% ( 34.1%)     58.1%
 EFF. MASS   2.9759

 VIBRATION   31   31A         ATOM PAIR      ENERGY CONTRIBUTION    RADIAL
 FREQ.      1485.05         C  4 -- C  5         +26.0% ( 77.3%)     79.5%
 T-DIPOLE    0.0713         C  2 -- C  5         +22.5% ( 71.9%)     95.1%
 TRAVEL      0.0654         C  5 -- C  6         +15.0% ( 58.8%)      8.9%
 RED. MASS   3.4186         C  4 -- H 13          +7.4% ( 41.3%)      3.2%
 EFF. MASS  10.6052

 VIBRATION   32   32A         ATOM PAIR      ENERGY CONTRIBUTION    RADIAL
 FREQ.      1880.31         C  5 -- C  6         +43.6% ( 97.6%)     98.1%
 T-DIPOLE    0.1352         C  4 -- C  5         +18.0% ( 62.8%)     61.6%
 TRAVEL      0.0550         C  2 -- C  5         +16.3% ( 59.6%)      5.2%
 RED. MASS   5.6028         C  3 -- C  6         +10.7% ( 48.3%)     25.5%
 EFF. MASS  11.8671         C  6 -- H 16         +10.1% ( 47.1%)      8.8%

 VIBRATION   33   33A         ATOM PAIR      ENERGY CONTRIBUTION    RADIAL
 FREQ.      2969.75         C  3 -- H 11         +19.3% ( 45.8%)     96.5%
 T-DIPOLE    0.0128         C  3 -- H 12         +19.3% ( 45.8%)     96.5%
 TRAVEL      0.1208         C  2 -- H  9         +18.0% ( 44.2%)     96.5%
 RED. MASS   0.1809         C  2 -- H 10         +18.0% ( 44.2%)     96.5%
 EFF. MASS   1.5569         C  1 -- H  7         +11.5% ( 35.3%)     96.1%
                            C  1 -- H  8         +11.5% ( 35.3%)     96.1%

 VIBRATION   34   34A         ATOM PAIR      ENERGY CONTRIBUTION    RADIAL
 FREQ.      2975.01         C  2 -- H 10         +25.0% ( 51.9%)     96.6%
 T-DIPOLE    0.0033         C  2 -- H  9         +25.0% ( 51.9%)     96.6%
 TRAVEL      0.1214         C  3 -- H 11         +23.9% ( 50.7%)     96.6%
 RED. MASS   0.2591         C  3 -- H 12         +23.9% ( 50.7%)     96.6%
 EFF. MASS   1.5390

 VIBRATION   35   35A         ATOM PAIR      ENERGY CONTRIBUTION    RADIAL
 FREQ.      2994.25         C  1 -- H  8         +37.6% ( 63.4%)     96.6%
 T-DIPOLE    0.0350         C  1 -- H  7         +37.6% ( 63.4%)     96.6%
 TRAVEL      0.1214         C  2 -- H 10          +5.7% ( 24.8%)     97.0%
 RED. MASS   0.3185         C  2 -- H  9          +5.7% ( 24.8%)     97.0%
 EFF. MASS   1.5276

 VIBRATION   36   36A         ATOM PAIR      ENERGY CONTRIBUTION    RADIAL
 FREQ.      3053.49         C  2 -- H  9         +44.1% ( 65.5%)     97.6%
 T-DIPOLE    0.0741         C  2 -- H 10         +44.1% ( 65.5%)     97.6%
 TRAVEL      0.1315         C  3 -- H 11          +5.0% ( 22.1%)     97.8%
 RED. MASS   0.3915         C  3 -- H 12          +5.0% ( 22.1%)     97.8%
 EFF. MASS   1.2774

 VIBRATION   37   37A         ATOM PAIR      ENERGY CONTRIBUTION    RADIAL
 FREQ.      3054.38         C  3 -- H 12         +43.6% ( 65.1%)     97.6%
 T-DIPOLE    0.0489         C  3 -- H 11         +43.6% ( 65.1%)     97.6%
 TRAVEL      0.1309         C  2 -- H  9          +4.6% ( 21.2%)     97.4%
 RED. MASS   0.3831         C  2 -- H 10          +4.6% ( 21.2%)     97.4%
 EFF. MASS   1.2888

 VIBRATION   38   38A         ATOM PAIR      ENERGY CONTRIBUTION    RADIAL
 FREQ.      3067.44         C  4 -- H 15         +49.3% ( 72.4%)     97.1%
 T-DIPOLE    0.0181         C  4 -- H 13         +48.8% ( 72.1%)     97.0%
 TRAVEL      0.1209         C  4 -- C  5          +1.0% ( 10.2%)      0.0%
 RED. MASS   0.5098         C  4 -- H 14          +0.9% (  9.9%)      0.0%
 EFF. MASS   1.5033

 VIBRATION   39   39A         ATOM PAIR      ENERGY CONTRIBUTION    RADIAL
 FREQ.      3071.56         C  1 -- H  8         +48.1% ( 68.3%)     97.7%
 T-DIPOLE    0.0549         C  1 -- H  7         +48.1% ( 68.3%)     97.7%
 TRAVEL      0.1310         C  1 -- C  3          +0.7% (  8.0%)     46.4%
 RED. MASS   0.4595         C  1 -- C  2          +0.7% (  8.0%)     46.0%
 EFF. MASS   1.2801

 VIBRATION   40   40A         ATOM PAIR      ENERGY CONTRIBUTION    RADIAL
 FREQ.      3078.27         C  4 -- H 14         +60.9% ( 80.5%)     98.7%
 T-DIPOLE    0.0332         C  4 -- H 13         +19.2% ( 45.2%)     86.0%
 TRAVEL      0.1203         C  4 -- H 15         +18.9% ( 44.8%)     85.7%
 RED. MASS   0.4745         C  4 -- C  5          +1.0% ( 10.5%)      0.0%
 EFF. MASS   1.5133

 VIBRATION   41   41A         ATOM PAIR      ENERGY CONTRIBUTION    RADIAL
 FREQ.      3123.68         C  6 -- H 16         +96.3% ( 99.8%)    100.0%
 T-DIPOLE    0.3607         C  5 -- C  6          +1.8% ( 13.6%)     48.9%
 TRAVEL      0.1178         C  3 -- C  6          +1.6% ( 13.0%)     24.7%
 RED. MASS   0.9251
 EFF. MASS   1.5552

 VIBRATION   42   42A         ATOM PAIR      ENERGY CONTRIBUTION    RADIAL
 FREQ.      3166.35         C  4 -- H 14         +38.0% ( 59.4%)     97.7%
 T-DIPOLE    0.0455         C  4 -- H 13         +30.9% ( 53.5%)     96.7%
 TRAVEL      0.1367         C  4 -- H 15         +30.8% ( 53.5%)     96.7%
 RED. MASS   0.3297         C  4 -- C  5          +0.3% (  5.5%)     99.3%
 EFF. MASS   1.1396

      SYMMETRY NUMBER FOR POINT-GROUP C1  =  1


          SYSTEM IS A GROUND STATE



 InChI=1S/C6H10/c1-6-4-2-3-5-6/h4H,2-3,5H2,1H3


          MOLECULE IS NOT LINEAR

          THERE ARE 42 GENUINE VIBRATIONS IN THIS SYSTEM
          THIS THERMODYNAMICS CALCULATION IS LIMITED TO
          MOLECULES WHICH HAVE NO INTERNAL ROTATIONS




                    CALCULATED THERMODYNAMIC PROPERTIES
                                          *
   TEMP. (K)   PARTITION FUNCTION   H.O.F.    ENTHALPY  HEAT CAPACITY ENTROPY
                                   KCAL/MOL   CAL/MOLE    CAL/K/MOL  CAL/K/MOL


 298.00  VIB.     0.1452D+02                  2171.5688    17.0125    12.6042
         ROT.     0.1247D+06                   888.2813     2.9808    26.2975
         INT.     0.1810D+07                  3059.8501    19.9933    38.9017
         TRA.     0.7198D+27                  1480.4688     4.9680    39.1295
         TOT.                       -7.110    4540.3190    24.9613    78.0312

 200.00  VIB.     0.4620D+01                   886.0601     9.6021     7.4713
         ROT.     0.6854D+05                   596.1620     2.9808    25.1088
         INT.     0.3166D+06                  1482.2220    12.5830    32.5801
         TRA.     0.3957D+27                   993.6033     4.9680    37.1484
         TOT.                       -9.174    2475.8253    17.5510    69.7285

 210.00  VIB.     0.5167D+01                   985.2451    10.2403     7.9551
         ROT.     0.7375D+05                   625.9700     2.9808    25.2543
         INT.     0.3810D+06                  1611.2152    13.2211    33.2094
         TRA.     0.4258D+27                  1043.2834     4.9680    37.3907
         TOT.                       -8.996    2654.4986    18.1891    70.6001

 220.00  VIB.     0.5784D+01                  1090.9725    10.9105     8.4468
         ROT.     0.7908D+05                   655.7781     2.9808    25.3929
         INT.     0.4574D+06                  1746.7506    13.8913    33.8398
         TRA.     0.4566D+27                  1092.9636     4.9680    37.6219
         TOT.                       -8.811    2839.7142    18.8593    71.4616

 230.00  VIB.     0.6483D+01                  1203.5570    11.6115     8.9472
         ROT.     0.8453D+05                   685.5862     2.9808    25.5254
         INT.     0.5480D+06                  1889.1432    14.5923    34.4726
         TRA.     0.4880D+27                  1142.6437     4.9680    37.8427
         TOT.                       -8.619    3031.7869    19.5603    72.3153

 240.00  VIB.     0.7273D+01                  1323.2982    12.3414     9.4567
         ROT.     0.9010D+05                   715.3943     2.9808    25.6523
         INT.     0.6553D+06                  2038.6925    15.3222    35.1090
         TRA.     0.5202D+27                  1192.3239     4.9680    38.0541
         TOT.                       -8.419    3231.0164    20.2903    73.1631

 250.00  VIB.     0.8169D+01                  1450.4746    13.0981     9.9757
         ROT.     0.9579D+05                   745.2024     2.9808    25.7740
         INT.     0.7825D+06                  2195.6771    16.0789    35.7497
         TRA.     0.5531D+27                  1242.0041     4.9680    38.2569
         TOT.                       -8.213    3437.6811    21.0469    74.0067

 260.00  VIB.     0.9187D+01                  1585.3400    13.8788    10.5046
         ROT.     0.1016D+06                   775.0105     2.9808    25.8909
         INT.     0.9334D+06                  2360.3506    16.8596    36.3955
         TRA.     0.5866D+27                  1291.6842     4.9680    38.4518
         TOT.                       -7.998    3652.0348    21.8276    74.8473

 270.00  VIB.     0.1034D+02                  1728.1203    14.6806    11.0433
         ROT.     0.1075D+06                   804.8186     2.9808    26.0034
         INT.     0.1112D+07                  2532.9389    17.6614    37.0467
         TRA.     0.6208D+27                  1341.3644     4.9680    38.6393
         TOT.                       -7.776    3874.3033    22.6294    75.6860

 280.00  VIB.     0.1166D+02                  1879.0119    15.5005    11.5920
         ROT.     0.1135D+06                   834.6267     2.9808    26.1118
         INT.     0.1324D+07                  2713.6386    18.4813    37.7038
         TRA.     0.6556D+27                  1391.0445     4.9680    38.8200
         TOT.                       -7.546    4104.6831    23.4493    76.5238

 290.00  VIB.     0.1317D+02                  2038.1811    16.3356    12.1505
         ROT.     0.1197D+06                   864.4348     2.9808    26.2164
         INT.     0.1576D+07                  2902.6159    19.3164    38.3669
         TRA.     0.6910D+27                  1440.7247     4.9680    38.9943
         TOT.                       -7.307    4343.3406    24.2844    77.3612

 300.00  VIB.     0.1488D+02                  2205.7641    17.1828    12.7185
         ROT.     0.1259D+06                   894.2429     2.9808    26.3175
         INT.     0.1874D+07                  3100.0070    20.1636    39.0360
         TRA.     0.7270D+27                  1490.4049     4.9680    39.1627
         TOT.                       -7.060    4590.4119    25.1316    78.1987

 310.00  VIB.     0.1685D+02                  2381.8676    18.0392    13.2959
         ROT.     0.1323D+06                   924.0510     2.9808    26.4152
         INT.     0.2229D+07                  3305.9186    21.0200    39.7111
         TRA.     0.7637D+27                  1540.0850     4.9680    39.3256
         TOT.                       -6.804    4846.0037    25.9881    79.0367

 320.00  VIB.     0.1910D+02                  2566.5702    18.9022    13.8822
         ROT.     0.1387D+06                   953.8591     2.9808    26.5098
         INT.     0.2650D+07                  3520.4293    21.8830    40.3920
         TRA.     0.8009D+27                  1589.7652     4.9680    39.4834
         TOT.                       -6.540    5110.1945    26.8510    79.8754

 330.00  VIB.     0.2168D+02                  2759.9236    19.7690    14.4771
         ROT.     0.1453D+06                   983.6672     2.9808    26.6016
         INT.     0.3150D+07                  3743.5909    22.7498    41.0787
         TRA.     0.8388D+27                  1639.4454     4.9680    39.6362
         TOT.                       -6.267    5383.0362    27.7178    80.7149

 340.00  VIB.     0.2465D+02                  2961.9549    20.6373    15.0802
         ROT.     0.1519D+06                  1013.4753     2.9808    26.6905
         INT.     0.3745D+07                  3975.4302    23.6181    41.7707
         TRA.     0.8772D+27                  1689.1255     4.9680    39.7845
         TOT.                       -5.986    5664.5557    28.5862    81.5553

 350.00  VIB.     0.2806D+02                  3172.6680    21.5050    15.6909
         ROT.     0.1587D+06                  1043.2834     2.9808    26.7769
         INT.     0.4453D+07                  4215.9514    24.4858    42.4679
         TRA.     0.9162D+27                  1738.8057     4.9680    39.9285
         TOT.                       -5.696    5954.7571    29.4538    82.3964

 360.00  VIB.     0.3199D+02                  3392.0462    22.3700    16.3089
         ROT.     0.1655D+06                  1073.0915     2.9808    26.8609
         INT.     0.5295D+07                  4465.1377    25.3508    43.1698
         TRA.     0.9557D+27                  1788.4859     4.9680    40.0685
         TOT.                       -5.397    6253.6236    30.3189    83.2383

 370.00  VIB.     0.3652D+02                  3620.0540    23.2306    16.9335
         ROT.     0.1725D+06                  1102.8996     2.9808    26.9426
         INT.     0.6299D+07                  4722.9536    26.2115    43.8761
         TRA.     0.9958D+27                  1838.1660     4.9680    40.2046
         TOT.                       -5.089    6561.1196    31.1795    84.0808

 380.00  VIB.     0.4174D+02                  3856.6392    24.0853    17.5644
         ROT.     0.1795D+06                  1132.7077     2.9808    27.0221
         INT.     0.7494D+07                  4989.3469    27.0661    44.5865
         TRA.     0.1036D+28                  1887.8462     4.9680    40.3371
         TOT.                       -4.773    6877.1931    32.0341    84.9236

 390.00  VIB.     0.4778D+02                  4101.7350    24.9326    18.2010
         ROT.     0.1866D+06                  1162.5158     2.9808    27.0995
         INT.     0.8918D+07                  5264.2508    27.9134    45.3005
         TRA.     0.1078D+28                  1937.5263     4.9680    40.4662
         TOT.                       -4.449    7201.7771    32.8814    85.7667

 400.00  VIB.     0.5476D+02                  4355.2618    25.7713    18.8429
         ROT.     0.1939D+06                  1192.3239     2.9808    27.1750
         INT.     0.1062D+08                  5547.5857    28.7521    46.0178
         TRA.     0.1119D+28                  1987.2065     4.9680    40.5919
         TOT.                       -4.116    7534.7922    33.7201    86.6098

   *: NOTE: HEATS OF FORMATION ARE RELATIVE TO THE
            ELEMENTS IN THEIR STANDARD STATE AT 298K
              (=  Standard Enthalpy of Formation).

            Hvib:  Zero-point energy is not included.
                   frequencies of less than zero cm-1 are not included.
            Hrot = (3/2)RT
            Htra = (3/2)RT + pV = (5/2)RT

            Heat capacity is Cp, not Cv

          For more information, see: HTTP://OpenMOPAC.net/Manual/thermochemistry.html


           FORCE CONSTANT IN CARTESIAN COORDINATES (Millidynes/A)

    ATOM   CHEMICAL       X               Y               Z
   NUMBER   SYMBOL  FORCE CONSTANT  FORCE CONSTANT  FORCE CONSTANT

      1       C        7.811564        8.399900        8.354252
      2       C        7.953686        9.160477        8.069940
      3       C        9.649310        7.569980        8.054541
      4       C        9.165874        8.550747        7.956776
      5       C       15.069504       10.708027        2.731070
      6       C       12.086215       13.058703        2.321140
      7       H        1.249455        1.664548        3.586627
      8       H        1.249451        1.664547        3.586624
      9       H        1.287942        1.547894        3.552867
     10       H        1.287885        1.547972        3.553100
     11       H        1.918297        0.915956        3.552631
     12       H        1.918706        0.916079        3.552206
     13       H        1.609094        1.292468        3.740318
     14       H        0.744640        5.340165        0.653242
     15       H        1.598839        1.268027        3.774141
     16       H        0.713891        5.354630        0.346947

 **********************
 *                    *
 * JOB ENDED NORMALLY *
 *                    *
 **********************



 TOTAL JOB TIME:             9.15 SECONDS

 == MOPAC DONE ==
