 *******************************************************************************
 ** Site#: 14399        For non-commercial use only    Version 18.184L 64BITS **
 *******************************************************************************
 ** Cite this program as: MOPAC2016, Version: 18.184L, James J. P. Stewart,   **
 ** Stewart Computational Chemistry, web: HTTP://OpenMOPAC.net. Days left:  20**
 *******************************************************************************
 **                                                                           **
 **                                MOPAC2016                                  **
 **                                                                           **
 *******************************************************************************

                              PM3 CALCULATION RESULTS

 *******************************************************************************
 *  CALCULATION DONE:                                Thu Jun 13 16:09:09 2019  *
 *  PM3        - The PM3 Hamiltonian to be used
 *  PRECISE    - CRITERIA TO BE INCREASED BY 100 TIMES
 *  NOSYM      - POINT-GROUP SYMMETRY SET TO C1
 *  THREADS=1  - MULTI-THREADING NOT USED
 *  T=         - A TIME OF 172800.0 SECONDS REQUESTED
 *  DUMP=N     - RESTART FILE WRITTEN EVERY  7200.000 SECONDS
 *******************************************************************************
pm3  precise nosym THREADS=1
 InChI=1S/C7H12/c1-2-6-4-5-7(6)3-1/h6-7H,1-5H2

   ATOM   CHEMICAL          X               Y               Z
  NUMBER   SYMBOL      (ANGSTROMS)     (ANGSTROMS)     (ANGSTROMS)
 
     1       C         -0.41860000  *   0.35870000  *  -0.94230000  *
     2       C         -0.16910000  *  -1.01960000  *  -0.35160000  *
     3       C          0.77140000  *   1.23860000  *  -0.55760000  *
     4       C          1.16960000  *  -0.96110000  *   0.38530000  *
     5       C         -1.40020000  *  -0.86030000  *   0.54380000  *
     6       C         -1.65020000  *   0.52070000  *  -0.04810000  *
     7       C          1.48470000  *   0.51610000  *   0.57710000  *
     8       H         -0.65590000  *   0.34710000  *  -2.02910000  *
     9       H         -0.25850000  *  -1.84860000  *  -1.08800000  *
    10       H          2.57990000  *   0.70440000  *   0.55390000  *
    11       H          1.07480000  *   0.85990000  *   1.55240000  *
    12       H          0.45570000  *   2.26140000  *  -0.25790000  *
    13       H          1.45690000  *   1.31740000  *  -1.42950000  *
    14       H          1.95280000  *  -1.42230000  *  -0.25530000  *
    15       H          1.13700000  *  -1.50270000  *   1.35540000  *
    16       H         -1.17130000  *  -0.82050000  *   1.63170000  *
    17       H         -2.20520000  *  -1.58200000  *   0.28440000  *
    18       H         -2.59350000  *   0.56310000  *  -0.63490000  *
    19       H         -1.56050000  *   1.32970000  *   0.71010000  *
 


          CARTESIAN COORDINATES 

    NO.       ATOM           X           Y           Z

     1         C         -0.4186      0.3587     -0.9423
     2         C         -0.1691     -1.0196     -0.3516
     3         C          0.7714      1.2386     -0.5576
     4         C          1.1696     -0.9611      0.3853
     5         C         -1.4002     -0.8603      0.5438
     6         C         -1.6502      0.5207     -0.0481
     7         C          1.4847      0.5161      0.5771
     8         H         -0.6559      0.3471     -2.0291
     9         H         -0.2585     -1.8486     -1.0880
    10         H          2.5799      0.7044      0.5539
    11         H          1.0748      0.8599      1.5524
    12         H          0.4557      2.2614     -0.2579
    13         H          1.4569      1.3174     -1.4295
    14         H          1.9528     -1.4223     -0.2553
    15         H          1.1370     -1.5027      1.3554
    16         H         -1.1713     -0.8205      1.6317
    17         H         -2.2052     -1.5820      0.2844
    18         H         -2.5935      0.5631     -0.6349
    19         H         -1.5605      1.3297      0.7101

  H: (PM3): J. J. P. STEWART, J. COMP. CHEM. 10, 209 (1989).
  C: (PM3): J. J. P. STEWART, J. COMP. CHEM. 10, 209 (1989).

           Empirical Formula: C7 H12  =    19 atoms



      MOLECULAR POINT GROUP   :   C1  


      RHF CALCULATION, NO. OF DOUBLY OCCUPIED LEVELS = 20


          Geometry optimization using EF

          DIAGONAL MATRIX USED AS START HESSIAN

 CYCLE:     1 TIME:   0.020 TIME LEFT:  2.00D  GRAD.:    69.123 HEAT: -8.529534
 CYCLE:     2 TIME:   0.039 TIME LEFT:  2.00D  GRAD.:    40.307 HEAT: -9.864885
 CYCLE:     3 TIME:   0.023 TIME LEFT:  2.00D  GRAD.:    36.272 HEAT: -10.63771
 CYCLE:     4 TIME:   0.023 TIME LEFT:  2.00D  GRAD.:    37.973 HEAT: -11.41747
 CYCLE:     5 TIME:   0.027 TIME LEFT:  2.00D  GRAD.:    35.796 HEAT: -11.69871
 CYCLE:     6 TIME:   0.023 TIME LEFT:  2.00D  GRAD.:    40.462 HEAT: -11.70493
 CYCLE:     7 TIME:   0.027 TIME LEFT:  2.00D  GRAD.:    13.523 HEAT: -12.14158
 CYCLE:     8 TIME:   0.027 TIME LEFT:  2.00D  GRAD.:    10.402 HEAT: -12.19757
 CYCLE:     9 TIME:   0.031 TIME LEFT:  2.00D  GRAD.:     6.431 HEAT: -12.22978
 CYCLE:    10 TIME:   0.027 TIME LEFT:  2.00D  GRAD.:     4.386 HEAT: -12.24567
 CYCLE:    11 TIME:   0.023 TIME LEFT:  2.00D  GRAD.:     4.388 HEAT: -12.25973
 CYCLE:    12 TIME:   0.023 TIME LEFT:  2.00D  GRAD.:     5.136 HEAT: -12.27205
 CYCLE:    13 TIME:   0.027 TIME LEFT:  2.00D  GRAD.:     5.738 HEAT: -12.27384
 CYCLE:    14 TIME:   0.023 TIME LEFT:  2.00D  GRAD.:     5.701 HEAT: -12.27754
 CYCLE:    15 TIME:   0.023 TIME LEFT:  2.00D  GRAD.:     5.104 HEAT: -12.28062
 CYCLE:    16 TIME:   0.020 TIME LEFT:  2.00D  GRAD.:     4.563 HEAT: -12.28422
 CYCLE:    17 TIME:   0.023 TIME LEFT:  2.00D  GRAD.:     4.100 HEAT: -12.28813
 CYCLE:    18 TIME:   0.023 TIME LEFT:  2.00D  GRAD.:     3.820 HEAT: -12.29097
 CYCLE:    19 TIME:   0.023 TIME LEFT:  2.00D  GRAD.:     2.407 HEAT: -12.29599
 CYCLE:    20 TIME:   0.023 TIME LEFT:  2.00D  GRAD.:     3.637 HEAT: -12.29692
 CYCLE:    21 TIME:   0.023 TIME LEFT:  2.00D  GRAD.:     2.091 HEAT: -12.30372
 CYCLE:    22 TIME:   0.023 TIME LEFT:  2.00D  GRAD.:     2.361 HEAT: -12.31160
 CYCLE:    23 TIME:   0.020 TIME LEFT:  2.00D  GRAD.:     4.863 HEAT: -12.32183
 CYCLE:    24 TIME:   0.023 TIME LEFT:  2.00D  GRAD.:     3.813 HEAT: -12.33273
 CYCLE:    25 TIME:   0.023 TIME LEFT:  2.00D  GRAD.:     2.635 HEAT: -12.34189
 CYCLE:    26 TIME:   0.023 TIME LEFT:  2.00D  GRAD.:     3.419 HEAT: -12.35354
 CYCLE:    27 TIME:   0.023 TIME LEFT:  2.00D  GRAD.:     3.898 HEAT: -12.36781
 CYCLE:    28 TIME:   0.023 TIME LEFT:  2.00D  GRAD.:     2.507 HEAT: -12.37913
 CYCLE:    29 TIME:   0.023 TIME LEFT:  2.00D  GRAD.:     1.651 HEAT: -12.38408
 CYCLE:    30 TIME:   0.020 TIME LEFT:  2.00D  GRAD.:     1.905 HEAT: -12.38836
 CYCLE:    31 TIME:   0.023 TIME LEFT:  2.00D  GRAD.:     1.957 HEAT: -12.39376
 CYCLE:    32 TIME:   0.023 TIME LEFT:  2.00D  GRAD.:     1.298 HEAT: -12.39656
 CYCLE:    33 TIME:   0.023 TIME LEFT:  2.00D  GRAD.:     1.329 HEAT: -12.39858
 CYCLE:    34 TIME:   0.023 TIME LEFT:  2.00D  GRAD.:     1.499 HEAT: -12.40058
 CYCLE:    35 TIME:   0.027 TIME LEFT:  2.00D  GRAD.:     1.207 HEAT: -12.40249
 CYCLE:    36 TIME:   0.023 TIME LEFT:  2.00D  GRAD.:     0.992 HEAT: -12.40428
 CYCLE:    37 TIME:   0.023 TIME LEFT:  2.00D  GRAD.:     0.601 HEAT: -12.40499
 CYCLE:    38 TIME:   0.023 TIME LEFT:  2.00D  GRAD.:     0.341 HEAT: -12.40554
 CYCLE:    39 TIME:   0.023 TIME LEFT:  2.00D  GRAD.:     0.252 HEAT: -12.40588
 CYCLE:    40 TIME:   0.020 TIME LEFT:  2.00D  GRAD.:     0.135 HEAT: -12.40597
 CYCLE:    41 TIME:   0.023 TIME LEFT:  2.00D  GRAD.:     0.089 HEAT: -12.40600
 CYCLE:    42 TIME:   0.023 TIME LEFT:  2.00D  GRAD.:     0.058 HEAT: -12.40601
 CYCLE:    43 TIME:   0.023 TIME LEFT:  2.00D  GRAD.:     0.049 HEAT: -12.40602

     GRADIENT =  0.04917  IS LESS THAN CUTOFF =  0.05000



 -------------------------------------------------------------------------------
 pm3  precise nosym THREADS=1
 InChI=1S/C7H12/c1-2-6-4-5-7(6)3-1/h6-7H,1-5H2



     GEOMETRY OPTIMISED USING EIGENVECTOR FOLLOWING (EF).     
     SCF FIELD WAS ACHIEVED                                   


                              PM3 CALCULATION
                                                       MOPAC2016 (Version: 18.184L)
                                                       Thu Jun 13 16:09:10 2019
                                                       No. of days remaining =  20




          FINAL HEAT OF FORMATION =        -12.40602 KCAL/MOL =     -51.90677 KJ/MOL


          TOTAL ENERGY            =      -1015.01303 EV
          ELECTRONIC ENERGY       =      -5113.82167 EV  POINT GROUP:     C1  
          CORE-CORE REPULSION     =       4098.80864 EV
          COSMO AREA              =        143.20 SQUARE ANGSTROMS
          COSMO VOLUME            =        140.79 CUBIC ANGSTROMS

          GRADIENT NORM           =          0.04917 = 0.01128 PER ATOM
          IONIZATION POTENTIAL    =         11.142704 EV
          HOMO LUMO ENERGIES (EV) =        -11.143  3.329
          NO. OF FILLED LEVELS    =         20
          MOLECULAR WEIGHT        =         96.1718

          MOLECULAR DIMENSIONS (Angstroms)

            Atom       Atom       Distance
            H    17    H    10     5.34848
            H    14    H    19     4.21670
            H     8    H    15     3.82946


          SCF CALCULATIONS        =         52
 
          WALL-CLOCK TIME         =          1.090 SECONDS
          COMPUTATION TIME        =          0.341 SECONDS




   ATOM   CHEMICAL          X               Y               Z
  NUMBER   SYMBOL      (ANGSTROMS)     (ANGSTROMS)     (ANGSTROMS)
 
     1       C         -0.41240953  *   0.37986932  *  -0.94217378  *
     2       C         -0.15679266  *  -1.03135096  *  -0.33763366  *
     3       C          0.76405735  *   1.25867603  *  -0.55217142  *
     4       C          1.16739793  *  -0.97180501  *   0.40506484  *
     5       C         -1.42630542  *  -0.88029836  *   0.53311417  *
     6       C         -1.67870709  *   0.51837932  *  -0.06467355  *
     7       C          1.52888119  *   0.50793961  *   0.53846868  *
     8       H         -0.61673043  *   0.40909827  *  -2.02877292  *
     9       H         -0.20141646  *  -1.87642391  *  -1.04979073  *
    10       H          2.61847815  *   0.67060387  *   0.45828824  *
    11       H          1.24273512  *   0.88541590  *   1.53853459  *
    12       H          0.43319747  *   2.25600046  *  -0.20874653  *
    13       H          1.41311221  *   1.44145174  *  -1.42894336  *
    14       H          1.94816170  *  -1.51514283  *  -0.15935622  *
    15       H          1.10601993  *  -1.46938954  *   1.39031419  *
    16       H         -1.24716616  *  -0.89403858  *   1.61922190  *
    17       H         -2.21269925  *  -1.62017005  *   0.32299970  *
    18       H         -2.61658046  *   0.61536982  *  -0.63114285  *
    19       H         -1.64980884  *   1.34447984  *   0.66243562  *

                             CARTESIAN COORDINATES

   1    C       -0.412409531     0.379869317    -0.942173784
   2    C       -0.156792664    -1.031350960    -0.337633659
   3    C        0.764057355     1.258676030    -0.552171425
   4    C        1.167397931    -0.971805008     0.405064841
   5    C       -1.426305418    -0.880298357     0.533114171
   6    C       -1.678707093     0.518379319    -0.064673546
   7    C        1.528881187     0.507939614     0.538468685
   8    H       -0.616730426     0.409098269    -2.028772918
   9    H       -0.201416459    -1.876423914    -1.049790735
  10    H        2.618478151     0.670603873     0.458288239
  11    H        1.242735120     0.885415901     1.538534591
  12    H        0.433197472     2.256000457    -0.208746532
  13    H        1.413112209     1.441451737    -1.428943360
  14    H        1.948161697    -1.515142831    -0.159356225
  15    H        1.106019926    -1.469389545     1.390314188
  16    H       -1.247166156    -0.894038577     1.619221896
  17    H       -2.212699249    -1.620170051     0.322999697
  18    H       -2.616580464     0.615369815    -0.631142849
  19    H       -1.649808839     1.344479837     0.662435620


           Empirical Formula: C7 H12  =    19 atoms



      MOLECULAR POINT GROUP   :   C1  


                  EIGENVALUES  
 -42.26981 -32.78478 -29.15969 -24.85820 -22.59562 -19.90823 -17.82458 -17.74357
 -16.19170 -15.49973 -14.49164 -14.06842 -13.19378 -13.18431 -12.55758 -12.27634
 -11.45325 -11.42920 -11.17237 -11.14270   3.32936   3.37109   3.62794   3.66754
   3.66922   3.85779   3.94159   4.06606   4.12809   4.23065   4.28260   4.47959
   4.55565   4.70765   4.80992   4.90048   5.16671   5.26562   5.50836   5.68877


              NET ATOMIC CHARGES AND DIPOLE CONTRIBUTIONS

  ATOM NO.   TYPE          CHARGE      No. of ELECS.   s-Pop       p-Pop       
    1          C          -0.094121        4.0941     1.19498     2.89915
    2          C          -0.094133        4.0941     1.19498     2.89915
    3          C          -0.086995        4.0870     1.16158     2.92541
    4          C          -0.087003        4.0870     1.16160     2.92541
    5          C          -0.106632        4.1066     1.17403     2.93261
    6          C          -0.106646        4.1066     1.17403     2.93262
    7          C          -0.095894        4.0959     1.16461     2.93129
    8          H           0.073700        0.9263     0.92630
    9          H           0.073701        0.9263     0.92630
   10          H           0.048841        0.9512     0.95116
   11          H           0.047003        0.9530     0.95300
   12          H           0.054023        0.9460     0.94598
   13          H           0.047789        0.9522     0.95221
   14          H           0.047787        0.9522     0.95221
   15          H           0.054018        0.9460     0.94598
   16          H           0.058518        0.9415     0.94148
   17          H           0.053764        0.9462     0.94624
   18          H           0.053759        0.9462     0.94624
   19          H           0.058523        0.9415     0.94148
 DIPOLE           X         Y         Z       TOTAL
 POINT-CHG.     0.051     0.018     0.021     0.058
 HYBRID        -0.008     0.011     0.029     0.032
 SUM            0.043     0.029     0.050     0.073


          ATOMIC ORBITAL ELECTRON POPULATIONS

     Atom    s        px        py        pz   
    1  C   1.19498   0.95501   0.95784   0.98629
    2  C   1.19498   0.94691   0.97304   0.97920
    3  C   1.16158   0.96565   0.97596   0.98380
    4  C   1.16160   0.96414   0.96133   0.99994
    5  C   1.17403   0.97379   0.96921   0.98961
    6  C   1.17403   0.97121   0.97107   0.99034
    7  C   1.16461   0.99220   0.95255   0.98654
    8  H   0.92630
    9  H   0.92630
   10  H   0.95116
   11  H   0.95300
   12  H   0.94598
   13  H   0.95221
   14  H   0.95221
   15  H   0.94598
   16  H   0.94148
   17  H   0.94624
   18  H   0.94624
   19  H   0.94148
 *******************************************************************************
 ** Site#: 14399        For non-commercial use only    Version 18.184L 64BITS **
 *******************************************************************************
 ** Cite this program as: MOPAC2016, Version: 18.184L, James J. P. Stewart,   **
 ** Stewart Computational Chemistry, web: HTTP://OpenMOPAC.net. Days left:  20**
 *******************************************************************************
 **                                                                           **
 **                                MOPAC2016                                  **
 **                                                                           **
 *******************************************************************************

                              PM3 CALCULATION RESULTS

 *******************************************************************************
 *  CALCULATION DONE:                                Thu Jun 13 16:09:10 2019  *
 *  PM3        - The PM3 Hamiltonian to be used
 *  OLDGEO     - PREVIOUS GEOMETRY TO BE USED
 *  PRECISE    - CRITERIA TO BE INCREASED BY 100 TIMES
 *  NOSYM      - POINT-GROUP SYMMETRY SET TO C1
 *  THREADS=1  - MULTI-THREADING NOT USED
 *  T=         - A TIME OF 172800.0 SECONDS REQUESTED
 *  DUMP=N     - RESTART FILE WRITTEN EVERY  7200.000 SECONDS
 *  THERMO     - THERMODYNAMIC QUANTITIES TO BE CALCULATED
 *******************************************************************************
oldgeo thermo nosym precise THREADS=1  pm3
 InChI=1S/C7H12/c1-2-6-4-5-7(6)3-1/h6-7H,1-5H2

   ATOM   CHEMICAL          X               Y               Z
  NUMBER   SYMBOL      (ANGSTROMS)     (ANGSTROMS)     (ANGSTROMS)
 
     1       C         -0.41240953  *   0.37986932  *  -0.94217378  *
     2       C         -0.15679266  *  -1.03135096  *  -0.33763366  *
     3       C          0.76405735  *   1.25867603  *  -0.55217142  *
     4       C          1.16739793  *  -0.97180501  *   0.40506484  *
     5       C         -1.42630542  *  -0.88029836  *   0.53311417  *
     6       C         -1.67870709  *   0.51837932  *  -0.06467355  *
     7       C          1.52888119  *   0.50793961  *   0.53846868  *
     8       H         -0.61673043  *   0.40909827  *  -2.02877292  *
     9       H         -0.20141646  *  -1.87642391  *  -1.04979073  *
    10       H          2.61847815  *   0.67060387  *   0.45828824  *
    11       H          1.24273512  *   0.88541590  *   1.53853459  *
    12       H          0.43319747  *   2.25600046  *  -0.20874653  *
    13       H          1.41311221  *   1.44145174  *  -1.42894336  *
    14       H          1.94816170  *  -1.51514283  *  -0.15935622  *
    15       H          1.10601993  *  -1.46938954  *   1.39031419  *
    16       H         -1.24716616  *  -0.89403858  *   1.61922190  *
    17       H         -2.21269925  *  -1.62017005  *   0.32299970  *
    18       H         -2.61658046  *   0.61536982  *  -0.63114285  *
    19       H         -1.64980884  *   1.34447984  *   0.66243562  *
 


          CARTESIAN COORDINATES 

    NO.       ATOM           X           Y           Z

     1         C         -0.4124      0.3799     -0.9422
     2         C         -0.1568     -1.0314     -0.3376
     3         C          0.7641      1.2587     -0.5522
     4         C          1.1674     -0.9718      0.4051
     5         C         -1.4263     -0.8803      0.5331
     6         C         -1.6787      0.5184     -0.0647
     7         C          1.5289      0.5079      0.5385
     8         H         -0.6167      0.4091     -2.0288
     9         H         -0.2014     -1.8764     -1.0498
    10         H          2.6185      0.6706      0.4583
    11         H          1.2427      0.8854      1.5385
    12         H          0.4332      2.2560     -0.2087
    13         H          1.4131      1.4415     -1.4289
    14         H          1.9482     -1.5151     -0.1594
    15         H          1.1060     -1.4694      1.3903
    16         H         -1.2472     -0.8940      1.6192
    17         H         -2.2127     -1.6202      0.3230
    18         H         -2.6166      0.6154     -0.6311
    19         H         -1.6498      1.3445      0.6624

  H: (PM3): J. J. P. STEWART, J. COMP. CHEM. 10, 209 (1989).
  C: (PM3): J. J. P. STEWART, J. COMP. CHEM. 10, 209 (1989).

           Empirical Formula: C7 H12  =    19 atoms



      MOLECULAR POINT GROUP   :   C1  


      RHF CALCULATION, NO. OF DOUBLY OCCUPIED LEVELS = 20



          HEAT OF FORMATION =     -12.406016 KCALS/MOLE


          CARTESIAN COORDINATE DERIVATIVES

   NUMBER  ATOM         X            Y            Z

     1       C     -0.004051     0.006709    -0.000107
     2       C      0.007365    -0.000168    -0.005108
     3       C     -0.003584     0.005884    -0.002220
     4       C     -0.006221     0.007671     0.003479
     5       C      0.004134    -0.008389    -0.001873
     6       C      0.010616     0.004254    -0.002894
     7       C      0.003453     0.005287     0.006744
     8       H      0.005467    -0.000439     0.005475
     9       H      0.005747     0.008479    -0.007745
    10       H     -0.003753    -0.013508     0.010328
    11       H     -0.001791     0.004678    -0.009951
    12       H     -0.007861     0.009631    -0.009448
    13       H      0.001471    -0.010204     0.004988
    14       H     -0.004936    -0.014199     0.005947
    15       H     -0.003983    -0.005902     0.004504
    16       H      0.000689     0.001054    -0.005987
    17       H      0.002263    -0.013665    -0.002819
    18       H      0.001818     0.004620     0.007784
    19       H     -0.006843     0.008208    -0.001098
 


          GRADIENT NORM =   0.04916


          TIME FOR SCF CALCULATION =    0.02

          TIME FOR DERIVATIVES     =    0.01

          MOLECULAR WEIGHT =   96.17



          ROTATIONAL CONSTANTS IN CM(-1)

          A =    0.14126386   B =    0.09436826   C =    0.07140881



           PRINCIPAL MOMENTS OF INERTIA IN UNITS OF 10**(-40)*GRAM-CM**2

          A =      198.1595   B =      296.6334   C =      392.0073


          ORIENTATION OF MOLECULE IN FORCE CALCULATION

    NO.       ATOM         X         Y         Z

     1          C      -0.7781   -0.5527   -0.4516
     2          C       0.7783   -0.5527   -0.4516
     3          C      -1.2303    0.8979   -0.4516
     4          C       1.2302    0.8980   -0.4498
     5          C       0.7710   -1.2590    0.9246
     6          C      -0.7708   -1.2576    0.9253
     7          C      -0.0003    1.7400   -0.1108
     8          H      -1.2602   -1.1431   -1.2530
     9          H       1.2606   -1.1420   -1.2537
    10          H       0.0000    2.7008   -0.6557
    11          H      -0.0011    2.0052    0.9635
    12          H      -2.0555    1.0688    0.2638
    13          H      -1.6299    1.1747   -1.4451
    14          H       1.6319    1.1755   -1.4423
    15          H       2.0540    1.0684    0.2674
    16          H       1.2348   -0.6854    1.7418
    17          H       1.2311   -2.2581    0.9255
    18          H      -1.2329   -2.2558    0.9279
    19          H      -1.2327   -0.6821    1.7422


    FIRST DERIVATIVES WILL BE USED IN THE CALCULATION OF SECOND DERIVATIVES

          ESTIMATED TIME TO COMPLETE CALCULATION =        7.12 SECONDS

    FOR POINT-GROUP C1   THERE ARE   1 UNIQUE SYMMETRY FUNCTIONS.

 STEP:   1 TIME =     0.04 SECS, INTEGRAL =      0.04 TIME LEFT: 172799.93
 STEP:   2 TIME =     0.04 SECS, INTEGRAL =      0.07 TIME LEFT: 172799.89
 STEP:   3 TIME =     0.03 SECS, INTEGRAL =      0.11 TIME LEFT: 172799.86
 STEP:   4 TIME =     0.04 SECS, INTEGRAL =      0.14 TIME LEFT: 172799.83
 STEP:   5 TIME =     0.04 SECS, INTEGRAL =      0.18 TIME LEFT: 172799.79
 STEP:   6 TIME =     0.03 SECS, INTEGRAL =      0.21 TIME LEFT: 172799.76
 STEP:   7 TIME =     0.04 SECS, INTEGRAL =      0.24 TIME LEFT: 172799.73
 STEP:   8 TIME =     0.04 SECS, INTEGRAL =      0.28 TIME LEFT: 172799.69
 STEP:   9 TIME =     0.03 SECS, INTEGRAL =      0.31 TIME LEFT: 172799.66
 STEP:  10 TIME =     0.03 SECS, INTEGRAL =      0.34 TIME LEFT: 172799.63
 STEP:  11 TIME =     0.04 SECS, INTEGRAL =      0.38 TIME LEFT: 172799.59
 STEP:  12 TIME =     0.04 SECS, INTEGRAL =      0.41 TIME LEFT: 172799.56
 STEP:  13 TIME =     0.03 SECS, INTEGRAL =      0.44 TIME LEFT: 172799.53
 STEP:  14 TIME =     0.04 SECS, INTEGRAL =      0.48 TIME LEFT: 172799.49
 STEP:  15 TIME =     0.04 SECS, INTEGRAL =      0.51 TIME LEFT: 172799.46
 STEP:  16 TIME =     0.03 SECS, INTEGRAL =      0.54 TIME LEFT: 172799.43
 STEP:  17 TIME =     0.04 SECS, INTEGRAL =      0.58 TIME LEFT: 172799.39
 STEP:  18 TIME =     0.04 SECS, INTEGRAL =      0.61 TIME LEFT: 172799.36
 STEP:  19 TIME =     0.03 SECS, INTEGRAL =      0.64 TIME LEFT: 172799.32
 STEP:  20 TIME =     0.03 SECS, INTEGRAL =      0.68 TIME LEFT: 172799.29
 STEP:  21 TIME =     0.04 SECS, INTEGRAL =      0.71 TIME LEFT: 172799.26
 STEP:  22 TIME =     0.04 SECS, INTEGRAL =      0.75 TIME LEFT: 172799.22
 STEP:  23 TIME =     0.04 SECS, INTEGRAL =      0.78 TIME LEFT: 172799.19
 STEP:  24 TIME =     0.04 SECS, INTEGRAL =      0.82 TIME LEFT: 172799.15
 STEP:  25 TIME =     0.04 SECS, INTEGRAL =      0.85 TIME LEFT: 172799.12
 STEP:  26 TIME =     0.04 SECS, INTEGRAL =      0.89 TIME LEFT: 172799.08
 STEP:  27 TIME =     0.04 SECS, INTEGRAL =      0.92 TIME LEFT: 172799.05
 STEP:  28 TIME =     0.04 SECS, INTEGRAL =      0.96 TIME LEFT: 172799.01
 STEP:  29 TIME =     0.03 SECS, INTEGRAL =      0.99 TIME LEFT: 172798.98
 STEP:  30 TIME =     0.03 SECS, INTEGRAL =      1.02 TIME LEFT: 172798.95
 STEP:  31 TIME =     0.04 SECS, INTEGRAL =      1.05 TIME LEFT: 172798.91
 STEP:  32 TIME =     0.04 SECS, INTEGRAL =      1.09 TIME LEFT: 172798.88
 STEP:  33 TIME =     0.03 SECS, INTEGRAL =      1.12 TIME LEFT: 172798.85
 STEP:  34 TIME =     0.04 SECS, INTEGRAL =      1.16 TIME LEFT: 172798.81
 STEP:  35 TIME =     0.04 SECS, INTEGRAL =      1.19 TIME LEFT: 172798.78
 STEP:  36 TIME =     0.04 SECS, INTEGRAL =      1.23 TIME LEFT: 172798.74
 STEP:  37 TIME =     0.04 SECS, INTEGRAL =      1.27 TIME LEFT: 172798.70
 STEP:  38 TIME =     0.04 SECS, INTEGRAL =      1.30 TIME LEFT: 172798.67
 STEP:  39 TIME =     0.04 SECS, INTEGRAL =      1.34 TIME LEFT: 172798.63
 STEP:  40 TIME =     0.03 SECS, INTEGRAL =      1.37 TIME LEFT: 172798.60
 STEP:  41 TIME =     0.04 SECS, INTEGRAL =      1.40 TIME LEFT: 172798.57
 STEP:  42 TIME =     0.04 SECS, INTEGRAL =      1.44 TIME LEFT: 172798.53
 STEP:  43 TIME =     0.04 SECS, INTEGRAL =      1.47 TIME LEFT: 172798.50
 STEP:  44 TIME =     0.04 SECS, INTEGRAL =      1.51 TIME LEFT: 172798.46
 STEP:  45 TIME =     0.04 SECS, INTEGRAL =      1.54 TIME LEFT: 172798.43
 STEP:  46 TIME =     0.04 SECS, INTEGRAL =      1.58 TIME LEFT: 172798.39
 STEP:  47 TIME =     0.04 SECS, INTEGRAL =      1.61 TIME LEFT: 172798.36
 STEP:  48 TIME =     0.04 SECS, INTEGRAL =      1.65 TIME LEFT: 172798.32
 STEP:  49 TIME =     0.04 SECS, INTEGRAL =      1.68 TIME LEFT: 172798.29
 STEP:  50 TIME =     0.03 SECS, INTEGRAL =      1.71 TIME LEFT: 172798.25
 STEP:  51 TIME =     0.04 SECS, INTEGRAL =      1.75 TIME LEFT: 172798.22
 STEP:  52 TIME =     0.04 SECS, INTEGRAL =      1.79 TIME LEFT: 172798.18
 STEP:  53 TIME =     0.03 SECS, INTEGRAL =      1.82 TIME LEFT: 172798.15
 STEP:  54 TIME =     0.04 SECS, INTEGRAL =      1.85 TIME LEFT: 172798.12
 STEP:  55 TIME =     0.04 SECS, INTEGRAL =      1.89 TIME LEFT: 172798.08
 STEP:  56 TIME =     0.04 SECS, INTEGRAL =      1.92 TIME LEFT: 172798.05
 STEP:  57 TIME =     0.04 SECS, INTEGRAL =      1.96 TIME LEFT: 172798.01

(To convert to Hartree/Bohr^2, multiply by (10^(-21) x N x a0^2)/(4.184 x 627.51) =  0.0642)


           FORCE MATRIX IN MILLIDYNES/ANGSTROM


                  C  1       C  2       C  3       C  4       C  5       C  6
 ------------------------------------------------------------------------------
     C    1  14.608227
     C    2   3.191814  14.607026
     C    3   4.166757   0.695514  14.467335
     C    4   0.695716   4.165292   0.731932  14.466639
     C    5   1.813565   3.504697   0.042857   0.524409  14.419473
     C    6   3.504653   1.813649   0.524199   0.042891   3.686706  14.417757
     C    7   0.776092   0.775413   3.936792   3.936407   0.029116   0.029268
     H    8   4.558064   0.420470   0.426371   0.030732   0.029041   0.425922
     H    9   0.420447   4.558002   0.030657   0.426369   0.425752   0.029141
     H   10   0.040363   0.040208   0.437585   0.437580   0.001182   0.001206
     H   11   0.012930   0.012954   0.442344   0.442279   0.002730   0.002776
     H   12   0.445473   0.038468   4.534548   0.039739   0.002625   0.026651
     H   13   0.439945   0.011195   4.523803   0.012715   0.003175   0.040245
     H   14   0.011274   0.439906   0.012723   4.524182   0.040224   0.003129
     H   15   0.038367   0.445449   0.039695   4.534415   0.026801   0.002617
     H   16   0.029376   0.451682   0.003201   0.023763   4.675053   0.443999
     H   17   0.029643   0.443319   0.001364   0.035641   4.705114   0.445679
     H   18   0.443225   0.029755   0.035535   0.001412   0.445402   4.705808
     H   19   0.451716   0.029291   0.023734   0.003224   0.443807   4.674390


                  C  7       H  8       H  9       H 10       H 11       H 12
 ------------------------------------------------------------------------------
     C    7  14.328242
     H    8   0.038383   5.060020
     H    9   0.038244   0.018913   5.059929
     H   10   4.566830   0.004336   0.004298   5.182404
     H   11   4.510041   0.001241   0.001271   0.580511   5.113014
     H   12   0.439343   0.015176   0.003730   0.016156   0.032311   5.153279
     H   13   0.442097   0.033884   0.000781   0.032154   0.039126   0.574957
     H   14   0.442062   0.000759   0.033864   0.032137   0.039106   0.001322
     H   15   0.439316   0.003720   0.015204   0.016210   0.032296   0.004247
     H   16   0.003642   0.001305   0.029266   0.000616   0.003476   0.000625
     H   17   0.000821   0.002833   0.027205   0.000359   0.000460   0.000564
     H   18   0.000811   0.027188   0.002823   0.000353   0.000442   0.002642
     H   19   0.003641   0.029356   0.001287   0.000620   0.003506   0.028900


                  H 13       H 14       H 15       H 16       H 17       H 18
 ------------------------------------------------------------------------------
     H   13   5.121742
     H   14   0.001263   5.121977
     H   15   0.001306   0.574839   5.152982
     H   16   0.000646   0.003066   0.028969   5.301836
     H   17   0.000477   0.004475   0.002645   0.553476   5.325214
     H   18   0.004465   0.000492   0.000570   0.032517   0.023227   5.326182
     H   19   0.003051   0.000632   0.000618   0.023145   0.032588   0.553536


                  H 19
 ------------------
     H   19   5.301234


          HEAT OF FORMATION =     -12.406016 KCALS/MOLE

          ZERO POINT ENERGY     109.260 KCAL/MOL


           NORMAL COORDINATE ANALYSIS (Total motion = 1 Angstrom)


   Root No.       1         2         3         4         5         6         7         8

                 1 A       2 A       3 A       4 A       5 A       6 A       7 A       8 A   

                 133.9     143.2     384.6     390.2     607.5     636.6     776.2     791.5
  
           1   -0.0007   -0.0017    0.0265   -0.0012   -0.0151    0.0088   -0.0346   -0.0065
           2   -0.0060   -0.0000   -0.0018   -0.0124   -0.0442   -0.0292   -0.0229    0.0110
           3   -0.0084    0.0077   -0.0184   -0.0316    0.0108   -0.0173   -0.0389    0.0066
           4    0.0008   -0.0017    0.0266    0.0004   -0.0151   -0.0089   -0.0345    0.0065
           5   -0.0060   -0.0002    0.0015   -0.0125    0.0444   -0.0290    0.0229    0.0110
           6   -0.0081   -0.0080    0.0176   -0.0321   -0.0107   -0.0173    0.0389    0.0066
           7    0.0069   -0.0042   -0.0049   -0.0101    0.0356    0.0512   -0.0015   -0.0184
           8   -0.0029   -0.0024   -0.0130   -0.0181   -0.0434   -0.0055    0.0057   -0.0098
           9   -0.0249   -0.0319    0.0223    0.0260    0.0104    0.0111   -0.0162    0.0143
          10   -0.0067   -0.0045   -0.0046    0.0102    0.0360   -0.0510   -0.0014    0.0184
          11   -0.0030    0.0023    0.0126   -0.0185    0.0433   -0.0053   -0.0056   -0.0098
          12   -0.0259    0.0311   -0.0217    0.0266   -0.0104    0.0109    0.0162    0.0143
          13   -0.0002    0.0132   -0.0136   -0.0009   -0.0337   -0.0003    0.0197    0.0022
          14    0.0221   -0.0333   -0.0273    0.0384    0.0155   -0.0015    0.0074    0.0119
          15    0.0062   -0.0256    0.0063   -0.0075   -0.0239   -0.0006    0.0092   -0.0113
          16   -0.0003    0.0133   -0.0135    0.0013   -0.0337    0.0001    0.0197   -0.0022
          17    0.0210    0.0341    0.0282    0.0375   -0.0154   -0.0015   -0.0075    0.0119
          18    0.0054    0.0258   -0.0065   -0.0074    0.0239   -0.0005   -0.0093   -0.0113
          19    0.0002   -0.0155   -0.0087    0.0001    0.0230    0.0000    0.0184   -0.0000
          20   -0.0252   -0.0004   -0.0003   -0.0235   -0.0002    0.0571   -0.0000   -0.0285
          21    0.0535    0.0008    0.0001    0.0063   -0.0001    0.0244    0.0000    0.0189
          22   -0.0040   -0.0076    0.0524   -0.0094   -0.0085   -0.0244   -0.0112    0.0076
          23   -0.0165   -0.0252   -0.0018   -0.0134   -0.0645   -0.0126   -0.0241    0.0124
          24    0.0018    0.0296   -0.0329   -0.0242    0.0219   -0.0087   -0.0501   -0.0037
          25    0.0042   -0.0075    0.0526    0.0079   -0.0088    0.0243   -0.0112   -0.0075
          26   -0.0173    0.0247    0.0015   -0.0135    0.0646   -0.0123    0.0242    0.0124
          27    0.0028   -0.0295    0.0324   -0.0251   -0.0219   -0.0088    0.0500   -0.0038
          28   -0.0000   -0.0034   -0.0301    0.0005   -0.0383   -0.0001    0.0534    0.0001
          29    0.0257    0.0004   -0.0004   -0.0359   -0.0001    0.0105   -0.0001   -0.1081
          30    0.1446    0.0022   -0.0002   -0.0154    0.0001   -0.0649   -0.0001   -0.1273
          31    0.0007   -0.0448    0.0095   -0.0001    0.0309    0.0001    0.0031   -0.0000
          32   -0.1308   -0.0020   -0.0000    0.0015   -0.0004    0.1710    0.0001    0.1288
          33    0.0798    0.0012    0.0000    0.0003    0.0000   -0.0057   -0.0000   -0.0246
          34   -0.0335   -0.0311    0.0215    0.0247    0.0315    0.0155    0.0437   -0.0848
          35    0.0003    0.0081   -0.0503   -0.0505   -0.0190   -0.0276   -0.0009    0.0167
          36   -0.0729   -0.0657    0.0636    0.0764   -0.0013   -0.0277    0.0389   -0.0721
          37    0.0718    0.0341   -0.0585   -0.0687    0.0554    0.1028   -0.0515    0.0834
          38    0.0083   -0.0187    0.0062    0.0189   -0.0601   -0.0027    0.0625   -0.0225
          39   -0.0478   -0.0519    0.0499    0.0608   -0.0020   -0.0096    0.0215   -0.0333
          40   -0.0728    0.0319   -0.0568    0.0702    0.0559   -0.1024   -0.0517   -0.0835
          41    0.0077    0.0189   -0.0056    0.0190    0.0600   -0.0024   -0.0625   -0.0224
          42   -0.0496    0.0506   -0.0486    0.0623    0.0022   -0.0097   -0.0218   -0.0335
          43    0.0346   -0.0302    0.0211   -0.0255    0.0316   -0.0153    0.0440    0.0849
          44    0.0006   -0.0082    0.0491   -0.0520    0.0190   -0.0274    0.0013    0.0167
          45   -0.0749    0.0635   -0.0616    0.0781    0.0015   -0.0277   -0.0390   -0.0720
          46   -0.0016    0.0702    0.0096   -0.0056   -0.0238   -0.0054    0.0405    0.0164
          47    0.0409   -0.0808   -0.0753    0.0778   -0.0156    0.0373   -0.0555   -0.0086
          48   -0.0060   -0.0250    0.0250   -0.0309   -0.0096   -0.0240    0.0406   -0.0061
          49    0.0009   -0.0347   -0.0627    0.0030   -0.0335    0.0080    0.0354   -0.0114
          50    0.0227   -0.0558   -0.0507    0.0411    0.0153    0.0034    0.0117    0.0050
          51    0.0283   -0.0719   -0.0252    0.0423   -0.0792    0.0417   -0.0775   -0.0357
          52    0.0002   -0.0345   -0.0626   -0.0011   -0.0334   -0.0082    0.0349    0.0114
          53    0.0209    0.0566    0.0518    0.0396   -0.0152    0.0034   -0.0115    0.0050
          54    0.0259    0.0728    0.0261    0.0413    0.0789    0.0422    0.0781   -0.0359
          55   -0.0006    0.0703    0.0098    0.0053   -0.0238    0.0053    0.0410   -0.0166
          56    0.0382    0.0819    0.0769    0.0755    0.0155    0.0374    0.0560   -0.0086
          57   -0.0068    0.0246   -0.0258   -0.0303    0.0096   -0.0241   -0.0409   -0.0060


   Root No.       9        10        11        12        13        14        15        16

                 9 A      10 A      11 A      12 A      13 A      14 A      15 A      16 A   

                 835.4     867.1     938.5     944.4     959.1     996.2    1007.6    1028.6
  
           1   -0.0041   -0.0090    0.0209    0.0356    0.0062    0.0077    0.0076   -0.0093
           2    0.0023   -0.0047   -0.0004    0.0174    0.0028   -0.0064   -0.0047   -0.0045
           3    0.0039   -0.0056    0.0007    0.0092   -0.0181   -0.0021    0.0190    0.0012
           4    0.0042   -0.0089    0.0214   -0.0353   -0.0063   -0.0077    0.0076    0.0093
           5    0.0022    0.0047    0.0002    0.0174    0.0028   -0.0064    0.0047   -0.0045
           6    0.0037    0.0056   -0.0009    0.0092   -0.0181   -0.0020   -0.0191    0.0012
           7   -0.0131   -0.0036   -0.0186    0.0067   -0.0217   -0.0190   -0.0055   -0.0249
           8    0.0079   -0.0015    0.0229   -0.0194    0.0095    0.0036    0.0027   -0.0127
           9    0.0036    0.0284    0.0066   -0.0051   -0.0204    0.0083   -0.0040    0.0068
          10    0.0131   -0.0035   -0.0185   -0.0070    0.0218    0.0190   -0.0054    0.0248
          11    0.0080    0.0015   -0.0226   -0.0197    0.0096    0.0036   -0.0027   -0.0127
          12    0.0034   -0.0284   -0.0066   -0.0053   -0.0203    0.0083    0.0040    0.0068
          13    0.0006    0.0114   -0.0141    0.0122   -0.0150    0.0071    0.0021   -0.0097
          14   -0.0252   -0.0029    0.0286    0.0057   -0.0134   -0.0079    0.0023    0.0072
          15   -0.0098    0.0234   -0.0245    0.0005    0.0231    0.0018    0.0159   -0.0116
          16   -0.0006    0.0114   -0.0139   -0.0123    0.0150   -0.0072    0.0020    0.0097
          17   -0.0251    0.0030   -0.0287    0.0054   -0.0133   -0.0078   -0.0023    0.0072
          18   -0.0099   -0.0234    0.0246    0.0008    0.0230    0.0020   -0.0159   -0.0116
          19   -0.0001   -0.0030    0.0004    0.0000   -0.0000   -0.0000    0.0037    0.0000
          20   -0.0033   -0.0000   -0.0001    0.0089    0.0071    0.0198    0.0001    0.0473
          21   -0.0017    0.0000    0.0000    0.0050    0.0235   -0.0044   -0.0000   -0.0009
          22    0.0141   -0.0187    0.1070    0.1359    0.0180    0.0789   -0.0138   -0.0605
          23    0.0151    0.0284    0.0058    0.0059   -0.0236    0.0042   -0.0207   -0.0451
          24   -0.0161   -0.0246   -0.0525   -0.0465   -0.0052   -0.0537    0.0431    0.0609
          25   -0.0142   -0.0186    0.1088   -0.1347   -0.0185   -0.0786   -0.0143    0.0605
          26    0.0149   -0.0285   -0.0060    0.0059   -0.0237    0.0041    0.0207   -0.0451
          27   -0.0162    0.0246    0.0531   -0.0458   -0.0054   -0.0533   -0.0435    0.0608
          28   -0.0003   -0.0633    0.0616    0.0004   -0.0001   -0.0002    0.0697    0.0001
          29   -0.0070   -0.0000   -0.0002    0.0090   -0.0295    0.0392    0.0002    0.0806
          30   -0.0087   -0.0000   -0.0001    0.0083   -0.0449    0.0313    0.0002    0.0612
          31    0.0001    0.0681    0.0259    0.0003   -0.0001    0.0001   -0.0548   -0.0000
          32    0.0026   -0.0000    0.0002   -0.0004    0.0913   -0.0158   -0.0001   -0.0096
          33   -0.0033    0.0001   -0.0000    0.0064   -0.0003    0.0048   -0.0000    0.0134
          34   -0.0254   -0.0703   -0.0427   -0.0035   -0.0346   -0.0411    0.0347   -0.0677
          35    0.0364    0.0433    0.0379   -0.0982   -0.0939    0.0258    0.0909   -0.0676
          36   -0.0181   -0.0633   -0.0267    0.0013   -0.0098   -0.0228    0.0229   -0.0294
          37    0.0094    0.1095    0.0186   -0.0140   -0.0348   -0.0023   -0.0586   -0.0199
          38   -0.0019   -0.0227    0.0279   -0.0418    0.1000   -0.0347   -0.0881   -0.0830
          39   -0.0091   -0.0259   -0.0077   -0.0019    0.0099   -0.0097   -0.0068   -0.0146
          40   -0.0087    0.1095    0.0184    0.0144    0.0347    0.0027   -0.0586    0.0200
          41   -0.0014    0.0227   -0.0269   -0.0425    0.1001   -0.0352    0.0878   -0.0832
          42   -0.0090    0.0261    0.0078   -0.0017    0.0100   -0.0097    0.0067   -0.0146
          43    0.0250   -0.0704   -0.0427    0.0028    0.0348    0.0409    0.0349    0.0677
          44    0.0363   -0.0432   -0.0370   -0.0986   -0.0938    0.0263   -0.0907   -0.0672
          45   -0.0176    0.0632    0.0265    0.0018   -0.0099   -0.0226   -0.0230   -0.0292
          46   -0.1405    0.0068   -0.0010   -0.0095   -0.0214    0.0890   -0.0444   -0.0423
          47    0.1058   -0.0567   -0.0205   -0.0004   -0.0226    0.0410   -0.0522   -0.0125
          48   -0.0139    0.0622    0.0005    0.0169    0.0332   -0.0794    0.0781    0.0208
          49    0.1381    0.0005    0.0060    0.0759   -0.0282   -0.0593    0.0028   -0.0016
          50    0.0442   -0.0096    0.0361    0.0370   -0.0202   -0.0383    0.0024    0.0103
          51    0.1039   -0.0193   -0.1210   -0.0632    0.0381    0.0758   -0.0311   -0.0276
          52   -0.1382    0.0011    0.0071   -0.0759    0.0282    0.0592    0.0032    0.0019
          53    0.0448    0.0095   -0.0365    0.0366   -0.0202   -0.0383   -0.0026    0.0102
          54    0.1036    0.0190    0.1221   -0.0614    0.0378    0.0756    0.0314   -0.0275
          55    0.1407    0.0064   -0.0008    0.0096    0.0213   -0.0887   -0.0448    0.0421
          56    0.1056    0.0562    0.0205    0.0001   -0.0226    0.0407    0.0523   -0.0125
          57   -0.0143   -0.0622   -0.0006    0.0167    0.0331   -0.0788   -0.0784    0.0207


   Root No.      17        18        19        20        21        22        23        24

                17 A      18 A      19 A      20 A      21 A      22 A      23 A      24 A   

                1046.5    1065.8    1069.6    1087.0    1106.3    1120.9    1129.6    1152.1
  
           1   -0.0059    0.0128    0.0064   -0.0027   -0.0076    0.0094    0.0061   -0.0015
           2   -0.0158    0.0155   -0.0046   -0.0028   -0.0073   -0.0005    0.0195    0.0131
           3   -0.0028   -0.0129    0.0051    0.0026    0.0014    0.0107    0.0171   -0.0031
           4   -0.0059   -0.0128    0.0065   -0.0028    0.0076    0.0095   -0.0061   -0.0013
           5    0.0159    0.0155    0.0045    0.0029   -0.0072    0.0004    0.0195   -0.0131
           6    0.0028   -0.0128   -0.0051   -0.0026    0.0014   -0.0107    0.0171    0.0033
           7   -0.0207    0.0108   -0.0080   -0.0016   -0.0028   -0.0062    0.0095   -0.0108
           8   -0.0023   -0.0069    0.0003   -0.0067    0.0021    0.0060   -0.0055   -0.0135
           9    0.0025    0.0153    0.0034    0.0102   -0.0108   -0.0146   -0.0172   -0.0106
          10   -0.0207   -0.0108   -0.0080   -0.0016    0.0028   -0.0062   -0.0095   -0.0109
          11    0.0024   -0.0069   -0.0003    0.0067    0.0021   -0.0060   -0.0055    0.0134
          12   -0.0025    0.0153   -0.0035   -0.0101   -0.0108    0.0146   -0.0171    0.0106
          13    0.0030   -0.0432   -0.0000    0.0010   -0.0087    0.0003   -0.0075   -0.0022
          14   -0.0139    0.0006   -0.0089    0.0158    0.0060    0.0257   -0.0055   -0.0020
          15    0.0006    0.0055    0.0007    0.0102   -0.0086    0.0147   -0.0145   -0.0040
          16    0.0030    0.0433   -0.0001    0.0011    0.0087    0.0003    0.0075   -0.0023
          17    0.0139    0.0006    0.0089   -0.0158    0.0059   -0.0257   -0.0056    0.0021
          18   -0.0006    0.0055   -0.0007   -0.0102   -0.0086   -0.0146   -0.0146    0.0038
          19    0.0230    0.0000    0.0082    0.0057   -0.0000    0.0029    0.0000    0.0231
          20    0.0000   -0.0089   -0.0000   -0.0000    0.0059    0.0000   -0.0075    0.0000
          21    0.0000   -0.0181   -0.0000   -0.0000    0.0286    0.0000    0.0214   -0.0001
          22    0.0829    0.0293   -0.0399   -0.0140    0.0937   -0.0345   -0.0541   -0.0309
          23   -0.0966    0.0491   -0.0487    0.0350   -0.0953   -0.0374    0.0347    0.0847
          24    0.0012   -0.0470    0.0660   -0.0192    0.0028    0.0645    0.0441   -0.0385
          25    0.0829   -0.0292   -0.0400   -0.0136   -0.0937   -0.0347    0.0540   -0.0318
          26    0.0964    0.0492    0.0489   -0.0347   -0.0955    0.0373    0.0347   -0.0853
          27   -0.0009   -0.0468   -0.0661    0.0192    0.0028   -0.0646    0.0440    0.0382
          28    0.0690   -0.0002    0.1168    0.1855    0.0003   -0.0795    0.0000    0.0524
          29    0.0000    0.0061   -0.0000    0.0000   -0.0168    0.0001   -0.0382    0.0001
          30    0.0001    0.0113    0.0001    0.0001   -0.0126    0.0000   -0.0299    0.0001
          31    0.1013    0.0001    0.0128   -0.1213   -0.0004    0.1463    0.0004    0.1629
          32    0.0000   -0.0581   -0.0000   -0.0001    0.0688    0.0001    0.0353   -0.0001
          33    0.0001   -0.0057   -0.0000   -0.0001    0.0145    0.0001    0.0101    0.0001
          34   -0.0161   -0.0056   -0.0480   -0.0281    0.0518    0.0021    0.0318   -0.0211
          35    0.0551    0.0131   -0.0990   -0.0416    0.0992   -0.0273   -0.0506   -0.0656
          36   -0.0086   -0.0110   -0.0190   -0.0122    0.0292    0.0025    0.0205   -0.0116
          37   -0.0003    0.0452    0.0245    0.0168   -0.0504   -0.0223   -0.0575   -0.0504
          38   -0.0232   -0.0537    0.0673   -0.0241   -0.0546    0.0418   -0.0622   -0.1118
          39   -0.0105   -0.0121    0.0099   -0.0011   -0.0060    0.0015   -0.0054   -0.0226
          40   -0.0004   -0.0452    0.0244    0.0166    0.0505   -0.0223    0.0573   -0.0508
          41    0.0232   -0.0538   -0.0670    0.0240   -0.0547   -0.0420   -0.0619    0.1126
          42    0.0105   -0.0122   -0.0098    0.0011   -0.0060   -0.0016   -0.0053    0.0227
          43   -0.0161    0.0056   -0.0481   -0.0280   -0.0520    0.0021   -0.0319   -0.0210
          44   -0.0551    0.0131    0.0992    0.0414    0.0993    0.0277   -0.0503    0.0653
          45    0.0085   -0.0110    0.0190    0.0121    0.0292   -0.0025    0.0204    0.0116
          46    0.0094   -0.0904   -0.0711    0.0865   -0.0427    0.0606    0.0132   -0.0021
          47    0.0392   -0.0173   -0.0140   -0.0015   -0.0168   -0.0236    0.0458   -0.0014
          48   -0.0379    0.0452    0.0440   -0.0270    0.0259    0.0131   -0.0614   -0.0046
          49   -0.0160   -0.0923    0.0404   -0.0876   -0.0257   -0.0990   -0.0467    0.0324
          50   -0.0208   -0.0216    0.0107   -0.0257   -0.0024   -0.0201   -0.0227    0.0129
          51    0.0806    0.0351   -0.0133    0.0235   -0.0086   -0.0043    0.0586   -0.0258
          52   -0.0162    0.0926    0.0405   -0.0874    0.0256   -0.0989    0.0467    0.0327
          53    0.0208   -0.0218   -0.0109    0.0258   -0.0025    0.0203   -0.0227   -0.0130
          54   -0.0807    0.0349    0.0135   -0.0235   -0.0087    0.0042    0.0586    0.0259
          55    0.0094    0.0901   -0.0712    0.0865    0.0428    0.0608   -0.0131   -0.0018
          56   -0.0392   -0.0175    0.0141    0.0014   -0.0170    0.0232    0.0459    0.0013
          57    0.0381    0.0451   -0.0440    0.0269    0.0261   -0.0130   -0.0615    0.0048


   Root No.      25        26        27        28        29        30        31        32

                25 A      26 A      27 A      28 A      29 A      30 A      31 A      32 A   

                1161.1    1178.0    1231.0    1250.6    1267.7    1285.8    1310.0    1327.7
  
           1   -0.0241   -0.0310    0.0199   -0.0136   -0.0181    0.0038    0.0112   -0.0366
           2   -0.0014   -0.0091    0.0025    0.0151   -0.0092   -0.0024    0.0091    0.0088
           3    0.0269    0.0008   -0.0380    0.0085    0.0171    0.0220   -0.0036   -0.0109
           4    0.0241    0.0310    0.0199   -0.0136    0.0181    0.0039    0.0113    0.0366
           5   -0.0013   -0.0091   -0.0026   -0.0150   -0.0092    0.0024   -0.0091    0.0090
           6    0.0269    0.0009    0.0380   -0.0085    0.0171   -0.0220    0.0036   -0.0109
           7    0.0084   -0.0026   -0.0013    0.0080   -0.0036   -0.0051   -0.0279    0.0159
           8   -0.0050   -0.0096    0.0080    0.0144   -0.0142   -0.0209   -0.0268    0.0240
           9   -0.0000   -0.0126    0.0109    0.0041   -0.0078   -0.0076   -0.0015    0.0068
          10   -0.0083    0.0026   -0.0013    0.0080    0.0036   -0.0051   -0.0279   -0.0158
          11   -0.0051   -0.0096   -0.0080   -0.0143   -0.0143    0.0209    0.0269    0.0239
          12   -0.0001   -0.0126   -0.0109   -0.0041   -0.0078    0.0076    0.0015    0.0068
          13    0.0058    0.0203   -0.0143   -0.0076   -0.0435   -0.0167   -0.0034   -0.0094
          14    0.0086    0.0065   -0.0007   -0.0024   -0.0023   -0.0124    0.0021   -0.0062
          15   -0.0253    0.0065    0.0022    0.0201    0.0073    0.0259   -0.0007    0.0106
          16   -0.0058   -0.0203   -0.0143   -0.0076    0.0435   -0.0166   -0.0034    0.0094
          17    0.0085    0.0065    0.0007    0.0024   -0.0023    0.0124   -0.0021   -0.0062
          18   -0.0254    0.0065   -0.0022   -0.0201    0.0073   -0.0258    0.0007    0.0106
          19   -0.0001   -0.0000   -0.0104    0.0125   -0.0000   -0.0107    0.0870   -0.0000
          20    0.0018    0.0129    0.0000   -0.0000    0.0099    0.0000   -0.0000   -0.0085
          21   -0.0150    0.0159   -0.0000    0.0000    0.0023   -0.0000    0.0001   -0.0018
          22    0.0748   -0.0133   -0.1067    0.0778    0.0195    0.0102   -0.0344    0.0443
          23   -0.0351    0.1521   -0.0569   -0.0740    0.0482    0.0362    0.0198   -0.0516
          24   -0.0075   -0.1281    0.0821    0.0174   -0.0465   -0.0102    0.0166   -0.0159
          25   -0.0744    0.0134   -0.1067    0.0777   -0.0194    0.0102   -0.0344   -0.0444
          26   -0.0344    0.1522    0.0571    0.0740    0.0484   -0.0361   -0.0197   -0.0517
          27   -0.0078   -0.1278   -0.0821   -0.0174   -0.0465    0.0101   -0.0168   -0.0160
          28   -0.0002    0.0001    0.0261   -0.0624   -0.0000    0.0552   -0.1511    0.0000
          29    0.0194    0.0073    0.0000   -0.0000    0.0247    0.0000   -0.0000   -0.0404
          30    0.0135    0.0061    0.0000   -0.0000    0.0247    0.0000   -0.0001   -0.0508
          31   -0.0006    0.0000    0.0019   -0.0561    0.0000    0.0463   -0.1675    0.0001
          32   -0.0212    0.0406    0.0000    0.0000    0.0312    0.0000    0.0001   -0.0596
          33   -0.0096    0.0097   -0.0000   -0.0000   -0.0014    0.0000   -0.0001    0.0073
          34   -0.0034    0.0100   -0.0042   -0.0209    0.0106    0.0324   -0.0597   -0.0115
          35   -0.0753   -0.0074    0.0474   -0.0820    0.0143    0.0438    0.0492   -0.0888
          36    0.0034    0.0022   -0.0031   -0.0057    0.0033    0.0190   -0.0513    0.0015
          37    0.0417   -0.0472    0.0081   -0.0136   -0.0042    0.0268   -0.0411   -0.0027
          38    0.0983   -0.0518   -0.0556   -0.0595    0.0547    0.0797    0.0604   -0.0865
          39    0.0166   -0.0075   -0.0107   -0.0070    0.0112    0.0085    0.0235   -0.0153
          40   -0.0414    0.0471    0.0081   -0.0136    0.0041    0.0268   -0.0410    0.0027
          41    0.0975   -0.0517    0.0556    0.0595    0.0549   -0.0797   -0.0605   -0.0864
          42    0.0165   -0.0074    0.0108    0.0070    0.0113   -0.0085   -0.0236   -0.0153
          43    0.0036   -0.0100   -0.0043   -0.0210   -0.0106    0.0324   -0.0598    0.0114
          44   -0.0758   -0.0073   -0.0474    0.0821    0.0145   -0.0437   -0.0495   -0.0887
          45    0.0033    0.0022    0.0030    0.0058    0.0034   -0.0190    0.0512    0.0015
          46   -0.0438   -0.0278    0.0591    0.0529    0.0338    0.0777    0.0088    0.0488
          47    0.0006   -0.0407    0.0391   -0.0040    0.0682    0.0091    0.0028   -0.0078
          48    0.0091    0.0682   -0.0654   -0.0128   -0.0867   -0.0425   -0.0078   -0.0182
          49   -0.0656   -0.0103    0.0401    0.0466    0.0326    0.0800    0.0064    0.0460
          50   -0.0242   -0.0076    0.0246    0.0218    0.0343    0.0314    0.0064    0.0170
          51    0.0485    0.0240   -0.0405   -0.0386   -0.1048   -0.0417   -0.0118    0.0030
          52    0.0652    0.0102    0.0401    0.0466   -0.0326    0.0799    0.0063   -0.0459
          53   -0.0241   -0.0075   -0.0246   -0.0218    0.0343   -0.0314   -0.0063    0.0171
          54    0.0482    0.0238    0.0406    0.0386   -0.1048    0.0417    0.0118    0.0029
          55    0.0441    0.0278    0.0592    0.0529   -0.0339    0.0776    0.0087   -0.0488
          56    0.0005   -0.0408   -0.0391    0.0038    0.0681   -0.0092   -0.0028   -0.0078
          57    0.0091    0.0683    0.0654    0.0129   -0.0868    0.0424    0.0077   -0.0181


   Root No.      33        34        35        36        37        38        39        40

                33 A      34 A      35 A      36 A      37 A      38 A      39 A      40 A   

                1344.5    1366.4    1408.1    1408.6    1422.7    1426.4    1442.4    2967.1
  
           1   -0.0190   -0.0123   -0.0003    0.0051    0.0077   -0.0029   -0.0140   -0.0009
           2    0.0369    0.0542    0.0061   -0.0121   -0.0152    0.0051    0.0172   -0.0010
           3   -0.0162   -0.0144   -0.0024    0.0033    0.0027   -0.0010   -0.0136   -0.0012
           4    0.0190   -0.0121   -0.0006   -0.0051    0.0077    0.0028    0.0140    0.0009
           5    0.0372   -0.0540   -0.0067   -0.0118    0.0152    0.0050    0.0171   -0.0010
           6   -0.0162    0.0143    0.0026    0.0031   -0.0027   -0.0010   -0.0135   -0.0012
           7   -0.0067   -0.0091    0.0091   -0.0134   -0.0231    0.0214    0.0087   -0.0036
           8   -0.0368   -0.0345   -0.0049    0.0245    0.0153   -0.0015   -0.0078   -0.0013
           9   -0.0026   -0.0005    0.0025   -0.0014   -0.0049    0.0057    0.0033    0.0173
          10    0.0068   -0.0091    0.0097    0.0130   -0.0233   -0.0212   -0.0086    0.0036
          11   -0.0370    0.0344    0.0061    0.0243   -0.0152   -0.0014   -0.0077   -0.0014
          12   -0.0026    0.0005   -0.0025   -0.0013    0.0049    0.0056    0.0033    0.0173
          13    0.0025    0.0071   -0.0138    0.0014   -0.0066   -0.0048    0.0287    0.0001
          14   -0.0081    0.0143    0.0111    0.0009    0.0004    0.0008   -0.0131    0.0002
          15    0.0079   -0.0072   -0.0183    0.0005   -0.0061   -0.0027    0.0224    0.0000
          16   -0.0025    0.0071   -0.0138   -0.0006   -0.0066    0.0049   -0.0287   -0.0001
          17   -0.0080   -0.0144   -0.0110    0.0015   -0.0004    0.0008   -0.0130    0.0002
          18    0.0079    0.0072    0.0183   -0.0004    0.0062   -0.0027    0.0225    0.0000
          19    0.0000   -0.0030   -0.0076    0.0002    0.0170   -0.0001   -0.0000    0.0000
          20    0.0076    0.0000   -0.0008   -0.0316   -0.0002   -0.0249   -0.0027    0.0074
          21   -0.0025   -0.0000   -0.0002   -0.0103   -0.0001   -0.0106   -0.0025   -0.0224
          22    0.0016    0.0432    0.0037   -0.0026   -0.0212    0.0084    0.0030    0.0096
          23   -0.0299   -0.0639   -0.0153    0.0100    0.0233   -0.0110   -0.0298    0.0100
          24    0.0201    0.0384    0.0113   -0.0085   -0.0077    0.0046    0.0098    0.0154
          25   -0.0019    0.0430    0.0039    0.0024   -0.0212   -0.0082   -0.0029   -0.0096
          26   -0.0303    0.0638    0.0158    0.0093   -0.0235   -0.0107   -0.0297    0.0100
          27    0.0203   -0.0383   -0.0117   -0.0079    0.0077    0.0045    0.0097    0.0154
          28   -0.0002    0.0515    0.0199   -0.0005   -0.0463    0.0002    0.0001   -0.0000
          29    0.0518    0.0001    0.0017    0.0705    0.0004    0.0661    0.0129   -0.1351
          30    0.0674    0.0002    0.0034    0.1433    0.0007    0.1282    0.0222    0.0729
          31   -0.0001    0.0106    0.0173   -0.0003   -0.0389    0.0002    0.0001   -0.0001
          32    0.0607    0.0001    0.0038    0.1601    0.0008    0.1321    0.0189    0.0482
          33   -0.0110   -0.0000   -0.0010   -0.0443   -0.0003   -0.0377   -0.0058    0.1968
          34    0.0577    0.0667   -0.0263    0.0467    0.0659   -0.0693   -0.0147    0.0938
          35    0.0304    0.0220    0.0175   -0.0621   -0.0485    0.0187    0.0053   -0.0210
          36    0.0496    0.0662   -0.0373    0.0766    0.0980   -0.0914   -0.0230   -0.0791
          37    0.0736    0.0947   -0.0406    0.0776    0.1027   -0.0980   -0.0204   -0.0518
          38    0.0176    0.0094    0.0107   -0.0517   -0.0315    0.0077   -0.0060    0.0373
          39   -0.0154   -0.0237    0.0225   -0.0504   -0.0573    0.0464    0.0129   -0.1289
          40   -0.0740    0.0941   -0.0444   -0.0756    0.1033    0.0969    0.0201    0.0518
          41    0.0176   -0.0095   -0.0131   -0.0511    0.0314    0.0074   -0.0062    0.0372
          42   -0.0156    0.0237   -0.0251   -0.0495    0.0578    0.0461    0.0128   -0.1281
          43   -0.0580    0.0664   -0.0287   -0.0456    0.0667    0.0689    0.0146   -0.0934
          44    0.0305   -0.0220   -0.0206   -0.0613    0.0486    0.0183    0.0051   -0.0209
          45    0.0498   -0.0657    0.0411    0.0747   -0.0985   -0.0903   -0.0227   -0.0791
          46    0.0514   -0.0231    0.0752   -0.0173    0.0269    0.0208   -0.0868   -0.0004
          47   -0.0309   -0.0199   -0.1323    0.0216   -0.0432   -0.0289    0.1316   -0.0005
          48    0.0009    0.0338    0.0443   -0.0055    0.0093    0.0062   -0.0267   -0.0011
          49    0.0397   -0.0244    0.0749   -0.0155    0.0297    0.0212   -0.0908    0.0003
          50    0.0060   -0.0013    0.0417   -0.0051    0.0138    0.0103   -0.0572   -0.0004
          51    0.0609   -0.0190    0.1263   -0.0271    0.0502    0.0289   -0.1116   -0.0002
          52   -0.0395   -0.0248    0.0753    0.0116    0.0296   -0.0214    0.0906   -0.0003
          53    0.0061    0.0015   -0.0422   -0.0030   -0.0140    0.0105   -0.0576   -0.0004
          54    0.0607    0.0194   -0.1274   -0.0204   -0.0502    0.0292   -0.1117   -0.0002
          55   -0.0514   -0.0236    0.0761    0.0134    0.0270   -0.0211    0.0871    0.0004
          56   -0.0309    0.0196    0.1329    0.0146    0.0432   -0.0291    0.1315   -0.0005
          57    0.0011   -0.0339   -0.0447   -0.0032   -0.0094    0.0063   -0.0270   -0.0011


   Root No.      41        42        43        44        45        46        47        48

                41 A      42 A      43 A      44 A      45 A      46 A      47 A      48 A   

                2975.0    2986.1    2993.4    3000.4    3029.8    3044.2    3055.7    3056.3
  
           1    0.0025    0.0021    0.0116   -0.0104    0.0014   -0.0011   -0.0005   -0.0004
           2    0.0028    0.0025    0.0135   -0.0127    0.0016   -0.0017   -0.0004   -0.0001
           3    0.0038    0.0033    0.0183   -0.0175    0.0022   -0.0021   -0.0007   -0.0006
           4    0.0025   -0.0021    0.0116    0.0103    0.0014    0.0011    0.0006   -0.0003
           5   -0.0028    0.0025   -0.0135   -0.0126   -0.0016   -0.0017   -0.0004    0.0000
           6   -0.0038    0.0034   -0.0184   -0.0175   -0.0022   -0.0021   -0.0007    0.0006
           7    0.0052    0.0031   -0.0020    0.0019   -0.0009    0.0019   -0.0130   -0.0193
           8    0.0020    0.0011   -0.0001    0.0000    0.0002   -0.0005    0.0045    0.0069
           9   -0.0252   -0.0146    0.0062   -0.0056    0.0002   -0.0000   -0.0019   -0.0029
          10    0.0051   -0.0031   -0.0020   -0.0019   -0.0009   -0.0019    0.0142   -0.0180
          11   -0.0020    0.0011    0.0001    0.0001   -0.0002   -0.0005    0.0049   -0.0065
          12    0.0253   -0.0147   -0.0063   -0.0056   -0.0002   -0.0000   -0.0021    0.0027
          13    0.0001   -0.0001   -0.0001    0.0002   -0.0008   -0.0009    0.0001   -0.0002
          14    0.0006   -0.0005    0.0035    0.0031   -0.0238   -0.0225   -0.0019    0.0011
          15    0.0002   -0.0002    0.0014    0.0015   -0.0132   -0.0127   -0.0009    0.0003
          16    0.0001    0.0001   -0.0001   -0.0002   -0.0008    0.0009   -0.0001   -0.0002
          17   -0.0006   -0.0005   -0.0035    0.0031    0.0238   -0.0225   -0.0018   -0.0013
          18   -0.0002   -0.0002   -0.0014    0.0015    0.0132   -0.0127   -0.0008   -0.0004
          19    0.0000    0.0000   -0.0001    0.0000   -0.0000   -0.0000    0.0000   -0.0005
          20    0.0000    0.0072    0.0000    0.0015    0.0000    0.0001   -0.0110   -0.0006
          21   -0.0001   -0.0220   -0.0000   -0.0042   -0.0000   -0.0000   -0.0029   -0.0001
          22   -0.0286   -0.0254   -0.1342    0.1288   -0.0159    0.0148    0.0046    0.0041
          23   -0.0328   -0.0290   -0.1632    0.1527   -0.0182    0.0163    0.0066    0.0063
          24   -0.0473   -0.0411   -0.2231    0.2087   -0.0281    0.0255    0.0085    0.0078
          25   -0.0286    0.0257   -0.1346   -0.1285   -0.0160   -0.0148   -0.0048    0.0036
          26    0.0327   -0.0294    0.1632    0.1520    0.0182    0.0163    0.0069   -0.0056
          27    0.0474   -0.0416    0.2237    0.2082    0.0282    0.0255    0.0090   -0.0069
          28   -0.0023   -0.0000    0.0002   -0.0000   -0.0001    0.0000    0.0001   -0.0019
          29   -0.0003   -0.1368   -0.0002   -0.0232   -0.0000    0.0002    0.1121    0.0059
          30    0.0002    0.0715    0.0001    0.0117    0.0000   -0.0001   -0.0732   -0.0038
          31    0.0034   -0.0001   -0.0010   -0.0000   -0.0002    0.0000   -0.0001   -0.0008
          32    0.0001    0.0497    0.0001    0.0102    0.0000    0.0003    0.0180    0.0009
          33    0.0005    0.1913    0.0003    0.0389    0.0000    0.0004    0.1073    0.0055
          34   -0.1405   -0.0822    0.0402   -0.0401    0.0087   -0.0174    0.1107    0.1703
          35    0.0300    0.0167   -0.0085    0.0086   -0.0020    0.0037   -0.0218   -0.0327
          36    0.1165    0.0669   -0.0336    0.0337   -0.0077    0.0162   -0.1085   -0.1661
          37    0.0768    0.0459   -0.0179    0.0152    0.0022   -0.0055    0.0423    0.0650
          38   -0.0519   -0.0288    0.0137   -0.0111   -0.0016    0.0043   -0.0333   -0.0506
          39    0.1860    0.1078   -0.0409    0.0328    0.0071   -0.0173    0.1314    0.2013
          40    0.0772   -0.0462   -0.0182   -0.0152    0.0022    0.0055   -0.0468    0.0612
          41    0.0521   -0.0289   -0.0139   -0.0111    0.0017    0.0043   -0.0367    0.0474
          42   -0.1858    0.1077    0.0414    0.0327   -0.0071   -0.0174    0.1441   -0.1879
          43   -0.1405    0.0823    0.0407    0.0400    0.0087    0.0173   -0.1210    0.1585
          44   -0.0299    0.0167    0.0086    0.0085    0.0020    0.0037   -0.0238    0.0303
          45   -0.1171    0.0673    0.0341    0.0338    0.0077    0.0162   -0.1192    0.1552
          46   -0.0021    0.0018   -0.0126   -0.0103    0.0920    0.0921    0.0066   -0.0023
          47   -0.0026    0.0020   -0.0158   -0.0122    0.1102    0.1061    0.0074   -0.0024
          48   -0.0043    0.0033   -0.0211   -0.0161    0.1636    0.1571    0.0108   -0.0034
          49    0.0012   -0.0015    0.0116    0.0132   -0.0824   -0.0804   -0.0072    0.0050
          50   -0.0022    0.0028   -0.0235   -0.0262    0.1762    0.1631    0.0149   -0.0112
          51   -0.0004    0.0003   -0.0011   -0.0012   -0.0044   -0.0042   -0.0003    0.0000
          52    0.0012    0.0015    0.0116   -0.0132   -0.0825    0.0803    0.0068    0.0057
          53    0.0021    0.0027    0.0234   -0.0262   -0.1754    0.1621    0.0140    0.0126
          54    0.0004    0.0003    0.0011   -0.0012    0.0047   -0.0045   -0.0003   -0.0001
          55   -0.0021   -0.0018   -0.0125    0.0103    0.0919   -0.0920   -0.0065   -0.0030
          56    0.0026    0.0020    0.0159   -0.0123   -0.1110    0.1068    0.0072    0.0032
          57    0.0043    0.0032    0.0211   -0.0162   -0.1641    0.1575    0.0105    0.0045


   Root No.      49        50        51

                49 A      50 A      51 A   

                3063.6    3102.8    3104.3
  
           1    0.0006   -0.0002   -0.0008
           2    0.0006    0.0004   -0.0003
           3    0.0007   -0.0007   -0.0004
           4   -0.0006   -0.0002    0.0008
           5    0.0006   -0.0004   -0.0003
           6    0.0007    0.0007   -0.0004
           7    0.0082   -0.0004    0.0003
           8   -0.0032    0.0001   -0.0001
           9    0.0010    0.0001   -0.0002
          10   -0.0082   -0.0004   -0.0003
          11   -0.0032   -0.0001   -0.0001
          12    0.0010   -0.0001   -0.0002
          13   -0.0001    0.0159    0.0142
          14    0.0012   -0.0086   -0.0085
          15    0.0005    0.0128    0.0120
          16    0.0001    0.0150   -0.0151
          17    0.0012    0.0081   -0.0091
          18    0.0005   -0.0121    0.0128
          19    0.0000   -0.0000    0.0000
          20   -0.0228   -0.0000   -0.0001
          21   -0.0050   -0.0000   -0.0001
          22   -0.0044    0.0002    0.0027
          23   -0.0056    0.0003    0.0033
          24   -0.0077   -0.0003    0.0051
          25    0.0044    0.0001   -0.0027
          26   -0.0056   -0.0001    0.0033
          27   -0.0076    0.0006    0.0051
          28    0.0001   -0.0000    0.0000
          29    0.2397    0.0000    0.0008
          30   -0.1549   -0.0000   -0.0006
          31   -0.0002    0.0000   -0.0000
          32    0.0359    0.0000    0.0003
          33    0.2164    0.0001    0.0022
          34   -0.0739    0.0040   -0.0039
          35    0.0133   -0.0005    0.0005
          36    0.0714   -0.0042    0.0039
          37   -0.0278    0.0007   -0.0004
          38    0.0209   -0.0007    0.0004
          39   -0.0852    0.0026   -0.0018
          40    0.0279    0.0008    0.0004
          41    0.0209    0.0007    0.0003
          42   -0.0848   -0.0028   -0.0016
          43    0.0733    0.0043    0.0036
          44    0.0132    0.0005    0.0005
          45    0.0712    0.0045    0.0037
          46   -0.0036   -0.0884   -0.0813
          47   -0.0040   -0.1283   -0.1182
          48   -0.0059   -0.1667   -0.1525
          49    0.0048   -0.0984   -0.0936
          50   -0.0100    0.2334    0.2198
          51    0.0002    0.0093    0.0089
          52   -0.0048   -0.0934    0.1000
          53   -0.0100   -0.2204    0.2335
          54    0.0002   -0.0083    0.0090
          55    0.0037   -0.0826    0.0856
          56   -0.0041    0.1209   -0.1254
          57   -0.0059    0.1565   -0.1614


           MASS-WEIGHTED COORDINATE ANALYSIS (NORMAL COORDINATES)


   Root No.       1         2         3         4         5         6         7         8

                 1 A       2 A       3 A       4 A       5 A       6 A       7 A       8 A   

                 133.9     143.2     384.6     390.2     607.5     636.6     776.2     791.5
  
           1   -0.0066   -0.0158    0.2577   -0.0102   -0.1089    0.0666   -0.2995   -0.0612
           2   -0.0531   -0.0003   -0.0178   -0.1082   -0.3178   -0.2207   -0.1984    0.1048
           3   -0.0738    0.0705   -0.1783   -0.2749    0.0778   -0.1306   -0.3372    0.0630
           4    0.0070   -0.0156    0.2579    0.0036   -0.1085   -0.0672   -0.2991    0.0618
           5   -0.0532   -0.0015    0.0150   -0.1087    0.3190   -0.2188    0.1983    0.1041
           6   -0.0717   -0.0729    0.1711   -0.2793   -0.0773   -0.1310    0.3376    0.0627
           7    0.0609   -0.0385   -0.0473   -0.0882    0.2562    0.3870   -0.0130   -0.1748
           8   -0.0256   -0.0222   -0.1260   -0.1570   -0.3118   -0.0418    0.0492   -0.0926
           9   -0.2199   -0.2911    0.2162    0.2260    0.0751    0.0840   -0.1406    0.1357
          10   -0.0593   -0.0408   -0.0445    0.0889    0.2586   -0.3856   -0.0124    0.1744
          11   -0.0263    0.0211    0.1220   -0.1608    0.3116   -0.0401   -0.0487   -0.0930
          12   -0.2289    0.2845   -0.2102    0.2314   -0.0750    0.0827    0.1408    0.1359
          13   -0.0016    0.1209   -0.1316   -0.0081   -0.2420   -0.0020    0.1706    0.0210
          14    0.1950   -0.3045   -0.2647    0.3335    0.1113   -0.0112    0.0638    0.1128
          15    0.0551   -0.2340    0.0612   -0.0655   -0.1721   -0.0046    0.0801   -0.1076
          16   -0.0022    0.1216   -0.1309    0.0117   -0.2420    0.0007    0.1705   -0.0210
          17    0.1856    0.3111    0.2733    0.3264   -0.1105   -0.0117   -0.0647    0.1131
          18    0.0476    0.2354   -0.0630   -0.0646    0.1717   -0.0040   -0.0805   -0.1076
          19    0.0019   -0.1415   -0.0845    0.0013    0.1655    0.0003    0.1591   -0.0003
          20   -0.2229   -0.0036   -0.0027   -0.2042   -0.0015    0.4315   -0.0003   -0.2706
          21    0.4728    0.0073    0.0008    0.0551   -0.0004    0.1840    0.0001    0.1793
          22   -0.0103   -0.0201    0.1472   -0.0236   -0.0177   -0.0533   -0.0281    0.0210
          23   -0.0422   -0.0668   -0.0052   -0.0337   -0.1343   -0.0276   -0.0605    0.0341
          24    0.0047    0.0783   -0.0925   -0.0609    0.0455   -0.0191   -0.1258   -0.0102
          25    0.0108   -0.0197    0.1479    0.0199   -0.0183    0.0532   -0.0281   -0.0208
          26   -0.0444    0.0654    0.0042   -0.0339    0.1345   -0.0270    0.0608    0.0340
          27    0.0070   -0.0779    0.0910   -0.0632   -0.0456   -0.0192    0.1256   -0.0103
          28   -0.0001   -0.0089   -0.0845    0.0012   -0.0797   -0.0002    0.1340    0.0004
          29    0.0659    0.0009   -0.0012   -0.0903   -0.0003    0.0230   -0.0002   -0.2971
          30    0.3701    0.0057   -0.0004   -0.0387    0.0001   -0.1422   -0.0002   -0.3500
          31    0.0017   -0.1187    0.0266   -0.0002    0.0643    0.0003    0.0077   -0.0000
          32   -0.3348   -0.0052   -0.0000    0.0039   -0.0009    0.3742    0.0002    0.3540
          33    0.2043    0.0031    0.0001    0.0007    0.0000   -0.0124   -0.0001   -0.0677
          34   -0.0857   -0.0823    0.0605    0.0623    0.0655    0.0339    0.1097   -0.2330
          35    0.0008    0.0215   -0.1415   -0.1271   -0.0395   -0.0604   -0.0022    0.0458
          36   -0.1865   -0.1739    0.1787    0.1924   -0.0027   -0.0607    0.0977   -0.1983
          37    0.1838    0.0902   -0.1646   -0.1729    0.1153    0.2249   -0.1293    0.2294
          38    0.0212   -0.0495    0.0173    0.0477   -0.1252   -0.0059    0.1568   -0.0618
          39   -0.1224   -0.1374    0.1404    0.1530   -0.0042   -0.0210    0.0541   -0.0915
          40   -0.1863    0.0844   -0.1597    0.1768    0.1165   -0.2240   -0.1297   -0.2294
          41    0.0196    0.0501   -0.0158    0.0477    0.1251   -0.0052   -0.1569   -0.0616
          42   -0.1270    0.1339   -0.1367    0.1569    0.0046   -0.0213   -0.0547   -0.0920
          43    0.0886   -0.0800    0.0592   -0.0642    0.0658   -0.0335    0.1104    0.2334
          44    0.0015   -0.0217    0.1380   -0.1308    0.0397   -0.0600    0.0033    0.0459
          45   -0.1917    0.1681   -0.1733    0.1966    0.0031   -0.0606   -0.0980   -0.1978
          46   -0.0042    0.1856    0.0270   -0.0141   -0.0496   -0.0118    0.1016    0.0452
          47    0.1046   -0.2138   -0.2118    0.1960   -0.0324    0.0816   -0.1393   -0.0235
          48   -0.0153   -0.0660    0.0704   -0.0777   -0.0201   -0.0525    0.1019   -0.0168
          49    0.0022   -0.0919   -0.1764    0.0077   -0.0699    0.0176    0.0888   -0.0315
          50    0.0581   -0.1477   -0.1427    0.1035    0.0319    0.0073    0.0295    0.0138
          51    0.0725   -0.1903   -0.0709    0.1065   -0.1650    0.0914   -0.1947   -0.0981
          52    0.0006   -0.0912   -0.1761   -0.0028   -0.0697   -0.0180    0.0876    0.0314
          53    0.0536    0.1499    0.1456    0.0998   -0.0316    0.0074   -0.0289    0.0137
          54    0.0664    0.1925    0.0734    0.1040    0.1644    0.0923    0.1960   -0.0986
          55   -0.0016    0.1860    0.0276    0.0133   -0.0496    0.0116    0.1030   -0.0455
          56    0.0979    0.2168    0.2164    0.1900    0.0322    0.0819    0.1405   -0.0238
          57   -0.0174    0.0651   -0.0725   -0.0762    0.0201   -0.0527   -0.1027   -0.0165


   Root No.       9        10        11        12        13        14        15        16

                 9 A      10 A      11 A      12 A      13 A      14 A      15 A      16 A   

                 835.4     867.1     938.5     944.4     959.1     996.2    1007.6    1028.6
  
           1   -0.0354   -0.0914    0.1881    0.3250    0.0599    0.0833    0.0847   -0.0899
           2    0.0203   -0.0478   -0.0040    0.1588    0.0268   -0.0686   -0.0520   -0.0438
           3    0.0337   -0.0573    0.0066    0.0837   -0.1752   -0.0221    0.2109    0.0119
           4    0.0363   -0.0906    0.1925   -0.3227   -0.0607   -0.0833    0.0845    0.0898
           5    0.0195    0.0477    0.0022    0.1590    0.0269   -0.0691    0.0517   -0.0438
           6    0.0322    0.0573   -0.0084    0.0839   -0.1752   -0.0211   -0.2111    0.0121
           7   -0.1143   -0.0367   -0.1672    0.0613   -0.2101   -0.2040   -0.0610   -0.2413
           8    0.0689   -0.0155    0.2054   -0.1769    0.0919    0.0383    0.0302   -0.1237
           9    0.0311    0.2894    0.0590   -0.0470   -0.1972    0.0891   -0.0440    0.0662
          10    0.1144   -0.0362   -0.1660   -0.0638    0.2112    0.2041   -0.0601    0.2411
          11    0.0695    0.0156   -0.2029   -0.1799    0.0928    0.0383   -0.0303   -0.1237
          12    0.0296   -0.2895   -0.0595   -0.0481   -0.1965    0.0891    0.0446    0.0664
          13    0.0051    0.1167   -0.1268    0.1110   -0.1454    0.0765    0.0228   -0.0938
          14   -0.2199   -0.0300    0.2570    0.0524   -0.1299   -0.0844    0.0250    0.0701
          15   -0.0854    0.2390   -0.2204    0.0047    0.2236    0.0199    0.1763   -0.1128
          16   -0.0055    0.1168   -0.1247   -0.1124    0.1458   -0.0770    0.0224    0.0938
          17   -0.2192    0.0307   -0.2581    0.0490   -0.1293   -0.0843   -0.0254    0.0701
          18   -0.0861   -0.2388    0.2214    0.0071    0.2228    0.0212   -0.1761   -0.1126
          19   -0.0005   -0.0304    0.0033    0.0000   -0.0002   -0.0001    0.0406    0.0001
          20   -0.0285   -0.0001   -0.0007    0.0813    0.0684    0.2126    0.0009    0.4595
          21   -0.0144    0.0000    0.0001    0.0453    0.2274   -0.0476   -0.0001   -0.0083
          22    0.0356   -0.0553    0.2784    0.3598    0.0504    0.2456   -0.0442   -0.1701
          23    0.0383    0.0840    0.0151    0.0157   -0.0663    0.0131   -0.0664   -0.1268
          24   -0.0407   -0.0726   -0.1368   -0.1230   -0.0145   -0.1671    0.1383    0.1712
          25   -0.0359   -0.0550    0.2832   -0.3564   -0.0518   -0.2447   -0.0460    0.1700
          26    0.0377   -0.0843   -0.0156    0.0156   -0.0664    0.0129    0.0664   -0.1268
          27   -0.0410    0.0726    0.1383   -0.1213   -0.0152   -0.1660   -0.1395    0.1709
          28   -0.0007   -0.1872    0.1604    0.0011   -0.0002   -0.0006    0.2235    0.0003
          29   -0.0177   -0.0000   -0.0004    0.0238   -0.0827    0.1222    0.0005    0.2268
          30   -0.0219   -0.0001   -0.0004    0.0219   -0.1260    0.0973    0.0005    0.1720
          31    0.0002    0.2011    0.0675    0.0007   -0.0002    0.0004   -0.1757   -0.0001
          32    0.0065   -0.0000    0.0005   -0.0011    0.2563   -0.0493   -0.0002   -0.0270
          33   -0.0084    0.0002   -0.0001    0.0171   -0.0010    0.0149   -0.0000    0.0377
          34   -0.0641   -0.2076   -0.1110   -0.0093   -0.0971   -0.1280    0.1112   -0.1905
          35    0.0920    0.1279    0.0988   -0.2599   -0.2636    0.0805    0.2915   -0.1901
          36   -0.0456   -0.1872   -0.0694    0.0036   -0.0275   -0.0711    0.0733   -0.0826
          37    0.0237    0.3236    0.0484   -0.0370   -0.0976   -0.0072   -0.1880   -0.0559
          38   -0.0049   -0.0670    0.0726   -0.1107    0.2807   -0.1082   -0.2827   -0.2335
          39   -0.0231   -0.0764   -0.0201   -0.0049    0.0277   -0.0301   -0.0219   -0.0410
          40   -0.0220    0.3236    0.0480    0.0381    0.0975    0.0083   -0.1879    0.0563
          41   -0.0036    0.0670   -0.0700   -0.1124    0.2809   -0.1095    0.2816   -0.2342
          42   -0.0226    0.0771    0.0204   -0.0046    0.0280   -0.0302    0.0215   -0.0411
          43    0.0631   -0.2081   -0.1112    0.0073    0.0976    0.1274    0.1120    0.1903
          44    0.0917   -0.1277   -0.0962   -0.2608   -0.2632    0.0819   -0.2910   -0.1891
          45   -0.0444    0.1867    0.0691    0.0046   -0.0277   -0.0703   -0.0737   -0.0822
          46   -0.3550    0.0201   -0.0027   -0.0252   -0.0600    0.2772   -0.1426   -0.1191
          47    0.2673   -0.1676   -0.0534   -0.0010   -0.0635    0.1277   -0.1675   -0.0352
          48   -0.0352    0.1837    0.0014    0.0447    0.0931   -0.2473    0.2506    0.0584
          49    0.3490    0.0015    0.0157    0.2009   -0.0791   -0.1847    0.0089   -0.0046
          50    0.1116   -0.0284    0.0939    0.0979   -0.0568   -0.1194    0.0078    0.0290
          51    0.2624   -0.0570   -0.3150   -0.1671    0.1068    0.2361   -0.0997   -0.0777
          52   -0.3492    0.0033    0.0184   -0.2008    0.0791    0.1843    0.0103    0.0054
          53    0.1132    0.0280   -0.0950    0.0969   -0.0566   -0.1194   -0.0084    0.0286
          54    0.2618    0.0560    0.3179   -0.1626    0.1060    0.2355    0.1008   -0.0773
          55    0.3554    0.0188   -0.0020    0.0255    0.0598   -0.2763   -0.1437    0.1184
          56    0.2669    0.1662    0.0534    0.0002   -0.0635    0.1269    0.1678   -0.0353
          57   -0.0362   -0.1837   -0.0016    0.0443    0.0929   -0.2456   -0.2516    0.0582


   Root No.      17        18        19        20        21        22        23        24

                17 A      18 A      19 A      20 A      21 A      22 A      23 A      24 A   

                1046.5    1065.8    1069.6    1087.0    1106.3    1120.9    1129.6    1152.1
  
           1   -0.0629    0.1180    0.0739   -0.0288   -0.0803    0.0985    0.0658   -0.0151
           2   -0.1692    0.1429   -0.0523   -0.0300   -0.0767   -0.0050    0.2106    0.1333
           3   -0.0302   -0.1187    0.0588    0.0273    0.0149    0.1113    0.1846   -0.0321
           4   -0.0633   -0.1181    0.0743   -0.0294    0.0802    0.0991   -0.0657   -0.0134
           5    0.1692    0.1430    0.0520    0.0306   -0.0767    0.0044    0.2102   -0.1340
           6    0.0298   -0.1185   -0.0585   -0.0278    0.0152   -0.1120    0.1843    0.0334
           7   -0.2214    0.0999   -0.0919   -0.0172   -0.0293   -0.0653    0.1022   -0.1105
           8   -0.0251   -0.0637    0.0037   -0.0712    0.0218    0.0632   -0.0591   -0.1371
           9    0.0262    0.1411    0.0394    0.1076   -0.1141   -0.1520   -0.1851   -0.1079
          10   -0.2211   -0.1000   -0.0921   -0.0172    0.0297   -0.0649   -0.1026   -0.1110
          11    0.0253   -0.0637   -0.0032    0.0711    0.0221   -0.0632   -0.0589    0.1371
          12   -0.0267    0.1411   -0.0396   -0.1071   -0.1146    0.1523   -0.1847    0.1083
          13    0.0317   -0.3990   -0.0001    0.0104   -0.0924    0.0034   -0.0811   -0.0225
          14   -0.1483    0.0058   -0.1023    0.1667    0.0629    0.2687   -0.0598   -0.0204
          15    0.0064    0.0508    0.0079    0.1079   -0.0914    0.1533   -0.1566   -0.0405
          16    0.0321    0.3991   -0.0007    0.0111    0.0924    0.0034    0.0810   -0.0230
          17    0.1480    0.0059    0.1020   -0.1669    0.0629   -0.2686   -0.0603    0.0213
          18   -0.0060    0.0509   -0.0080   -0.1073   -0.0913   -0.1528   -0.1573    0.0390
          19    0.2454    0.0001    0.0934    0.0605   -0.0003    0.0306    0.0003    0.2351
          20    0.0002   -0.0825   -0.0005   -0.0002    0.0620    0.0003   -0.0813    0.0001
          21    0.0002   -0.1667   -0.0001   -0.0004    0.3027    0.0001    0.2309   -0.0006
          22    0.2563    0.0783   -0.1325   -0.0428    0.2871   -0.1045   -0.1687   -0.0914
[...]
 RED. MASS   0.4800         C  6 -- H 19          +7.1% ( 36.9%)      0.5%
 EFF. MASS   5.2215

 VIBRATION   31   31A         ATOM PAIR      ENERGY CONTRIBUTION    RADIAL
 FREQ.      1310.02         C  7 -- H 11         +20.1% ( 65.2%)      0.0%
 T-DIPOLE    0.0173         C  7 -- H 10         +18.9% ( 63.3%)      0.0%
 TRAVEL      0.0837         C  4 -- C  7         +18.3% ( 62.3%)     83.1%
 RED. MASS   2.2939         C  3 -- C  7         +18.3% ( 62.2%)     83.1%
 EFF. MASS   7.3525

 VIBRATION   32   32A         ATOM PAIR      ENERGY CONTRIBUTION    RADIAL
 FREQ.      1327.67         C  1 -- C  2         +12.6% ( 51.5%)    100.0%
 T-DIPOLE    0.0491         C  1 -- C  3          +7.0% ( 38.4%)      0.0%
 TRAVEL      0.0903         C  2 -- C  4          +7.0% ( 38.4%)      0.0%
 RED. MASS   0.7364         C  2 -- H  9          +6.6% ( 37.3%)      5.8%
 EFF. MASS   6.2297

 VIBRATION   33   33A         ATOM PAIR      ENERGY CONTRIBUTION    RADIAL
 FREQ.      1344.55         C  2 -- C  4         +10.9% ( 50.3%)     94.9%
 T-DIPOLE    0.0032         C  1 -- C  3         +10.8% ( 50.0%)     94.9%
 TRAVEL      0.0821         C  1 -- C  2          +9.9% ( 47.9%)    100.0%
 RED. MASS   1.0290         C  2 -- C  5          +6.1% ( 37.4%)     61.4%
 EFF. MASS   7.4319

 VIBRATION   34   34A         ATOM PAIR      ENERGY CONTRIBUTION    RADIAL
 FREQ.      1366.39         C  1 -- C  2         +12.9% ( 56.4%)      0.0%
 T-DIPOLE    0.0113         C  1 -- C  3         +10.6% ( 51.2%)     90.8%
 TRAVEL      0.0791         C  2 -- C  4         +10.5% ( 51.0%)     90.7%
 RED. MASS   1.3697         C  1 -- H  8          +8.1% ( 44.9%)      1.4%
 EFF. MASS   7.8777

 VIBRATION   35   35A         ATOM PAIR      ENERGY CONTRIBUTION    RADIAL
 FREQ.      1408.12         C  6 -- H 19         +16.4% ( 43.2%)      3.3%
 T-DIPOLE    0.0093         C  5 -- H 16         +16.3% ( 43.0%)      3.3%
 TRAVEL      0.1394         C  6 -- H 18         +15.1% ( 41.4%)      4.5%
 RED. MASS   0.2336         C  5 -- H 17         +14.9% ( 41.1%)      4.6%
 EFF. MASS   2.4632

 VIBRATION   36   36A         ATOM PAIR      ENERGY CONTRIBUTION    RADIAL
 FREQ.      1408.59         C  7 -- H 11         +16.5% ( 45.8%)      4.3%
 T-DIPOLE    0.0093         C  7 -- H 10         +15.1% ( 43.9%)      7.2%
 TRAVEL      0.1149         C  3 -- C  7          +9.0% ( 33.8%)     14.1%
 RED. MASS   0.3265         C  4 -- C  7          +8.9% ( 33.6%)     14.9%
 EFF. MASS   3.6265

 VIBRATION   37   37A         ATOM PAIR      ENERGY CONTRIBUTION    RADIAL
 FREQ.      1422.67         C  4 -- H 15         +12.0% ( 40.2%)      5.6%
 T-DIPOLE    0.0393         C  3 -- H 12         +11.8% ( 39.9%)      5.6%
 TRAVEL      0.1115         C  4 -- H 14         +11.0% ( 38.5%)      6.1%
 RED. MASS   0.2901         C  3 -- H 13         +10.9% ( 38.3%)      6.1%
 EFF. MASS   3.8150

 VIBRATION   38   38A         ATOM PAIR      ENERGY CONTRIBUTION    RADIAL
 FREQ.      1426.44         C  7 -- H 10         +15.9% ( 41.4%)      5.2%
 T-DIPOLE    0.0337         C  7 -- H 11         +14.8% ( 39.8%)      5.5%
 TRAVEL      0.1291         C  3 -- H 12         +10.6% ( 33.7%)      4.5%
 RED. MASS   0.2297         C  4 -- H 15         +10.4% ( 33.4%)      4.5%
 EFF. MASS   2.8380

 VIBRATION   39   39A         ATOM PAIR      ENERGY CONTRIBUTION    RADIAL
 FREQ.      1442.43         C  6 -- H 19         +11.3% ( 43.6%)      5.3%
 T-DIPOLE    0.0455         C  5 -- H 16         +11.3% ( 43.6%)      5.3%
 TRAVEL      0.0995         C  6 -- H 18         +10.6% ( 42.3%)      6.6%
 RED. MASS   0.4579         C  5 -- H 17         +10.6% ( 42.3%)      6.5%
 EFF. MASS   4.7234         C  5 -- C  6         +10.3% ( 41.6%)    100.0%

 VIBRATION   40   40A         ATOM PAIR      ENERGY CONTRIBUTION    RADIAL
 FREQ.      2967.14         C  7 -- H 11         +28.5% ( 55.7%)     97.5%
 T-DIPOLE    0.0101         C  7 -- H 10         +17.2% ( 43.3%)     94.5%
 TRAVEL      0.1206         C  3 -- H 13         +14.5% ( 39.7%)     96.9%
 RED. MASS   0.1937         C  4 -- H 14         +14.4% ( 39.5%)     96.9%
 EFF. MASS   1.5632         C  3 -- H 12         +11.2% ( 34.8%)     95.6%
                            C  4 -- H 15         +11.1% ( 34.7%)     95.6%

 VIBRATION   41   41A         ATOM PAIR      ENERGY CONTRIBUTION    RADIAL
 FREQ.      2975.04         C  4 -- H 14         +25.7% ( 52.6%)     97.1%
 T-DIPOLE    0.0334         C  3 -- H 13         +25.7% ( 52.6%)     97.1%
 TRAVEL      0.1213         C  4 -- H 15         +20.8% ( 47.4%)     95.9%
 RED. MASS   0.2376         C  3 -- H 12         +20.7% ( 47.3%)     95.9%
 EFF. MASS   1.5413

 VIBRATION   42   42A         ATOM PAIR      ENERGY CONTRIBUTION    RADIAL
 FREQ.      2986.06         C  7 -- H 11         +31.0% ( 57.5%)     97.8%
 T-DIPOLE    0.0185         C  7 -- H 10         +19.7% ( 45.9%)     95.1%
 TRAVEL      0.1217         C  4 -- H 14         +11.7% ( 35.3%)     97.2%
 RED. MASS   0.1948         C  3 -- H 13         +11.7% ( 35.3%)     97.2%
 EFF. MASS   1.5234

 VIBRATION   43   43A         ATOM PAIR      ENERGY CONTRIBUTION    RADIAL
 FREQ.      2993.40         C  2 -- H  9         +44.6% ( 68.5%)    100.0%
 T-DIPOLE    0.0711         C  1 -- H  8         +44.4% ( 68.3%)    100.0%
 TRAVEL      0.1241         C  4 -- H 15          +1.4% ( 12.3%)     97.6%
 RED. MASS   0.4060         C  3 -- H 12          +1.4% ( 12.1%)     97.6%
 EFF. MASS   1.4626

 VIBRATION   44   44A         ATOM PAIR      ENERGY CONTRIBUTION    RADIAL
 FREQ.      3000.39         C  1 -- H  8         +44.2% ( 68.0%)    100.0%
 T-DIPOLE    0.1309         C  2 -- H  9         +43.9% ( 67.8%)    100.0%
 TRAVEL      0.1243         C  3 -- H 12          +1.6% ( 12.7%)     98.1%
 RED. MASS   0.3975         C  4 -- H 15          +1.6% ( 12.7%)     98.1%
 EFF. MASS   1.4555

 VIBRATION   45   45A         ATOM PAIR      ENERGY CONTRIBUTION    RADIAL
 FREQ.      3029.77         C  6 -- H 19         +26.3% ( 53.6%)     97.3%
 T-DIPOLE    0.0038         C  5 -- H 16         +26.1% ( 53.4%)     97.3%
 TRAVEL      0.1197         C  5 -- H 17         +21.3% ( 48.2%)     96.0%
 RED. MASS   0.2533         C  6 -- H 18         +21.2% ( 48.1%)     96.0%
 EFF. MASS   1.5522

 VIBRATION   46   46A         ATOM PAIR      ENERGY CONTRIBUTION    RADIAL
 FREQ.      3044.24         C  6 -- H 19         +27.0% ( 53.9%)     97.7%
 T-DIPOLE    0.0948         C  5 -- H 16         +26.8% ( 53.7%)     97.6%
 TRAVEL      0.1204         C  5 -- H 17         +20.4% ( 46.9%)     96.1%
 RED. MASS   0.2511         C  6 -- H 18         +20.3% ( 46.7%)     96.1%
 EFF. MASS   1.5276

 VIBRATION   47   47A         ATOM PAIR      ENERGY CONTRIBUTION    RADIAL
 FREQ.      3055.72         C  4 -- H 15         +22.5% ( 46.8%)     98.1%
 T-DIPOLE    0.0078         C  3 -- H 12         +18.8% ( 42.7%)     98.1%
 TRAVEL      0.1307         C  4 -- H 14         +18.4% ( 42.3%)     96.9%
 RED. MASS   0.1691         C  3 -- H 13         +15.2% ( 38.5%)     96.9%
 EFF. MASS   1.2916         C  7 -- H 10         +13.8% ( 36.7%)     98.6%

 VIBRATION   48   48A         ATOM PAIR      ENERGY CONTRIBUTION    RADIAL
 FREQ.      3056.33         C  3 -- H 12         +29.0% ( 53.1%)     98.2%
 T-DIPOLE    0.0578         C  4 -- H 15         +25.2% ( 49.5%)     98.1%
 TRAVEL      0.1316         C  3 -- H 13         +23.5% ( 47.8%)     97.0%
 RED. MASS   0.2437         C  4 -- H 14         +20.5% ( 44.7%)     97.1%
 EFF. MASS   1.2733

 VIBRATION   49   49A         ATOM PAIR      ENERGY CONTRIBUTION    RADIAL
 FREQ.      3063.63         C  7 -- H 10         +48.3% ( 68.5%)     98.8%
 T-DIPOLE    0.0293         C  7 -- H 11         +27.6% ( 51.8%)     95.5%
 TRAVEL      0.1308         C  3 -- H 12          +6.3% ( 24.7%)     98.2%
 RED. MASS   0.3173         C  4 -- H 15          +6.2% ( 24.6%)     98.2%
 EFF. MASS   1.2866

 VIBRATION   50   50A         ATOM PAIR      ENERGY CONTRIBUTION    RADIAL
 FREQ.      3102.76         C  5 -- H 17         +28.8% ( 53.2%)     97.8%
 T-DIPOLE    0.0561         C  6 -- H 18         +25.7% ( 50.3%)     97.8%
 TRAVEL      0.1303         C  5 -- H 16         +23.1% ( 47.6%)     96.3%
 RED. MASS   0.2454         C  6 -- H 19         +20.3% ( 44.7%)     96.3%
 EFF. MASS   1.2805

 VIBRATION   51   51A         ATOM PAIR      ENERGY CONTRIBUTION    RADIAL
 FREQ.      3104.32         C  6 -- H 18         +29.6% ( 54.0%)     98.0%
 T-DIPOLE    0.0640         C  5 -- H 17         +26.2% ( 50.8%)     98.0%
 TRAVEL      0.1298         C  6 -- H 19         +22.2% ( 46.7%)     96.1%
 RED. MASS   0.2467         C  5 -- H 16         +19.8% ( 44.1%)     96.2%
 EFF. MASS   1.2887

      SYMMETRY NUMBER FOR POINT-GROUP C1  =  1


          SYSTEM IS A GROUND STATE



 InChI=1S/C7H12/c1-2-6-4-5-7(6)3-1/h6-7H,1-5H2


          MOLECULE IS NOT LINEAR

          THERE ARE 51 GENUINE VIBRATIONS IN THIS SYSTEM
          THIS THERMODYNAMICS CALCULATION IS LIMITED TO
          MOLECULES WHICH HAVE NO INTERNAL ROTATIONS




                    CALCULATED THERMODYNAMIC PROPERTIES
                                          *
   TEMP. (K)   PARTITION FUNCTION   H.O.F.    ENTHALPY  HEAT CAPACITY ENTROPY
                                   KCAL/MOL   CAL/MOLE    CAL/K/MOL  CAL/K/MOL


 298.00  VIB.     0.7970D+01                  1987.9977    18.1058    10.7960
         ROT.     0.1712D+06                   888.2813     2.9808    26.9283
         INT.     0.1365D+07                  2876.2790    21.0866    37.7243
         TRA.     0.9118D+27                  1480.4688     4.9680    39.5994
         TOT.                      -12.406    4356.7478    26.0546    77.3237

 200.00  VIB.     0.2986D+01                   706.4188     8.6576     5.7061
         ROT.     0.9415D+05                   596.1620     2.9808    25.7396
         INT.     0.2812D+06                  1302.5808    11.6384    31.4457
         TRA.     0.5013D+27                   993.6033     4.9680    37.6183
         TOT.                      -14.467    2296.1840    16.6064    69.0640

 210.00  VIB.     0.3267D+01                   796.8229     9.4320     6.1471
         ROT.     0.1013D+06                   625.9700     2.9808    25.8850
         INT.     0.3310D+06                  1422.7929    12.4128    32.0321
         TRA.     0.5394D+27                  1043.2834     4.9680    37.8607
         TOT.                      -14.297    2466.0763    17.3808    69.8928

 220.00  VIB.     0.3582D+01                   895.2322    10.2584     6.6047
         ROT.     0.1086D+06                   655.7781     2.9808    26.0237
         INT.     0.3891D+06                  1551.0104    13.2392    32.6284
         TRA.     0.5784D+27                  1092.9636     4.9680    38.0918
         TOT.                      -14.119    2643.9740    18.2072    70.7202

 230.00  VIB.     0.3936D+01                  1002.1555    11.1343     7.0799
         ROT.     0.1161D+06                   685.5862     2.9808    26.1562
         INT.     0.4570D+06                  1687.7417    14.1151    33.2361
         TRA.     0.6182D+27                  1142.6437     4.9680    38.3126
         TOT.                      -13.932    2830.3855    19.0832    71.5487

 240.00  VIB.     0.4334D+01                  1118.0738    12.0568     7.5731
         ROT.     0.1238D+06                   715.3943     2.9808    26.2831
         INT.     0.5365D+06                  1833.4681    15.0376    33.8561
         TRA.     0.6590D+27                  1192.3239     4.9680    38.5241
         TOT.                      -13.737    3025.7920    20.0056    72.3802

 250.00  VIB.     0.4785D+01                  1243.4331    13.0219     8.0847
         ROT.     0.1316D+06                   745.2024     2.9808    26.4048
         INT.     0.6296D+06                  1988.6356    16.0027    34.4894
         TRA.     0.7006D+27                  1242.0041     4.9680    38.7269
         TOT.                      -13.532    3230.6396    20.9707    73.2163

 260.00  VIB.     0.5295D+01                  1378.6388    14.0253     8.6148
         ROT.     0.1396D+06                   775.0105     2.9808    26.5217
         INT.     0.7390D+06                  2153.6493    17.0061    35.1365
         TRA.     0.7431D+27                  1291.6842     4.9680    38.9217
         TOT.                      -13.317    3445.3335    21.9741    74.0582

 270.00  VIB.     0.5875D+01                  1524.0514    15.0625     9.1635
         ROT.     0.1477D+06                   804.8186     2.9808    26.6342
         INT.     0.8677D+06                  2328.8700    18.0433    35.7977
         TRA.     0.7864D+27                  1341.3644     4.9680    39.1092
         TOT.                      -13.093    3670.2344    23.0113    74.9069

 280.00  VIB.     0.6536D+01                  1679.9849    16.1287     9.7305
         ROT.     0.1560D+06                   834.6267     2.9808    26.7426
         INT.     0.1019D+07                  2514.6116    19.1095    36.4730
         TRA.     0.8304D+27                  1391.0445     4.9680    39.2899
         TOT.                      -12.857    3905.6561    24.0775    75.7629

 290.00  VIB.     0.7290D+01                  1846.7055    17.2191    10.3154
         ROT.     0.1644D+06                   864.4348     2.9808    26.8472
         INT.     0.1198D+07                  2711.1403    20.1999    37.1626
         TRA.     0.8753D+27                  1440.7247     4.9680    39.4642
         TOT.                      -12.611    4151.8651    25.1679    76.6268

 300.00  VIB.     0.8152D+01                  2024.4325    18.3292    10.9178
         ROT.     0.1730D+06                   894.2429     2.9808    26.9482
         INT.     0.1410D+07                  2918.6755    21.3100    37.8661
         TRA.     0.9210D+27                  1490.4049     4.9680    39.6326
         TOT.                      -12.354    4409.0803    26.2780    77.4987

 310.00  VIB.     0.9142D+01                  2213.3392    19.4543    11.5372
         ROT.     0.1817D+06                   924.0510     2.9808    27.0460
         INT.     0.1661D+07                  3137.3903    22.4351    38.5831
         TRA.     0.9674D+27                  1540.0850     4.9680    39.7955
         TOT.                      -12.085    4677.4753    27.4032    78.3787

 320.00  VIB.     0.1028D+02                  2413.5552    20.5903    12.1727
         ROT.     0.1905D+06                   953.8591     2.9808    27.1406
         INT.     0.1959D+07                  3367.4143    23.5711    39.3133
         TRA.     0.1015D+28                  1589.7652     4.9680    39.9533
         TOT.                      -11.806    4957.1795    28.5392    79.2666

 330.00  VIB.     0.1159D+02                  2625.1688    21.7332    12.8238
         ROT.     0.1995D+06                   983.6672     2.9808    27.2323
         INT.     0.2313D+07                  3608.8360    24.7140    40.0561
         TRA.     0.1063D+28                  1639.4454     4.9680    40.1062
         TOT.                      -11.514    5248.2813    29.6820    80.1623

 340.00  VIB.     0.1310D+02                  2848.2302    22.8793    13.4896
         ROT.     0.2087D+06                  1013.4753     2.9808    27.3213
         INT.     0.2734D+07                  3861.7056    25.8601    40.8109
         TRA.     0.1111D+28                  1689.1255     4.9680    40.2545
         TOT.                      -11.212    5550.8311    30.8282    81.0654

 350.00  VIB.     0.1485D+02                  3082.7548    24.0253    14.1694
         ROT.     0.2180D+06                  1043.2834     2.9808    27.4077
         INT.     0.3237D+07                  4126.0383    27.0061    41.5771
         TRA.     0.1161D+28                  1738.8057     4.9680    40.3985
         TOT.                      -10.898    5864.8439    31.9741    81.9756

 360.00  VIB.     0.1688D+02                  3328.7261    25.1682    14.8622
         ROT.     0.2274D+06                  1073.0915     2.9808    27.4917
         INT.     0.3837D+07                  4401.8176    28.1490    42.3539
         TRA.     0.1211D+28                  1788.4859     4.9680    40.5384
         TOT.                      -10.572    6190.3035    33.1170    82.8923

 370.00  VIB.     0.1923D+02                  3586.0992    26.3053    15.5673
         ROT.     0.2369D+06                  1102.8996     2.9808    27.5734
         INT.     0.4556D+07                  4688.9988    29.2861    43.1407
         TRA.     0.1261D+28                  1838.1660     4.9680    40.6745
         TOT.                      -10.236    6527.1649    34.2541    83.8152

 380.00  VIB.     0.2197D+02                  3854.8043    27.4342    16.2838
         ROT.     0.2466D+06                  1132.7077     2.9808    27.6528
         INT.     0.5417D+07                  4987.5120    30.4150    43.9367
         TRA.     0.1313D+28                  1887.8462     4.9680    40.8070
         TOT.                       -9.887    6875.3581    35.3830    84.7437

 390.00  VIB.     0.2516D+02                  4134.7493    28.5529    17.0110
         ROT.     0.2564D+06                  1162.5158     2.9808    27.7303
         INT.     0.6450D+07                  5297.2651    31.5338    44.7412
         TRA.     0.1365D+28                  1937.5263     4.9680    40.9361
         TOT.                       -9.528    7234.7914    36.5018    85.6773

 400.00  VIB.     0.2888D+02                  4425.8233    29.6597    17.7478
         ROT.     0.2663D+06                  1192.3239     2.9808    27.8057
         INT.     0.7691D+07                  5618.1472    32.6405    45.5536
         TRA.     0.1418D+28                  1987.2065     4.9680    41.0619
         TOT.                       -9.157    7605.3537    37.6086    86.6154

   *: NOTE: HEATS OF FORMATION ARE RELATIVE TO THE
            ELEMENTS IN THEIR STANDARD STATE AT 298K
              (=  Standard Enthalpy of Formation).

            Hvib:  Zero-point energy is not included.
                   frequencies of less than zero cm-1 are not included.
            Hrot = (3/2)RT
            Htra = (3/2)RT + pV = (5/2)RT

            Heat capacity is Cp, not Cv

          For more information, see: HTTP://OpenMOPAC.net/Manual/thermochemistry.html


           FORCE CONSTANT IN CARTESIAN COORDINATES (Millidynes/A)

    ATOM   CHEMICAL       X               Y               Z
   NUMBER   SYMBOL  FORCE CONSTANT  FORCE CONSTANT  FORCE CONSTANT

      1       C        7.742162        8.894566        8.238852
      2       C        7.742756        8.889899        8.241083
      3       C        8.859275        7.757954        8.357528
      4       C        8.857967        7.757303        8.358359
      5       C        7.998726        8.515734        7.984905
      6       C        7.998908        8.511700        7.985776
      7       C        7.346328        9.125592        8.249411
      8       H        1.501065        1.930778        2.933928
      9       H        1.501481        1.926344        2.937786
     10       H        0.705831        3.929995        1.868115
     11       H        0.731015        0.889890        4.809469
     12       H        3.052777        0.795050        2.627843
     13       H        1.194529        0.979889        4.262094
     14       H        1.199826        0.981268        4.255613
     15       H        3.044122        0.794672        2.636793
     16       H        1.463656        1.984540        3.171038
     17       H        1.459141        4.466421        0.704844
     18       H        1.465749        4.460820        0.704727
     19       H        1.457301        1.992467        3.169071

 **********************
 *                    *
 * JOB ENDED NORMALLY *
 *                    *
 **********************



 TOTAL JOB TIME:             4.90 SECONDS

 == MOPAC DONE ==
