 *******************************************************************************
 ** Site#: 14399        For non-commercial use only    Version 18.184L 64BITS **
 *******************************************************************************
 ** Cite this program as: MOPAC2016, Version: 18.184L, James J. P. Stewart,   **
 ** Stewart Computational Chemistry, web: HTTP://OpenMOPAC.net. Days left:  20**
 *******************************************************************************
 **                                                                           **
 **                                MOPAC2016                                  **
 **                                                                           **
 *******************************************************************************

                              PM3 CALCULATION RESULTS

 *******************************************************************************
 *  CALCULATION DONE:                                Thu Jun 13 16:12:01 2019  *
 *  PM3        - The PM3 Hamiltonian to be used
 *  PRECISE    - CRITERIA TO BE INCREASED BY 100 TIMES
 *  NOSYM      - POINT-GROUP SYMMETRY SET TO C1
 *  THREADS=1  - MULTI-THREADING NOT USED
 *  T=         - A TIME OF 172800.0 SECONDS REQUESTED
 *  DUMP=N     - RESTART FILE WRITTEN EVERY  7200.000 SECONDS
 *******************************************************************************
pm3  precise nosym THREADS=1
 InChI=1S/C7H12/c1-2-3-4-7-5-6-7/h3-4,7H,2,5-6H2,1H3

   ATOM   CHEMICAL          X               Y               Z
  NUMBER   SYMBOL      (ANGSTROMS)     (ANGSTROMS)     (ANGSTROMS)
 
     1       C         -1.69410000  *  -0.38510000  *   0.75210000  *
     2       C         -2.41300000  *   0.64680000  *  -0.10530000  *
     3       C         -2.84390000  *  -0.80880000  *  -0.14800000  *
     4       C          2.06130000  *  -0.28530000  *  -0.16320000  *
     5       C          3.05920000  *   0.85360000  *   0.01990000  *
     6       C         -0.32920000  *  -0.75990000  *   0.25000000  *
     7       C          0.69270000  *   0.10210000  *   0.32570000  *
     8       H         -1.89980000  *  -0.31940000  *   1.84160000  *
     9       H         -1.88110000  *   0.98290000  *  -1.02190000  *
    10       H         -3.11200000  *   1.30510000  *   0.45250000  *
    11       H         -3.79470000  *  -1.01340000  *   0.38790000  *
    12       H         -2.56310000  *  -1.33390000  *  -1.08650000  *
    13       H          2.00660000  *  -0.54910000  *  -1.24170000  *
    14       H          2.41740000  *  -1.17360000  *   0.40230000  *
    15       H          4.05700000  *   0.53660000  *  -0.35000000  *
    16       H          3.14670000  *   1.12000000  *   1.09500000  *
    17       H          2.73400000  *   1.74690000  *  -0.55520000  *
    18       H         -0.17140000  *  -1.75800000  *  -0.15020000  *
    19       H          0.52740000  *   1.09260000  *   0.74390000  *
 


          CARTESIAN COORDINATES 

    NO.       ATOM           X           Y           Z

     1         C         -1.6941     -0.3851      0.7521
     2         C         -2.4130      0.6468     -0.1053
     3         C         -2.8439     -0.8088     -0.1480
     4         C          2.0613     -0.2853     -0.1632
     5         C          3.0592      0.8536      0.0199
     6         C         -0.3292     -0.7599      0.2500
     7         C          0.6927      0.1021      0.3257
     8         H         -1.8998     -0.3194      1.8416
     9         H         -1.8811      0.9829     -1.0219
    10         H         -3.1120      1.3051      0.4525
    11         H         -3.7947     -1.0134      0.3879
    12         H         -2.5631     -1.3339     -1.0865
    13         H          2.0066     -0.5491     -1.2417
    14         H          2.4174     -1.1736      0.4023
    15         H          4.0570      0.5366     -0.3500
    16         H          3.1467      1.1200      1.0950
    17         H          2.7340      1.7469     -0.5552
    18         H         -0.1714     -1.7580     -0.1502
    19         H          0.5274      1.0926      0.7439

  H: (PM3): J. J. P. STEWART, J. COMP. CHEM. 10, 209 (1989).
  C: (PM3): J. J. P. STEWART, J. COMP. CHEM. 10, 209 (1989).

           Empirical Formula: C7 H12  =    19 atoms



      MOLECULAR POINT GROUP   :   C1  


      RHF CALCULATION, NO. OF DOUBLY OCCUPIED LEVELS = 20


          Geometry optimization using EF

          DIAGONAL MATRIX USED AS START HESSIAN

 CYCLE:     1 TIME:   0.023 TIME LEFT:  2.00D  GRAD.:    81.763 HEAT:  27.58796
 CYCLE:     2 TIME:   0.035 TIME LEFT:  2.00D  GRAD.:   116.975 HEAT:  26.24391
 CYCLE:     3 TIME:   0.023 TIME LEFT:  2.00D  GRAD.:    67.920 HEAT:  23.28911
 CYCLE:     4 TIME:   0.027 TIME LEFT:  2.00D  GRAD.:    64.728 HEAT:  22.15022
 CYCLE:     5 TIME:   0.023 TIME LEFT:  2.00D  GRAD.:    93.270 HEAT:  21.74584
 CYCLE:     6 TIME:   0.023 TIME LEFT:  2.00D  GRAD.:    79.112 HEAT:  21.36831
 CYCLE:     7 TIME:   0.020 TIME LEFT:  2.00D  GRAD.:    40.156 HEAT:  20.44015
 CYCLE:     8 TIME:   0.031 TIME LEFT:  2.00D  GRAD.:    31.429 HEAT:  20.13845
 CYCLE:     9 TIME:   0.023 TIME LEFT:  2.00D  GRAD.:    24.377 HEAT:  20.01034
 CYCLE:    10 TIME:   0.027 TIME LEFT:  2.00D  GRAD.:    12.537 HEAT:  19.83855
 CYCLE:    11 TIME:   0.027 TIME LEFT:  2.00D  GRAD.:     8.038 HEAT:  19.78412
 CYCLE:    12 TIME:   0.023 TIME LEFT:  2.00D  GRAD.:    13.259 HEAT:  19.77497
 CYCLE:    13 TIME:   0.023 TIME LEFT:  2.00D  GRAD.:     8.038 HEAT:  19.71195
 CYCLE:    14 TIME:   0.027 TIME LEFT:  2.00D  GRAD.:    11.089 HEAT:  19.70801
 CYCLE:    15 TIME:   0.023 TIME LEFT:  2.00D  GRAD.:     6.094 HEAT:  19.67307
 CYCLE:    16 TIME:   0.027 TIME LEFT:  2.00D  GRAD.:     5.754 HEAT:  19.66233
 CYCLE:    17 TIME:   0.023 TIME LEFT:  2.00D  GRAD.:     3.863 HEAT:  19.64767
 CYCLE:    18 TIME:   0.023 TIME LEFT:  2.00D  GRAD.:     7.219 HEAT:  19.64093
 CYCLE:    19 TIME:   0.023 TIME LEFT:  2.00D  GRAD.:     7.241 HEAT:  19.63022
 CYCLE:    20 TIME:   0.023 TIME LEFT:  2.00D  GRAD.:     7.108 HEAT:  19.62156
 CYCLE:    21 TIME:   0.023 TIME LEFT:  2.00D  GRAD.:     3.542 HEAT:  19.60019
 CYCLE:    22 TIME:   0.023 TIME LEFT:  2.00D  GRAD.:     4.458 HEAT:  19.59000
 CYCLE:    23 TIME:   0.020 TIME LEFT:  2.00D  GRAD.:     4.644 HEAT:  19.57554
 CYCLE:    24 TIME:   0.023 TIME LEFT:  2.00D  GRAD.:     3.136 HEAT:  19.55239
 CYCLE:    25 TIME:   0.023 TIME LEFT:  2.00D  GRAD.:     3.539 HEAT:  19.53388
 CYCLE:    26 TIME:   0.023 TIME LEFT:  2.00D  GRAD.:     3.160 HEAT:  19.52017
 CYCLE:    27 TIME:   0.023 TIME LEFT:  2.00D  GRAD.:     2.481 HEAT:  19.51149
 CYCLE:    28 TIME:   0.023 TIME LEFT:  2.00D  GRAD.:     2.082 HEAT:  19.50291
 CYCLE:    29 TIME:   0.023 TIME LEFT:  2.00D  GRAD.:     1.832 HEAT:  19.49638
 CYCLE:    30 TIME:   0.020 TIME LEFT:  2.00D  GRAD.:     1.847 HEAT:  19.48648
 CYCLE:    31 TIME:   0.023 TIME LEFT:  2.00D  GRAD.:     1.456 HEAT:  19.48220
 CYCLE:    32 TIME:   0.023 TIME LEFT:  2.00D  GRAD.:     1.074 HEAT:  19.47929
 CYCLE:    33 TIME:   0.023 TIME LEFT:  2.00D  GRAD.:     0.718 HEAT:  19.47727
 CYCLE:    34 TIME:   0.023 TIME LEFT:  2.00D  GRAD.:     0.605 HEAT:  19.47651
 CYCLE:    35 TIME:   0.023 TIME LEFT:  2.00D  GRAD.:     0.485 HEAT:  19.47600
 CYCLE:    36 TIME:   0.023 TIME LEFT:  2.00D  GRAD.:     0.515 HEAT:  19.47547
 CYCLE:    37 TIME:   0.020 TIME LEFT:  2.00D  GRAD.:     0.603 HEAT:  19.47462
 CYCLE:    38 TIME:   0.023 TIME LEFT:  2.00D  GRAD.:     0.717 HEAT:  19.47379
 CYCLE:    39 TIME:   0.023 TIME LEFT:  2.00D  GRAD.:     0.725 HEAT:  19.47290
 CYCLE:    40 TIME:   0.023 TIME LEFT:  2.00D  GRAD.:     0.759 HEAT:  19.47181
 CYCLE:    41 TIME:   0.023 TIME LEFT:  2.00D  GRAD.:     0.846 HEAT:  19.47033
 CYCLE:    42 TIME:   0.023 TIME LEFT:  2.00D  GRAD.:     0.879 HEAT:  19.46851
 CYCLE:    43 TIME:   0.023 TIME LEFT:  2.00D  GRAD.:     0.794 HEAT:  19.46673
 CYCLE:    44 TIME:   0.020 TIME LEFT:  2.00D  GRAD.:     0.753 HEAT:  19.46458
 CYCLE:    45 TIME:   0.023 TIME LEFT:  2.00D  GRAD.:     0.632 HEAT:  19.46360
 CYCLE:    46 TIME:   0.023 TIME LEFT:  2.00D  GRAD.:     0.527 HEAT:  19.46213
 CYCLE:    47 TIME:   0.023 TIME LEFT:  2.00D  GRAD.:     0.490 HEAT:  19.46162
 CYCLE:    48 TIME:   0.023 TIME LEFT:  2.00D  GRAD.:     0.436 HEAT:  19.46089
 CYCLE:    49 TIME:   0.023 TIME LEFT:  2.00D  GRAD.:     0.390 HEAT:  19.46046
 CYCLE:    50 TIME:   0.020 TIME LEFT:  2.00D  GRAD.:     0.326 HEAT:  19.46013
 CYCLE:    51 TIME:   0.023 TIME LEFT:  2.00D  GRAD.:     0.327 HEAT:  19.45986
 CYCLE:    52 TIME:   0.023 TIME LEFT:  2.00D  GRAD.:     0.380 HEAT:  19.45956
 CYCLE:    53 TIME:   0.023 TIME LEFT:  2.00D  GRAD.:     0.408 HEAT:  19.45918
 CYCLE:    54 TIME:   0.023 TIME LEFT:  2.00D  GRAD.:     0.397 HEAT:  19.45873
 CYCLE:    55 TIME:   0.023 TIME LEFT:  2.00D  GRAD.:     0.583 HEAT:  19.45804
 CYCLE:    56 TIME:   0.023 TIME LEFT:  2.00D  GRAD.:     0.646 HEAT:  19.45743
 CYCLE:    57 TIME:   0.020 TIME LEFT:  2.00D  GRAD.:     1.514 HEAT:  19.45454
 CYCLE:    58 TIME:   0.023 TIME LEFT:  2.00D  GRAD.:     1.605 HEAT:  19.45190
 CYCLE:    59 TIME:   0.023 TIME LEFT:  2.00D  GRAD.:     2.275 HEAT:  19.43835
 CYCLE:    60 TIME:   0.027 TIME LEFT:  2.00D  GRAD.:     3.658 HEAT:  19.41461
 CYCLE:    61 TIME:   0.023 TIME LEFT:  2.00D  GRAD.:     4.922 HEAT:  19.40004
 CYCLE:    62 TIME:   0.035 TIME LEFT:  2.00D  GRAD.:     7.407 HEAT:  19.39354
 CYCLE:    63 TIME:   0.027 TIME LEFT:  2.00D  GRAD.:     8.402 HEAT:  19.37267
 CYCLE:    64 TIME:   0.023 TIME LEFT:  2.00D  GRAD.:     2.123 HEAT:  19.31453
 CYCLE:    65 TIME:   0.023 TIME LEFT:  2.00D  GRAD.:     2.723 HEAT:  19.29601
 CYCLE:    66 TIME:   0.023 TIME LEFT:  2.00D  GRAD.:     3.892 HEAT:  19.27190
 CYCLE:    67 TIME:   0.023 TIME LEFT:  2.00D  GRAD.:     4.985 HEAT:  19.25248
 CYCLE:    68 TIME:   0.023 TIME LEFT:  2.00D  GRAD.:     3.834 HEAT:  19.23307
 CYCLE:    69 TIME:   0.020 TIME LEFT:  2.00D  GRAD.:     4.441 HEAT:  19.21266
 CYCLE:    70 TIME:   0.023 TIME LEFT:  2.00D  GRAD.:     3.330 HEAT:  19.19835
 CYCLE:    71 TIME:   0.023 TIME LEFT:  2.00D  GRAD.:     2.477 HEAT:  19.18853
 CYCLE:    72 TIME:   0.023 TIME LEFT:  2.00D  GRAD.:     1.879 HEAT:  19.18161
 CYCLE:    73 TIME:   0.023 TIME LEFT:  2.00D  GRAD.:     2.327 HEAT:  19.17136
 CYCLE:    74 TIME:   0.023 TIME LEFT:  2.00D  GRAD.:     2.177 HEAT:  19.16410
 CYCLE:    75 TIME:   0.023 TIME LEFT:  2.00D  GRAD.:     1.722 HEAT:  19.15676
 CYCLE:    76 TIME:   0.020 TIME LEFT:  2.00D  GRAD.:     2.372 HEAT:  19.14891
 CYCLE:    77 TIME:   0.023 TIME LEFT:  2.00D  GRAD.:     3.734 HEAT:  19.14541
 CYCLE:    78 TIME:   0.023 TIME LEFT:  2.00D  GRAD.:     1.991 HEAT:  19.13610
 CYCLE:    79 TIME:   0.023 TIME LEFT:  2.00D  GRAD.:     1.401 HEAT:  19.13004
 CYCLE:    80 TIME:   0.023 TIME LEFT:  2.00D  GRAD.:     1.435 HEAT:  19.12527
 CYCLE:    81 TIME:   0.023 TIME LEFT:  2.00D  GRAD.:     1.258 HEAT:  19.12200
 CYCLE:    82 TIME:   0.020 TIME LEFT:  2.00D  GRAD.:     1.031 HEAT:  19.11941
 CYCLE:    83 TIME:   0.023 TIME LEFT:  2.00D  GRAD.:     0.770 HEAT:  19.11774
 CYCLE:    84 TIME:   0.023 TIME LEFT:  2.00D  GRAD.:     0.685 HEAT:  19.11684
 CYCLE:    85 TIME:   0.023 TIME LEFT:  2.00D  GRAD.:     0.678 HEAT:  19.11615
 CYCLE:    86 TIME:   0.023 TIME LEFT:  2.00D  GRAD.:     0.601 HEAT:  19.11552
 CYCLE:    87 TIME:   0.023 TIME LEFT:  2.00D  GRAD.:     0.466 HEAT:  19.11507
 CYCLE:    88 TIME:   0.023 TIME LEFT:  2.00D  GRAD.:     0.453 HEAT:  19.11468
 CYCLE:    89 TIME:   0.020 TIME LEFT:  2.00D  GRAD.:     0.511 HEAT:  19.11424
 CYCLE:    90 TIME:   0.023 TIME LEFT:  2.00D  GRAD.:     0.856 HEAT:  19.11333
 CYCLE:    91 TIME:   0.023 TIME LEFT:  2.00D  GRAD.:     0.995 HEAT:  19.11224
 CYCLE:    92 TIME:   0.023 TIME LEFT:  2.00D  GRAD.:     1.386 HEAT:  19.10925
 CYCLE:    93 TIME:   0.023 TIME LEFT:  2.00D  GRAD.:     1.038 HEAT:  19.10797
 CYCLE:    94 TIME:   0.023 TIME LEFT:  2.00D  GRAD.:     1.174 HEAT:  19.10564
 CYCLE:    95 TIME:   0.023 TIME LEFT:  2.00D  GRAD.:     0.922 HEAT:  19.10463
 CYCLE:    96 TIME:   0.020 TIME LEFT:  2.00D  GRAD.:     0.987 HEAT:  19.10131
 CYCLE:    97 TIME:   0.023 TIME LEFT:  2.00D  GRAD.:     0.857 HEAT:  19.10013
 CYCLE:    98 TIME:   0.023 TIME LEFT:  2.00D  GRAD.:     0.664 HEAT:  19.09884
 CYCLE:    99 TIME:   0.023 TIME LEFT:  2.00D  GRAD.:     0.487 HEAT:  19.09832
 CYCLE:   100 TIME:   0.023 TIME LEFT:  2.00D  GRAD.:     0.430 HEAT:  19.09723
 CYCLE:   101 TIME:   0.023 TIME LEFT:  2.00D  GRAD.:     0.519 HEAT:  19.09665
 CYCLE:   102 TIME:   0.020 TIME LEFT:  2.00D  GRAD.:     0.431 HEAT:  19.09603
 CYCLE:   103 TIME:   0.023 TIME LEFT:  2.00D  GRAD.:     0.446 HEAT:  19.09560
 CYCLE:   104 TIME:   0.023 TIME LEFT:  2.00D  GRAD.:     0.433 HEAT:  19.09508
 CYCLE:   105 TIME:   0.023 TIME LEFT:  2.00D  GRAD.:     0.509 HEAT:  19.09443
 CYCLE:   106 TIME:   0.023 TIME LEFT:  2.00D  GRAD.:     0.599 HEAT:  19.09378
 CYCLE:   107 TIME:   0.023 TIME LEFT:  2.00D  GRAD.:     0.875 HEAT:  19.09250
 CYCLE:   108 TIME:   0.023 TIME LEFT:  2.00D  GRAD.:     0.855 HEAT:  19.09151
 CYCLE:   109 TIME:   0.020 TIME LEFT:  2.00D  GRAD.:     1.280 HEAT:  19.08862
 CYCLE:   110 TIME:   0.023 TIME LEFT:  2.00D  GRAD.:     1.195 HEAT:  19.08678
 CYCLE:   111 TIME:   0.023 TIME LEFT:  2.00D  GRAD.:     3.775 HEAT:  19.08572
 CYCLE:   112 TIME:   0.023 TIME LEFT:  2.00D  GRAD.:     3.012 HEAT:  19.08206
 CYCLE:   113 TIME:   0.023 TIME LEFT:  2.00D  GRAD.:     0.641 HEAT:  19.07760
 CYCLE:   114 TIME:   0.023 TIME LEFT:  2.00D  GRAD.:     0.733 HEAT:  19.07507
 CYCLE:   115 TIME:   0.023 TIME LEFT:  2.00D  GRAD.:     0.989 HEAT:  19.07399
 CYCLE:   116 TIME:   0.020 TIME LEFT:  2.00D  GRAD.:     0.671 HEAT:  19.07335
 CYCLE:   117 TIME:   0.023 TIME LEFT:  2.00D  GRAD.:     0.503 HEAT:  19.07275
 CYCLE:   118 TIME:   0.023 TIME LEFT:  2.00D  GRAD.:     0.458 HEAT:  19.07247
 CYCLE:   119 TIME:   0.023 TIME LEFT:  2.00D  GRAD.:     0.596 HEAT:  19.07200
 CYCLE:   120 TIME:   0.023 TIME LEFT:  2.00D  GRAD.:     0.201 HEAT:  19.07179
 CYCLE:   121 TIME:   0.023 TIME LEFT:  2.00D  GRAD.:     0.106 HEAT:  19.07171
 CYCLE:   122 TIME:   0.020 TIME LEFT:  2.00D  GRAD.:     0.073 HEAT:  19.07168
 CYCLE:   123 TIME:   0.023 TIME LEFT:  2.00D  GRAD.:     0.036 HEAT:  19.07168

     GRADIENT =  0.03563  IS LESS THAN CUTOFF =  0.05000



 -------------------------------------------------------------------------------
 pm3  precise nosym THREADS=1
 InChI=1S/C7H12/c1-2-3-4-7-5-6-7/h3-4,7H,2,5-6H2,1H3



     GEOMETRY OPTIMISED USING EIGENVECTOR FOLLOWING (EF).     
     SCF FIELD WAS ACHIEVED                                   


                              PM3 CALCULATION
                                                       MOPAC2016 (Version: 18.184L)
                                                       Thu Jun 13 16:12:04 2019
                                                       No. of days remaining =  20




          FINAL HEAT OF FORMATION =         19.07168 KCAL/MOL =      79.79590 KJ/MOL


          TOTAL ENERGY            =      -1013.64803 EV
          ELECTRONIC ENERGY       =      -4689.63444 EV  POINT GROUP:     C1  
          CORE-CORE REPULSION     =       3675.98641 EV
          COSMO AREA              =        159.17 SQUARE ANGSTROMS
          COSMO VOLUME            =        148.54 CUBIC ANGSTROMS

          GRADIENT NORM           =          0.03563 = 0.00817 PER ATOM
          IONIZATION POTENTIAL    =          9.760882 EV
          HOMO LUMO ENERGIES (EV) =         -9.761  1.084
          NO. OF FILLED LEVELS    =         20
          MOLECULAR WEIGHT        =         96.1718

          MOLECULAR DIMENSIONS (Angstroms)

            Atom       Atom       Distance
            H    15    H    11     7.95470
            H    18    H    10     3.69004
            H     8    H    13     3.17332


          SCF CALCULATIONS        =        134
 
          WALL-CLOCK TIME         =          2.938 SECONDS
          COMPUTATION TIME        =          0.877 SECONDS




   ATOM   CHEMICAL          X               Y               Z
  NUMBER   SYMBOL      (ANGSTROMS)     (ANGSTROMS)     (ANGSTROMS)
 
     1       C         -1.64807445  *  -0.32014863  *   0.76208231  *
     2       C         -2.44950375  *   0.61434127  *  -0.10169188  *
     3       C         -2.79481860  *  -0.84221302  *  -0.05993293  *
     4       C          2.03039418  *  -0.21262209  *  -0.38401760  *
     5       C          3.03459992  *   0.71785389  *   0.26174355  *
     6       C         -0.26969458  *  -0.69986119  *   0.40381119  *
     7       C          0.63598882  *   0.17340460  *  -0.03760102  *
     8       H         -1.76688440  *  -0.25851859  *   1.86005750  *
     9       H         -2.00009854  *   1.04348952  *  -1.00481149  *
    10       H         -3.11370136  *   1.34986900  *   0.36449076  *
    11       H         -3.71246599  *  -1.17576904  *   0.43616069  *
    12       H         -2.59587408  *  -1.47461648  *  -0.93231559  *
    13       H          2.13601478  *  -0.18335305  *  -1.48734422  *
    14       H          2.24066518  *  -1.26073375  *  -0.09060994  *
    15       H          4.06119688  *   0.44934557  *  -0.01816306  *
    16       H          2.97203085  *   0.68156119  *   1.35699846  *
    17       H          2.87374237  *   1.76157606  *  -0.03930928  *
    18       H         -0.02750264  *  -1.76103147  *   0.54326028  *
    19       H          0.37953890  *   1.23236677  *  -0.17105155  *

                             CARTESIAN COORDINATES

   1    C       -1.648074452    -0.320148631     0.762082308
   2    C       -2.449503753     0.614341270    -0.101691876
   3    C       -2.794818600    -0.842213016    -0.059932931
   4    C        2.030394179    -0.212622094    -0.384017604
   5    C        3.034599923     0.717853889     0.261743546
   6    C       -0.269694582    -0.699861187     0.403811195
   7    C        0.635988819     0.173404604    -0.037601017
   8    H       -1.766884397    -0.258518590     1.860057502
   9    H       -2.000098536     1.043489520    -1.004811488
  10    H       -3.113701362     1.349868995     0.364490760
  11    H       -3.712465986    -1.175769038     0.436160687
  12    H       -2.595874083    -1.474616484    -0.932315589
  13    H        2.136014777    -0.183353054    -1.487344217
  14    H        2.240665185    -1.260733752    -0.090609942
  15    H        4.061196881     0.449345571    -0.018163059
  16    H        2.972030847     0.681561188     1.356998461
  17    H        2.873742367     1.761576058    -0.039309279
  18    H       -0.027502639    -1.761031472     0.543260282
  19    H        0.379538898     1.232366770    -0.171051550


           Empirical Formula: C7 H12  =    19 atoms



      MOLECULAR POINT GROUP   :   C1  


                  EIGENVALUES  
 -39.74914 -35.90437 -29.35283 -23.76695 -22.35457 -20.74352 -18.94558 -17.19554
 -16.82321 -15.71030 -15.18621 -13.94217 -13.44071 -12.95309 -12.30793 -12.12322
 -11.97402 -11.91317 -11.36104  -9.76088   1.08449   2.95290   3.14897   3.33793
   3.49208   3.71549   3.81550   3.93481   4.02515   4.12080   4.20738   4.52915
   4.71813   4.82223   4.88182   4.91086   4.94679   4.96246   5.74732   5.97090


              NET ATOMIC CHARGES AND DIPOLE CONTRIBUTIONS

  ATOM NO.   TYPE          CHARGE      No. of ELECS.   s-Pop       p-Pop       
    1          C          -0.101937        4.1019     1.16058     2.94136
    2          C          -0.149979        4.1500     1.16094     2.98904
    3          C          -0.146575        4.1466     1.16081     2.98577
    4          C          -0.060673        4.0607     1.14553     2.91514
    5          C          -0.105730        4.1057     1.13762     2.96811
    6          C          -0.123651        4.1237     1.18618     2.93747
    7          C          -0.147061        4.1471     1.19612     2.95094
    8          H           0.098091        0.9019     0.90191
    9          H           0.081013        0.9190     0.91899
   10          H           0.075811        0.9242     0.92419
   11          H           0.075183        0.9248     0.92482
   12          H           0.079946        0.9201     0.92005
   13          H           0.052695        0.9473     0.94731
   14          H           0.051008        0.9490     0.94899
   15          H           0.036613        0.9634     0.96339
   16          H           0.040047        0.9600     0.95995
   17          H           0.037927        0.9621     0.96207
   18          H           0.103117        0.8969     0.89688
   19          H           0.104157        0.8958     0.89584
 DIPOLE           X         Y         Z       TOTAL
 POINT-CHG.     0.111     0.003    -0.039     0.117
 HYBRID        -0.031     0.018    -0.002     0.036
 SUM            0.079     0.021    -0.041     0.092


          ATOMIC ORBITAL ELECTRON POPULATIONS

     Atom    s        px        py        pz   
    1  C   1.16058   0.92072   1.04479   0.97585
    2  C   1.16094   1.03301   0.93432   1.02171
    3  C   1.16081   0.99074   0.97057   1.02446
    4  C   1.14553   0.93066   0.98756   0.99692
    5  C   1.13762   0.97828   0.98765   1.00219
    6  C   1.18618   0.94528   0.98640   1.00579
    7  C   1.19612   0.95627   0.99284   1.00183
    8  H   0.90191
    9  H   0.91899
   10  H   0.92419
   11  H   0.92482
   12  H   0.92005
   13  H   0.94731
   14  H   0.94899
   15  H   0.96339
   16  H   0.95995
   17  H   0.96207
   18  H   0.89688
   19  H   0.89584
 *******************************************************************************
 ** Site#: 14399        For non-commercial use only    Version 18.184L 64BITS **
 *******************************************************************************
 ** Cite this program as: MOPAC2016, Version: 18.184L, James J. P. Stewart,   **
 ** Stewart Computational Chemistry, web: HTTP://OpenMOPAC.net. Days left:  20**
 *******************************************************************************
 **                                                                           **
 **                                MOPAC2016                                  **
 **                                                                           **
 *******************************************************************************

                              PM3 CALCULATION RESULTS

 *******************************************************************************
 *  CALCULATION DONE:                                Thu Jun 13 16:12:04 2019  *
 *  PM3        - The PM3 Hamiltonian to be used
 *  OLDGEO     - PREVIOUS GEOMETRY TO BE USED
 *  PRECISE    - CRITERIA TO BE INCREASED BY 100 TIMES
 *  NOSYM      - POINT-GROUP SYMMETRY SET TO C1
 *  THREADS=1  - MULTI-THREADING NOT USED
 *  T=         - A TIME OF 172800.0 SECONDS REQUESTED
 *  DUMP=N     - RESTART FILE WRITTEN EVERY  7200.000 SECONDS
 *  THERMO     - THERMODYNAMIC QUANTITIES TO BE CALCULATED
 *******************************************************************************
oldgeo thermo nosym precise THREADS=1  pm3
 InChI=1S/C7H12/c1-2-3-4-7-5-6-7/h3-4,7H,2,5-6H2,1H3

   ATOM   CHEMICAL          X               Y               Z
  NUMBER   SYMBOL      (ANGSTROMS)     (ANGSTROMS)     (ANGSTROMS)
 
     1       C         -1.64807445  *  -0.32014863  *   0.76208231  *
     2       C         -2.44950375  *   0.61434127  *  -0.10169188  *
     3       C         -2.79481860  *  -0.84221302  *  -0.05993293  *
     4       C          2.03039418  *  -0.21262209  *  -0.38401760  *
     5       C          3.03459992  *   0.71785389  *   0.26174355  *
     6       C         -0.26969458  *  -0.69986119  *   0.40381119  *
     7       C          0.63598882  *   0.17340460  *  -0.03760102  *
     8       H         -1.76688440  *  -0.25851859  *   1.86005750  *
     9       H         -2.00009854  *   1.04348952  *  -1.00481149  *
    10       H         -3.11370136  *   1.34986900  *   0.36449076  *
    11       H         -3.71246599  *  -1.17576904  *   0.43616069  *
    12       H         -2.59587408  *  -1.47461648  *  -0.93231559  *
    13       H          2.13601478  *  -0.18335305  *  -1.48734422  *
    14       H          2.24066518  *  -1.26073375  *  -0.09060994  *
    15       H          4.06119688  *   0.44934557  *  -0.01816306  *
    16       H          2.97203085  *   0.68156119  *   1.35699846  *
    17       H          2.87374237  *   1.76157606  *  -0.03930928  *
    18       H         -0.02750264  *  -1.76103147  *   0.54326028  *
    19       H          0.37953890  *   1.23236677  *  -0.17105155  *
 


          CARTESIAN COORDINATES 

    NO.       ATOM           X           Y           Z

     1         C         -1.6481     -0.3201      0.7621
     2         C         -2.4495      0.6143     -0.1017
     3         C         -2.7948     -0.8422     -0.0599
     4         C          2.0304     -0.2126     -0.3840
     5         C          3.0346      0.7179      0.2617
     6         C         -0.2697     -0.6999      0.4038
     7         C          0.6360      0.1734     -0.0376
     8         H         -1.7669     -0.2585      1.8601
     9         H         -2.0001      1.0435     -1.0048
    10         H         -3.1137      1.3499      0.3645
    11         H         -3.7125     -1.1758      0.4362
    12         H         -2.5959     -1.4746     -0.9323
    13         H          2.1360     -0.1834     -1.4873
    14         H          2.2407     -1.2607     -0.0906
    15         H          4.0612      0.4493     -0.0182
    16         H          2.9720      0.6816      1.3570
    17         H          2.8737      1.7616     -0.0393
    18         H         -0.0275     -1.7610      0.5433
    19         H          0.3795      1.2324     -0.1711

  H: (PM3): J. J. P. STEWART, J. COMP. CHEM. 10, 209 (1989).
  C: (PM3): J. J. P. STEWART, J. COMP. CHEM. 10, 209 (1989).

           Empirical Formula: C7 H12  =    19 atoms



      MOLECULAR POINT GROUP   :   C1  


      RHF CALCULATION, NO. OF DOUBLY OCCUPIED LEVELS = 20



          HEAT OF FORMATION =      19.071679 KCALS/MOLE


          CARTESIAN COORDINATE DERIVATIVES

   NUMBER  ATOM         X            Y            Z

     1       C     -0.005237    -0.003296     0.001231
     2       C      0.002398    -0.003580    -0.000319
     3       C      0.001835     0.006193     0.004829
     4       C      0.002330     0.005011     0.008713
     5       C      0.004947    -0.011631    -0.000875
     6       C      0.002065    -0.011331    -0.001749
     7       C      0.003448     0.007896     0.008064
     8       H     -0.001582    -0.003509    -0.001453
     9       H      0.001709    -0.006624    -0.006886
    10       H      0.001502     0.001336     0.001795
    11       H     -0.002284     0.005130     0.002183
    12       H      0.001186     0.002469    -0.003384
    13       H      0.004459    -0.002008    -0.007166
    14       H     -0.005185     0.008952     0.002263
    15       H      0.003679    -0.002540     0.002289
    16       H      0.001230     0.000666     0.001124
    17       H     -0.008534     0.007096    -0.002133
    18       H     -0.004088    -0.001566    -0.005545
    19       H     -0.003878     0.001335    -0.002983
 


          GRADIENT NORM =   0.03547


          TIME FOR SCF CALCULATION =    0.02

          TIME FOR DERIVATIVES     =    0.01

          MOLECULAR WEIGHT =   96.17



          ROTATIONAL CONSTANTS IN CM(-1)

          A =    0.29081935   B =    0.03592175   C =    0.03462494



           PRINCIPAL MOMENTS OF INERTIA IN UNITS OF 10**(-40)*GRAM-CM**2

          A =       96.2549   B =      779.2708   C =      808.4570


          ORIENTATION OF MOLECULE IN FORCE CALCULATION

    NO.       ATOM         X         Y         Z

     1          C       0.2595    0.8473    1.3753
     2          C       1.7634    0.8473    1.3753
     3          C       1.0183    2.1463    1.3753
     4          C      -0.9757   -0.9964   -1.7761
     5          C      -1.3036   -2.4739   -1.7522
     6          C      -0.5052    0.4565    0.1774
     7          C      -0.1917   -0.5978   -0.5761
     8          H      -0.2695    0.5417    2.2974
     9          H       2.3093    0.5307    0.4789
    10          H       2.3066    0.5257    2.2703
    11          H       1.0151    2.7784    2.2697
    12          H       1.0204    2.7757    0.4784
    13          H      -0.3801   -0.7511   -2.6785
    14          H      -1.9076   -0.4021   -1.8615
    15          H      -1.8567   -2.7720   -2.6519
    16          H      -1.9218   -2.7360   -0.8840
    17          H      -0.3964   -3.0908   -1.7042
    18          H      -1.3738    1.0883   -0.0476
    19          H       0.6796   -1.2215   -0.3381


    FIRST DERIVATIVES WILL BE USED IN THE CALCULATION OF SECOND DERIVATIVES

          ESTIMATED TIME TO COMPLETE CALCULATION =        6.23 SECONDS

    FOR POINT-GROUP C1   THERE ARE   1 UNIQUE SYMMETRY FUNCTIONS.

 STEP:   1 TIME =     0.04 SECS, INTEGRAL =      0.04 TIME LEFT: 172799.93
 STEP:   2 TIME =     0.04 SECS, INTEGRAL =      0.07 TIME LEFT: 172799.90
 STEP:   3 TIME =     0.04 SECS, INTEGRAL =      0.11 TIME LEFT: 172799.86
 STEP:   4 TIME =     0.04 SECS, INTEGRAL =      0.14 TIME LEFT: 172799.83
 STEP:   5 TIME =     0.04 SECS, INTEGRAL =      0.18 TIME LEFT: 172799.79
 STEP:   6 TIME =     0.04 SECS, INTEGRAL =      0.21 TIME LEFT: 172799.76
 STEP:   7 TIME =     0.04 SECS, INTEGRAL =      0.25 TIME LEFT: 172799.72
 STEP:   8 TIME =     0.04 SECS, INTEGRAL =      0.29 TIME LEFT: 172799.69
 STEP:   9 TIME =     0.03 SECS, INTEGRAL =      0.32 TIME LEFT: 172799.66
 STEP:  10 TIME =     0.04 SECS, INTEGRAL =      0.35 TIME LEFT: 172799.62
 STEP:  11 TIME =     0.04 SECS, INTEGRAL =      0.39 TIME LEFT: 172799.59
 STEP:  12 TIME =     0.04 SECS, INTEGRAL =      0.42 TIME LEFT: 172799.55
 STEP:  13 TIME =     0.04 SECS, INTEGRAL =      0.46 TIME LEFT: 172799.52
 STEP:  14 TIME =     0.03 SECS, INTEGRAL =      0.49 TIME LEFT: 172799.48
 STEP:  15 TIME =     0.04 SECS, INTEGRAL =      0.52 TIME LEFT: 172799.45
 STEP:  16 TIME =     0.04 SECS, INTEGRAL =      0.56 TIME LEFT: 172799.41
 STEP:  17 TIME =     0.04 SECS, INTEGRAL =      0.59 TIME LEFT: 172799.38
 STEP:  18 TIME =     0.04 SECS, INTEGRAL =      0.63 TIME LEFT: 172799.34
 STEP:  19 TIME =     0.04 SECS, INTEGRAL =      0.66 TIME LEFT: 172799.31
 STEP:  20 TIME =     0.04 SECS, INTEGRAL =      0.70 TIME LEFT: 172799.27
 STEP:  21 TIME =     0.03 SECS, INTEGRAL =      0.73 TIME LEFT: 172799.24
 STEP:  22 TIME =     0.04 SECS, INTEGRAL =      0.77 TIME LEFT: 172799.21
 STEP:  23 TIME =     0.04 SECS, INTEGRAL =      0.80 TIME LEFT: 172799.17
 STEP:  24 TIME =     0.04 SECS, INTEGRAL =      0.84 TIME LEFT: 172799.14
 STEP:  25 TIME =     0.04 SECS, INTEGRAL =      0.87 TIME LEFT: 172799.10
 STEP:  26 TIME =     0.04 SECS, INTEGRAL =      0.91 TIME LEFT: 172799.07
 STEP:  27 TIME =     0.04 SECS, INTEGRAL =      0.94 TIME LEFT: 172799.03
 STEP:  28 TIME =     0.04 SECS, INTEGRAL =      0.98 TIME LEFT: 172799.00
 STEP:  29 TIME =     0.04 SECS, INTEGRAL =      1.01 TIME LEFT: 172798.96
 STEP:  30 TIME =     0.04 SECS, INTEGRAL =      1.05 TIME LEFT: 172798.93
 STEP:  31 TIME =     0.03 SECS, INTEGRAL =      1.08 TIME LEFT: 172798.89
 STEP:  32 TIME =     0.04 SECS, INTEGRAL =      1.11 TIME LEFT: 172798.86
 STEP:  33 TIME =     0.04 SECS, INTEGRAL =      1.15 TIME LEFT: 172798.82
 STEP:  34 TIME =     0.04 SECS, INTEGRAL =      1.18 TIME LEFT: 172798.79
 STEP:  35 TIME =     0.04 SECS, INTEGRAL =      1.22 TIME LEFT: 172798.75
 STEP:  36 TIME =     0.04 SECS, INTEGRAL =      1.25 TIME LEFT: 172798.72
 STEP:  37 TIME =     0.04 SECS, INTEGRAL =      1.29 TIME LEFT: 172798.68
 STEP:  38 TIME =     0.04 SECS, INTEGRAL =      1.32 TIME LEFT: 172798.65
 STEP:  39 TIME =     0.04 SECS, INTEGRAL =      1.36 TIME LEFT: 172798.61
 STEP:  40 TIME =     0.04 SECS, INTEGRAL =      1.39 TIME LEFT: 172798.58
 STEP:  41 TIME =     0.03 SECS, INTEGRAL =      1.43 TIME LEFT: 172798.55
 STEP:  42 TIME =     0.04 SECS, INTEGRAL =      1.46 TIME LEFT: 172798.51
 STEP:  43 TIME =     0.04 SECS, INTEGRAL =      1.50 TIME LEFT: 172798.48
 STEP:  44 TIME =     0.04 SECS, INTEGRAL =      1.53 TIME LEFT: 172798.44
 STEP:  45 TIME =     0.04 SECS, INTEGRAL =      1.57 TIME LEFT: 172798.41
 STEP:  46 TIME =     0.04 SECS, INTEGRAL =      1.60 TIME LEFT: 172798.37
 STEP:  47 TIME =     0.04 SECS, INTEGRAL =      1.64 TIME LEFT: 172798.34
 STEP:  48 TIME =     0.03 SECS, INTEGRAL =      1.67 TIME LEFT: 172798.30
 STEP:  49 TIME =     0.04 SECS, INTEGRAL =      1.70 TIME LEFT: 172798.27
 STEP:  50 TIME =     0.04 SECS, INTEGRAL =      1.74 TIME LEFT: 172798.23
 STEP:  51 TIME =     0.03 SECS, INTEGRAL =      1.77 TIME LEFT: 172798.20
 STEP:  52 TIME =     0.04 SECS, INTEGRAL =      1.80 TIME LEFT: 172798.17
 STEP:  53 TIME =     0.04 SECS, INTEGRAL =      1.84 TIME LEFT: 172798.13
 STEP:  54 TIME =     0.04 SECS, INTEGRAL =      1.88 TIME LEFT: 172798.10
 STEP:  55 TIME =     0.03 SECS, INTEGRAL =      1.91 TIME LEFT: 172798.07
 STEP:  56 TIME =     0.04 SECS, INTEGRAL =      1.94 TIME LEFT: 172798.03
 STEP:  57 TIME =     0.04 SECS, INTEGRAL =      1.98 TIME LEFT: 172798.00

(To convert to Hartree/Bohr^2, multiply by (10^(-21) x N x a0^2)/(4.184 x 627.51) =  0.0642)


           FORCE MATRIX IN MILLIDYNES/ANGSTROM


                  C  1       C  2       C  3       C  4       C  5       C  6
 ------------------------------------------------------------------------------
     C    1  15.921184
     C    2   4.844272  15.399016
     C    3   4.814594   5.123895  15.384834
     C    4   0.143570   0.005983   0.016954  14.700410
     C    5   0.019678   0.002040   0.001776   4.408832  14.347959
     C    6   5.343153   0.556780   0.581389   0.820908   0.041602  18.390171
     C    7   0.845810   0.037704   0.046382   4.971250   0.717662  10.705087
     H    8   4.531370   0.440407   0.445365   0.016635   0.003379   0.391739
     H    9   0.464948   4.811824   0.461288   0.002034   0.000657   0.020930
     H   10   0.452820   4.844425   0.459646   0.000922   0.000388   0.045207
     H   11   0.452920   0.459532   4.843672   0.003088   0.000384   0.043879
     H   12   0.465425   0.462123   4.832763   0.001199   0.000426   0.025514
     H   13   0.018696   0.000730   0.002863   4.420967   0.446275   0.031360
     H   14   0.003329   0.000803   0.000781   4.441458   0.434608   0.049953
     H   15   0.003397   0.000685   0.000432   0.449511   4.750720   0.007117
     H   16   0.000756   0.000419   0.000479   0.460912   4.746417   0.002259
     H   17   0.000896   0.000502   0.000412   0.464010   4.726836   0.001876
     H   18   0.427100   0.040775   0.014180   0.082196   0.008255   4.767734
     H   19   0.084632   0.011520   0.007709   0.429564   0.025828   0.472153


                  C  7       H  8       H  9       H 10       H 11       H 12
 ------------------------------------------------------------------------------
     C    7  18.204024
     H    8   0.025580   5.042681
     H    9   0.011350   0.038098   5.423160
     H   10   0.004726   0.020455   0.494986   5.450895
     H   11   0.006370   0.020226   0.041870   0.020554   5.450459
     H   12   0.005020   0.039000   0.021288   0.042137   0.495435   5.439333
     H   13   0.408754   0.001854   0.000386   0.000273   0.000681   0.000388
     H   14   0.459604   0.000300   0.000410   0.000210   0.000209   0.000153
     H   15   0.052525   0.000703   0.000248   0.000162   0.000125   0.000132
     H   16   0.016116   0.000265   0.000182   0.000067   0.000193   0.000149
     H   17   0.027558   0.000259   0.000139   0.000102   0.000091   0.000128
     H   18   0.472071   0.015993   0.003983   0.006668   0.002547   0.003598
     H   19   4.764732   0.009389   0.017610   0.001551   0.001555   0.001070


                  H 13       H 14       H 15       H 16       H 17       H 18
 ------------------------------------------------------------------------------
     H   13   5.019354
     H   14   0.565545   5.052560
     H   15   0.028594   0.030047   5.488513
     H   16   0.048894   0.024572   0.572087   5.485081
     H   17   0.023801   0.047119   0.572571   0.577951   5.471655
     H   18   0.009420   0.029862   0.001604   0.000551   0.000618   5.138635
     H   19   0.017523   0.038606   0.002135   0.002630   0.019738   0.103231


                  H 19
 ------------------
     H   19   5.144613


          HEAT OF FORMATION =      19.071679 KCALS/MOLE

          ZERO POINT ENERGY     106.620 KCAL/MOL


           NORMAL COORDINATE ANALYSIS (Total motion = 1 Angstrom)


   Root No.       1         2         3         4         5         6         7         8

                 1 A       2 A       3 A       4 A       5 A       6 A       7 A       8 A   

                  48.3     115.0     129.2     166.0     205.8     341.3     372.7     486.1
  
           1   -0.0087   -0.0130   -0.0032    0.0056    0.0110   -0.0090   -0.0280    0.0021
           2    0.0187   -0.0067   -0.0003   -0.0001   -0.0024    0.0391    0.0031   -0.0207
           3    0.0031    0.0080   -0.0206   -0.0043   -0.0045   -0.0106    0.0023    0.0261
           4   -0.0087   -0.0130   -0.0033    0.0047    0.0105   -0.0100   -0.0325    0.0035
           5   -0.0262   -0.0231   -0.0148    0.0152    0.0114    0.0003   -0.0190   -0.0060
           6    0.0104    0.0028   -0.0022    0.0425    0.0292   -0.0078   -0.0288    0.0011
           7    0.0303    0.0014    0.0082   -0.0079   -0.0009    0.0285   -0.0165   -0.0176
           8   -0.0039   -0.0149   -0.0080    0.0081    0.0048    0.0212   -0.0072   -0.0164
           9   -0.0276   -0.0260    0.0478   -0.0066   -0.0006    0.0299   -0.0062   -0.0138
          10   -0.0264    0.0123   -0.0223   -0.0192   -0.0322    0.0071   -0.0049    0.0121
          11    0.0056    0.0136   -0.0088   -0.0008   -0.0007   -0.0246    0.0203   -0.0287
          12    0.0171   -0.0154   -0.0064    0.0008    0.0028    0.0128    0.0414    0.0273
          13    0.0444    0.0061    0.0198   -0.0163   -0.0035   -0.0228    0.0013   -0.0194
          14   -0.0106    0.0155   -0.0185   -0.0014   -0.0076   -0.0194    0.0230   -0.0282
          15   -0.0223    0.0410    0.0360   -0.0060   -0.0039   -0.0264    0.0089   -0.0206
          16   -0.0167   -0.0253    0.0051    0.0240    0.0140   -0.0149    0.0336    0.0072
          17    0.0110   -0.0207    0.0349   -0.0146   -0.0086   -0.0142   -0.0036    0.0520
          18    0.0107    0.0207   -0.0378   -0.0102   -0.0041    0.0085   -0.0244   -0.0042
          19   -0.0210    0.0311   -0.0054    0.0186    0.0069    0.0246    0.0582    0.0176
          20    0.0084    0.0369    0.0258   -0.0099    0.0024    0.0021   -0.0198    0.0536
          21    0.0125   -0.0358   -0.0295   -0.0188   -0.0221   -0.0039    0.0099   -0.0050
          22   -0.0215   -0.0116   -0.0162   -0.0152   -0.0003   -0.0152   -0.0443    0.0100
          23    0.0587    0.0197   -0.0329    0.0108    0.0007    0.0559    0.0050   -0.0478
          24    0.0090    0.0176   -0.0384   -0.0121   -0.0093   -0.0070   -0.0080    0.0198
          25   -0.0128   -0.0169    0.0039    0.0374    0.0359   -0.0218   -0.0678   -0.0047
          26   -0.0654   -0.0485    0.0211    0.0024    0.0075    0.0154   -0.0264   -0.0234
          27    0.0217    0.0093   -0.0106    0.0673    0.0463   -0.0209   -0.0487    0.0024
          28   -0.0231   -0.0145   -0.0165   -0.0220   -0.0091   -0.0160   -0.0094    0.0224
          29   -0.0192   -0.0082   -0.0611    0.0389    0.0254   -0.0476   -0.0309    0.0300
          30    0.0217    0.0091   -0.0109    0.0674    0.0464   -0.0217   -0.0481    0.0027
          31    0.0448    0.0113    0.0021   -0.0424   -0.0273    0.0387    0.0130    0.0040
          32    0.0199    0.0073   -0.0504    0.0273    0.0149   -0.0161   -0.0158    0.0175
          33   -0.0444   -0.0417    0.0779   -0.0204   -0.0078    0.0574   -0.0002   -0.0390
          34    0.0537    0.0053    0.0267    0.0131    0.0135    0.0622   -0.0312   -0.0669
          35   -0.0278   -0.0373    0.0345   -0.0110   -0.0053    0.0593    0.0000   -0.0514
          36   -0.0443   -0.0417    0.0779   -0.0201   -0.0076    0.0579   -0.0011   -0.0400
          37   -0.0555   -0.0011   -0.0525   -0.0544   -0.0687    0.0002   -0.0733    0.0043
          38    0.0611   -0.0175   -0.0114    0.0122    0.0205   -0.0231    0.0664   -0.0395
          39    0.0128   -0.0324   -0.0267   -0.0187   -0.0156    0.0080    0.0095    0.0185
          40   -0.0560    0.0141   -0.0399   -0.0251   -0.0470    0.0097   -0.0189    0.0085
          41   -0.0357    0.0157   -0.0349   -0.0036   -0.0184   -0.0179    0.0141   -0.0335
          42    0.0534   -0.0185    0.0073    0.0419    0.0415    0.0229    0.1313    0.0272
          43    0.0399   -0.0082   -0.0051   -0.1272    0.1379   -0.0260    0.0244   -0.0222
          44   -0.0086   -0.0143   -0.0532    0.0280   -0.0458    0.0250    0.0383    0.0390
          45   -0.0203    0.0598    0.0629    0.0523   -0.0782   -0.0401   -0.0104   -0.0431
          46    0.0747    0.0178    0.0598    0.0910   -0.1284   -0.0350   -0.0195   -0.0378
          47   -0.0672    0.0492   -0.0180   -0.0299    0.0034   -0.0344    0.0048   -0.0583
          48   -0.0178    0.0596    0.0647    0.0618   -0.0896   -0.0400   -0.0112   -0.0436
          49    0.0744    0.0044    0.0391   -0.0101    0.0023   -0.0385    0.0024   -0.0405
          50    0.0305    0.0138    0.0081   -0.0023    0.0126   -0.0427    0.0255   -0.0596
          51   -0.0606    0.0500    0.0150   -0.1383    0.1499   -0.0432    0.0198   -0.0485
          52   -0.0190   -0.0840    0.0159    0.0170   -0.0004   -0.0722    0.0481    0.0192
          53    0.0091   -0.0804    0.0478   -0.0217   -0.0201   -0.0813   -0.0033    0.0720
          54    0.0141    0.0794   -0.0416   -0.0067    0.0164    0.0401   -0.0815    0.0095
          55   -0.0188    0.0887   -0.0057    0.0238    0.0235    0.0730    0.0420    0.0401
          56    0.0100    0.0944    0.0269   -0.0104    0.0133    0.0549   -0.0389    0.0878
          57    0.0091   -0.0946   -0.0238   -0.0422   -0.0547   -0.0448    0.0123    0.0037


   Root No.       9        10        11        12        13        14        15        16

                 9 A      10 A      11 A      12 A      13 A      14 A      15 A      16 A   

                 538.5     809.4     822.6     870.3     902.3     917.6     923.5     958.9
  
           1   -0.0128   -0.0042   -0.0025   -0.0042    0.0230    0.0094    0.0036   -0.0022
           2    0.0182   -0.0020   -0.0002    0.0013    0.0081    0.0000   -0.0009    0.0194
           3    0.0618    0.0051   -0.0057    0.0054   -0.0102   -0.0061   -0.0012    0.0010
           4   -0.0178    0.0063    0.0039   -0.0142   -0.0160   -0.0114   -0.0037    0.0296
           5    0.0018    0.0076    0.0043    0.0048   -0.0214   -0.0073   -0.0011   -0.0107
           6   -0.0065    0.0018   -0.0053   -0.0051   -0.0095   -0.0159   -0.0014   -0.0029
           7    0.0099    0.0086    0.0056    0.0116   -0.0187   -0.0052   -0.0005   -0.0154
           8    0.0162   -0.0009   -0.0012    0.0139    0.0160    0.0122    0.0049   -0.0239
           9    0.0070    0.0024   -0.0038    0.0144   -0.0079   -0.0137   -0.0009   -0.0016
          10   -0.0137    0.0278   -0.0026   -0.0039    0.0065    0.0011   -0.0008   -0.0020
          11   -0.0070   -0.0071    0.0007    0.0008   -0.0017    0.0022    0.0031    0.0019
          12   -0.0374   -0.0235    0.0035   -0.0026   -0.0032    0.0000   -0.0007   -0.0071
          13   -0.0029    0.0030    0.0003   -0.0020    0.0075   -0.0030   -0.0062   -0.0100
          14   -0.0173   -0.0049    0.0037    0.0006   -0.0036   -0.0044   -0.0031   -0.0054
          15   -0.0042   -0.0061    0.0011   -0.0013   -0.0052    0.0054    0.0079   -0.0104
          16    0.0452   -0.0265   -0.0072   -0.0018    0.0408   -0.0097    0.0053    0.0024
          17   -0.0085   -0.0021    0.0015   -0.0005    0.0131   -0.0227    0.0061    0.0056
          18    0.0176    0.0035   -0.0127   -0.0050    0.0084    0.0356   -0.0024    0.0045
          19   -0.0075    0.0058   -0.0007    0.0032   -0.0183    0.0100    0.0251    0.0085
          20    0.0009    0.0036   -0.0071   -0.0081   -0.0001    0.0168    0.0239    0.0021
          21   -0.0258   -0.0014    0.0019    0.0023    0.0085   -0.0106   -0.0218    0.0081
          22   -0.0228    0.0182   -0.0129    0.0719    0.0188    0.0632    0.0214   -0.0840
          23    0.0563   -0.0046   -0.0282   -0.1397   -0.0131    0.0142   -0.0177    0.1963
          24    0.0661    0.0168   -0.0221    0.0015   -0.0179    0.0323    0.0039    0.0138
          25   -0.1047    0.0157    0.0300    0.0864    0.0027    0.0720   -0.0048    0.1028
          26   -0.0460    0.0058   -0.1649    0.0874   -0.0644   -0.0220   -0.0171    0.0908
          27   -0.0444    0.0088    0.0766    0.0301    0.0190    0.0443    0.0043    0.0072
          28    0.0543    0.0086   -0.0159   -0.1320   -0.0947   -0.1242   -0.0194   -0.0203
          29    0.0240    0.0259    0.1837   -0.1097   -0.0730   -0.0413   -0.0085   -0.0739
          30   -0.0438    0.0079    0.0775    0.0281    0.0212    0.0444    0.0059    0.0050
          31    0.0888    0.0357    0.1778    0.1744   -0.0563   -0.0352   -0.0099    0.0091
          32    0.0294    0.0022   -0.0922    0.1137   -0.0154   -0.0552    0.0011   -0.0345
          33   -0.0020    0.0006    0.0666   -0.0611    0.0148    0.0369    0.0019    0.0068
          34   -0.0389   -0.0017   -0.1560   -0.0936   -0.0514    0.0117    0.0054   -0.1595
          35    0.0033   -0.0022    0.0895   -0.0867    0.0435    0.0803    0.0079   -0.0142
          36   -0.0022    0.0015    0.0648   -0.0622    0.0129    0.0376    0.0016    0.0049
          37   -0.0151   -0.1240    0.0134    0.0025    0.0122   -0.0210   -0.0355   -0.0124
          38   -0.0293    0.1124   -0.0054   -0.0079    0.0685   -0.0469   -0.0717   -0.0058
          39   -0.0443   -0.0857    0.0118   -0.0011    0.0212   -0.0284   -0.0448   -0.0156
          40   -0.0143   -0.0455    0.0051    0.0037   -0.0240    0.0117    0.0215    0.0086
          41   -0.0123   -0.0902    0.0105    0.0111   -0.0470    0.0184    0.0391    0.0196
          42   -0.0515    0.1403   -0.0102   -0.0096    0.0069    0.0048    0.0112    0.0044
          43   -0.0050   -0.0424    0.0050    0.0027   -0.0262    0.0131    0.0243   -0.0047
          44   -0.0534   -0.0094    0.0023   -0.0178   -0.0040    0.0228    0.0206   -0.0850
          45    0.0092    0.0234   -0.0012    0.0023    0.0160   -0.0147   -0.0201    0.0141
          46    0.0065   -0.0185    0.0034    0.0059   -0.0049   -0.0073   -0.0057    0.0172
          47    0.0004    0.1158   -0.0067   -0.0042    0.0806   -0.0574   -0.0904    0.0064
          48    0.0079    0.0187   -0.0002    0.0026    0.0138   -0.0152   -0.0205    0.0129
          49    0.0043   -0.0612    0.0080    0.0103   -0.0373    0.0077    0.0225    0.0216
          50   -0.0062   -0.0915    0.0143    0.0181   -0.0644    0.0086    0.0338    0.0408
          51    0.0085    0.0303   -0.0014    0.0022    0.0170   -0.0161   -0.0220    0.0139
          52    0.0788    0.0060   -0.0323   -0.0116   -0.0304    0.1297   -0.1101   -0.0105
          53    0.0283    0.0310   -0.0294   -0.0193   -0.0407    0.1303   -0.1079   -0.0138
          54   -0.0129   -0.0298   -0.0027   -0.0186    0.1345   -0.0714    0.1230   -0.0026
          55   -0.0370   -0.0405    0.0124    0.0136   -0.0032   -0.0164   -0.1817    0.0038
          56   -0.0464   -0.0272    0.0073    0.0019    0.0042   -0.0125   -0.1803    0.0066
          57   -0.0384    0.0836   -0.0086   -0.0099   -0.0324    0.0098    0.1982    0.0353


   Root No.      17        18        19        20        21        22        23        24

                17 A      18 A      19 A      20 A      21 A      22 A      23 A      24 A   

                 970.2    1018.1    1041.8    1067.2    1113.6    1118.1    1127.9    1144.6
  
           1   -0.0045   -0.0224   -0.0041   -0.0202   -0.0034   -0.0014   -0.0077    0.0132
           2   -0.0005   -0.0158   -0.0169    0.0322    0.0104   -0.0021    0.0167   -0.0474
           3   -0.0016    0.0141    0.0063    0.0229   -0.0112    0.0087   -0.0049    0.0131
           4    0.0062   -0.0120   -0.0152    0.0205    0.0015    0.0023    0.0072   -0.0161
           5    0.0032    0.0139    0.0059   -0.0053   -0.0041    0.0037   -0.0010    0.0121
           6    0.0023   -0.0144   -0.0037   -0.0220   -0.0239    0.0222    0.0192   -0.0114
           7    0.0007    0.0057    0.0022   -0.0065   -0.0041    0.0021   -0.0058    0.0237
           8   -0.0072   -0.0152   -0.0022   -0.0182   -0.0070    0.0019   -0.0080    0.0173
           9    0.0020   -0.0150   -0.0105    0.0056    0.0259   -0.0242   -0.0194    0.0143
          10    0.0006   -0.0106    0.0170   -0.0023    0.0155    0.0180   -0.0118   -0.0065
          11   -0.0022    0.0051   -0.0082   -0.0004    0.0249    0.0137    0.0349    0.0187
          12    0.0108    0.0104   -0.0147   -0.0134   -0.0121   -0.0171   -0.0025    0.0030
          13    0.0243    0.0016   -0.0038    0.0044   -0.0126   -0.0212    0.0180    0.0098
          14    0.0095   -0.0090    0.0107    0.0045   -0.0277   -0.0145   -0.0332   -0.0203
          15    0.0257   -0.0109    0.0102    0.0076    0.0136    0.0192   -0.0030    0.0009
          16    0.0037    0.0139    0.0168    0.0081    0.0050   -0.0017   -0.0008   -0.0156
          17   -0.0122    0.0036    0.0101    0.0146   -0.0049    0.0059    0.0057    0.0124
          18   -0.0017    0.0016   -0.0048   -0.0061    0.0119   -0.0094    0.0075   -0.0321
          19   -0.0172    0.0075   -0.0210   -0.0035   -0.0038   -0.0029    0.0034   -0.0006
          20    0.0035    0.0098   -0.0152   -0.0093    0.0026   -0.0025   -0.0014   -0.0135
          21   -0.0214   -0.0039    0.0130    0.0134    0.0000    0.0009    0.0141   -0.0021
          22   -0.0560   -0.0166   -0.0470    0.1078   -0.0821    0.0704    0.0002    0.0779
          23    0.0747    0.0029    0.0212   -0.0354   -0.0048   -0.0197   -0.0900    0.1815
          24   -0.0066    0.0246   -0.0056    0.0762   -0.0629    0.0450   -0.0368    0.1296
          25    0.0291    0.0957    0.0326    0.0829    0.0462   -0.0389   -0.0253   -0.0092
          26    0.0612    0.1084    0.0753   -0.0472   -0.0365    0.0352    0.0440   -0.0462
          27   -0.0044    0.0207    0.0014    0.0349    0.0166   -0.0157   -0.0181    0.0145
          28    0.0012   -0.0452   -0.0199   -0.0338   -0.0114    0.0175    0.0436   -0.0648
          29   -0.0220    0.0578    0.0197    0.0373    0.0916   -0.0802   -0.0397    0.0007
          30   -0.0042    0.0234    0.0043    0.0294    0.0194   -0.0184   -0.0190    0.0168
          31    0.0525    0.0453    0.0481   -0.1020   -0.0155    0.0150    0.0347   -0.0620
          32    0.0005   -0.0662   -0.0340   -0.0096    0.0635   -0.0631   -0.0571    0.0504
          33   -0.0036    0.0230    0.0130   -0.0001   -0.0271    0.0245    0.0167   -0.0093
          34   -0.0544    0.1295    0.0592    0.0443    0.0337   -0.0285   -0.0109   -0.0325
          35   -0.0151    0.0319    0.0267   -0.0275   -0.0823    0.0694    0.0356   -0.0020
          36   -0.0042    0.0210    0.0116   -0.0010   -0.0299    0.0256    0.0123    0.0010
          37    0.0206    0.0658   -0.0848   -0.0450    0.0211    0.0383   -0.0476    0.0049
          38    0.0050    0.0540   -0.0609   -0.0395    0.1156    0.1593   -0.0625    0.0118
          39    0.0249    0.0748   -0.0968   -0.0533    0.0167    0.0364   -0.0539    0.0081
          40   -0.0307   -0.0175    0.0282   -0.0175    0.0255   -0.0174    0.0643    0.0593
          41   -0.0555   -0.0154    0.0236   -0.0239    0.0470   -0.0385    0.1580    0.1283
          42   -0.0296   -0.0446    0.0716   -0.0248    0.0331    0.0013    0.0124    0.0362
          43    0.0105   -0.0210    0.0222    0.0079    0.0076    0.0186   -0.0189   -0.0084
          44    0.2087   -0.0525    0.0435    0.0528   -0.0168   -0.0007   -0.0065   -0.0002
          45   -0.0358    0.0187   -0.0176   -0.0123   -0.0031   -0.0105    0.0092    0.0056
          46   -0.0450    0.0080   -0.0049   -0.0117   -0.0145   -0.0144   -0.0134   -0.0063
          47   -0.0224    0.0585   -0.0600   -0.0216   -0.1061   -0.1335    0.0167    0.0039
          48   -0.0343    0.0162   -0.0143   -0.0127   -0.0117   -0.0128   -0.0090   -0.0026
          49   -0.0566   -0.0154    0.0224   -0.0072   -0.0041    0.0165   -0.0542   -0.0272
          50   -0.1090   -0.0308    0.0457   -0.0134   -0.0189    0.0362   -0.1380   -0.0741
          51   -0.0365    0.0178   -0.0158   -0.0136   -0.0100   -0.0168    0.0029    0.0038
          52    0.0076   -0.0109   -0.0046   -0.0507    0.0245   -0.0269   -0.0033   -0.0410
          53   -0.0094   -0.0255    0.0187   -0.0914    0.0334   -0.0407    0.0016   -0.0119
          54   -0.0102    0.0166    0.1025   -0.0780    0.0421   -0.0430    0.0004   -0.0050
          55   -0.0449   -0.0238    0.0445    0.0190   -0.0085    0.0069    0.0021    0.0169
          56   -0.0454   -0.0314    0.0697    0.0026   -0.0163    0.0038   -0.0257    0.0020
          57   -0.0474    0.0032   -0.0045   -0.0393   -0.0321   -0.0188   -0.0487   -0.0279


   Root No.      25        26        27        28        29        30        31        32

                25 A      26 A      27 A      28 A      29 A      30 A      31 A      32 A   

                1156.5    1173.2    1178.6    1198.0    1223.1    1296.7    1349.9    1396.6
  
           1   -0.0249    0.0081   -0.0172   -0.0217   -0.0141    0.0035   -0.0117    0.0188
           2   -0.0173   -0.0039    0.0200    0.0229    0.0041   -0.0017   -0.0012    0.0069
           3    0.0211   -0.0026    0.0011    0.0034   -0.0126    0.0424    0.0061    0.0121
           4    0.0144   -0.0344   -0.0045    0.0101   -0.0003    0.0204    0.0059    0.0068
           5    0.0533   -0.0364   -0.0100    0.0077    0.0145   -0.0259   -0.0038   -0.0077
           6   -0.0120    0.0023    0.0046    0.0006    0.0043   -0.0080   -0.0012   -0.0013
           7    0.0608    0.0366    0.0193    0.0051    0.0082   -0.0126   -0.0003   -0.0039
           8   -0.0109    0.0161   -0.0072   -0.0131   -0.0149    0.0313    0.0059    0.0029
           9   -0.0109   -0.0023   -0.0031   -0.0001    0.0032   -0.0088   -0.0002   -0.0022
          10    0.0025   -0.0097    0.0163   -0.0229   -0.0058   -0.0124    0.0192   -0.0208
          11   -0.0005    0.0102   -0.0195   -0.0039    0.0123   -0.0134    0.0372   -0.0021
          12    0.0002   -0.0104    0.0170   -0.0086   -0.0083   -0.0095    0.0205   -0.0346
          13   -0.0014    0.0012   -0.0024    0.0088   -0.0024    0.0027    0.0006    0.0057
          14    0.0013   -0.0040    0.0083   -0.0035    0.0021    0.0008    0.0152    0.0154
          15   -0.0010    0.0031   -0.0048    0.0064    0.0020    0.0042   -0.0073    0.0009
          16    0.0030    0.0025   -0.0021    0.0072   -0.0183   -0.0285    0.0029   -0.0118
          17   -0.0003    0.0003   -0.0033   -0.0198    0.0120    0.0076   -0.0131    0.0093
          18    0.0082    0.0063   -0.0066   -0.0149   -0.0110   -0.0200   -0.0141   -0.0001
          19   -0.0021    0.0109   -0.0170    0.0001    0.0384    0.0175   -0.0170    0.0134
          20    0.0040   -0.0001   -0.0003   -0.0150   -0.0171   -0.0162   -0.0045   -0.0063
          21    0.0040    0.0123   -0.0229   -0.0220    0.0252   -0.0020   -0.0154    0.0059
          22   -0.1797   -0.0087    0.0696    0.0622    0.0647   -0.1064    0.0008   -0.0234
          23   -0.0960   -0.0352   -0.0365   -0.0288    0.0256   -0.0503   -0.0068   -0.0079
          24   -0.0991   -0.0233    0.0333    0.0355    0.0413   -0.0380    0.0120   -0.0181
          25   -0.0373    0.0515    0.0241   -0.0020   -0.0317    0.1100    0.0489   -0.0731
          26   -0.0745    0.1335    0.0586   -0.0201   -0.0064   -0.0220   -0.0254    0.0509
          27    0.0013   -0.0057   -0.0015    0.0032   -0.0070    0.0428    0.0303   -0.0653
          28   -0.1154    0.0651    0.0337    0.0006   -0.0076    0.0489    0.0411   -0.0846
          29   -0.1041    0.1275    0.0427   -0.0173    0.0007   -0.0496   -0.0272    0.0444
          30    0.0109    0.0006    0.0002   -0.0025    0.0030   -0.0292   -0.0282    0.0678
          31   -0.1696   -0.1129   -0.0673   -0.0254   -0.0042   -0.0168   -0.0044   -0.0022
          32   -0.0408    0.0162   -0.0172   -0.0189   -0.0174    0.0693    0.0453   -0.0504
          33    0.0100   -0.0032    0.0040    0.0043    0.0043   -0.0310   -0.0254    0.0330
          34   -0.1027   -0.1174   -0.0727   -0.0215   -0.0252    0.0365    0.0000    0.0105
          35    0.0071    0.0255    0.0007   -0.0152   -0.0310    0.1113    0.0474   -0.0405
          36    0.0013    0.0040    0.0024   -0.0016   -0.0080    0.0447    0.0267   -0.0298
          37   -0.0088   -0.0168    0.0328    0.0453   -0.0225    0.0163    0.0356    0.1340
          38   -0.0106   -0.0025    0.0068    0.0585   -0.0218    0.0390   -0.1102   -0.0738
          39   -0.0100   -0.0193    0.0366    0.0536   -0.0303    0.0225   -0.0005    0.0638
          40   -0.0056   -0.0368    0.0582    0.0175   -0.0741    0.0142   -0.0585   -0.0386
          41   -0.0137   -0.0391    0.0572    0.0625   -0.1131    0.0302   -0.0937   -0.0253
          42   -0.0022   -0.0710    0.1186   -0.0030   -0.1224   -0.0054    0.0474    0.1572
          43    0.0002   -0.0022    0.0050   -0.0029    0.0021    0.0064   -0.0163   -0.0037
          44   -0.0059    0.0123   -0.0169    0.0544   -0.0096    0.0387   -0.1208   -0.0022
          45    0.0002   -0.0020    0.0022   -0.0049    0.0002   -0.0092    0.0406    0.0105
          46    0.0011   -0.0095    0.0161   -0.0080   -0.0071   -0.0016    0.0072    0.0174
          47   -0.0008   -0.0174    0.0293    0.0117   -0.0259    0.0170   -0.0957   -0.0595
          48    0.0002   -0.0082    0.0141   -0.0014   -0.0090    0.0043   -0.0260   -0.0073
          49    0.0023   -0.0125    0.0232   -0.0098   -0.0095    0.0084   -0.0560   -0.0334
          50    0.0066   -0.0239    0.0456   -0.0277   -0.0106    0.0106   -0.0785   -0.0471
          51    0.0000   -0.0071    0.0113   -0.0009   -0.0103   -0.0037    0.0164    0.0283
          52   -0.0042   -0.0034    0.0154    0.0444    0.0319   -0.0132    0.0068   -0.0126
          53   -0.0177   -0.0224    0.0475    0.0771    0.1566    0.0566    0.0038    0.0073
          54   -0.0149   -0.0298    0.0617    0.1194    0.1979    0.0497    0.0210   -0.0090
          55   -0.0032    0.0243   -0.0473    0.0583    0.0148    0.0079   -0.0001    0.0113
          56   -0.0026    0.0381   -0.0758    0.1590   -0.1010   -0.0422    0.0359   -0.0143
          57   -0.0105    0.0621   -0.1072    0.2176   -0.0923   -0.0277    0.0241   -0.0031


   Root No.      33        34        35        36        37        38        39        40

                33 A      34 A      35 A      36 A      37 A      38 A      39 A      40 A   

                1399.8    1406.9    1411.7    1414.9    1429.9    1603.6    1894.3    2945.1
  
           1   -0.0054   -0.0021   -0.0040    0.0125   -0.0128    0.1232   -0.0281   -0.0001
           2    0.0014   -0.0010   -0.0020    0.0074   -0.0090    0.0670   -0.0216    0.0000
           3   -0.0025   -0.0021   -0.0043    0.0156   -0.0235    0.0492   -0.0371   -0.0000
           4    0.0248   -0.0006   -0.0019    0.0072   -0.0143   -0.0931    0.0077   -0.0000
           5   -0.0114    0.0009    0.0023   -0.0083    0.0140    0.0512   -0.0019   -0.0000
           6    0.0005    0.0002    0.0005   -0.0019    0.0028   -0.0034    0.0033    0.0000
           7   -0.0010    0.0005    0.0010   -0.0035    0.0048   -0.0025   -0.0009    0.0000
           8   -0.0306   -0.0016   -0.0029    0.0105   -0.0188   -0.1050    0.0070   -0.0000
           9    0.0003    0.0003    0.0006   -0.0019    0.0025   -0.0042   -0.0009    0.0000
          10    0.0043   -0.0011    0.0015    0.0059   -0.0209    0.0069    0.0139    0.0485
          11    0.0007    0.0078    0.0026   -0.0201   -0.0371    0.0103    0.0164   -0.0102
          12    0.0072   -0.0029    0.0012    0.0204   -0.0256    0.0123    0.0289   -0.0270
          13   -0.0007   -0.0347   -0.0157    0.0026    0.0100   -0.0006    0.0011   -0.0023
          14   -0.0024   -0.0005   -0.0069    0.0331    0.0376   -0.0025    0.0014    0.0006
          15   -0.0003    0.0140   -0.0336   -0.0025    0.0037   -0.0002    0.0013    0.0013
          16    0.0029    0.0015    0.0025   -0.0081    0.0111   -0.0332   -0.0145    0.0007
          17   -0.0025   -0.0003    0.0002   -0.0029    0.0097    0.0045    0.1802   -0.0000
          18   -0.0001    0.0007    0.0022   -0.0093    0.0215   -0.0200    0.1670    0.0004
          19   -0.0032   -0.0003    0.0003   -0.0036    0.0104    0.0011    0.0197   -0.0018
          20    0.0010    0.0002    0.0016   -0.0045    0.0109   -0.0261   -0.1800    0.0011
          21   -0.0018    0.0010    0.0019   -0.0109    0.0174   -0.0272   -0.1599   -0.0008
          22    0.0080    0.0031    0.0060   -0.0193    0.0253   -0.0302   -0.0049    0.0004
          23   -0.0030    0.0014    0.0028   -0.0105    0.0154   -0.0112    0.0066    0.0002
          24    0.0040    0.0018    0.0032   -0.0092    0.0072   -0.0722   -0.0086   -0.0007
          25   -0.1294    0.0045    0.0112   -0.0365    0.0434    0.0351   -0.0066    0.0001
          26    0.0694   -0.0044   -0.0095    0.0321   -0.0400   -0.0062   -0.0055   -0.0000
          27   -0.1137    0.0048    0.0116   -0.0393    0.0525    0.0937   -0.0049   -0.0001
          28   -0.1270    0.0068    0.0154   -0.0519    0.0658    0.0050    0.0139   -0.0001
          29    0.0694   -0.0033   -0.0075    0.0249   -0.0300   -0.0196    0.0021    0.0000
          30    0.1130   -0.0054   -0.0126    0.0430   -0.0579   -0.0851    0.0010   -0.0001
          31    0.0049    0.0007    0.0013   -0.0049    0.0075   -0.0152    0.0056    0.0000
          32    0.1741    0.0106    0.0177   -0.0585    0.0707    0.0122    0.0038    0.0000
          33   -0.1341   -0.0077   -0.0131    0.0440   -0.0573   -0.0841   -0.0005    0.0000
          34   -0.0001   -0.0014   -0.0027    0.0092   -0.0124    0.0118   -0.0024   -0.0000
          35    0.1724    0.0092    0.0149   -0.0490    0.0577    0.0340    0.0025    0.0000
          36    0.1327    0.0072    0.0120   -0.0401    0.0517    0.0922   -0.0063   -0.0000
          37   -0.0264    0.0191   -0.0161   -0.0913    0.0186   -0.0034    0.0072   -0.2375
          38    0.0139   -0.0257    0.0043    0.0849    0.0454   -0.0057   -0.0036   -0.1028
          39   -0.0125    0.0054   -0.0121   -0.0282    0.0225    0.0002    0.0109    0.3647
          40    0.0073   -0.0159   -0.0009    0.0494    0.0312   -0.0051   -0.0082   -0.3445
          41    0.0043   -0.0147   -0.0018    0.0488    0.0534   -0.0110   -0.0299    0.2232
          42   -0.0311    0.0281   -0.0223   -0.1099    0.0294   -0.0127   -0.0349   -0.0383
          43   -0.0016    0.3159   -0.0309    0.0260    0.0101   -0.0006    0.0018   -0.0007
          44   -0.0021   -0.0411    0.1680   -0.0912   -0.0594   -0.0030   -0.0035   -0.0001
          45    0.0002   -0.1836   -0.0513    0.0180    0.0269    0.0006    0.0050   -0.0004
          46   -0.0047    0.1707    0.2416    0.0367    0.0056   -0.0006   -0.0007    0.0117
          47    0.0088    0.0948   -0.1073   -0.0873   -0.0874    0.0035    0.0014    0.0013
          48   -0.0005    0.1623    0.1341   -0.0058   -0.0280    0.0013    0.0009   -0.0181
          49    0.0055   -0.0689   -0.0317   -0.0668   -0.0595    0.0024    0.0021    0.0194
          50    0.0078   -0.0992   -0.0165   -0.0867   -0.0798    0.0024    0.0018   -0.0084
          51   -0.0046   -0.1553    0.3266    0.0091   -0.0039   -0.0000    0.0001    0.0012
          52    0.0037    0.0006    0.0016   -0.0024    0.0037   -0.0264   -0.1111   -0.0054
          53   -0.0004   -0.0020   -0.0016    0.0096   -0.0139    0.0168    0.0303    0.0045
          54    0.0042   -0.0001    0.0012    0.0024   -0.0150   -0.0251   -0.0798   -0.0004
          55   -0.0008    0.0029   -0.0012   -0.0031   -0.0011    0.0071    0.1156    0.0210
          56    0.0067    0.0080   -0.0024    0.0012   -0.0171   -0.0052   -0.0238   -0.0160
          57    0.0036    0.0073   -0.0021    0.0021   -0.0129    0.0140    0.0858    0.0029


   Root No.      41        42        43        44        45        46        47        48

                41 A      42 A      43 A      44 A      45 A      46 A      47 A      48 A   

                2994.6    3024.3    3036.7    3038.1    3081.5    3083.3    3086.1    3097.7
  
           1    0.0322   -0.0000   -0.0007    0.0006   -0.0000    0.0001   -0.0000    0.0012
           2    0.0185   -0.0000   -0.0000    0.0004   -0.0000    0.0000   -0.0000    0.0007
           3   -0.0531    0.0000    0.0013   -0.0006    0.0000   -0.0003   -0.0000   -0.0026
           4   -0.0004    0.0000    0.0000   -0.0004    0.0000    0.0018    0.0000    0.0021
           5    0.0008   -0.0000    0.0003    0.0001   -0.0000   -0.0009   -0.0000   -0.0011
           6    0.0036   -0.0001    0.0002    0.0010   -0.0001   -0.0335   -0.0002   -0.0266
           7    0.0004   -0.0000   -0.0000    0.0001    0.0000   -0.0001    0.0000    0.0001
           8   -0.0007   -0.0000    0.0000   -0.0000   -0.0000   -0.0005    0.0000    0.0010
           9    0.0034    0.0000   -0.0002   -0.0002    0.0001    0.0271    0.0002   -0.0332
          10    0.0001   -0.0105   -0.0011   -0.0033   -0.0024   -0.0000   -0.0001   -0.0000
          11   -0.0000    0.0225    0.0010    0.0035    0.0011    0.0000    0.0014    0.0000
          12   -0.0001   -0.0254    0.0001   -0.0027    0.0004    0.0000   -0.0022   -0.0000
          13   -0.0000    0.0019   -0.0003    0.0002   -0.0486    0.0001   -0.0089   -0.0000
          14   -0.0000    0.0002    0.0001    0.0000    0.0116   -0.0000    0.0015    0.0000
          15    0.0000    0.0029    0.0001    0.0007    0.0091    0.0002   -0.0496   -0.0000
          16   -0.0017   -0.0027   -0.0330    0.0232    0.0001    0.0005    0.0002    0.0004
          17    0.0011    0.0025    0.0243   -0.0204   -0.0001   -0.0005   -0.0002    0.0000
          18   -0.0007   -0.0002   -0.0082    0.0024    0.0000   -0.0000   -0.0000    0.0001
          19    0.0003    0.0044   -0.0251   -0.0298    0.0002   -0.0005   -0.0001   -0.0002
          20    0.0002   -0.0039    0.0172    0.0249   -0.0000    0.0005    0.0006    0.0002
          21    0.0002    0.0005   -0.0077   -0.0047    0.0002   -0.0001    0.0001   -0.0000
          22   -0.3836    0.0003    0.0061   -0.0049    0.0000   -0.0034   -0.0000   -0.0173
          23   -0.2221    0.0003    0.0047   -0.0037    0.0000    0.0011   -0.0000   -0.0103
          24    0.6470   -0.0007   -0.0127    0.0101   -0.0000    0.0030    0.0000    0.0247
          25    0.0104   -0.0007    0.0014    0.0057   -0.0005   -0.1419   -0.0007   -0.1162
          26   -0.0095    0.0003   -0.0005   -0.0028    0.0003    0.0800    0.0004    0.0682
          27   -0.0227    0.0009   -0.0020   -0.0087    0.0008    0.2221    0.0011    0.1806
          28   -0.0123    0.0004    0.0014   -0.0032    0.0004    0.1195    0.0006    0.0913
          29    0.0102   -0.0002   -0.0008    0.0016   -0.0002   -0.0692   -0.0003   -0.0555
          30   -0.0242    0.0005    0.0024   -0.0044    0.0006    0.1846    0.0009    0.1381
          31    0.0025    0.0000   -0.0002    0.0001   -0.0000   -0.0010   -0.0000   -0.0017
          32   -0.0159   -0.0001    0.0001    0.0011   -0.0004   -0.1180   -0.0008    0.1441
          33   -0.0241   -0.0001    0.0004    0.0014   -0.0006   -0.1595   -0.0011    0.1897
          34   -0.0029   -0.0000   -0.0001   -0.0001    0.0000    0.0021    0.0000    0.0002
          35    0.0133    0.0001   -0.0006   -0.0011    0.0005    0.1250    0.0008   -0.1559
          36   -0.0222   -0.0002    0.0009    0.0016   -0.0006   -0.1710   -0.0011    0.2087
          37   -0.0002   -0.2231   -0.0015   -0.0233    0.0039    0.0000   -0.0188   -0.0000
          38   -0.0001   -0.0681    0.0005   -0.0054    0.0051    0.0000   -0.0086   -0.0000
          39    0.0002    0.3000   -0.0006    0.0273   -0.0075   -0.0001    0.0238    0.0000
          40   -0.0013    0.3485    0.0146    0.0618    0.0219    0.0002    0.0180    0.0001
          41    0.0008   -0.2066   -0.0064   -0.0364   -0.0179   -0.0001   -0.0116   -0.0000
          42   -0.0000    0.0084    0.0036    0.0038    0.0019    0.0000   -0.0009    0.0000
          43    0.0001   -0.0157   -0.0008   -0.0045    0.0439   -0.0010    0.2263    0.0001
          44    0.0001   -0.0051   -0.0003   -0.0019    0.0400   -0.0006    0.1145    0.0001
          45    0.0001   -0.0271   -0.0010   -0.0073    0.1185   -0.0017    0.3548    0.0002
          46    0.0001    0.0075    0.0007    0.0020    0.1565    0.0004   -0.2057   -0.0001
          47    0.0000    0.0022    0.0005    0.0009    0.0752    0.0001   -0.0755   -0.0000
          48   -0.0001   -0.0087   -0.0012   -0.0025   -0.2530   -0.0004    0.2597    0.0001
          49    0.0001   -0.0133    0.0024   -0.0019    0.3807   -0.0012    0.0857    0.0000
          50   -0.0001    0.0083   -0.0025    0.0001   -0.2555    0.0008   -0.0573   -0.0000
          51   -0.0000    0.0005   -0.0002   -0.0002    0.0252    0.0000   -0.0211   -0.0000
          52    0.0208    0.0294    0.3921   -0.2645   -0.0016   -0.0037   -0.0018   -0.0015
          53   -0.0143   -0.0222   -0.2871    0.1909    0.0011    0.0027    0.0013    0.0014
          54    0.0033    0.0074    0.0999   -0.0701   -0.0005   -0.0008   -0.0006   -0.0004
          55   -0.0022   -0.0521    0.3021    0.3448   -0.0024    0.0061    0.0035    0.0027
          56    0.0008    0.0384   -0.2172   -0.2447    0.0028   -0.0040   -0.0018   -0.0016
          57   -0.0001   -0.0140    0.0820    0.0969   -0.0000    0.0018    0.0011    0.0008


   Root No.      49        50        51

                49 A      50 A      51 A   

                3133.3    3135.5    3183.2
  
           1    0.0004    0.0010   -0.0000
           2    0.0007    0.0003   -0.0000
           3   -0.0003   -0.0002    0.0000
           4   -0.0312   -0.0073    0.0000
           5    0.0184    0.0040   -0.0000
           6   -0.0051   -0.0014    0.0000
           7   -0.0003    0.0000   -0.0000
           8    0.0067   -0.0368    0.0000
           9   -0.0005   -0.0021    0.0000
          10    0.0000   -0.0000   -0.0002
          11   -0.0000   -0.0000   -0.0004
          12   -0.0000    0.0000   -0.0002
          13   -0.0000    0.0000   -0.0065
          14   -0.0000   -0.0000   -0.0238
          15    0.0000   -0.0000    0.0002
          16    0.0001    0.0000   -0.0000
          17   -0.0000    0.0001   -0.0000
          18    0.0001    0.0000   -0.0000
          19    0.0002    0.0000   -0.0001
          20   -0.0002   -0.0000    0.0002
          21    0.0000   -0.0000    0.0000
          22   -0.0015   -0.0011    0.0000
          23   -0.0009   -0.0004    0.0000
          24    0.0027    0.0023   -0.0001
          25    0.1666    0.0328   -0.0001
          26   -0.0955   -0.0184    0.0000
          27   -0.2968   -0.0594    0.0001
          28    0.2043    0.0428   -0.0001
          29   -0.1210   -0.0251    0.0000
          30    0.3581    0.0755   -0.0001
          31    0.0003   -0.0011   -0.0000
          32   -0.0429    0.2261   -0.0001
          33   -0.0653    0.3428   -0.0001
          34    0.0001    0.0013    0.0000
          35   -0.0475    0.2058   -0.0001
          36    0.0711   -0.3172    0.0001
          37    0.0000    0.0001   -0.0014
          38   -0.0000    0.0000   -0.0011
          39    0.0000   -0.0000    0.0015
          40   -0.0002   -0.0000    0.0020
          41    0.0001    0.0000   -0.0024
          42   -0.0000   -0.0000    0.0001
          43    0.0000    0.0001    0.1634
          44    0.0000    0.0001    0.0713
          45    0.0001    0.0002    0.2742
          46    0.0001    0.0000    0.1836
          47    0.0000    0.0000    0.0601
          48   -0.0001   -0.0001   -0.2640
          49   -0.0000   -0.0001   -0.2677
          50    0.0000    0.0001    0.1599
          51   -0.0000   -0.0000   -0.0131
          52   -0.0006   -0.0000    0.0001
          53    0.0006   -0.0002   -0.0000
          54   -0.0001   -0.0000    0.0000
          55   -0.0033   -0.0004    0.0016
          56    0.0020    0.0002   -0.0016
          57   -0.0009   -0.0002    0.0003


           MASS-WEIGHTED COORDINATE ANALYSIS (NORMAL COORDINATES)


   Root No.       1         2         3         4         5         6         7         8

                 1 A       2 A       3 A       4 A       5 A       6 A       7 A       8 A   

                  48.3     115.0     129.2     166.0     205.8     341.3     372.7     486.1
  
           1   -0.0775   -0.1053   -0.0263    0.0527    0.1032   -0.0804   -0.2168    0.0167
           2    0.1658   -0.0542   -0.0024   -0.0010   -0.0228    0.3471    0.0240   -0.1654
           3    0.0273    0.0649   -0.1720   -0.0404   -0.0422   -0.0939    0.0179    0.2091
           4   -0.0771   -0.1053   -0.0272    0.0447    0.0988   -0.0887   -0.2518    0.0279
           5   -0.2328   -0.1864   -0.1233    0.1442    0.1069    0.0024   -0.1472   -0.0479
           6    0.0922    0.0229   -0.0187    0.4022    0.2745   -0.0693   -0.2230    0.0091
           7    0.2691    0.0110    0.0685   -0.0749   -0.0089    0.2530   -0.1275   -0.1411
           8   -0.0349   -0.1203   -0.0668    0.0771    0.0453    0.1884   -0.0557   -0.1309
           9   -0.2452   -0.2101    0.3982   -0.0627   -0.0052    0.2660   -0.0480   -0.1107
          10   -0.2341    0.0995   -0.1855   -0.1814   -0.3030    0.0630   -0.0377    0.0965
          11    0.0500    0.1094   -0.0730   -0.0074   -0.0066   -0.2190    0.1573   -0.2295
          12    0.1515   -0.1244   -0.0533    0.0074    0.0264    0.1138    0.3203    0.2187
          13    0.3944    0.0490    0.1650   -0.1541   -0.0333   -0.2028    0.0098   -0.1555
          14   -0.0943    0.1250   -0.1543   -0.0137   -0.0716   -0.1720    0.1778   -0.2260
          15   -0.1984    0.3309    0.2996   -0.0572   -0.0368   -0.2343    0.0689   -0.1648
          16   -0.1485   -0.2038    0.0422    0.2272    0.1317   -0.1325    0.2604    0.0578
          17    0.0977   -0.1668    0.2909   -0.1379   -0.0809   -0.1261   -0.0281    0.4159
          18    0.0952    0.1667   -0.3151   -0.0964   -0.0388    0.0756   -0.1888   -0.0339
          19   -0.1866    0.2511   -0.0447    0.1763    0.0654    0.2187    0.4510    0.1405
          20    0.0745    0.2974    0.2153   -0.0938    0.0228    0.0187   -0.1533    0.4290
          21    0.1114   -0.2887   -0.2461   -0.1784   -0.2076   -0.0346    0.0763   -0.0399
          22   -0.0553   -0.0272   -0.0391   -0.0417   -0.0009   -0.0391   -0.0994    0.0231
          23    0.1509    0.0460   -0.0793    0.0296    0.0019    0.1439    0.0112   -0.1108
          24    0.0233    0.0412   -0.0927   -0.0333   -0.0255   -0.0181   -0.0180    0.0458
          25   -0.0329   -0.0394    0.0093    0.1026    0.0978   -0.0560   -0.1522   -0.0110
          26   -0.1683   -0.1133    0.0510    0.0066    0.0205    0.0396   -0.0593   -0.0543
          27    0.0557    0.0217   -0.0256    0.1844    0.1262   -0.0537   -0.1092    0.0055
          28   -0.0595   -0.0339   -0.0398   -0.0602   -0.0247   -0.0413   -0.0211    0.0519
          29   -0.0495   -0.0192   -0.1474    0.1067    0.0692   -0.1226   -0.0693    0.0696
          30    0.0557    0.0212   -0.0263    0.1849    0.1264   -0.0557   -0.1080    0.0063
          31    0.1153    0.0264    0.0050   -0.1161   -0.0744    0.0996    0.0291    0.0093
          32    0.0512    0.0170   -0.1215    0.0749    0.0407   -0.0416   -0.0354    0.0405
          33   -0.1142   -0.0976    0.1880   -0.0559   -0.0214    0.1478   -0.0004   -0.0905
          34    0.1382    0.0124    0.0644    0.0359    0.0369    0.1601   -0.0699   -0.1552
          35   -0.0715   -0.0871    0.0831   -0.0303   -0.0143    0.1526    0.0001   -0.1192
          36   -0.1140   -0.0975    0.1879   -0.0551   -0.0208    0.1490   -0.0025   -0.0926
          37   -0.1428   -0.0026   -0.1266   -0.1492   -0.1874    0.0006   -0.1645    0.0100
          38    0.1572   -0.0410   -0.0274    0.0335    0.0558   -0.0595    0.1489   -0.0915
          39    0.0329   -0.0757   -0.0645   -0.0513   -0.0425    0.0207    0.0213    0.0429
          40   -0.1440    0.0329   -0.0963   -0.0689   -0.1282    0.0249   -0.0424    0.0197
          41   -0.0918    0.0368   -0.0842   -0.0097   -0.0501   -0.0461    0.0317   -0.0777
          42    0.1373   -0.0433    0.0177    0.1149    0.1130    0.0590    0.2946    0.0630
          43    0.1026   -0.0191   -0.0124   -0.3488    0.3758   -0.0668    0.0547   -0.0515
          44   -0.0222   -0.0335   -0.1285    0.0766   -0.1248    0.0643    0.0860    0.0904
          45   -0.0521    0.1397    0.1518    0.1434   -0.2132   -0.1031   -0.0232   -0.1000
          46    0.1922    0.0416    0.1443    0.2495   -0.3502   -0.0900   -0.0437   -0.0877
          47   -0.1728    0.1151   -0.0434   -0.0820    0.0092   -0.0887    0.0108   -0.1351
          48   -0.0459    0.1393    0.1560    0.1693   -0.2442   -0.1028   -0.0251   -0.1011
          49    0.1914    0.0103    0.0943   -0.0276    0.0064   -0.0990    0.0054   -0.0939
          50    0.0785    0.0322    0.0195   -0.0064    0.0344   -0.1099    0.0573   -0.1383
          51   -0.1557    0.1169    0.0361   -0.3791    0.4087   -0.1111    0.0445   -0.1124
          52   -0.0488   -0.1963    0.0384    0.0466   -0.0010   -0.1858    0.1079    0.0445
          53    0.0234   -0.1880    0.1153   -0.0594   -0.0549   -0.2094   -0.0073    0.1669
          54    0.0362    0.1856   -0.1005   -0.0185    0.0447    0.1031   -0.1829    0.0221
          55   -0.0484    0.2073   -0.0138    0.0652    0.0640    0.1878    0.0942    0.0930
          56    0.0256    0.2207    0.0648   -0.0284    0.0361    0.1412   -0.0872    0.2035
          57    0.0235   -0.2210   -0.0574   -0.1156   -0.1491   -0.1154    0.0276    0.0086


   Root No.       9        10        11        12        13        14        15        16

                 9 A      10 A      11 A      12 A      13 A      14 A      15 A      16 A   

                 538.5     809.4     822.6     870.3     902.3     917.6     923.5     958.9
  
           1   -0.1035   -0.0387   -0.0212   -0.0369    0.2226    0.0886    0.0283   -0.0205
           2    0.1476   -0.0184   -0.0021    0.0118    0.0786    0.0003   -0.0074    0.1771
           3    0.5005    0.0471   -0.0484    0.0476   -0.0984   -0.0575   -0.0092    0.0093
           4   -0.1439    0.0587    0.0328   -0.1261   -0.1551   -0.1074   -0.0295    0.2710
           5    0.0147    0.0704    0.0364    0.0426   -0.2069   -0.0690   -0.0086   -0.0982
           6   -0.0525    0.0167   -0.0454   -0.0453   -0.0921   -0.1499   -0.0108   -0.0265
           7    0.0801    0.0800    0.0473    0.1024   -0.1811   -0.0490   -0.0041   -0.1413
           8    0.1312   -0.0083   -0.0102    0.1230    0.1552    0.1149    0.0389   -0.2184
           9    0.0564    0.0227   -0.0319    0.1276   -0.0765   -0.1297   -0.0068   -0.0150
          10   -0.1110    0.2581   -0.0217   -0.0343    0.0625    0.0104   -0.0063   -0.0188
          11   -0.0570   -0.0660    0.0060    0.0068   -0.0165    0.0205    0.0243    0.0171
          12   -0.3030   -0.2186    0.0294   -0.0228   -0.0314    0.0003   -0.0056   -0.0652
          13   -0.0235    0.0283    0.0026   -0.0174    0.0722   -0.0282   -0.0486   -0.0917
[...]
 TRAVEL      0.0843         C  1 -- C  3         +10.2% ( 45.5%)     10.4%
 RED. MASS   0.6742         C  1 -- C  2          +9.7% ( 44.4%)      8.3%
 EFF. MASS   7.3102

 VIBRATION   31   31A         ATOM PAIR      ENERGY CONTRIBUTION    RADIAL
 FREQ.      1349.89         C  4 -- H 14         +16.8% ( 50.4%)      0.2%
 T-DIPOLE    0.0914         C  4 -- H 13         +16.1% ( 49.4%)      0.2%
 TRAVEL      0.1054         C  4 -- C  7         +15.9% ( 49.1%)     80.8%
 RED. MASS   0.6574         C  5 -- H 15          +8.5% ( 35.8%)      0.0%
 EFF. MASS   4.4930

 VIBRATION   32   32A         ATOM PAIR      ENERGY CONTRIBUTION    RADIAL
 FREQ.      1396.57         C  4 -- H 13         +19.1% ( 50.0%)      3.5%
 T-DIPOLE    0.0548         C  4 -- H 14         +18.9% ( 49.8%)      4.5%
 TRAVEL      0.1126         C  4 -- C  7         +10.5% ( 37.1%)     86.8%
 RED. MASS   0.4135         C  4 -- C  5          +8.8% ( 33.9%)     21.8%
 EFF. MASS   3.8072

 VIBRATION   33   33A         ATOM PAIR      ENERGY CONTRIBUTION    RADIAL
 FREQ.      1399.76         C  3 -- H 11         +23.6% ( 48.9%)      2.7%
 T-DIPOLE    0.0873         C  3 -- H 12         +23.2% ( 48.5%)      2.8%
 TRAVEL      0.1541         C  2 -- H  9         +17.4% ( 42.0%)      2.7%
 RED. MASS   0.2662         C  2 -- H 10         +16.9% ( 41.4%)      3.1%
 EFF. MASS   2.0285

 VIBRATION   34   34A         ATOM PAIR      ENERGY CONTRIBUTION    RADIAL
 FREQ.      1406.94         C  5 -- H 15         +51.6% ( 62.5%)      0.1%
 T-DIPOLE    0.0432         C  5 -- H 16         +25.0% ( 43.6%)      8.8%
 TRAVEL      0.1731         C  5 -- H 17         +15.8% ( 34.6%)     14.4%
 RED. MASS   0.4096         C  4 -- C  5          +5.4% ( 20.2%)     16.4%
 EFF. MASS   1.6001

 VIBRATION   35   35A         ATOM PAIR      ENERGY CONTRIBUTION    RADIAL
 FREQ.      1411.71         C  5 -- H 17         +43.1% ( 57.6%)      0.6%
 T-DIPOLE    0.0631         C  5 -- H 16         +35.5% ( 52.2%)      1.7%
 TRAVEL      0.1706         C  5 -- H 15         +13.3% ( 32.0%)     32.9%
 RED. MASS   0.3894         C  4 -- C  5          +5.5% ( 20.5%)      9.7%
 EFF. MASS   1.6409

 VIBRATION   36   36A         ATOM PAIR      ENERGY CONTRIBUTION    RADIAL
 FREQ.      1414.94         C  4 -- C  5         +11.3% ( 39.3%)     79.1%
 T-DIPOLE    0.0385         C  4 -- H 14         +11.3% ( 39.3%)      5.9%
 TRAVEL      0.1083         C  5 -- H 17         +10.9% ( 38.7%)      5.6%
 RED. MASS   0.3427         C  4 -- H 13         +10.9% ( 38.6%)      6.5%
 EFF. MASS   4.0626         C  5 -- H 15         +10.1% ( 37.1%)      1.5%

 VIBRATION   37   37A         ATOM PAIR      ENERGY CONTRIBUTION    RADIAL
 FREQ.      1429.94         C  4 -- C  5         +13.8% ( 52.3%)     84.7%
 T-DIPOLE    0.0529         C  4 -- C  7         +10.9% ( 46.4%)     79.9%
 TRAVEL      0.0819         C  4 -- H 14          +8.6% ( 41.3%)      0.0%
 RED. MASS   0.8729         C  4 -- H 13          +7.8% ( 39.4%)      0.0%
 EFF. MASS   7.0353

 VIBRATION   38   38A         ATOM PAIR      ENERGY CONTRIBUTION    RADIAL
 FREQ.      1603.63         C  1 -- C  2         +19.9% ( 74.1%)     94.0%
 T-DIPOLE    0.1051         C  1 -- C  3         +19.6% ( 73.5%)     93.1%
 TRAVEL      0.0601         C  2 -- C  3         +13.6% ( 61.3%)    100.0%
 RED. MASS   3.3822         C  1 -- C  6         +12.5% ( 58.6%)     71.5%
 EFF. MASS  11.6229         C  1 -- H  8         +10.6% ( 54.0%)      2.1%

 VIBRATION   39   39A         ATOM PAIR      ENERGY CONTRIBUTION    RADIAL
 FREQ.      1894.28         C  6 -- C  7         +43.2% ( 97.1%)     95.9%
 T-DIPOLE    0.0933         C  1 -- C  6         +15.0% ( 57.2%)     62.1%
 TRAVEL      0.0549         C  4 -- C  7         +13.7% ( 54.7%)     54.8%
 RED. MASS   5.3024         C  6 -- H 18         +13.4% ( 54.0%)      3.2%
 EFF. MASS  11.8260         C  7 -- H 19         +12.8% ( 52.9%)      3.5%

 VIBRATION   40   40A         ATOM PAIR      ENERGY CONTRIBUTION    RADIAL
 FREQ.      2945.05         C  4 -- H 13         +52.2% ( 75.1%)     96.8%
 T-DIPOLE    0.0201         C  4 -- H 14         +45.0% ( 69.7%)     96.1%
 TRAVEL      0.1218         C  4 -- C  5          +1.2% ( 11.2%)      0.0%
 RED. MASS   0.5165         C  4 -- C  7          +1.2% ( 11.1%)      0.2%
 EFF. MASS   1.5437

 VIBRATION   41   41A         ATOM PAIR      ENERGY CONTRIBUTION    RADIAL
 FREQ.      2994.63         C  1 -- H  8         +96.0% ( 99.7%)    100.0%
 T-DIPOLE    0.2153         C  1 -- C  2          +1.1% ( 10.7%)     23.2%
 TRAVEL      0.1246         C  1 -- C  3          +1.1% ( 10.7%)     23.3%
 RED. MASS   0.9186         C  1 -- C  6          +1.1% ( 10.6%)      9.9%
 EFF. MASS   1.4509

 VIBRATION   42   42A         ATOM PAIR      ENERGY CONTRIBUTION    RADIAL
 FREQ.      3024.31         C  4 -- H 14         +51.4% ( 70.7%)     98.1%
 T-DIPOLE    0.0370         C  4 -- H 13         +44.8% ( 66.0%)     97.3%
 TRAVEL      0.1317         C  7 -- H 19          +1.5% ( 12.1%)     99.7%
 RED. MASS   0.4633         C  4 -- C  7          +0.7% (  8.1%)     29.6%
 EFF. MASS   1.2845

 VIBRATION   43   43A         ATOM PAIR      ENERGY CONTRIBUTION    RADIAL
 FREQ.      3036.70         C  6 -- H 18         +61.6% ( 79.3%)    100.0%
 T-DIPOLE    0.3609         C  7 -- H 19         +36.2% ( 60.8%)    100.0%
 TRAVEL      0.1243         C  1 -- C  6          +0.8% (  9.0%)     18.9%
 RED. MASS   0.4950         C  6 -- C  7          +0.8% (  9.0%)     45.3%
 EFF. MASS   1.4373

 VIBRATION   44   44A         ATOM PAIR      ENERGY CONTRIBUTION    RADIAL
 FREQ.      3038.08         C  7 -- H 19         +59.2% ( 78.3%)     99.9%
 T-DIPOLE    0.0463         C  6 -- H 18         +35.2% ( 60.3%)     99.9%
 TRAVEL      0.1184         C  6 -- C  7          +2.2% ( 15.0%)     39.9%
 RED. MASS   0.4751         C  4 -- H 14          +1.5% ( 12.5%)     99.5%
 EFF. MASS   1.5826

 VIBRATION   45   45A         ATOM PAIR      ENERGY CONTRIBUTION    RADIAL
 FREQ.      3081.48         C  5 -- H 17         +63.7% ( 82.3%)     98.7%
 T-DIPOLE    0.0086         C  5 -- H 16         +29.1% ( 55.6%)     92.4%
 TRAVEL      0.1207         C  5 -- H 15          +6.0% ( 25.3%)     60.5%
 RED. MASS   0.5210         C  4 -- C  5          +1.0% ( 10.2%)      0.0%
 EFF. MASS   1.5013

 VIBRATION   46   46A         ATOM PAIR      ENERGY CONTRIBUTION    RADIAL
 FREQ.      3083.27         C  2 -- H  9         +34.3% ( 60.7%)     97.8%
 T-DIPOLE    0.0338         C  2 -- H 10         +24.7% ( 51.5%)     95.9%
 TRAVEL      0.1185         C  3 -- H 12         +20.5% ( 46.9%)     97.3%
 RED. MASS   0.2762         C  3 -- H 11         +18.1% ( 44.2%)     96.6%
 EFF. MASS   1.5564

 VIBRATION   47   47A         ATOM PAIR      ENERGY CONTRIBUTION    RADIAL
 FREQ.      3086.10         C  5 -- H 15         +58.7% ( 79.0%)     98.3%
 T-DIPOLE    0.0103         C  5 -- H 16         +35.8% ( 61.8%)     94.4%
 TRAVEL      0.1205         C  5 -- H 17          +4.1% ( 20.9%)     47.5%
 RED. MASS   0.5025         C  4 -- C  5          +1.0% ( 10.3%)      0.1%
 EFF. MASS   1.5041

 VIBRATION   48   48A         ATOM PAIR      ENERGY CONTRIBUTION    RADIAL
 FREQ.      3097.72         C  3 -- H 12         +32.0% ( 58.2%)     97.6%
 T-DIPOLE    0.2429         C  3 -- H 11         +27.1% ( 53.6%)     96.7%
 TRAVEL      0.1188         C  2 -- H  9         +23.6% ( 50.1%)     98.3%
 RED. MASS   0.2748         C  2 -- H 10         +14.7% ( 39.5%)     95.7%
 EFF. MASS   1.5432

 VIBRATION   49   49A         ATOM PAIR      ENERGY CONTRIBUTION    RADIAL
 FREQ.      3133.26         C  2 -- H 10         +56.7% ( 74.8%)     97.7%
 T-DIPOLE    0.1972         C  2 -- H  9         +37.7% ( 61.0%)     94.6%
 TRAVEL      0.1291         C  3 -- H 12          +2.2% ( 14.8%)     97.5%
 RED. MASS   0.4618         C  3 -- H 11          +1.8% ( 13.5%)     96.4%
 EFF. MASS   1.2922

 VIBRATION   50   50A         ATOM PAIR      ENERGY CONTRIBUTION    RADIAL
 FREQ.      3135.48         C  3 -- H 11         +51.1% ( 71.1%)     97.0%
 T-DIPOLE    0.1906         C  3 -- H 12         +43.0% ( 65.2%)     95.7%
 TRAVEL      0.1279         C  2 -- H 10          +2.5% ( 15.8%)     97.4%
 RED. MASS   0.4496         C  2 -- H  9          +1.5% ( 12.2%)     92.9%
 EFF. MASS   1.3148

 VIBRATION   51   51A         ATOM PAIR      ENERGY CONTRIBUTION    RADIAL
 FREQ.      3183.15         C  5 -- H 15         +34.4% ( 56.4%)     97.3%
 T-DIPOLE    0.0191         C  5 -- H 16         +34.4% ( 56.4%)     97.3%
 TRAVEL      0.1366         C  5 -- H 17         +31.0% ( 53.6%)     96.7%
 RED. MASS   0.3276         C  4 -- C  5          +0.3% (  5.1%)     99.8%
 EFF. MASS   1.1359

      SYMMETRY NUMBER FOR POINT-GROUP C1  =  1


          SYSTEM IS A GROUND STATE



 InChI=1S/C7H12/c1-2-3-4-7-5-6-7/h3-4,7H,2,5-6H2,1H3


          MOLECULE IS NOT LINEAR

          THERE ARE 51 GENUINE VIBRATIONS IN THIS SYSTEM
          THIS THERMODYNAMICS CALCULATION IS LIMITED TO
          MOLECULES WHICH HAVE NO INTERNAL ROTATIONS




                    CALCULATED THERMODYNAMIC PROPERTIES
                                          *
   TEMP. (K)   PARTITION FUNCTION   H.O.F.    ENTHALPY  HEAT CAPACITY ENTROPY
                                   KCAL/MOL   CAL/MOLE    CAL/K/MOL  CAL/K/MOL


 298.00  VIB.     0.1476D+03                  3334.2213    23.2458    21.1138
         ROT.     0.2778D+06                   888.2813     2.9808    27.8897
         INT.     0.4100D+08                  4222.5026    26.2266    49.0035
         TRA.     0.9118D+27                  1480.4688     4.9680    39.5994
         TOT.                       19.072    5702.9715    31.1946    88.6030

 200.00  VIB.     0.2337D+02                  1502.4978    14.5612    13.7751
         ROT.     0.1527D+06                   596.1620     2.9808    26.7010
         INT.     0.3570D+07                  2098.6598    17.5421    40.4762
         TRA.     0.5013D+27                   993.6033     4.9680    37.6183
         TOT.                       16.461    3092.2630    22.5101    78.0945

 210.00  VIB.     0.2823D+02                  1651.8648    15.3178    14.5037
         ROT.     0.1643D+06                   625.9700     2.9808    26.8465
         INT.     0.4638D+07                  2277.8348    18.2986    41.3502
         TRA.     0.5394D+27                  1043.2834     4.9680    37.8607
         TOT.                       16.690    3321.1183    23.2666    79.2109

 220.00  VIB.     0.3407D+02                  1808.9656    16.1080    15.2344
         ROT.     0.1762D+06                   655.7781     2.9808    26.9852
         INT.     0.6004D+07                  2464.7437    19.0888    42.2196
         TRA.     0.5784D+27                  1092.9636     4.9680    38.0918
         TOT.                       16.926    3557.7073    24.0569    80.3114

 230.00  VIB.     0.4112D+02                  1974.1365    16.9316    15.9685
         ROT.     0.1884D+06                   685.5862     2.9808    27.1177
         INT.     0.7745D+07                  2659.7227    19.9124    43.0862
         TRA.     0.6182D+27                  1142.6437     4.9680    38.3126
         TOT.                       17.171    3802.3665    24.8805    81.3988

 240.00  VIB.     0.4961D+02                  2147.7047    17.7872    16.7071
         ROT.     0.2008D+06                   715.3943     2.9808    27.2445
         INT.     0.9960D+07                  2863.0991    20.7680    43.9516
         TRA.     0.6590D+27                  1192.3239     4.9680    38.5241
         TOT.                       17.424    4055.4230    25.7360    82.4757

 250.00  VIB.     0.5984D+02                  2329.9801    18.6726    17.4510
         ROT.     0.2135D+06                   745.2024     2.9808    27.3662
         INT.     0.1277D+08                  3075.1825    21.6534    44.8172
         TRA.     0.7006D+27                  1242.0041     4.9680    38.7269
         TOT.                       17.686    4317.1866    26.6215    83.5441

 260.00  VIB.     0.7219D+02                  2521.2483    19.5853    18.2011
         ROT.     0.2264D+06                   775.0105     2.9808    27.4831
         INT.     0.1634D+08                  3296.2588    22.5661    45.6842
         TRA.     0.7431D+27                  1291.6842     4.9680    38.9217
         TOT.                       17.957    4587.9430    27.5341    84.6059

 270.00  VIB.     0.8711D+02                  2721.7666    20.5221    18.9578
         ROT.     0.2396D+06                   804.8186     2.9808    27.5956
         INT.     0.2087D+08                  3526.5852    23.5029    46.5534
         TRA.     0.7864D+27                  1341.3644     4.9680    39.1092
         TOT.                       18.237    4867.9496    28.4710    85.6626

 280.00  VIB.     0.1051D+03                  2931.7608    21.4799    19.7213
         ROT.     0.2530D+06                   834.6267     2.9808    27.7040
         INT.     0.2660D+08                  3766.3875    24.4607    47.4254
         TRA.     0.8304D+27                  1391.0445     4.9680    39.2899
         TOT.                       18.526    5157.4321    29.4287    86.7152

 290.00  VIB.     0.1269D+03                  3151.4230    22.4552    20.4921
         ROT.     0.2667D+06                   864.4348     2.9808    27.8086
         INT.     0.3385D+08                  4015.8578    25.4360    48.3007
         TRA.     0.8753D+27                  1440.7247     4.9680    39.4642
         TOT.                       18.825    5456.5826    30.4040    87.7649

 300.00  VIB.     0.1533D+03                  3380.9116    23.4446    21.2700
         ROT.     0.2806D+06                   894.2429     2.9808    27.9097
         INT.     0.4301D+08                  4275.1546    26.4254    49.1796
         TRA.     0.9210D+27                  1490.4049     4.9680    39.6326
         TOT.                       19.134    5765.5594    31.3934    88.8123

 310.00  VIB.     0.1852D+03                  3620.3513    24.4449    22.0550
         ROT.     0.2947D+06                   924.0510     2.9808    28.0074
         INT.     0.5460D+08                  4544.4023    27.4257    50.0624
         TRA.     0.9674D+27                  1540.0850     4.9680    39.7955
         TOT.                       19.453    6084.4874    32.3937    89.8580

 320.00  VIB.     0.2240D+03                  3869.8341    25.4527    22.8470
         ROT.     0.3091D+06                   953.8591     2.9808    28.1020
         INT.     0.6923D+08                  4823.6932    28.4335    50.9490
         TRA.     0.1015D+28                  1589.7652     4.9680    39.9533
         TOT.                       19.782    6413.4584    33.4015    90.9023

 330.00  VIB.     0.2710D+03                  4129.4210    26.4652    23.6457
         ROT.     0.3237D+06                   983.6672     2.9808    28.1938
         INT.     0.8772D+08                  5113.0882    29.4460    51.8395
         TRA.     0.1063D+28                  1639.4454     4.9680    40.1062
         TOT.                       20.121    6752.5335    34.4140    91.9456

 340.00  VIB.     0.3280D+03                  4399.1439    27.4795    24.4508
         ROT.     0.3385D+06                  1013.4753     2.9808    28.2828
         INT.     0.1111D+09                  5412.6192    30.4603    52.7336
         TRA.     0.1111D+28                  1689.1255     4.9680    40.2545
         TOT.                       20.470    7101.7447    35.4283    92.9880

 350.00  VIB.     0.3974D+03                  4679.0080    28.4930    25.2620
         ROT.     0.3536D+06                  1043.2834     2.9808    28.3692
         INT.     0.1405D+09                  5722.2914    31.4738    53.6312
         TRA.     0.1161D+28                  1738.8057     4.9680    40.3985
         TOT.                       20.830    7461.0971    36.4418    94.0297

 360.00  VIB.     0.4818D+03                  4968.9937    29.5035    26.0789
         ROT.     0.3689D+06                  1073.0915     2.9808    28.4531
         INT.     0.1777D+09                  6042.0852    32.4843    54.5320
         TRA.     0.1211D+28                  1788.4859     4.9680    40.5384
         TOT.                       21.199    7830.5711    37.4523    95.0704

 370.00  VIB.     0.5846D+03                  5269.0597    30.5087    26.9010
         ROT.     0.3843D+06                  1102.8996     2.9808    28.5348
         INT.     0.2247D+09                  6371.9593    33.4895    55.4358
         TRA.     0.1261D+28                  1838.1660     4.9680    40.6745
         TOT.                       21.579    8210.1254    38.4576    96.1103

 380.00  VIB.     0.7098D+03                  5579.1448    31.5070    27.7278
         ROT.     0.4000D+06                  1132.7077     2.9808    28.6143
         INT.     0.2839D+09                  6711.8525    34.4878    56.3421
         TRA.     0.1313D+28                  1887.8462     4.9680    40.8070
         TOT.                       21.968    8599.6987    39.4558    97.1492

 390.00  VIB.     0.8624D+03                  5899.1706    32.4966    28.5591
         ROT.     0.4159D+06                  1162.5158     2.9808    28.6917
         INT.     0.3587D+09                  7061.6864    35.4774    57.2508
         TRA.     0.1365D+28                  1937.5263     4.9680    40.9361
         TOT.                       22.368    8999.2128    40.4454    98.1869

 400.00  VIB.     0.1049D+04                  6229.0437    33.4762    29.3942
         ROT.     0.4320D+06                  1192.3239     2.9808    28.7672
         INT.     0.4530D+09                  7421.3676    36.4570    58.1614
         TRA.     0.1418D+28                  1987.2065     4.9680    41.0619
         TOT.                       22.777    9408.5741    41.4250    99.2232

   *: NOTE: HEATS OF FORMATION ARE RELATIVE TO THE
            ELEMENTS IN THEIR STANDARD STATE AT 298K
              (=  Standard Enthalpy of Formation).

            Hvib:  Zero-point energy is not included.
                   frequencies of less than zero cm-1 are not included.
            Hrot = (3/2)RT
            Htra = (3/2)RT + pV = (5/2)RT

            Heat capacity is Cp, not Cv

          For more information, see: HTTP://OpenMOPAC.net/Manual/thermochemistry.html


           FORCE CONSTANT IN CARTESIAN COORDINATES (Millidynes/A)

    ATOM   CHEMICAL       X               Y               Z
   NUMBER   SYMBOL  FORCE CONSTANT  FORCE CONSTANT  FORCE CONSTANT

      1       C       10.268788        6.623015        9.282277
      2       C        9.898220        6.481237        8.765553
      3       C        4.555554       11.801680        8.754561
      4       C        8.436213        8.414297        8.582745
      5       C        8.273952        8.251365        8.323703
      6       C        7.474040       10.733667        9.371160
      7       C        7.276822       10.865468        9.085056
      8       H        1.712583        0.911770        3.602578
      9       H        1.851159        0.968856        3.818568
     10       H        1.838004        0.984404        3.839948
     11       H        0.527020        2.297067        3.836202
     12       H        0.523951        2.282541        3.837966
     13       H        1.983290        0.877696        3.419142
     14       H        3.766313        1.902298        0.731524
     15       H        1.865014        1.019867        3.910217
     16       H        2.168782        0.939940        3.675804
     17       H        3.993562        2.113092        0.679875
     18       H        3.323733        2.050437        0.801189
     19       H        3.353379        2.021142        0.837667

 **********************
 *                    *
 * JOB ENDED NORMALLY *
 *                    *
 **********************



 TOTAL JOB TIME:             8.59 SECONDS

 == MOPAC DONE ==
