 *******************************************************************************
 ** Site#: 14399        For non-commercial use only    Version 18.184L 64BITS **
 *******************************************************************************
 ** Cite this program as: MOPAC2016, Version: 18.184L, James J. P. Stewart,   **
 ** Stewart Computational Chemistry, web: HTTP://OpenMOPAC.net. Days left:  20**
 *******************************************************************************
 **                                                                           **
 **                                MOPAC2016                                  **
 **                                                                           **
 *******************************************************************************

                              PM3 CALCULATION RESULTS

 *******************************************************************************
 *  CALCULATION DONE:                                Thu Jun 13 16:07:12 2019  *
 *  PM3        - The PM3 Hamiltonian to be used
 *  PRECISE    - CRITERIA TO BE INCREASED BY 100 TIMES
 *  NOSYM      - POINT-GROUP SYMMETRY SET TO C1
 *  THREADS=1  - MULTI-THREADING NOT USED
 *  T=         - A TIME OF 172800.0 SECONDS REQUESTED
 *  DUMP=N     - RESTART FILE WRITTEN EVERY  7200.000 SECONDS
 *******************************************************************************
pm3  precise nosym THREADS=1
 InChI=1S/C10H12/c1-8-6-9-4-2-3-5-10(9)7-8/h2-4,7,10H,5-6H2,1H3

   ATOM   CHEMICAL          X               Y               Z
  NUMBER   SYMBOL      (ANGSTROMS)     (ANGSTROMS)     (ANGSTROMS)
 
     1       C         -0.49110000  *   0.33310000  *   0.79700000  *
     2       C         -1.60390000  *   1.20900000  *   0.19530000  *
     3       C          1.13440000  *  -1.12600000  *  -0.35940000  *
     4       C          3.20460000  *   0.47400000  *   0.00590000  *
     5       C         -0.29870000  *  -0.89830000  *  -0.02880000  *
     6       C          1.75200000  *   0.13920000  *   0.14990000  *
     7       C          0.86840000  *   0.94560000  *   0.74540000  *
     8       C         -2.81670000  *   0.35720000  *  -0.11390000  *
     9       C         -1.32920000  *  -1.52340000  *  -0.60830000  *
    10       C         -2.67460000  *  -0.91710000  *  -0.51570000  *
    11       H         -0.74540000  *   0.05440000  *   1.84300000  *
    12       H         -1.88100000  *   2.01140000  *   0.91180000  *
    13       H         -1.25430000  *   1.68220000  *  -0.74850000  *
    14       H          1.28270000  *  -1.21000000  *  -1.45750000  *
    15       H          1.53290000  *  -2.01370000  *   0.17550000  *
    16       H          3.65940000  *   0.61030000  *   1.00940000  *
    17       H          3.31730000  *   1.41090000  *  -0.57900000  *
    18       H          3.73780000  *  -0.34470000  *  -0.52150000  *
    19       H          1.12480000  *   1.90150000  *   1.19200000  *
    20       H         -3.80470000  *   0.79640000  *  -0.05940000  *
    21       H         -1.17150000  *  -2.39960000  *  -1.22420000  *
    22       H         -3.54310000  *  -1.49240000  *  -0.80910000  *
 


          CARTESIAN COORDINATES 

    NO.       ATOM           X           Y           Z

     1         C         -0.4911      0.3331      0.7970
     2         C         -1.6039      1.2090      0.1953
     3         C          1.1344     -1.1260     -0.3594
     4         C          3.2046      0.4740      0.0059
     5         C         -0.2987     -0.8983     -0.0288
     6         C          1.7520      0.1392      0.1499
     7         C          0.8684      0.9456      0.7454
     8         C         -2.8167      0.3572     -0.1139
     9         C         -1.3292     -1.5234     -0.6083
    10         C         -2.6746     -0.9171     -0.5157
    11         H         -0.7454      0.0544      1.8430
    12         H         -1.8810      2.0114      0.9118
    13         H         -1.2543      1.6822     -0.7485
    14         H          1.2827     -1.2100     -1.4575
    15         H          1.5329     -2.0137      0.1755
    16         H          3.6594      0.6103      1.0094
    17         H          3.3173      1.4109     -0.5790
    18         H          3.7378     -0.3447     -0.5215
    19         H          1.1248      1.9015      1.1920
    20         H         -3.8047      0.7964     -0.0594
    21         H         -1.1715     -2.3996     -1.2242
    22         H         -3.5431     -1.4924     -0.8091

  H: (PM3): J. J. P. STEWART, J. COMP. CHEM. 10, 209 (1989).
  C: (PM3): J. J. P. STEWART, J. COMP. CHEM. 10, 209 (1989).

           Empirical Formula: C10 H12  =    22 atoms



      MOLECULAR POINT GROUP   :   C1  


      RHF CALCULATION, NO. OF DOUBLY OCCUPIED LEVELS = 26


          Geometry optimization using EF

          DIAGONAL MATRIX USED AS START HESSIAN

 CYCLE:     1 TIME:   0.027 TIME LEFT:  2.00D  GRAD.:    80.972 HEAT:  34.59700
 CYCLE:     2 TIME:   0.051 TIME LEFT:  2.00D  GRAD.:    50.268 HEAT:  32.87128
 CYCLE:     3 TIME:   0.031 TIME LEFT:  2.00D  GRAD.:    40.990 HEAT:  32.33516
 CYCLE:     4 TIME:   0.027 TIME LEFT:  2.00D  GRAD.:    22.739 HEAT:  31.84418
 CYCLE:     5 TIME:   0.020 TIME LEFT:  2.00D  GRAD.:    32.797 HEAT:  31.62361
 CYCLE:     6 TIME:   0.031 TIME LEFT:  2.00D  GRAD.:    27.257 HEAT:  31.40715
 CYCLE:     7 TIME:   0.035 TIME LEFT:  2.00D  GRAD.:    17.692 HEAT:  31.25980
 CYCLE:     8 TIME:   0.027 TIME LEFT:  2.00D  GRAD.:    22.955 HEAT:  31.21531
 CYCLE:     9 TIME:   0.023 TIME LEFT:  2.00D  GRAD.:    15.156 HEAT:  31.03667
 CYCLE:    10 TIME:   0.023 TIME LEFT:  2.00D  GRAD.:    23.381 HEAT:  30.99426
 CYCLE:    11 TIME:   0.020 TIME LEFT:  2.00D  GRAD.:    28.484 HEAT:  30.90996
 CYCLE:    12 TIME:   0.023 TIME LEFT:  2.00D  GRAD.:    33.116 HEAT:  30.88265
 CYCLE:    13 TIME:   0.031 TIME LEFT:  2.00D  GRAD.:    17.242 HEAT:  30.71008
 CYCLE:    14 TIME:   0.035 TIME LEFT:  2.00D  GRAD.:     9.410 HEAT:  30.64692
 CYCLE:    15 TIME:   0.027 TIME LEFT:  2.00D  GRAD.:     6.092 HEAT:  30.60268
 CYCLE:    16 TIME:   0.020 TIME LEFT:  2.00D  GRAD.:     7.412 HEAT:  30.56054
 CYCLE:    17 TIME:   0.023 TIME LEFT:  2.00D  GRAD.:     7.745 HEAT:  30.51389
 CYCLE:    18 TIME:   0.023 TIME LEFT:  2.00D  GRAD.:    10.356 HEAT:  30.47269
 CYCLE:    19 TIME:   0.023 TIME LEFT:  2.00D  GRAD.:    11.774 HEAT:  30.45736
 CYCLE:    20 TIME:   0.051 TIME LEFT:  2.00D  GRAD.:     5.449 HEAT:  30.42035
 CYCLE:    21 TIME:   0.023 TIME LEFT:  2.00D  GRAD.:     7.759 HEAT:  30.41947
 CYCLE:    22 TIME:   0.023 TIME LEFT:  2.00D  GRAD.:     4.565 HEAT:  30.39536
 CYCLE:    23 TIME:   0.023 TIME LEFT:  2.00D  GRAD.:     7.397 HEAT:  30.39402
 CYCLE:    24 TIME:   0.027 TIME LEFT:  2.00D  GRAD.:     3.181 HEAT:  30.36710
 CYCLE:    25 TIME:   0.023 TIME LEFT:  2.00D  GRAD.:     4.178 HEAT:  30.35001
 CYCLE:    26 TIME:   0.023 TIME LEFT:  2.00D  GRAD.:     5.292 HEAT:  30.33048
 CYCLE:    27 TIME:   0.023 TIME LEFT:  2.00D  GRAD.:     4.807 HEAT:  30.31228
 CYCLE:    28 TIME:   0.023 TIME LEFT:  2.00D  GRAD.:     3.897 HEAT:  30.29069
 CYCLE:    29 TIME:   0.020 TIME LEFT:  2.00D  GRAD.:     7.033 HEAT:  30.27280
 CYCLE:    30 TIME:   0.023 TIME LEFT:  2.00D  GRAD.:     4.416 HEAT:  30.25105
 CYCLE:    31 TIME:   0.023 TIME LEFT:  2.00D  GRAD.:     6.460 HEAT:  30.24546
 CYCLE:    32 TIME:   0.023 TIME LEFT:  2.00D  GRAD.:     2.875 HEAT:  30.22805
 CYCLE:    33 TIME:   0.023 TIME LEFT:  2.00D  GRAD.:     2.839 HEAT:  30.22133
 CYCLE:    34 TIME:   0.023 TIME LEFT:  2.00D  GRAD.:     1.843 HEAT:  30.21384
 CYCLE:    35 TIME:   0.023 TIME LEFT:  2.00D  GRAD.:     1.428 HEAT:  30.21084
 CYCLE:    36 TIME:   0.020 TIME LEFT:  2.00D  GRAD.:     1.134 HEAT:  30.20945
 CYCLE:    37 TIME:   0.023 TIME LEFT:  2.00D  GRAD.:     0.905 HEAT:  30.20822
 CYCLE:    38 TIME:   0.023 TIME LEFT:  2.00D  GRAD.:     1.487 HEAT:  30.20580
 CYCLE:    39 TIME:   0.023 TIME LEFT:  2.00D  GRAD.:     0.930 HEAT:  30.20445
 CYCLE:    40 TIME:   0.023 TIME LEFT:  2.00D  GRAD.:     0.452 HEAT:  30.20381
 CYCLE:    41 TIME:   0.023 TIME LEFT:  2.00D  GRAD.:     0.431 HEAT:  30.20306
 CYCLE:    42 TIME:   0.023 TIME LEFT:  2.00D  GRAD.:     0.621 HEAT:  30.20198
 CYCLE:    43 TIME:   0.020 TIME LEFT:  2.00D  GRAD.:     0.628 HEAT:  30.20141
 CYCLE:    44 TIME:   0.023 TIME LEFT:  2.00D  GRAD.:     0.537 HEAT:  30.20051
 CYCLE:    45 TIME:   0.023 TIME LEFT:  2.00D  GRAD.:     0.408 HEAT:  30.19971
 CYCLE:    46 TIME:   0.023 TIME LEFT:  2.00D  GRAD.:     0.322 HEAT:  30.19937
 CYCLE:    47 TIME:   0.023 TIME LEFT:  2.00D  GRAD.:     0.289 HEAT:  30.19916
 CYCLE:    48 TIME:   0.023 TIME LEFT:  2.00D  GRAD.:     0.266 HEAT:  30.19893
 CYCLE:    49 TIME:   0.020 TIME LEFT:  2.00D  GRAD.:     0.299 HEAT:  30.19871
 CYCLE:    50 TIME:   0.023 TIME LEFT:  2.00D  GRAD.:     0.260 HEAT:  30.19854
 CYCLE:    51 TIME:   0.023 TIME LEFT:  2.00D  GRAD.:     0.286 HEAT:  30.19833
 CYCLE:    52 TIME:   0.023 TIME LEFT:  2.00D  GRAD.:     0.345 HEAT:  30.19808
 CYCLE:    53 TIME:   0.023 TIME LEFT:  2.00D  GRAD.:     0.401 HEAT:  30.19769
 CYCLE:    54 TIME:   0.023 TIME LEFT:  2.00D  GRAD.:     0.479 HEAT:  30.19717
 CYCLE:    55 TIME:   0.023 TIME LEFT:  2.00D  GRAD.:     0.597 HEAT:  30.19640
 CYCLE:    56 TIME:   0.020 TIME LEFT:  2.00D  GRAD.:     1.125 HEAT:  30.19461
 CYCLE:    57 TIME:   0.023 TIME LEFT:  2.00D  GRAD.:     1.167 HEAT:  30.19277
 CYCLE:    58 TIME:   0.023 TIME LEFT:  2.00D  GRAD.:     2.750 HEAT:  30.18903
 CYCLE:    59 TIME:   0.023 TIME LEFT:  2.00D  GRAD.:     2.417 HEAT:  30.18960
 CYCLE:    60 TIME:   0.023 TIME LEFT:  2.00D  GRAD.:     0.774 HEAT:  30.18400
 CYCLE:    61 TIME:   0.023 TIME LEFT:  2.00D  GRAD.:     1.419 HEAT:  30.18168
 CYCLE:    62 TIME:   0.020 TIME LEFT:  2.00D  GRAD.:     2.336 HEAT:  30.17881
 CYCLE:    63 TIME:   0.023 TIME LEFT:  2.00D  GRAD.:     2.334 HEAT:  30.17072
 CYCLE:    64 TIME:   0.023 TIME LEFT:  2.00D  GRAD.:     1.544 HEAT:  30.16476
 CYCLE:    65 TIME:   0.023 TIME LEFT:  2.00D  GRAD.:     4.004 HEAT:  30.16036
 CYCLE:    66 TIME:   0.023 TIME LEFT:  2.00D  GRAD.:     1.776 HEAT:  30.15020
 CYCLE:    67 TIME:   0.023 TIME LEFT:  2.00D  GRAD.:     1.979 HEAT:  30.14174
 CYCLE:    68 TIME:   0.023 TIME LEFT:  2.00D  GRAD.:     5.129 HEAT:  30.13423
 CYCLE:    69 TIME:   0.020 TIME LEFT:  2.00D  GRAD.:     3.075 HEAT:  30.12511
 CYCLE:    70 TIME:   0.023 TIME LEFT:  2.00D  GRAD.:     1.899 HEAT:  30.11249
 CYCLE:    71 TIME:   0.023 TIME LEFT:  2.00D  GRAD.:     4.429 HEAT:  30.09389
 CYCLE:    72 TIME:   0.023 TIME LEFT:  2.00D  GRAD.:     5.337 HEAT:  30.07059
 CYCLE:    73 TIME:   0.023 TIME LEFT:  2.00D  GRAD.:     4.583 HEAT:  29.99985
 CYCLE:    74 TIME:   0.031 TIME LEFT:  2.00D  GRAD.:     7.230 HEAT:  29.98207
 CYCLE:    75 TIME:   0.023 TIME LEFT:  2.00D  GRAD.:     4.972 HEAT:  29.96866
 CYCLE:    76 TIME:   0.023 TIME LEFT:  2.00D  GRAD.:     3.050 HEAT:  29.94139
 CYCLE:    77 TIME:   0.023 TIME LEFT:  2.00D  GRAD.:     4.435 HEAT:  29.92752
 CYCLE:    78 TIME:   0.023 TIME LEFT:  2.00D  GRAD.:     2.958 HEAT:  29.91305
 CYCLE:    79 TIME:   0.023 TIME LEFT:  2.00D  GRAD.:     3.380 HEAT:  29.90004
 CYCLE:    80 TIME:   0.023 TIME LEFT:  2.00D  GRAD.:     2.189 HEAT:  29.89625
 CYCLE:    81 TIME:   0.020 TIME LEFT:  2.00D  GRAD.:     1.384 HEAT:  29.88915
 CYCLE:    82 TIME:   0.027 TIME LEFT:  2.00D  GRAD.:     2.753 HEAT:  29.87919
 CYCLE:    83 TIME:   0.020 TIME LEFT:  2.00D  GRAD.:     2.815 HEAT:  29.87376
 CYCLE:    84 TIME:   0.023 TIME LEFT:  2.00D  GRAD.:     2.331 HEAT:  29.86709
 CYCLE:    85 TIME:   0.023 TIME LEFT:  2.00D  GRAD.:     1.832 HEAT:  29.86257
 CYCLE:    86 TIME:   0.023 TIME LEFT:  2.00D  GRAD.:     1.965 HEAT:  29.85263
 CYCLE:    87 TIME:   0.023 TIME LEFT:  2.00D  GRAD.:     1.898 HEAT:  29.84540
 CYCLE:    88 TIME:   0.023 TIME LEFT:  2.00D  GRAD.:     3.161 HEAT:  29.84225
 CYCLE:    89 TIME:   0.020 TIME LEFT:  2.00D  GRAD.:     1.450 HEAT:  29.83523
 CYCLE:    90 TIME:   0.023 TIME LEFT:  2.00D  GRAD.:     1.145 HEAT:  29.83056
 CYCLE:    91 TIME:   0.023 TIME LEFT:  2.00D  GRAD.:     3.544 HEAT:  29.82005
 CYCLE:    92 TIME:   0.023 TIME LEFT:  2.00D  GRAD.:     2.027 HEAT:  29.81489
 CYCLE:    93 TIME:   0.023 TIME LEFT:  2.00D  GRAD.:     0.987 HEAT:  29.80547
 CYCLE:    94 TIME:   0.023 TIME LEFT:  2.00D  GRAD.:     1.203 HEAT:  29.79884
 CYCLE:    95 TIME:   0.023 TIME LEFT:  2.00D  GRAD.:     2.401 HEAT:  29.79393
 CYCLE:    96 TIME:   0.020 TIME LEFT:  2.00D  GRAD.:     1.519 HEAT:  29.78999
 CYCLE:    97 TIME:   0.023 TIME LEFT:  2.00D  GRAD.:     1.186 HEAT:  29.78140
 CYCLE:    98 TIME:   0.023 TIME LEFT:  2.00D  GRAD.:     3.561 HEAT:  29.77045
 CYCLE:    99 TIME:   0.023 TIME LEFT:  2.00D  GRAD.:     1.991 HEAT:  29.76640
 CYCLE:   100 TIME:   0.023 TIME LEFT:  2.00D  GRAD.:     1.274 HEAT:  29.76097
 CYCLE:   101 TIME:   0.023 TIME LEFT:  2.00D  GRAD.:     1.791 HEAT:  29.75743
 CYCLE:   102 TIME:   0.020 TIME LEFT:  2.00D  GRAD.:     1.182 HEAT:  29.75499
 CYCLE:   103 TIME:   0.023 TIME LEFT:  2.00D  GRAD.:     0.868 HEAT:  29.75302
 CYCLE:   104 TIME:   0.023 TIME LEFT:  2.00D  GRAD.:     0.808 HEAT:  29.75156
 CYCLE:   105 TIME:   0.023 TIME LEFT:  2.00D  GRAD.:     0.696 HEAT:  29.75002
 CYCLE:   106 TIME:   0.023 TIME LEFT:  2.00D  GRAD.:     0.713 HEAT:  29.74865
 CYCLE:   107 TIME:   0.023 TIME LEFT:  2.00D  GRAD.:     0.576 HEAT:  29.74814
 CYCLE:   108 TIME:   0.023 TIME LEFT:  2.00D  GRAD.:     0.689 HEAT:  29.74801
 CYCLE:   109 TIME:   0.023 TIME LEFT:  2.00D  GRAD.:     0.220 HEAT:  29.74763
 CYCLE:   110 TIME:   0.020 TIME LEFT:  2.00D  GRAD.:     0.187 HEAT:  29.74753
 CYCLE:   111 TIME:   0.023 TIME LEFT:  2.00D  GRAD.:     0.190 HEAT:  29.74744
 CYCLE:   112 TIME:   0.023 TIME LEFT:  2.00D  GRAD.:     0.135 HEAT:  29.74741
 CYCLE:   113 TIME:   0.023 TIME LEFT:  2.00D  GRAD.:     0.060 HEAT:  29.74741
 CYCLE:   114 TIME:   0.125 TIME LEFT:  2.00D  GRAD.:     0.045 HEAT:  29.74740

     GRADIENT =  0.04486  IS LESS THAN CUTOFF =  0.05000



 -------------------------------------------------------------------------------
 pm3  precise nosym THREADS=1
 InChI=1S/C10H12/c1-8-6-9-4-2-3-5-10(9)7-8/h2-4,7,10H,5-6H2,1H3



     GEOMETRY OPTIMISED USING EIGENVECTOR FOLLOWING (EF).     
     SCF FIELD WAS ACHIEVED                                   


                              PM3 CALCULATION
                                                       MOPAC2016 (Version: 18.184L)
                                                       Thu Jun 13 16:07:15 2019
                                                       No. of days remaining =  20




          FINAL HEAT OF FORMATION =         29.74740 KCAL/MOL =     124.46311 KJ/MOL


          TOTAL ENERGY            =      -1369.10633 EV
          ELECTRONIC ENERGY       =      -7499.31277 EV  POINT GROUP:     C1  
          CORE-CORE REPULSION     =       6130.20643 EV
          COSMO AREA              =        178.67 SQUARE ANGSTROMS
          COSMO VOLUME            =        180.38 CUBIC ANGSTROMS

          GRADIENT NORM           =          0.04486 = 0.00956 PER ATOM
          IONIZATION POTENTIAL    =          8.773306 EV
          HOMO LUMO ENERGIES (EV) =         -8.773  0.277
          NO. OF FILLED LEVELS    =         26
          MOLECULAR WEIGHT        =        132.2048

          MOLECULAR DIMENSIONS (Angstroms)

            Atom       Atom       Distance
            H    20    H    16     7.72576
            H    21    H    19     5.19744
            H    18    H    11     3.25842


          SCF CALCULATIONS        =        125
 
          WALL-CLOCK TIME         =          2.898 SECONDS
          COMPUTATION TIME        =          1.218 SECONDS




   ATOM   CHEMICAL          X               Y               Z
  NUMBER   SYMBOL      (ANGSTROMS)     (ANGSTROMS)     (ANGSTROMS)
 
     1       C         -0.49251525  *   0.38199390  *   0.73119714  *
     2       C         -1.65367144  *   1.21039478  *   0.20089705  *
     3       C          1.16203450  *  -1.13672068  *  -0.23903490  *
     4       C          3.22083424  *   0.42705631  *  -0.00867322  *
     5       C         -0.30376475  *  -0.88264296  *  -0.07424381  *
     6       C          1.77941864  *   0.17951143  *   0.16545006  *
     7       C          0.86419904  *   1.02618895  *   0.66890485  *
     8       C         -2.81793693  *   0.33717909  *  -0.13308071  *
     9       C         -1.34027150  *  -1.52966150  *  -0.61960412  *
    10       C         -2.66746489  *  -0.94540418  *  -0.49614050  *
    11       H         -0.70023962  *   0.10045165  *   1.79365548  *
    12       H         -1.94531095  *   1.97271145  *   0.94857639  *
    13       H         -1.36074188  *   1.77394891  *  -0.70788422  *
    14       H          1.42485728  *  -1.41176904  *  -1.27713661  *
    15       H          1.51391070  *  -1.96195885  *   0.40848450  *
    16       H          3.81049390  *  -0.28559733  *   0.58373357  *
    17       H          3.50370403  *   1.44018251  *   0.30418187  *
    18       H          3.51140641  *   0.30511361  *  -1.06090963  *
    19       H          1.03482805  *   2.04307564  *   1.02014141  *
    20       H         -3.80850006  *   0.80140191  *  -0.09206843  *
    21       H         -1.22304325  *  -2.45138539  *  -1.19635700  *
    22       H         -3.52600913  *  -1.57698344  *  -0.74430596  *

                             CARTESIAN COORDINATES

   1    C       -0.492515250     0.381993897     0.731197136
   2    C       -1.653671436     1.210394783     0.200897049
   3    C        1.162034497    -1.136720675    -0.239034901
   4    C        3.220834241     0.427056309    -0.008673218
   5    C       -0.303764747    -0.882642957    -0.074243812
   6    C        1.779418638     0.179511428     0.165450063
   7    C        0.864199041     1.026188951     0.668904846
   8    C       -2.817936931     0.337179085    -0.133080706
   9    C       -1.340271501    -1.529661501    -0.619604122
  10    C       -2.667464892    -0.945404184    -0.496140501
  11    H       -0.700239615     0.100451646     1.793655485
  12    H       -1.945310947     1.972711450     0.948576389
  13    H       -1.360741879     1.773948912    -0.707884216
  14    H        1.424857279    -1.411769044    -1.277136614
  15    H        1.513910697    -1.961958854     0.408484502
  16    H        3.810493899    -0.285597332     0.583733568
  17    H        3.503704035     1.440182512     0.304181868
  18    H        3.511406407     0.305113607    -1.060909631
  19    H        1.034828054     2.043075636     1.020141410
  20    H       -3.808500061     0.801401911    -0.092068430
  21    H       -1.223043253    -2.451385388    -1.196357001
  22    H       -3.526009126    -1.576983440    -0.744305956


           Empirical Formula: C10 H12  =    22 atoms



      MOLECULAR POINT GROUP   :   C1  


                  EIGENVALUES  
 -41.75131 -35.86930 -31.01938 -30.21291 -25.91313 -25.23894 -21.40935 -20.03072
 -18.65844 -17.20516 -16.96711 -15.76097 -15.63270 -14.93375 -14.57454 -14.29743
 -13.78032 -13.61796 -13.35079 -12.92418 -12.43431 -12.21468 -11.72059 -11.16113
  -9.62656  -8.77331   0.27676   0.95529   2.03344   3.15471   3.27999   3.36040
   3.61203   3.71551   3.80792   3.83344   3.92964   4.11989   4.20696   4.30145
   4.34239   4.39396   4.53129   4.60287   4.75550   4.82427   5.04933   5.53581
   5.60893   5.90994   6.11979   6.25670


              NET ATOMIC CHARGES AND DIPOLE CONTRIBUTIONS

  ATOM NO.   TYPE          CHARGE      No. of ELECS.   s-Pop       p-Pop       
    1          C          -0.009598        4.0096     1.15706     2.85254
    2          C          -0.049472        4.0495     1.14505     2.90442
    3          C          -0.007209        4.0072     1.13656     2.87065
    4          C          -0.051938        4.0519     1.11766     2.93428
    5          C          -0.118576        4.1186     1.20927     2.90931
    6          C          -0.132552        4.1326     1.20590     2.92665
    7          C          -0.152996        4.1530     1.20135     2.95164
    8          C          -0.140397        4.1404     1.19798     2.94242
    9          C          -0.111168        4.1112     1.17325     2.93792
   10          C          -0.108041        4.1080     1.17929     2.92875
   11          H           0.077290        0.9227     0.92271
   12          H           0.054676        0.9453     0.94532
   13          H           0.062136        0.9379     0.93786
   14          H           0.063922        0.9361     0.93608
   15          H           0.065663        0.9343     0.93434
   16          H           0.045304        0.9547     0.95470
   17          H           0.043141        0.9569     0.95686
   18          H           0.045909        0.9541     0.95409
   19          H           0.117128        0.8829     0.88287
   20          H           0.098537        0.9015     0.90146
   21          H           0.107270        0.8927     0.89273
   22          H           0.100970        0.8990     0.89903
 DIPOLE           X         Y         Z       TOTAL
 POINT-CHG.     0.484     0.179     0.002     0.516
 HYBRID        -0.018    -0.023    -0.001     0.029
 SUM            0.466     0.156     0.001     0.492


          ATOMIC ORBITAL ELECTRON POPULATIONS

     Atom    s        px        py        pz   
    1  C   1.15706   0.93293   0.93260   0.98701
    2  C   1.14505   0.93586   0.96300   1.00555
    3  C   1.13656   0.91521   0.95116   1.00427
    4  C   1.11766   0.92270   1.00641   1.00517
    5  C   1.20927   0.95354   0.96720   0.98857
    6  C   1.20590   0.95956   0.96444   1.00265
    7  C   1.20135   0.94938   0.98414   1.01812
    8  C   1.19798   0.98021   0.96097   1.00124
    9  C   1.17325   0.93392   0.99306   1.01094
   10  C   1.17929   0.96063   0.95983   1.00829
   11  H   0.92271
   12  H   0.94532
   13  H   0.93786
   14  H   0.93608
   15  H   0.93434
   16  H   0.95470
   17  H   0.95686
   18  H   0.95409
   19  H   0.88287
   20  H   0.90146
   21  H   0.89273
   22  H   0.89903
 *******************************************************************************
 ** Site#: 14399        For non-commercial use only    Version 18.184L 64BITS **
 *******************************************************************************
 ** Cite this program as: MOPAC2016, Version: 18.184L, James J. P. Stewart,   **
 ** Stewart Computational Chemistry, web: HTTP://OpenMOPAC.net. Days left:  20**
 *******************************************************************************
 **                                                                           **
 **                                MOPAC2016                                  **
 **                                                                           **
 *******************************************************************************

                              PM3 CALCULATION RESULTS

 *******************************************************************************
 *  CALCULATION DONE:                                Thu Jun 13 16:07:15 2019  *
 *  PM3        - The PM3 Hamiltonian to be used
 *  OLDGEO     - PREVIOUS GEOMETRY TO BE USED
 *  PRECISE    - CRITERIA TO BE INCREASED BY 100 TIMES
 *  NOSYM      - POINT-GROUP SYMMETRY SET TO C1
 *  THREADS=1  - MULTI-THREADING NOT USED
 *  T=         - A TIME OF 172800.0 SECONDS REQUESTED
 *  DUMP=N     - RESTART FILE WRITTEN EVERY  7200.000 SECONDS
 *  THERMO     - THERMODYNAMIC QUANTITIES TO BE CALCULATED
 *******************************************************************************
oldgeo thermo nosym precise THREADS=1  pm3
 InChI=1S/C10H12/c1-8-6-9-4-2-3-5-10(9)7-8/h2-4,7,10H,5-6H2,1H3

   ATOM   CHEMICAL          X               Y               Z
  NUMBER   SYMBOL      (ANGSTROMS)     (ANGSTROMS)     (ANGSTROMS)
 
     1       C         -0.49251525  *   0.38199390  *   0.73119714  *
     2       C         -1.65367144  *   1.21039478  *   0.20089705  *
     3       C          1.16203450  *  -1.13672068  *  -0.23903490  *
     4       C          3.22083424  *   0.42705631  *  -0.00867322  *
     5       C         -0.30376475  *  -0.88264296  *  -0.07424381  *
     6       C          1.77941864  *   0.17951143  *   0.16545006  *
     7       C          0.86419904  *   1.02618895  *   0.66890485  *
     8       C         -2.81793693  *   0.33717909  *  -0.13308071  *
     9       C         -1.34027150  *  -1.52966150  *  -0.61960412  *
    10       C         -2.66746489  *  -0.94540418  *  -0.49614050  *
    11       H         -0.70023962  *   0.10045165  *   1.79365548  *
    12       H         -1.94531095  *   1.97271145  *   0.94857639  *
    13       H         -1.36074188  *   1.77394891  *  -0.70788422  *
    14       H          1.42485728  *  -1.41176904  *  -1.27713661  *
    15       H          1.51391070  *  -1.96195885  *   0.40848450  *
    16       H          3.81049390  *  -0.28559733  *   0.58373357  *
    17       H          3.50370403  *   1.44018251  *   0.30418187  *
    18       H          3.51140641  *   0.30511361  *  -1.06090963  *
    19       H          1.03482805  *   2.04307564  *   1.02014141  *
    20       H         -3.80850006  *   0.80140191  *  -0.09206843  *
    21       H         -1.22304325  *  -2.45138539  *  -1.19635700  *
    22       H         -3.52600913  *  -1.57698344  *  -0.74430596  *
 


          CARTESIAN COORDINATES 

    NO.       ATOM           X           Y           Z

     1         C         -0.4925      0.3820      0.7312
     2         C         -1.6537      1.2104      0.2009
     3         C          1.1620     -1.1367     -0.2390
     4         C          3.2208      0.4271     -0.0087
     5         C         -0.3038     -0.8826     -0.0742
     6         C          1.7794      0.1795      0.1655
     7         C          0.8642      1.0262      0.6689
     8         C         -2.8179      0.3372     -0.1331
     9         C         -1.3403     -1.5297     -0.6196
    10         C         -2.6675     -0.9454     -0.4961
    11         H         -0.7002      0.1005      1.7937
    12         H         -1.9453      1.9727      0.9486
    13         H         -1.3607      1.7739     -0.7079
    14         H          1.4249     -1.4118     -1.2771
    15         H          1.5139     -1.9620      0.4085
    16         H          3.8105     -0.2856      0.5837
    17         H          3.5037      1.4402      0.3042
    18         H          3.5114      0.3051     -1.0609
    19         H          1.0348      2.0431      1.0201
    20         H         -3.8085      0.8014     -0.0921
    21         H         -1.2230     -2.4514     -1.1964
    22         H         -3.5260     -1.5770     -0.7443

  H: (PM3): J. J. P. STEWART, J. COMP. CHEM. 10, 209 (1989).
  C: (PM3): J. J. P. STEWART, J. COMP. CHEM. 10, 209 (1989).

           Empirical Formula: C10 H12  =    22 atoms



      MOLECULAR POINT GROUP   :   C1  


      RHF CALCULATION, NO. OF DOUBLY OCCUPIED LEVELS = 26



          HEAT OF FORMATION =      29.747398 KCALS/MOLE


          CARTESIAN COORDINATE DERIVATIVES

   NUMBER  ATOM         X            Y            Z

     1       C     -0.003164    -0.000082    -0.001286
     2       C     -0.005899     0.000548    -0.000460
     3       C      0.001877    -0.001991    -0.002058
     4       C      0.008164     0.008025     0.007070
     5       C     -0.000161    -0.006796     0.000049
     6       C      0.000647    -0.002599    -0.001865
     7       C      0.001256    -0.003669     0.000925
     8       C     -0.002057     0.000117    -0.004167
     9       C      0.004914     0.000362     0.001611
    10       C     -0.007789     0.005265     0.002218
    11       H     -0.002347    -0.000318     0.004597
    12       H     -0.007437     0.000561    -0.007104
    13       H      0.000314    -0.000703     0.000329
    14       H      0.009263    -0.000670     0.003739
    15       H      0.003500    -0.005726    -0.000216
    16       H     -0.012685    -0.011630    -0.001170
    17       H     -0.004330    -0.000230    -0.008801
    18       H      0.006527     0.016714     0.010568
    19       H      0.016510    -0.006689     0.008441
    20       H     -0.006667     0.003166    -0.002092
    21       H     -0.006956     0.002711    -0.007552
    22       H      0.006520     0.003635    -0.002776
 


          GRADIENT NORM =   0.04674


          TIME FOR SCF CALCULATION =    0.06

          TIME FOR DERIVATIVES     =    0.02

          MOLECULAR WEIGHT =  132.20



          ROTATIONAL CONSTANTS IN CM(-1)

          A =    0.10957289   B =    0.03224506   C =    0.02605087



           PRINCIPAL MOMENTS OF INERTIA IN UNITS OF 10**(-40)*GRAM-CM**2

          A =      255.4717   B =      868.1260   C =     1074.5429


          ORIENTATION OF MOLECULE IN FORCE CALCULATION

    NO.       ATOM         X         Y         Z

     1          C       0.2352   -0.8695   -0.0586
     2          C       1.7569   -0.8695   -0.0586
     3          C      -1.5160    0.8390   -0.0586
     4          C      -2.3159    0.4920   -2.5033
     5          C      -0.3166    0.3293    0.6777
     6          C      -1.4115    0.1442   -1.3941
     7          C      -0.4277   -0.7723   -1.4042
     8          C       2.2863   -0.4885    1.2846
     9          C       0.3121    0.8547    1.7355
    10          C       1.5998    0.2998    2.1252
    11          H      -0.1298   -1.7979    0.4475
    12          H       2.1339   -1.8678   -0.3527
    13          H       2.1569   -0.1608   -0.8116
    14          H      -1.5045    1.9393   -0.1661
    15          H      -2.4593    0.5787    0.4576
    16          H      -3.3602    0.2897   -2.2295
    17          H      -2.0892   -0.0800   -3.4121
    18          H      -2.2373    1.5599   -2.7482
    19          H      -0.1267   -1.4020   -2.2406
    20          H       3.2806   -0.8647    1.5460
    21          H      -0.0781    1.7152    2.2862
    22          H       1.9976    0.5784    3.1059


    FIRST DERIVATIVES WILL BE USED IN THE CALCULATION OF SECOND DERIVATIVES

          ESTIMATED TIME TO COMPLETE CALCULATION =       20.62 SECONDS

    FOR POINT-GROUP C1   THERE ARE   1 UNIQUE SYMMETRY FUNCTIONS.

 STEP:   1 TIME =     0.05 SECS, INTEGRAL =      0.05 TIME LEFT: 172799.87
 STEP:   2 TIME =     0.05 SECS, INTEGRAL =      0.11 TIME LEFT: 172799.82
 STEP:   3 TIME =     0.05 SECS, INTEGRAL =      0.16 TIME LEFT: 172799.77
 STEP:   4 TIME =     0.05 SECS, INTEGRAL =      0.21 TIME LEFT: 172799.71
 STEP:   5 TIME =     0.05 SECS, INTEGRAL =      0.26 TIME LEFT: 172799.66
 STEP:   6 TIME =     0.05 SECS, INTEGRAL =      0.31 TIME LEFT: 172799.61
 STEP:   7 TIME =     0.05 SECS, INTEGRAL =      0.37 TIME LEFT: 172799.55
 STEP:   8 TIME =     0.05 SECS, INTEGRAL =      0.42 TIME LEFT: 172799.50
 STEP:   9 TIME =     0.05 SECS, INTEGRAL =      0.47 TIME LEFT: 172799.45
 STEP:  10 TIME =     0.05 SECS, INTEGRAL =      0.52 TIME LEFT: 172799.40
 STEP:  11 TIME =     0.05 SECS, INTEGRAL =      0.57 TIME LEFT: 172799.35
 STEP:  12 TIME =     0.05 SECS, INTEGRAL =      0.62 TIME LEFT: 172799.30
 STEP:  13 TIME =     0.05 SECS, INTEGRAL =      0.68 TIME LEFT: 172799.25
 STEP:  14 TIME =     0.05 SECS, INTEGRAL =      0.73 TIME LEFT: 172799.20
 STEP:  15 TIME =     0.05 SECS, INTEGRAL =      0.78 TIME LEFT: 172799.14
 STEP:  16 TIME =     0.05 SECS, INTEGRAL =      0.83 TIME LEFT: 172799.09
 STEP:  17 TIME =     0.05 SECS, INTEGRAL =      0.88 TIME LEFT: 172799.04
 STEP:  18 TIME =     0.05 SECS, INTEGRAL =      0.93 TIME LEFT: 172798.99
 STEP:  19 TIME =     0.05 SECS, INTEGRAL =      0.98 TIME LEFT: 172798.94
 STEP:  20 TIME =     0.05 SECS, INTEGRAL =      1.03 TIME LEFT: 172798.89
 STEP:  21 TIME =     0.05 SECS, INTEGRAL =      1.08 TIME LEFT: 172798.84
 STEP:  22 TIME =     0.05 SECS, INTEGRAL =      1.13 TIME LEFT: 172798.79
 STEP:  23 TIME =     0.05 SECS, INTEGRAL =      1.18 TIME LEFT: 172798.74
 STEP:  24 TIME =     0.05 SECS, INTEGRAL =      1.23 TIME LEFT: 172798.69
 STEP:  25 TIME =     0.05 SECS, INTEGRAL =      1.29 TIME LEFT: 172798.64
 STEP:  26 TIME =     0.05 SECS, INTEGRAL =      1.34 TIME LEFT: 172798.59
 STEP:  27 TIME =     0.05 SECS, INTEGRAL =      1.39 TIME LEFT: 172798.53
 STEP:  28 TIME =     0.05 SECS, INTEGRAL =      1.44 TIME LEFT: 172798.48
 STEP:  29 TIME =     0.05 SECS, INTEGRAL =      1.49 TIME LEFT: 172798.43
 STEP:  30 TIME =     0.05 SECS, INTEGRAL =      1.54 TIME LEFT: 172798.38
 STEP:  31 TIME =     0.05 SECS, INTEGRAL =      1.59 TIME LEFT: 172798.33
 STEP:  32 TIME =     0.05 SECS, INTEGRAL =      1.64 TIME LEFT: 172798.28
 STEP:  33 TIME =     0.05 SECS, INTEGRAL =      1.70 TIME LEFT: 172798.22
 STEP:  34 TIME =     0.05 SECS, INTEGRAL =      1.75 TIME LEFT: 172798.17
 STEP:  35 TIME =     0.05 SECS, INTEGRAL =      1.80 TIME LEFT: 172798.12
 STEP:  36 TIME =     0.05 SECS, INTEGRAL =      1.86 TIME LEFT: 172798.07
 STEP:  37 TIME =     0.05 SECS, INTEGRAL =      1.91 TIME LEFT: 172798.02
 STEP:  38 TIME =     0.05 SECS, INTEGRAL =      1.96 TIME LEFT: 172797.96
 STEP:  39 TIME =     0.05 SECS, INTEGRAL =      2.01 TIME LEFT: 172797.91
 STEP:  40 TIME =     0.05 SECS, INTEGRAL =      2.06 TIME LEFT: 172797.86
 STEP:  41 TIME =     0.05 SECS, INTEGRAL =      2.11 TIME LEFT: 172797.81
 STEP:  42 TIME =     0.05 SECS, INTEGRAL =      2.16 TIME LEFT: 172797.76
 STEP:  43 TIME =     0.05 SECS, INTEGRAL =      2.21 TIME LEFT: 172797.71
 STEP:  44 TIME =     0.05 SECS, INTEGRAL =      2.27 TIME LEFT: 172797.65
 STEP:  45 TIME =     0.05 SECS, INTEGRAL =      2.32 TIME LEFT: 172797.60
 STEP:  46 TIME =     0.05 SECS, INTEGRAL =      2.37 TIME LEFT: 172797.55
 STEP:  47 TIME =     0.05 SECS, INTEGRAL =      2.42 TIME LEFT: 172797.50
 STEP:  48 TIME =     0.05 SECS, INTEGRAL =      2.48 TIME LEFT: 172797.45
 STEP:  49 TIME =     0.05 SECS, INTEGRAL =      2.53 TIME LEFT: 172797.39
 STEP:  50 TIME =     0.05 SECS, INTEGRAL =      2.59 TIME LEFT: 172797.34
 STEP:  51 TIME =     0.05 SECS, INTEGRAL =      2.63 TIME LEFT: 172797.29
 STEP:  52 TIME =     0.05 SECS, INTEGRAL =      2.68 TIME LEFT: 172797.24
 STEP:  53 TIME =     0.05 SECS, INTEGRAL =      2.73 TIME LEFT: 172797.19
 STEP:  54 TIME =     0.05 SECS, INTEGRAL =      2.79 TIME LEFT: 172797.13
 STEP:  55 TIME =     0.05 SECS, INTEGRAL =      2.84 TIME LEFT: 172797.08
 STEP:  56 TIME =     0.05 SECS, INTEGRAL =      2.90 TIME LEFT: 172797.02
 STEP:  57 TIME =     0.05 SECS, INTEGRAL =      2.95 TIME LEFT: 172796.97
 STEP:  58 TIME =     0.05 SECS, INTEGRAL =      3.00 TIME LEFT: 172796.92
 STEP:  59 TIME =     0.05 SECS, INTEGRAL =      3.05 TIME LEFT: 172796.87
 STEP:  60 TIME =     0.05 SECS, INTEGRAL =      3.11 TIME LEFT: 172796.81
 STEP:  61 TIME =     0.05 SECS, INTEGRAL =      3.16 TIME LEFT: 172796.76
 STEP:  62 TIME =     0.05 SECS, INTEGRAL =      3.21 TIME LEFT: 172796.71
 STEP:  63 TIME =     0.05 SECS, INTEGRAL =      3.26 TIME LEFT: 172796.66
 STEP:  64 TIME =     0.05 SECS, INTEGRAL =      3.31 TIME LEFT: 172796.61
 STEP:  65 TIME =     0.05 SECS, INTEGRAL =      3.36 TIME LEFT: 172796.56
 STEP:  66 TIME =     0.05 SECS, INTEGRAL =      3.41 TIME LEFT: 172796.51

(To convert to Hartree/Bohr^2, multiply by (10^(-21) x N x a0^2)/(4.184 x 627.51) =  0.0642)


           FORCE MATRIX IN MILLIDYNES/ANGSTROM


                  C  1       C  2       C  3       C  4       C  5       C  6
 ------------------------------------------------------------------------------
     C    1  15.124184
     C    2   4.096772  14.644779
     C    3   0.747783   0.044981  14.879424
     C    4   0.125252   0.016558   0.506433  14.859982
     C    5   4.154715   0.644080   4.608309   0.049955  19.071123
     C    6   1.176179   0.041762   4.256995   5.453429   1.056654  18.745098
     C    7   4.439021   0.558475   1.113074   0.717453   1.024411  10.128937
     C    8   0.703572   4.771756   0.015064   0.003073   0.153553   0.007610
     C    9   0.770566   0.112489   0.641081   0.009262  10.232344   0.049962
     C   10   0.119572   0.832425   0.132484   0.001720   1.184211   0.010612
     H   11   4.157757   0.433165   0.019526   0.016982   0.402486   0.033497
     H   12   0.439557   4.489201   0.007352   0.000707   0.048309   0.001202
     H   13   0.452593   4.420906   0.004086   0.000779   0.016387   0.002932
     H   14   0.037119   0.003374   4.511224   0.013015   0.442071   0.440955
     H   15   0.023160   0.003678   4.474243   0.009904   0.428393   0.436474
     H   16   0.017246   0.001726   0.012737   4.701643   0.002324   0.449735
     H   17   0.002917   0.000833   0.042010   4.751842   0.007793   0.471280
     H   18   0.016529   0.002975   0.015271   4.705665   0.002468   0.450636
     H   19   0.409482   0.007688   0.105147   0.054468   0.041755   0.458720
     H   20   0.043434   0.425484   0.008185   0.000770   0.015325   0.001754
     H   21   0.109741   0.009077   0.064262   0.001324   0.461502   0.003091
     H   22   0.004993   0.117667   0.008751   0.000622   0.047542   0.001564


                  C  7       C  8       C  9       C 10       H 11       H 12
 ------------------------------------------------------------------------------
     C    7  18.195293
     C    8   0.050866  17.824925
     C    9   0.052261   1.105175  18.407639
     C   10   0.008646  10.179619   5.508058  18.238003
     H   11   0.397497   0.013278   0.027623   0.016635   4.617482
     H   12   0.010361   0.440397   0.009610   0.047572   0.035366   5.083644
     H   13   0.018386   0.410298   0.018528   0.032993   0.044708   0.567442
     H   14   0.037276   0.001526   0.017510   0.011280   0.001515   0.001077
     H   15   0.033089   0.001944   0.023050   0.015941   0.001744   0.000275
     H   16   0.030561   0.000566   0.000938   0.000439   0.002794   0.000129
     H   17   0.026921   0.000506   0.001944   0.000791   0.000500   0.000165
     H   18   0.032960   0.000751   0.000955   0.000515   0.002106   0.000131
     H   19   5.029405   0.002055   0.006411   0.001467   0.010035   0.002939
     H   20   0.008220   4.857765   0.119744   0.442716   0.003846   0.034979
     H   21   0.010124   0.046105   4.889889   0.433673   0.013529   0.001197
     H   22   0.001241   0.444985   0.430418   4.868926   0.000688   0.011773


                  H 13       H 14       H 15       H 16       H 17       H 18
 ------------------------------------------------------------------------------
     H   13   5.022243
     H   14   0.000619   5.110141
     H   15   0.000406   0.552382   5.076787
     H   16   0.000111   0.001053   0.004000   5.411595
     H   17   0.000166   0.001456   0.001215   0.558310   5.455755
     H   18   0.000226   0.007629   0.001221   0.571848   0.555719   5.413402
     H   19   0.003006   0.013370   0.014508   0.006773   0.012528   0.006649
     H   20   0.014452   0.000778   0.000979   0.000138   0.000143   0.000237
     H   21   0.000734   0.008000   0.008753   0.000241   0.000292   0.000289
     H   22   0.016065   0.000870   0.000976   0.000174   0.000115   0.000121


                  H 19       H 20       H 21       H 22
 ------------------------------------------------------
     H   19   5.428832
     H   20   0.000667   5.231958
     H   21   0.001524   0.007824   5.263582
     H   22   0.000304   0.064116   0.027609   5.237445


          HEAT OF FORMATION =      29.747398 KCALS/MOLE

          ZERO POINT ENERGY     119.088 KCAL/MOL


           NORMAL COORDINATE ANALYSIS (Total motion = 1 Angstrom)


   Root No.       1         2         3         4         5         6         7         8

                 1 A       2 A       3 A       4 A       5 A       6 A       7 A       8 A   

                 107.7     127.6     161.0     215.9     267.2     354.7     413.6     451.4
  
           1   -0.0114    0.0048    0.0093   -0.0041    0.0114    0.0195   -0.0104   -0.0018
           2   -0.0193    0.0035    0.0093   -0.0065   -0.0222    0.0333    0.0086   -0.0228
           3    0.0109   -0.0018   -0.0166   -0.0024   -0.0108   -0.0115    0.0266   -0.0030
           4   -0.0109    0.0049    0.0087   -0.0038    0.0139    0.0212   -0.0158    0.0064
           5   -0.0202    0.0227   -0.0335   -0.0309    0.0069   -0.0169   -0.0029   -0.0030
           6    0.0033   -0.0091    0.0220    0.0101    0.0093    0.0029   -0.0118    0.0051
           7   -0.0253    0.0079   -0.0130    0.0226    0.0222   -0.0125   -0.0066    0.0015
           8   -0.0352    0.0085   -0.0184    0.0248   -0.0079   -0.0060   -0.0110    0.0052
           9    0.0208   -0.0063    0.0066   -0.0135   -0.0180   -0.0021   -0.0169    0.0155
          10    0.0394   -0.0028   -0.0301   -0.0132   -0.0218    0.0002   -0.0013    0.0023
          11    0.0416   -0.0059   -0.0060   -0.0058    0.0468    0.0122    0.0054   -0.0056
          12   -0.0112    0.0005    0.0145    0.0058    0.0357   -0.0102    0.0248   -0.0040
          13   -0.0135    0.0011    0.0064   -0.0058    0.0099    0.0222   -0.0064    0.0022
          14   -0.0209    0.0013    0.0030   -0.0140   -0.0189    0.0410    0.0276   -0.0203
          15    0.0120   -0.0007   -0.0099    0.0057   -0.0174   -0.0242    0.0023   -0.0054
          16    0.0006   -0.0014    0.0005    0.0106    0.0052   -0.0314    0.0418   -0.0056
          17   -0.0033   -0.0046    0.0082    0.0128   -0.0215   -0.0258   -0.0024    0.0192
          18    0.0062   -0.0001   -0.0060   -0.0075   -0.0086    0.0055   -0.0180    0.0108
          19   -0.0031   -0.0049    0.0278    0.0053   -0.0073   -0.0209    0.0306   -0.0117
          20   -0.0073   -0.0082    0.0371    0.0071   -0.0361   -0.0158   -0.0120    0.0107
          21    0.0067    0.0026   -0.0254   -0.0068   -0.0093    0.0048    0.0080    0.0017
          22    0.0075    0.0001   -0.0048    0.0134   -0.0069    0.0129   -0.0020    0.0142
          23    0.0229    0.0019   -0.0155    0.0381    0.0107    0.0109    0.0083    0.0379
          24   -0.0171   -0.0008    0.0221   -0.0171    0.0200   -0.0002   -0.0260   -0.0068
          25   -0.0033   -0.0047    0.0052   -0.0258   -0.0083   -0.0038   -0.0020    0.0166
          26    0.0030   -0.0090    0.0133   -0.0348    0.0055   -0.0054    0.0154    0.0171
          27   -0.0061    0.0080   -0.0148    0.0279   -0.0198    0.0142    0.0052   -0.0362
          28    0.0132   -0.0066    0.0002    0.0006   -0.0145   -0.0078   -0.0151   -0.0268
          29    0.0321   -0.0138    0.0130    0.0100    0.0170   -0.0188   -0.0269   -0.0337
          30   -0.0214    0.0086   -0.0011   -0.0014    0.0079    0.0113   -0.0033    0.0254
          31   -0.0131    0.0189   -0.0236   -0.0214    0.0250    0.0091   -0.0196    0.0046
          32   -0.0205    0.0010    0.0089   -0.0065   -0.0240    0.0553    0.0254   -0.0347
          33    0.0067    0.0037   -0.0396   -0.0142   -0.0049    0.0252    0.0500   -0.0223
          34   -0.0146    0.0171   -0.0139   -0.0224    0.0397   -0.0159   -0.0326    0.0153
          35   -0.0307    0.0339   -0.0525   -0.0588    0.0172   -0.0497   -0.0129   -0.0170
          36    0.0334   -0.0313    0.0568    0.0788    0.0084    0.0633   -0.0008    0.0618
          37   -0.0161   -0.0070    0.0483    0.0138    0.0090    0.0660   -0.0287   -0.0007
          38   -0.0464    0.0442   -0.0657   -0.0909    0.0209   -0.0756   -0.0224   -0.0427
          39   -0.0243    0.0049    0.0129   -0.0369    0.0201   -0.0269   -0.0371   -0.0347
          40   -0.0577    0.0232   -0.0505    0.0771    0.0466   -0.0611   -0.0695    0.0083
          41   -0.0323    0.0073   -0.0162    0.0235   -0.0088   -0.0077   -0.0099    0.0072
          42    0.0489   -0.0170    0.0268   -0.0258   -0.0320   -0.0196   -0.0034    0.0377
          43   -0.0199    0.0038   -0.0006    0.0029    0.0165    0.0152   -0.0046    0.0058
          44   -0.0767    0.0267   -0.0595    0.0764    0.0204   -0.0369   -0.0745    0.0023
          45    0.0100   -0.0046    0.0090   -0.0244   -0.0142    0.0339   -0.0429    0.0224
          46    0.0204   -0.0217   -0.0258   -0.0052   -0.0161   -0.0142    0.0159    0.0011
          47    0.1237    0.1974    0.0393   -0.0129    0.0526    0.0319   -0.0034   -0.0136
          48   -0.0243    0.0772    0.0646    0.0321    0.0629   -0.0523    0.0871   -0.0149
          49    0.0115   -0.1384   -0.0851   -0.0284   -0.0652    0.0173   -0.0524    0.0222
          50    0.0116   -0.1564   -0.0490   -0.0150    0.0960    0.0326    0.0192   -0.0246
          51    0.0008    0.0612    0.0279    0.0079   -0.0048   -0.0187    0.0048    0.0122
          52    0.1229    0.1575   -0.0051   -0.0296   -0.0107    0.0359   -0.0225   -0.0078
          53    0.0323   -0.0492   -0.0181   -0.0081    0.0606    0.0174    0.0101   -0.0110
          54   -0.0262   -0.1387   -0.0306   -0.0091    0.0969    0.0216    0.0383   -0.0291
          55    0.0074   -0.0141    0.0498   -0.0004   -0.0259   -0.0315    0.0529   -0.0277
          56    0.0049   -0.0190    0.0663    0.0033   -0.0524   -0.0297   -0.0279    0.0204
          57    0.0013    0.0073   -0.0393   -0.0060   -0.0033    0.0116    0.0284   -0.0115
          58    0.0189   -0.0001   -0.0131    0.0454   -0.0118    0.0246    0.0081    0.0349
          59    0.0453    0.0002   -0.0250    0.1024    0.0094    0.0392    0.0246    0.0824
          60   -0.0279   -0.0028    0.0409   -0.0450    0.0364   -0.0025   -0.0408   -0.0212
          61   -0.0078   -0.0060    0.0003   -0.0504   -0.0222   -0.0212    0.0252    0.0628
          62    0.0053   -0.0132    0.0152   -0.0596    0.0160   -0.0401    0.0229    0.0848
          63   -0.0127    0.0137   -0.0211    0.0495   -0.0459    0.0558    0.0122   -0.1093
          64    0.0302   -0.0135   -0.0016    0.0204   -0.0301   -0.0181   -0.0231   -0.0895
          65    0.0614   -0.0292    0.0305    0.0365    0.0257   -0.0403   -0.0725   -0.1084
          66   -0.0365    0.0157   -0.0053   -0.0167    0.0116    0.0219    0.0129    0.0715


   Root No.       9        10        11        12        13        14        15        16

                 9 A      10 A      11 A      12 A      13 A      14 A      15 A      16 A   

                 466.8     479.7     541.6     620.6     677.0     764.0     806.1     860.3
  
           1    0.0157    0.0175   -0.0271    0.0170    0.0073    0.0075    0.0122    0.0008
           2    0.0048   -0.0034   -0.0147    0.0161   -0.0396    0.0127   -0.0072   -0.0337
           3   -0.0008   -0.0169   -0.0192    0.0053    0.0412   -0.0083    0.0073   -0.0113
           4    0.0115    0.0148   -0.0481    0.0185    0.0145    0.0046    0.0080    0.0249
           5   -0.0130   -0.0117    0.0039   -0.0050   -0.0174   -0.0136    0.0054   -0.0364
           6   -0.0257   -0.0241   -0.0090   -0.0241   -0.0040    0.0027   -0.0313   -0.0078
           7    0.0006    0.0111    0.0407    0.0200    0.0160    0.0068   -0.0246   -0.0314
           8    0.0135    0.0039   -0.0200   -0.0270   -0.0025   -0.0017    0.0168    0.0150
           9    0.0086    0.0224    0.0137   -0.0027   -0.0030    0.0005   -0.0143   -0.0155
          10    0.0236    0.0157    0.0067   -0.0261   -0.0255   -0.0005    0.0007    0.0056
          11   -0.0058   -0.0108   -0.0078    0.0099    0.0111   -0.0014    0.0017   -0.0005
          12    0.0269    0.0122    0.0000   -0.0329   -0.0259    0.0004   -0.0001    0.0044
          13   -0.0106    0.0199    0.0554   -0.0060    0.0318   -0.0028   -0.0038   -0.0074
          14   -0.0032    0.0000    0.0137   -0.0228    0.0072    0.0023   -0.0027    0.0191
          15    0.0032   -0.0116   -0.0041    0.0544   -0.0219    0.0124   -0.0180    0.0150
          16   -0.0142    0.0298   -0.0096   -0.0087   -0.0178   -0.0017    0.0002    0.0014
          17   -0.0341    0.0399   -0.0224   -0.0014    0.0069   -0.0034    0.0016    0.0009
          18    0.0381    0.0101    0.0061   -0.0273   -0.0092    0.0006   -0.0002    0.0034
          19    0.0286   -0.0201    0.0069   -0.0057    0.0050    0.0008    0.0028   -0.0093
          20    0.0143   -0.0141   -0.0001    0.0018    0.0231    0.0008    0.0026   -0.0071
          21    0.0040    0.0069   -0.0366    0.0078    0.0387   -0.0064    0.0292   -0.0147
          22   -0.0236   -0.0325   -0.0447   -0.0203    0.0016   -0.0121   -0.0469   -0.0031
          23   -0.0057   -0.0030    0.0215    0.0022   -0.0027   -0.0215    0.0061    0.0093
          24   -0.0188   -0.0061   -0.0121   -0.0101   -0.0039    0.0052   -0.0020   -0.0024
          25   -0.0215   -0.0230    0.0146    0.0043   -0.0165   -0.0069    0.0197    0.0066
          26    0.0189    0.0085    0.0130    0.0324    0.0039    0.0105   -0.0390    0.0219
          27   -0.0060    0.0058    0.0267    0.0298    0.0030    0.0115   -0.0125    0.0239
          28   -0.0288   -0.0223    0.0050    0.0014   -0.0171   -0.0201    0.0184    0.0138
          29   -0.0022    0.0145    0.0117    0.0053   -0.0023   -0.0238    0.0060    0.0091
          30   -0.0249   -0.0117    0.0393    0.0074   -0.0160    0.0033    0.0515    0.0152
          31    0.0195    0.0285   -0.0683    0.0466    0.0108    0.0070    0.0691   -0.0068
          32    0.0004    0.0020   -0.0034   -0.0036   -0.0244    0.0045   -0.0103   -0.0523
          33   -0.0055    0.0023   -0.0296   -0.0078    0.0684   -0.0235    0.0432   -0.0560
          34   -0.0012    0.0180   -0.0218   -0.0101    0.0696    0.0155   -0.0009    0.1311
          35   -0.0235   -0.0157    0.0127   -0.0330    0.0237    0.0133   -0.0197    0.0208
          36   -0.0091   -0.0077   -0.0039    0.0276   -0.0665   -0.0705    0.0334   -0.0619
          37    0.0259    0.0334   -0.0718    0.0561   -0.0555    0.0199    0.0453   -0.0372
          38   -0.0330   -0.0212    0.0127   -0.0604    0.0489    0.0514   -0.0535    0.0433
          39   -0.0365   -0.0224   -0.0147   -0.0541    0.0191    0.0693   -0.0654    0.0315
          40    0.0791   -0.0447    0.0116    0.0697   -0.0142   -0.0065   -0.0550   -0.0646
          41    0.0084    0.0097   -0.0220   -0.0271   -0.0017   -0.0016    0.0166    0.0116
          42   -0.0594    0.0893   -0.0028    0.0014    0.0101    0.0038   -0.0197   -0.0649
          43   -0.0126    0.0258    0.0741   -0.0030    0.0500    0.0103   -0.0251   -0.0587
          44    0.1157   -0.0746   -0.0380    0.0066   -0.0335   -0.0160   -0.0000    0.0199
          45    0.0323    0.0131    0.0657   -0.0300    0.0441    0.0005   -0.0223   -0.0613
          46    0.0092    0.0269   -0.0016   -0.0268   -0.0282   -0.0048    0.0066    0.0107
          47    0.0178   -0.0388    0.0035    0.0128    0.0121    0.0055   -0.0019   -0.0070
          48   -0.0138    0.0351   -0.0257   -0.0319   -0.0333   -0.0124    0.0220    0.0199
          49    0.0429    0.0236    0.0205   -0.0372   -0.0252    0.0051   -0.0161   -0.0014
          50    0.0082   -0.0411   -0.0044    0.0176    0.0082    0.0031    0.0052   -0.0027
          51    0.0231    0.0326    0.0007   -0.0408   -0.0243   -0.0011   -0.0056    0.0043
          52    0.0652   -0.0244    0.0280   -0.0290   -0.0325    0.0114   -0.0087   -0.0031
          53   -0.0020   -0.0188   -0.0074    0.0112    0.0096   -0.0004    0.0033   -0.0007
          54    0.0547   -0.0314    0.0087   -0.0299   -0.0361    0.0080    0.0037    0.0016
          55    0.0768   -0.1008    0.0449   -0.0047    0.0814   -0.0323    0.0622   -0.0343
          56    0.0744   -0.0676    0.0483   -0.0312    0.0845   -0.0324    0.0508    0.0397
          57   -0.0239    0.0180   -0.0593    0.0326    0.0202    0.0066    0.0144   -0.0599
          58   -0.0362   -0.0465   -0.0351   -0.0473    0.0110    0.0974   -0.0410   -0.0049
          59   -0.0179   -0.0184    0.0187   -0.0482    0.0326    0.1991   -0.0008    0.0173
          60    0.0120    0.0260   -0.0521    0.0227    0.0100   -0.0940   -0.0342    0.0194
          61   -0.0175   -0.0604   -0.0141    0.0409   -0.0496    0.0772    0.0369    0.0292
          62    0.0234   -0.0165    0.0022    0.0695   -0.0237    0.0969    0.0127    0.0045
          63   -0.0111    0.0176    0.0230   -0.0019    0.0216   -0.0632   -0.0819    0.0697
          64   -0.0304   -0.0105    0.0339    0.0110   -0.0102    0.0885    0.0843    0.0171
          65   -0.0236    0.0167   -0.0081   -0.0516    0.0118    0.1423    0.1009   -0.0670
          66   -0.0181   -0.0171    0.0326    0.0200   -0.0228   -0.0875   -0.0018    0.0367


   Root No.      17        18        19        20        21        22        23        24

                17 A      18 A      19 A      20 A      21 A      22 A      23 A      24 A   

                 871.3     881.5     935.0     950.9     956.3     983.8    1001.3    1017.4
  
           1    0.0002   -0.0086    0.0004   -0.0016    0.0052    0.0042    0.0013   -0.0008
           2    0.0071   -0.0025   -0.0018   -0.0147    0.0208   -0.0039    0.0088    0.0199
           3   -0.0031   -0.0056   -0.0018    0.0067    0.0001   -0.0025    0.0001   -0.0048
           4    0.0000    0.0065   -0.0020   -0.0007   -0.0033   -0.0087   -0.0037    0.0026
           5    0.0009    0.0142    0.0099    0.0192   -0.0200    0.0117   -0.0040   -0.0200
           6   -0.0012    0.0020    0.0002    0.0006   -0.0015    0.0091   -0.0029   -0.0074
           7   -0.0163    0.0170    0.0161    0.0022    0.0101    0.0047    0.0068    0.0150
           8   -0.0250    0.0142    0.0175   -0.0235   -0.0148    0.0010   -0.0255    0.0101
           9    0.0171   -0.0064   -0.0131   -0.0239   -0.0194   -0.0136   -0.0211   -0.0068
          10    0.0100    0.0070   -0.0080   -0.0028   -0.0038    0.0169    0.0240    0.0106
          11    0.0128    0.0042   -0.0105    0.0136    0.0108    0.0082   -0.0243    0.0126
          12   -0.0072    0.0021    0.0068    0.0211    0.0203   -0.0049    0.0017   -0.0014
          13    0.0042   -0.0048   -0.0101    0.0059   -0.0003    0.0012    0.0133   -0.0131
          14    0.0025    0.0037   -0.0120    0.0050   -0.0074   -0.0047   -0.0031   -0.0119
          15   -0.0030    0.0085    0.0121   -0.0010   -0.0026    0.0013   -0.0037    0.0128
          16    0.0089   -0.0010   -0.0013   -0.0041   -0.0034   -0.0122   -0.0117   -0.0135
          17    0.0089   -0.0006    0.0001    0.0073    0.0055   -0.0072    0.0127   -0.0150
          18   -0.0047    0.0021    0.0007    0.0073    0.0045    0.0045   -0.0004    0.0039
          19   -0.0172   -0.0295   -0.0090   -0.0009   -0.0081    0.0001   -0.0260   -0.0013
          20   -0.0205   -0.0306   -0.0066    0.0141    0.0011    0.0138    0.0245   -0.0002
          21   -0.0005   -0.0093    0.0064    0.0006    0.0066    0.0173    0.0209    0.0085
          22   -0.0053    0.0193   -0.0098    0.0068   -0.0054   -0.0109    0.0119    0.0102
          23   -0.0075   -0.0018   -0.0136   -0.0020    0.0008   -0.0147    0.0042    0.0201
          24    0.0053    0.0040    0.0053    0.0010   -0.0001    0.0003    0.0017   -0.0042
          25    0.0120   -0.0186    0.0166    0.0009   -0.0047   -0.0040   -0.0047    0.0132
          26    0.0151   -0.0046    0.0214    0.0130   -0.0165   -0.0010    0.0025    0.0055
          27   -0.0125    0.0221   -0.0180    0.0010    0.0001    0.0033    0.0026   -0.0170
          28   -0.0027   -0.0049    0.0008   -0.0086    0.0131    0.0094   -0.0024   -0.0103
          29   -0.0044   -0.0044   -0.0003   -0.0183    0.0212    0.0133   -0.0048   -0.0132
          30    0.0054   -0.0146   -0.0001    0.0011    0.0020   -0.0130    0.0054    0.0161
          31    0.0150    0.0237    0.0425    0.0147   -0.0150    0.0441   -0.0293   -0.0619
          32    0.0309   -0.0026   -0.0293   -0.0336    0.0548   -0.0695    0.0171    0.0031
          33    0.0519    0.0160   -0.0210   -0.0175    0.0499   -0.0929   -0.0064   -0.0791
          34   -0.0127   -0.0153   -0.0248    0.0017   -0.0261   -0.0355   -0.0260   -0.0034
          35   -0.0025   -0.0062   -0.0069   -0.0014   -0.0023   -0.0057   -0.0033   -0.0006
          36   -0.0058    0.0408    0.0242    0.0705   -0.0874    0.0309   -0.0319   -0.0783
          37    0.0232    0.0334    0.0442   -0.0115    0.0079    0.0532   -0.0221   -0.0328
          38    0.0019   -0.0238   -0.0139   -0.0336    0.0346   -0.0045    0.0026    0.0179
          39    0.0122   -0.0174    0.0035   -0.0530    0.0538    0.0278   -0.0069    0.0073
          40    0.0986   -0.0626   -0.0344    0.0033    0.0148   -0.0639    0.0555   -0.0395
          41   -0.0283    0.0153    0.0246   -0.0303   -0.0154   -0.0069   -0.0257    0.0101
          42   -0.0299    0.0127    0.0736   -0.0948   -0.0177   -0.0928   -0.0101    0.0043
          43   -0.0457    0.0441   -0.0015   -0.0155   -0.0107    0.0533   -0.0324    0.0408
          44    0.0961   -0.0632   -0.0741   -0.0089   -0.0322   -0.0236   -0.0228   -0.0476
          45    0.0182    0.0085   -0.0876   -0.0506   -0.0666    0.0634   -0.0946    0.0135
          46    0.0413    0.0194   -0.0309   -0.0150   -0.0183    0.0496    0.0461    0.0330
          47   -0.0422   -0.0218    0.0280   -0.0117   -0.0070   -0.0347   -0.0033   -0.0311
          48    0.0784    0.0329   -0.0566   -0.0479   -0.0518    0.0933    0.0993    0.0559
          49   -0.0222    0.0026    0.0189    0.0968    0.0915   -0.0320   -0.0651   -0.0011
          50   -0.0242   -0.0186    0.0122   -0.0540   -0.0484   -0.0076    0.0403   -0.0216
          51    0.0078    0.0150   -0.0007    0.0863    0.0795   -0.0060   -0.0569    0.0172
          52   -0.0792   -0.0304    0.0560   -0.0219   -0.0120   -0.0512    0.0667   -0.0547
          53    0.0033   -0.0016   -0.0047   -0.0052   -0.0056    0.0062   -0.0017    0.0046
          54   -0.0697   -0.0302    0.0486   -0.0627   -0.0500   -0.0303    0.1153   -0.0513
          55    0.0708    0.1200    0.0508   -0.0616    0.0250   -0.0305   -0.0742    0.0471
          56    0.0718    0.1563    0.0612   -0.0045    0.0251   -0.0122    0.0843   -0.0252
          57   -0.0382   -0.0963   -0.0230   -0.0067    0.0012    0.0266   -0.0382    0.0449
          58    0.0324   -0.0079    0.0366   -0.0074    0.0112    0.0279   -0.0026   -0.0298
          59    0.0652   -0.0476    0.0701   -0.0338    0.0296    0.0423   -0.0262   -0.0416
          60   -0.0340    0.0434   -0.0506    0.0108   -0.0234   -0.0645    0.0132    0.0566
          61   -0.0492    0.0720   -0.0741   -0.0036   -0.0019   -0.0039   -0.0221   -0.0462
          62   -0.0607    0.0857   -0.0941   -0.0162    0.0280    0.0025    0.0134   -0.0497
          63    0.0623   -0.0536    0.0979    0.0434   -0.0683   -0.0023   -0.0269    0.0264
          64    0.0006    0.0112   -0.0086    0.0530   -0.0580   -0.0208   -0.0001   -0.0023
          65    0.0084    0.0261   -0.0213    0.0702   -0.0792   -0.0851    0.0302    0.0858
          66    0.0004   -0.0296    0.0094   -0.0490    0.0594    0.0265   -0.0052   -0.0145


   Root No.      25        26        27        28        29        30        31        32

                25 A      26 A      27 A      28 A      29 A      30 A      31 A      32 A   

                1032.5    1053.1    1057.3    1067.2    1090.1    1105.1    1152.4    1163.0
  
           1   -0.0101    0.0051    0.0029   -0.0088   -0.0128    0.0375   -0.0085   -0.0238
           2   -0.0067   -0.0017    0.0038    0.0127   -0.0164    0.0222    0.0073   -0.0053
           3    0.0113    0.0075    0.0012   -0.0019    0.0061   -0.0118   -0.0009   -0.0055
           4    0.0090   -0.0022    0.0043    0.0110   -0.0015   -0.0339   -0.0063    0.0029
           5    0.0008   -0.0062    0.0076    0.0019    0.0034   -0.0212   -0.0027   -0.0085
           6   -0.0310    0.0235    0.0030   -0.0011   -0.0125    0.0184    0.0027   -0.0065
           7    0.0065    0.0107    0.0086    0.0084    0.0016    0.0028   -0.0030    0.0009
           8    0.0059    0.0030    0.0063   -0.0143   -0.0036   -0.0026   -0.0007   -0.0057
           9   -0.0032   -0.0063   -0.0029   -0.0036    0.0025    0.0007   -0.0043   -0.0084
          10    0.0037    0.0046    0.0112   -0.0013    0.0020   -0.0039    0.0052    0.0107
          11   -0.0011    0.0007    0.0113   -0.0105    0.0030   -0.0002   -0.0025   -0.0050
          12   -0.0017   -0.0035   -0.0052    0.0071   -0.0015   -0.0021    0.0053    0.0099
          13   -0.0119   -0.0141   -0.0003   -0.0112    0.0065   -0.0065    0.0027   -0.0043
          14   -0.0074   -0.0109    0.0009   -0.0022    0.0135    0.0042   -0.0036    0.0057
          15    0.0129    0.0072   -0.0015    0.0068   -0.0065    0.0007   -0.0056   -0.0013
          16   -0.0024   -0.0065   -0.0209    0.0094   -0.0060    0.0068   -0.0073   -0.0177
          17   -0.0024   -0.0042   -0.0215    0.0179   -0.0077    0.0034    0.0038    0.0073
          18    0.0020    0.0051    0.0096   -0.0094    0.0028    0.0002   -0.0056   -0.0115
          19    0.0057    0.0049    0.0071   -0.0146    0.0063   -0.0014   -0.0071   -0.0142
          20    0.0088    0.0089    0.0075    0.0002    0.0061   -0.0065    0.0070    0.0181
          21   -0.0241   -0.0160   -0.0053    0.0107   -0.0025    0.0056   -0.0106   -0.0183
          22    0.0136   -0.0155   -0.0140   -0.0194   -0.0025   -0.0009    0.0000    0.0084
          23   -0.0172    0.0216   -0.0131   -0.0010    0.0090    0.0035    0.0024   -0.0013
          24    0.0252   -0.0236    0.0036   -0.0010    0.0039    0.0023    0.0048    0.0015
          25    0.0003    0.0111    0.0031    0.0173    0.0121    0.0039    0.0030   -0.0069
          26    0.0048   -0.0015   -0.0087   -0.0183   -0.0143   -0.0066   -0.0007    0.0069
          27   -0.0016   -0.0123   -0.0002   -0.0099    0.0031   -0.0039   -0.0011    0.0037
          28    0.0054   -0.0067    0.0017   -0.0052   -0.0099   -0.0061    0.0002    0.0048
          29    0.0100   -0.0101    0.0051    0.0046    0.0076    0.0026   -0.0013   -0.0003
          30    0.0106   -0.0030   -0.0119   -0.0145   -0.0084   -0.0032   -0.0034    0.0063
          31    0.0139    0.0654   -0.0501   -0.0884    0.0314    0.2284    0.1214    0.1029
          32    0.0450    0.0616    0.0474    0.0361   -0.0472   -0.0535   -0.0341   -0.0173
          33    0.1221    0.1683    0.0413   -0.0181   -0.0176   -0.0128    0.0170    0.0621
          34   -0.0412    0.0165    0.1052    0.1022   -0.1053    0.0131   -0.0459    0.0898
          35   -0.0139    0.0052    0.0211    0.0200   -0.0206    0.0041   -0.0066    0.0123
          36   -0.0500    0.0119    0.0900    0.0607   -0.0656   -0.0106   -0.0314    0.0290
          37   -0.0433    0.0805   -0.0845   -0.0169    0.1007   -0.2095   -0.0598    0.0431
          38   -0.0445    0.0443   -0.0088    0.0085   -0.0049    0.0004   -0.0063   -0.0000
          39   -0.1012    0.1158   -0.0597   -0.0099    0.0350   -0.0563   -0.0284    0.0232
          40   -0.0554   -0.0269    0.0338   -0.0078    0.0365    0.0040    0.0077    0.0359
          41    0.0004    0.0012    0.0160   -0.0232    0.0003   -0.0035    0.0008   -0.0022
          42   -0.0625   -0.0202    0.1100   -0.0900    0.0487   -0.0089    0.0122    0.0365
          43    0.0511    0.0382   -0.0343    0.0558   -0.0300    0.0132    0.0043    0.0201
          44   -0.0162   -0.0282   -0.0338   -0.0049   -0.0027   -0.0000    0.0020   -0.0075
          45    0.0682    0.0293   -0.0997    0.0851   -0.0551    0.0206    0.0100    0.0246
          46    0.0087    0.0130    0.0352   -0.0112    0.0071   -0.0090    0.0116    0.0261
          47   -0.0044   -0.0079   -0.0303    0.0140   -0.0069    0.0067   -0.0079   -0.0180
          48    0.0151    0.0235    0.0609   -0.0179    0.0119   -0.0159    0.0220    0.0502
          49   -0.0103   -0.0153   -0.0148    0.0129   -0.0028   -0.0040    0.0155    0.0319
          50    0.0031    0.0023   -0.0146    0.0072   -0.0039    0.0049   -0.0083   -0.0181
          51   -0.0078   -0.0096    0.0047    0.0004    0.0015   -0.0059    0.0128    0.0264
          52   -0.0013   -0.0101   -0.0539    0.0475   -0.0138   -0.0001    0.0180    0.0380
          53    0.0001    0.0013    0.0054   -0.0046    0.0013    0.0000   -0.0012   -0.0021
          54    0.0025   -0.0042   -0.0458    0.0470   -0.0126   -0.0020    0.0195    0.0420
          55   -0.0832   -0.1028   -0.0269    0.0333   -0.0185   -0.0173    0.0510    0.1099
          56   -0.0020    0.0275   -0.0155    0.0163   -0.0135    0.0371   -0.0374   -0.0849
          57   -0.0480   -0.0681   -0.0001    0.0169    0.0032   -0.0331    0.0436    0.1038
          58    0.0445   -0.0475    0.0088   -0.0136   -0.0138   -0.0062   -0.0123    0.0107
          59    0.0627   -0.0482    0.0479    0.0663    0.0479   -0.0325    0.1156   -0.0493
          60    0.0224   -0.0037    0.0047    0.0692    0.0936   -0.0349    0.2104   -0.0706
          61   -0.0418    0.0247    0.0421    0.0935    0.1547    0.0965   -0.0330    0.0068
          62   -0.0131   -0.0319    0.0024   -0.0287   -0.0092   -0.0067   -0.0026    0.0064
          63   -0.0025    0.0429    0.0094    0.0586    0.0971    0.0625   -0.0260    0.0164
          64   -0.0776    0.0669   -0.0036   -0.0345   -0.0960   -0.0909    0.1733   -0.0469
          65    0.0367   -0.0205   -0.0279    0.0008    0.0516    0.0563   -0.1218    0.0378
          66    0.0384   -0.0312   -0.0009   -0.0018    0.0151    0.0162   -0.0393    0.0170


   Root No.      33        34        35        36        37        38        39        40

                33 A      34 A      35 A      36 A      37 A      38 A      39 A      40 A   

                1177.2    1197.8    1267.3    1296.8    1348.3    1361.7    1381.4    1390.3
  
           1   -0.0002    0.0227   -0.0187    0.0123    0.0156   -0.0159    0.0127    0.0001
           2    0.0018   -0.0162    0.0098    0.0060   -0.0151    0.0237    0.0104    0.0005
           3    0.0160   -0.0237    0.0220    0.0429    0.0002    0.0219    0.0325    0.0011
           4    0.0132    0.0011    0.0239    0.0342    0.0175   -0.0053    0.0038   -0.0003
           5   -0.0019    0.0064   -0.0039    0.0079    0.0059   -0.0027   -0.0104   -0.0002
           6   -0.0033    0.0049    0.0040    0.0288    0.0140   -0.0018   -0.0379   -0.0008
           7   -0.0034   -0.0074    0.0289   -0.0079   -0.0152   -0.0010    0.0168   -0.0003
           8   -0.0096    0.0080   -0.0073    0.0051   -0.0001   -0.0119   -0.0069    0.0011
           9   -0.0219   -0.0055    0.0328   -0.0006   -0.0222   -0.0284    0.0084    0.0009
          10    0.0015    0.0016    0.0016   -0.0024    0.0144    0.0221   -0.0012   -0.0245
          11    0.0022   -0.0016   -0.0039    0.0017   -0.0092   -0.0117    0.0004   -0.0346
          12    0.0087    0.0002   -0.0061   -0.0004    0.0086    0.0180   -0.0012    0.0081
          13   -0.0258    0.0087   -0.0185    0.0196   -0.0091    0.0235   -0.0066    0.0005
          14    0.0137   -0.0307    0.0185   -0.0085    0.0104   -0.0237   -0.0064   -0.0007
          15   -0.0124   -0.0080   -0.0110    0.0072    0.0044   -0.0034   -0.0156   -0.0004
          16    0.0000   -0.0057    0.0014   -0.0117   -0.0018    0.0024   -0.0024   -0.0009
          17   -0.0052    0.0077    0.0059    0.0027    0.0137    0.0045    0.0048   -0.0008
          18   -0.0153    0.0028    0.0200   -0.0209    0.0258    0.0140    0.0053   -0.0005
          19    0.0019   -0.0045   -0.0059   -0.0169   -0.0095   -0.0059   -0.0069    0.0001
          20   -0.0030    0.0047   -0.0006   -0.0018    0.0006    0.0009   -0.0016   -0.0006
          21    0.0047    0.0041   -0.0178   -0.0339   -0.0172   -0.0111   -0.0177   -0.0004
          22   -0.0002    0.0051   -0.0033   -0.0228   -0.0116    0.0026    0.0060    0.0002
          23    0.0009    0.0041    0.0056    0.0020   -0.0031    0.0011   -0.0071   -0.0001
          24    0.0079    0.0164    0.0135   -0.0129   -0.0162    0.0048   -0.0061    0.0000
          25   -0.0139   -0.0161   -0.0085    0.0204    0.0058   -0.0006   -0.0298   -0.0006
          26    0.0030    0.0142   -0.0132   -0.0100    0.0017    0.0008    0.0090    0.0002
          27   -0.0087   -0.0024   -0.0200    0.0065    0.0070    0.0001   -0.0136   -0.0002
          28    0.0064   -0.0084   -0.0095   -0.0109    0.0101   -0.0063    0.0206    0.0002
          29    0.0063    0.0074    0.0105   -0.0000   -0.0059    0.0025   -0.0016    0.0000
          30    0.0135    0.0043    0.0036   -0.0135   -0.0006   -0.0020    0.0187    0.0003
          31   -0.0266   -0.0845    0.0279   -0.0200   -0.0198    0.0202   -0.0087   -0.0001
          32   -0.0275    0.0745   -0.0395   -0.0245    0.0036   -0.0135   -0.0187   -0.0005
          33   -0.0585    0.0684   -0.0381   -0.0375    0.0081   -0.0203   -0.0369   -0.0008
          34   -0.0142   -0.0918    0.0105   -0.0796   -0.0789    0.0645   -0.0712    0.0005
          35   -0.0034   -0.0141    0.0066   -0.0137   -0.0274    0.0275   -0.0862   -0.0007
          36   -0.0387   -0.0447   -0.0610   -0.0423    0.0162   -0.0278    0.1830    0.0024
          37   -0.0043   -0.0470   -0.0058   -0.0588   -0.0503    0.0371   -0.0657    0.0001
          38   -0.0160   -0.0093   -0.0335   -0.0058    0.0310   -0.0353    0.1637    0.0017
          39   -0.0273   -0.0360   -0.0433   -0.0343    0.0063   -0.0155    0.1136    0.0016
          40    0.1013   -0.0448    0.0232   -0.0644    0.1057   -0.1055   -0.0643    0.0027
          41    0.0046    0.0073   -0.0234    0.0115   -0.0050    0.0074   -0.0023    0.0003
          42    0.1445   -0.0241   -0.1026    0.0195   -0.0033    0.0750    0.0020   -0.0008
          43    0.0772   -0.0069   -0.0163   -0.0264    0.0427   -0.0198   -0.0196    0.0000
          44   -0.0021    0.0109   -0.0659    0.0624   -0.0864    0.1228    0.0528   -0.0046
          45    0.1275   -0.0007   -0.0857    0.0020    0.0285    0.0234   -0.0186   -0.0016
          46    0.0038    0.0051   -0.0074    0.0268   -0.0214   -0.0324    0.0058    0.0086
          47   -0.0078   -0.0009    0.0115   -0.0351    0.0485    0.0749   -0.0224    0.1962
          48    0.0056    0.0125   -0.0206    0.0628   -0.0581   -0.0863    0.0036    0.2189
          49    0.0348    0.0002   -0.0461    0.0613   -0.0714   -0.0794   -0.0091    0.2874
          50   -0.0190    0.0004    0.0252   -0.0353    0.0409    0.0449    0.0061    0.2858
          51    0.0308   -0.0003   -0.0385    0.0430   -0.0482   -0.0482   -0.0082   -0.1105
          52    0.0100    0.0079   -0.0198    0.0614   -0.0695   -0.1070    0.0232    0.0042
          53   -0.0011    0.0006   -0.0021    0.0025   -0.0057   -0.0075   -0.0034   -0.0604
          54    0.0029    0.0129   -0.0149    0.0469   -0.0325   -0.0471   -0.0051   -0.2079
          55   -0.0662    0.0701    0.0203    0.0161    0.0527    0.0027    0.0096   -0.0004
          56    0.0435   -0.0376   -0.0188   -0.0166   -0.0356   -0.0035   -0.0087    0.0009
          57   -0.0546    0.0624    0.0058   -0.0125    0.0318   -0.0033   -0.0065   -0.0018
          58    0.0073    0.0129    0.0053   -0.0199   -0.0134    0.0034    0.0053    0.0002
          59   -0.0223   -0.0355   -0.0436   -0.0131    0.0165   -0.0097    0.0138    0.0002
          60   -0.0502   -0.0683   -0.0867   -0.0536    0.0150   -0.0129    0.0324    0.0005
          61    0.0467    0.1338    0.0328   -0.0209   -0.0291    0.0248    0.0380    0.0012
          62   -0.0021    0.0070   -0.0163   -0.0103    0.0035   -0.0022    0.0059    0.0002
          63    0.0436    0.1167    0.0113   -0.0251   -0.0192    0.0216    0.0408    0.0012
          64    0.0744    0.0783    0.0772   -0.0400   -0.0390    0.0069    0.0045    0.0002
          65   -0.0452   -0.0498   -0.0545    0.0176    0.0278   -0.0064    0.0114    0.0001
          66    0.0016   -0.0141   -0.0136   -0.0090    0.0097   -0.0051    0.0246    0.0003


   Root No.      41        42        43        44        45        46        47        48

                41 A      42 A      43 A      44 A      45 A      46 A      47 A      48 A   

                1392.1    1395.4    1408.6    1443.3    1479.4    1836.7    1863.5    1914.8
  
           1   -0.0040   -0.0053    0.0411    0.0565   -0.0494   -0.0005    0.0064   -0.0009
           2   -0.0102   -0.0222   -0.0121   -0.0184    0.0224   -0.0001   -0.0088   -0.0139
           3   -0.0164   -0.0339    0.0154    0.0226   -0.0132    0.0027   -0.0010   -0.0160
           4    0.0123    0.0194   -0.0290   -0.0494    0.0252   -0.0025    0.0022    0.0007
           5   -0.0004    0.0028    0.0098   -0.0080   -0.0017   -0.0125    0.0028    0.0038
           6   -0.0005    0.0103    0.0203   -0.0425    0.0060   -0.0268    0.0073    0.0057
           7    0.0161    0.0330    0.0215   -0.0031   -0.0077   -0.0047   -0.0154   -0.0225
           8   -0.0088   -0.0286   -0.0132   -0.0089   -0.0204    0.0029    0.0086    0.0041
           9    0.0080   -0.0065    0.0034   -0.0213   -0.0548   -0.0023   -0.0080   -0.0190
          10    0.0135   -0.0021   -0.0048   -0.0066   -0.0509   -0.0033   -0.0282    0.0106
          11   -0.0137    0.0034   -0.0008    0.0003    0.0155    0.0016    0.0139   -0.0049
          12   -0.0178    0.0111   -0.0137   -0.0136   -0.0719   -0.0031   -0.0276    0.0112
          13   -0.0134   -0.0281   -0.0242   -0.0109    0.0150    0.0196    0.0304    0.1107
          14    0.0161    0.0338    0.0114    0.0276   -0.0144    0.0069    0.0198    0.0777
          15    0.0039    0.0090   -0.0110    0.0223   -0.0022    0.0232    0.0449    0.1819
          16   -0.0022   -0.0005   -0.0051   -0.0033    0.0231    0.0173    0.1536   -0.0568
          17   -0.0028    0.0012    0.0123    0.0152    0.0277   -0.0151   -0.1294    0.0433
          18   -0.0100    0.0039    0.0155    0.0252    0.1104    0.0025    0.0301   -0.0195
          19    0.0020   -0.0001   -0.0080   -0.0096    0.0319   -0.0135   -0.1256    0.0423
          20    0.0032    0.0080   -0.0025   -0.0040   -0.0272    0.0117    0.1086   -0.0404
          21    0.0096    0.0151   -0.0166   -0.0267    0.0032   -0.0035   -0.0178   -0.0000
          22   -0.0016   -0.0056   -0.0039    0.0170   -0.0034   -0.0896    0.0094    0.0083
          23    0.0016    0.0027   -0.0098    0.0144   -0.0008    0.1267   -0.0155   -0.0163
          24    0.0019   -0.0000   -0.0243    0.0442   -0.0043    0.1582   -0.0207   -0.0219
          25    0.0047    0.0113   -0.0267    0.0416   -0.0019   -0.0460   -0.0292   -0.1050
          26   -0.0041   -0.0078    0.0104   -0.0246    0.0031    0.0106   -0.0172   -0.0559
          27   -0.0006    0.0007   -0.0095    0.0057    0.0018   -0.0221   -0.0422   -0.1450
          28   -0.0026   -0.0025    0.0342   -0.0465    0.0019    0.1430   -0.0101    0.0008
          29    0.0012    0.0003   -0.0120    0.0171   -0.0007   -0.1351    0.0144    0.0130
          30   -0.0014   -0.0039    0.0144   -0.0184    0.0004   -0.1109    0.0167    0.0240
          31    0.0051    0.0054   -0.0478   -0.0520    0.0421    0.0017    0.0023    0.0091
          32    0.0033    0.0103    0.0079    0.0010   -0.0082   -0.0003    0.0092   -0.0034
          33    0.0143    0.0318   -0.0122   -0.0201   -0.0040   -0.0003    0.0155    0.0045
          34   -0.0440   -0.0602    0.0621    0.0331   -0.0066   -0.0201   -0.0028   -0.0089
          35   -0.0247   -0.0208    0.0632   -0.0009   -0.0099   -0.0115    0.0018    0.0010
          36    0.0224   -0.0052   -0.0845    0.0406    0.0008   -0.0416    0.0029    0.0017
          37   -0.0356   -0.0434    0.0778    0.0563   -0.0289   -0.0045   -0.0001    0.0010
          38    0.0326    0.0153   -0.1010    0.0147    0.0136    0.0029   -0.0027   -0.0027
          39    0.0107   -0.0081   -0.0441    0.0374   -0.0060   -0.0036    0.0009   -0.0005
          40   -0.0459   -0.1147   -0.0506    0.0089   -0.0023    0.0015    0.0094    0.0120
          41   -0.0034   -0.0082   -0.0067   -0.0021   -0.0072    0.0033    0.0099    0.0071
          42    0.0171    0.0764    0.0111    0.0288    0.0481    0.0070    0.0428    0.0093
          43   -0.0133   -0.0214   -0.0096    0.0108    0.0187    0.0009    0.0085   -0.0067
          44    0.0503    0.1414    0.0494    0.0121    0.0269    0.0017    0.0085    0.0045
          45   -0.0079    0.0034   -0.0112    0.0187    0.0261    0.0042    0.0266    0.0032
          46   -0.0269    0.0073    0.0067    0.0072    0.0185   -0.0018   -0.0158    0.0056
          47    0.2082   -0.0782    0.0119   -0.0016   -0.0252    0.0005    0.0040   -0.0014
          48    0.0319   -0.0253    0.0343    0.0298    0.1205   -0.0010   -0.0091    0.0029
          49    0.0736   -0.0430    0.0178    0.0080    0.0624    0.0042    0.0333   -0.0096
          50   -0.0915    0.0513   -0.0175   -0.0085   -0.0520   -0.0031   -0.0249    0.0079
          51    0.0672   -0.0395    0.0073   -0.0009    0.0141    0.0018    0.0127   -0.0020
          52   -0.1914    0.0677    0.0026    0.0142    0.0723   -0.0013   -0.0115    0.0038
          53    0.0451   -0.0222    0.0093    0.0064    0.0350    0.0012    0.0105   -0.0040
          54    0.1476   -0.0753    0.0401    0.0283    0.1004   -0.0014   -0.0126    0.0040
          55   -0.0067    0.0100    0.0330    0.0432    0.0161   -0.0007   -0.0018    0.0046
          56    0.0062   -0.0010   -0.0216   -0.0324   -0.0203    0.0048    0.0504   -0.0247
          57    0.0042    0.0270    0.0116    0.0113   -0.0093    0.0102    0.1133   -0.0477
          58   -0.0004   -0.0044   -0.0109    0.0219   -0.0025   -0.1042    0.0110    0.0110
          59   -0.0049   -0.0039    0.0425   -0.0336   -0.0039    0.0244   -0.0006    0.0027
          60   -0.0120   -0.0155    0.0752   -0.0449   -0.0102   -0.0759    0.0123    0.0170
          61   -0.0144   -0.0344    0.0054   -0.0373    0.0103   -0.0356    0.0268    0.0749
          62   -0.0030   -0.0056    0.0102   -0.0228    0.0015    0.0054   -0.0280   -0.0957
          63   -0.0160   -0.0352    0.0163   -0.0588    0.0131   -0.0181   -0.0032   -0.0242
          64    0.0044    0.0003   -0.0273    0.0557   -0.0073   -0.0788    0.0204    0.0456
          65   -0.0043   -0.0035    0.0305   -0.0576    0.0065   -0.0012   -0.0047   -0.0167
          66   -0.0029   -0.0047    0.0296   -0.0416    0.0022   -0.0955    0.0135    0.0163


   Root No.      49        50        51        52        53        54        55        56

                49 A      50 A      51 A      52 A      53 A      54 A      55 A      56 A   

                2859.9    2952.9    2971.6    3033.1    3043.7    3057.6    3067.6    3073.1
  
           1   -0.0219   -0.0011   -0.0002    0.0006   -0.0004    0.0002   -0.0000   -0.0001
           2   -0.0568   -0.0029   -0.0001   -0.0002    0.0003    0.0001   -0.0001    0.0001
           3    0.0309    0.0015    0.0001    0.0000   -0.0001    0.0002    0.0000   -0.0000
           4   -0.0006   -0.0034    0.0000    0.0231   -0.0001   -0.0017   -0.0000    0.0013
           5    0.0047   -0.0548   -0.0001   -0.0150    0.0001    0.0017   -0.0000   -0.0013
           6   -0.0013    0.0180    0.0000   -0.0295    0.0001    0.0016    0.0000   -0.0015
           7   -0.0001    0.0000   -0.0346    0.0001    0.0276    0.0001   -0.0002   -0.0000
           8    0.0002    0.0001   -0.0450   -0.0001   -0.0300   -0.0001    0.0003   -0.0000
           9   -0.0000   -0.0000    0.0221   -0.0000   -0.0115   -0.0001    0.0001   -0.0002
          10    0.0000   -0.0000   -0.0001    0.0000   -0.0003    0.0000   -0.0369    0.0000
          11   -0.0001    0.0000   -0.0002   -0.0000   -0.0002    0.0000   -0.0400   -0.0001
          12    0.0001    0.0000    0.0000   -0.0000    0.0002   -0.0000    0.0176   -0.0000
          13    0.0002   -0.0003   -0.0003   -0.0003    0.0005   -0.0000    0.0000    0.0010
          14   -0.0010    0.0001   -0.0002    0.0001   -0.0002    0.0001    0.0000    0.0009
          15   -0.0008    0.0001   -0.0002   -0.0000    0.0003    0.0001   -0.0000    0.0019
          16   -0.0009   -0.0000   -0.0002   -0.0000    0.0004   -0.0000   -0.0001   -0.0000
          17    0.0003   -0.0000   -0.0000    0.0000   -0.0006    0.0000   -0.0001    0.0000
[...]
 TRAVEL      0.0960         C  9 -- C 10          +9.7% ( 38.9%)     88.8%
 RED. MASS   0.4785         C  1 -- C  2          +9.0% ( 37.4%)      1.4%
 EFF. MASS   5.3012

 VIBRATION   40   40A         ATOM PAIR      ENERGY CONTRIBUTION    RADIAL
 FREQ.      1390.28         C  4 -- H 17         +53.5% ( 63.4%)      0.1%
 T-DIPOLE    0.0679         C  4 -- H 16         +26.4% ( 44.5%)      6.8%
 TRAVEL      0.1754         C  4 -- H 18         +14.8% ( 33.4%)     20.2%
 RED. MASS   0.4265         C  4 -- C  6          +5.2% ( 19.7%)      0.0%
 EFF. MASS   1.5761

 VIBRATION   41   41A         ATOM PAIR      ENERGY CONTRIBUTION    RADIAL
 FREQ.      1392.05         C  4 -- H 18         +28.5% ( 52.5%)      0.6%
 T-DIPOLE    0.0815         C  4 -- H 16         +21.4% ( 45.5%)      2.7%
 TRAVEL      0.1329         C  4 -- H 17          +8.7% ( 29.1%)     31.6%
 RED. MASS   0.2939         C  3 -- C  5          +5.5% ( 23.2%)     77.1%
 EFF. MASS   2.7440

 VIBRATION   42   42A         ATOM PAIR      ENERGY CONTRIBUTION    RADIAL
 FREQ.      1395.43         C  3 -- C  5         +15.2% ( 51.3%)     49.7%
 T-DIPOLE    0.0923         C  1 -- C  5         +13.1% ( 47.8%)     98.7%
 TRAVEL      0.0853         C  3 -- H 15         +11.5% ( 44.7%)      6.6%
 RED. MASS   0.8215         C  3 -- H 14         +10.7% ( 43.2%)      8.7%
 EFF. MASS   6.6382

 VIBRATION   43   43A         ATOM PAIR      ENERGY CONTRIBUTION    RADIAL
 FREQ.      1408.55         C  1 -- C  2         +10.2% ( 45.9%)     90.7%
 T-DIPOLE    0.0879         C  9 -- C 10          +9.8% ( 45.0%)     99.1%
 TRAVEL      0.0769         C  1 -- C  5          +8.5% ( 42.0%)     15.9%
 RED. MASS   0.7318         C  1 -- C  7          +7.1% ( 38.4%)     73.4%
 EFF. MASS   8.0960

 VIBRATION   44   44A         ATOM PAIR      ENERGY CONTRIBUTION    RADIAL
 FREQ.      1443.34         C  1 -- C  2         +12.2% ( 54.3%)     72.1%
 T-DIPOLE    0.1292         C  2 -- C  8         +11.0% ( 51.5%)     92.5%
 TRAVEL      0.0665         C  9 -- C 10         +10.2% ( 49.7%)     99.8%
 RED. MASS   1.3546         C  1 -- C  5          +7.7% ( 43.1%)     55.8%
 EFF. MASS  10.5662

 VIBRATION   45   45A         ATOM PAIR      ENERGY CONTRIBUTION    RADIAL
 FREQ.      1479.37         C  4 -- C  6         +23.3% ( 74.2%)     83.2%
 T-DIPOLE    0.0759         C  3 -- C  6         +16.9% ( 63.3%)     90.4%
 TRAVEL      0.0652         C  6 -- C  7         +12.9% ( 55.1%)     13.7%
 RED. MASS   2.6667         C  4 -- H 18          +7.5% ( 42.0%)      3.3%
 EFF. MASS  10.7179

 VIBRATION   46   46A         ATOM PAIR      ENERGY CONTRIBUTION    RADIAL
 FREQ.      1836.75         C  8 -- C 10         +42.7% ( 96.7%)     99.9%
 T-DIPOLE    0.2472         C  9 -- C 10         +14.8% ( 56.9%)     61.1%
 TRAVEL      0.0556         C  2 -- C  8         +13.5% ( 54.3%)     47.8%
 RED. MASS   5.1067         C 10 -- H 22         +12.9% ( 53.1%)      4.5%
 EFF. MASS  11.8822         C  8 -- H 20         +12.4% ( 52.2%)      5.4%

 VIBRATION   47   47A         ATOM PAIR      ENERGY CONTRIBUTION    RADIAL
 FREQ.      1863.54         C  6 -- C  7         +38.9% ( 92.7%)     97.9%
 T-DIPOLE    0.3465         C  4 -- C  6         +16.5% ( 60.4%)     62.7%
 TRAVEL      0.0552         C  3 -- C  6         +14.9% ( 57.4%)      3.5%
 RED. MASS   4.5772         C  1 -- C  7          +9.3% ( 45.3%)     20.8%
 EFF. MASS  11.8656

 VIBRATION   48   48A         ATOM PAIR      ENERGY CONTRIBUTION    RADIAL
 FREQ.      1914.81         C  5 -- C  9         +39.1% ( 92.4%)     99.2%
 T-DIPOLE    0.2901         C  3 -- C  5         +16.0% ( 59.0%)     51.3%
 TRAVEL      0.0544         C  1 -- C  5         +15.6% ( 58.3%)     27.4%
 RED. MASS   4.6619         C  9 -- C 10          +9.6% ( 45.7%)     28.5%
 EFF. MASS  11.9092

 VIBRATION   49   49A         ATOM PAIR      ENERGY CONTRIBUTION    RADIAL
 FREQ.      2859.87         C  1 -- H 11         +96.6% ( 99.8%)    100.0%
 T-DIPOLE    0.0919         C  1 -- C  2          +1.0% ( 10.1%)      8.6%
 TRAVEL      0.1283         C  1 -- C  5          +1.0% ( 10.0%)      9.4%
 RED. MASS   0.9222         C  1 -- C  7          +1.0% ( 10.0%)      9.2%
 EFF. MASS   1.4330

 VIBRATION   50   50A         ATOM PAIR      ENERGY CONTRIBUTION    RADIAL
 FREQ.      2952.88         C  2 -- H 13         +58.9% ( 79.6%)     97.5%
 T-DIPOLE    0.0535         C  2 -- H 12         +38.4% ( 64.3%)     95.2%
 TRAVEL      0.1219         C  2 -- C  8          +1.1% ( 11.0%)      0.0%
 RED. MASS   0.5345         C  1 -- C  2          +1.1% ( 10.9%)      0.2%
 EFF. MASS   1.5360

 VIBRATION   51   51A         ATOM PAIR      ENERGY CONTRIBUTION    RADIAL
 FREQ.      2971.60         C  3 -- H 15         +55.1% ( 76.9%)     97.3%
 T-DIPOLE    0.0631         C  3 -- H 14         +42.7% ( 67.7%)     96.0%
 TRAVEL      0.1216         C  3 -- C  6          +1.1% ( 10.8%)      0.0%
 RED. MASS   0.5254         C  3 -- C  5          +1.1% ( 10.8%)      0.0%
 EFF. MASS   1.5350

 VIBRATION   52   52A         ATOM PAIR      ENERGY CONTRIBUTION    RADIAL
 FREQ.      3033.05         C  2 -- H 12         +59.7% ( 76.2%)     98.7%
 T-DIPOLE    0.0805         C  2 -- H 13         +37.7% ( 60.6%)     96.0%
 TRAVEL      0.1316         C  8 -- H 20          +1.2% ( 10.8%)    100.0%
 RED. MASS   0.4936         C  2 -- C  8          +0.7% (  8.0%)     19.8%
 EFF. MASS   1.2832

 VIBRATION   53   53A         ATOM PAIR      ENERGY CONTRIBUTION    RADIAL
 FREQ.      3043.68         C  3 -- H 14         +56.0% ( 74.0%)     98.2%
 T-DIPOLE    0.1243         C  3 -- H 15         +42.5% ( 64.4%)     96.5%
 TRAVEL      0.1313         C  3 -- C  5          +0.7% (  8.4%)     38.5%
 RED. MASS   0.4916         C  3 -- C  6          +0.7% (  8.4%)     36.5%
 EFF. MASS   1.2859

 VIBRATION   54   54A         ATOM PAIR      ENERGY CONTRIBUTION    RADIAL
 FREQ.      3057.64         C  8 -- H 20         +51.1% ( 72.6%)    100.0%
 T-DIPOLE    0.2639         C 10 -- H 22         +44.3% ( 67.6%)    100.0%
 TRAVEL      0.1227         C  9 -- H 21          +1.6% ( 12.8%)     99.9%
 RED. MASS   0.4469         C  8 -- C 10          +1.1% ( 10.6%)      0.1%
 EFF. MASS   1.4640

 VIBRATION   55   55A         ATOM PAIR      ENERGY CONTRIBUTION    RADIAL
 FREQ.      3067.56         C  4 -- H 16         +50.6% ( 73.4%)     97.3%
 T-DIPOLE    0.0300         C  4 -- H 18         +47.5% ( 71.1%)     96.8%
 TRAVEL      0.1209         C  4 -- C  6          +1.0% ( 10.2%)      0.0%
 RED. MASS   0.5099         C  4 -- H 17          +1.0% ( 10.1%)      1.1%
 EFF. MASS   1.5035

 VIBRATION   56   56A         ATOM PAIR      ENERGY CONTRIBUTION    RADIAL
 FREQ.      3073.08         C  9 -- H 21         +42.3% ( 66.1%)    100.0%
 T-DIPOLE    0.2866         C  8 -- H 20         +30.8% ( 56.4%)     99.9%
 TRAVEL      0.1190         C 10 -- H 22         +23.2% ( 48.9%)     99.8%
 RED. MASS   0.3258         C  8 -- C 10          +1.1% ( 10.7%)     99.2%
 EFF. MASS   1.5492

 VIBRATION   57   57A         ATOM PAIR      ENERGY CONTRIBUTION    RADIAL
 FREQ.      3078.20         C  4 -- H 17         +61.0% ( 80.6%)     98.7%
 T-DIPOLE    0.0429         C  4 -- H 18         +20.5% ( 46.7%)     87.1%
 TRAVEL      0.1203         C  4 -- H 16         +17.5% ( 43.1%)     84.4%
 RED. MASS   0.4758         C  4 -- C  6          +1.0% ( 10.5%)      0.0%
 EFF. MASS   1.5134

 VIBRATION   58   58A         ATOM PAIR      ENERGY CONTRIBUTION    RADIAL
 FREQ.      3082.33         C  9 -- H 21         +53.0% ( 73.8%)    100.0%
 T-DIPOLE    0.4038         C 10 -- H 22         +29.5% ( 55.1%)    100.0%
 TRAVEL      0.1178         C  8 -- H 20         +13.9% ( 37.8%)     99.8%
 RED. MASS   0.3857         C  9 -- C 10          +1.4% ( 11.8%)     86.7%
 EFF. MASS   1.5768

 VIBRATION   59   59A         ATOM PAIR      ENERGY CONTRIBUTION    RADIAL
 FREQ.      3128.91         C  7 -- H 19         +96.5% ( 99.9%)    100.0%
 T-DIPOLE    0.3722         C  6 -- C  7          +1.8% ( 13.6%)     49.4%
 TRAVEL      0.1177         C  1 -- C  7          +1.6% ( 13.0%)     23.2%
 RED. MASS   0.9287
 EFF. MASS   1.5552

 VIBRATION   60   60A         ATOM PAIR      ENERGY CONTRIBUTION    RADIAL
 FREQ.      3166.16         C  4 -- H 17         +37.8% ( 59.3%)     97.7%
 T-DIPOLE    0.0665         C  4 -- H 18         +30.9% ( 53.6%)     96.7%
 TRAVEL      0.1367         C  4 -- H 16         +30.9% ( 53.5%)     96.7%
 RED. MASS   0.3296         C  4 -- C  6          +0.3% (  5.5%)     99.4%
 EFF. MASS   1.1398

      SYMMETRY NUMBER FOR POINT-GROUP C1  =  1


          SYSTEM IS A GROUND STATE



 InChI=1S/C10H12/c1-8-6-9-4-2-3-5-10(9)7-8/h2-4,7,10H,5-6H2,1H3


          MOLECULE IS NOT LINEAR

          THERE ARE 60 GENUINE VIBRATIONS IN THIS SYSTEM
          THIS THERMODYNAMICS CALCULATION IS LIMITED TO
          MOLECULES WHICH HAVE NO INTERNAL ROTATIONS




                    CALCULATED THERMODYNAMIC PROPERTIES
                                          *
   TEMP. (K)   PARTITION FUNCTION   H.O.F.    ENTHALPY  HEAT CAPACITY ENTROPY
                                   KCAL/MOL   CAL/MOLE    CAL/K/MOL  CAL/K/MOL


 298.00  VIB.     0.6081D+02                  3654.2985    28.8004    20.4256
         ROT.     0.5507D+06                   888.2813     2.9808    29.2496
         INT.     0.3349D+08                  4542.5798    31.7812    49.6751
         TRA.     0.1470D+28                  1480.4688     4.9680    40.5480
         TOT.                       29.747    6023.0486    36.7492    90.2231

 200.00  VIB.     0.9058D+01                  1434.7260    16.8030    11.5527
         ROT.     0.3028D+06                   596.1620     2.9808    28.0609
         INT.     0.2743D+07                  2030.8879    19.7839    39.6136
         TRA.     0.8080D+27                   993.6033     4.9680    38.5668
         TOT.                       26.749    3024.4912    24.7519    78.1804

 210.00  VIB.     0.1087D+02                  1608.3505    17.9268    12.3996
         ROT.     0.3258D+06                   625.9700     2.9808    28.2063
         INT.     0.3540D+07                  2234.3205    20.9076    40.6059
         TRA.     0.8694D+27                  1043.2834     4.9680    38.8092
         TOT.                       27.002    3277.6039    25.8757    79.4151

 220.00  VIB.     0.1307D+02                  1793.3602    19.0799    13.2600
         ROT.     0.3493D+06                   655.7781     2.9808    28.3450
         INT.     0.4567D+07                  2449.1383    22.0607    41.6050
         TRA.     0.9322D+27                  1092.9636     4.9680    39.0403
         TOT.                       27.266    3542.1019    27.0287    80.6454

 230.00  VIB.     0.1578D+02                  1990.0399    20.2605    14.1341
         ROT.     0.3734D+06                   685.5862     2.9808    28.4775
         INT.     0.5891D+07                  2675.6262    23.2413    42.6116
         TRA.     0.9965D+27                  1142.6437     4.9680    39.2612
         TOT.                       27.543    3818.2699    28.2093    81.8728

 240.00  VIB.     0.1909D+02                  2198.6545    21.4664    15.0218
         ROT.     0.3980D+06                   715.3943     2.9808    28.6044
         INT.     0.7599D+07                  2914.0489    24.4472    43.6262
         TRA.     0.1062D+28                  1192.3239     4.9680    39.4726
         TOT.                       27.831    4106.3728    29.4152    83.0988

 250.00  VIB.     0.2317D+02                  2419.4431    22.6948    15.9229
         ROT.     0.4232D+06                   745.2024     2.9808    28.7261
         INT.     0.9803D+07                  3164.6455    25.6756    44.6490
         TRA.     0.1129D+28                  1242.0041     4.9680    39.6754
         TOT.                       28.131    4406.6496    30.6436    84.3244

 260.00  VIB.     0.2819D+02                  2652.6150    23.9425    16.8373
         ROT.     0.4488D+06                   775.0105     2.9808    28.8430
         INT.     0.1265D+08                  3427.6256    26.9233    45.6802
         TRA.     0.1198D+28                  1291.6842     4.9680    39.8703
         TOT.                       28.444    4719.3098    31.8914    85.5505

 270.00  VIB.     0.3438D+02                  2898.3471    25.2063    17.7645
         ROT.     0.4749D+06                   804.8186     2.9808    28.9555
         INT.     0.1633D+08                  3703.1657    28.1871    46.7200
         TRA.     0.1267D+28                  1341.3644     4.9680    40.0578
         TOT.                       28.769    5044.5301    33.1551    86.7777

 280.00  VIB.     0.4205D+02                  3156.7819    26.4825    18.7042
         ROT.     0.5016D+06                   834.6267     2.9808    29.0639
         INT.     0.2109D+08                  3991.4087    29.4633    47.7681
         TRA.     0.1338D+28                  1391.0445     4.9680    40.2384
         TOT.                       29.107    5382.4532    34.4313    88.0066

 290.00  VIB.     0.5156D+02                  3428.0275    27.7678    19.6560
         ROT.     0.5287D+06                   864.4348     2.9808    29.1685
         INT.     0.2726D+08                  4292.4624    30.7486    48.8244
         TRA.     0.1411D+28                  1440.7247     4.9680    40.4128
         TOT.                       29.458    5733.1871    35.7167    89.2372

 300.00  VIB.     0.6338D+02                  3712.1577    29.0589    20.6191
         ROT.     0.5563D+06                   894.2429     2.9808    29.2695
         INT.     0.3526D+08                  4606.4006    32.0397    49.8886
         TRA.     0.1484D+28                  1490.4049     4.9680    40.5812
         TOT.                       29.821    6096.8055    37.0077    90.4698

 310.00  VIB.     0.7809D+02                  4009.2130    30.3523    21.5930
         ROT.     0.5843D+06                   924.0510     2.9808    29.3673
         INT.     0.4563D+08                  4933.2640    33.3332    50.9603
         TRA.     0.1559D+28                  1540.0850     4.9680    40.7441
         TOT.                       30.198    6473.3490    38.3012    91.7044

 320.00  VIB.     0.9645D+02                  4319.2025    31.6452    22.5771
         ROT.     0.6128D+06                   953.8591     2.9808    29.4619
         INT.     0.5910D+08                  5273.0616    34.6260    52.0390
         TRA.     0.1635D+28                  1589.7652     4.9680    40.9018
         TOT.                       30.587    6862.8268    39.5940    92.9408

 330.00  VIB.     0.1194D+03                  4642.1057    32.9346    23.5706
         ROT.     0.6417D+06                   983.6672     2.9808    29.5536
         INT.     0.7662D+08                  5625.7729    35.9154    53.1242
         TRA.     0.1713D+28                  1639.4454     4.9680    41.0547
         TOT.                       30.990    7265.2183    40.8835    94.1789

 340.00  VIB.     0.1481D+03                  4977.8750    34.2180    24.5729
         ROT.     0.6711D+06                  1013.4753     2.9808    29.6426
         INT.     0.9941D+08                  5991.3504    37.1988    54.2155
         TRA.     0.1791D+28                  1689.1255     4.9680    41.2030
         TOT.                       31.405    7680.4759    42.1668    95.4185

 350.00  VIB.     0.1842D+03                  5326.4380    35.4930    25.5832
         ROT.     0.7010D+06                  1043.2834     2.9808    29.7290
         INT.     0.1291D+09                  6369.7214    38.4738    55.3122
         TRA.     0.1871D+28                  1738.8057     4.9680    41.3470
         TOT.                       31.833    8108.5271    43.4418    96.6592

 360.00  VIB.     0.2294D+03                  5687.6998    36.7575    26.6008
         ROT.     0.7312D+06                  1073.0915     2.9808    29.8130
         INT.     0.1678D+09                  6760.7914    39.7383    56.4138
         TRA.     0.1951D+28                  1788.4859     4.9680    41.4870
         TOT.                       32.274    8549.2772    44.7063    97.9008

 370.00  VIB.     0.2864D+03                  6061.5461    38.0096    27.6250
         ROT.     0.7619D+06                  1102.8996     2.9808    29.8947
         INT.     0.2182D+09                  7164.4457    40.9904    57.5197
         TRA.     0.2033D+28                  1838.1660     4.9680    41.6231
         TOT.                       32.727    9002.6117    45.9584    99.1428

 380.00  VIB.     0.3582D+03                  6447.8449    39.2477    28.6551
         ROT.     0.7930D+06                  1132.7077     2.9808    29.9742
         INT.     0.2841D+09                  7580.5526    42.2285    58.6293
         TRA.     0.2116D+28                  1887.8462     4.9680    41.7556
         TOT.                       33.193    9468.3988    47.1966   100.3849

 390.00  VIB.     0.4489D+03                  6846.4495    40.4705    29.6905
         ROT.     0.8245D+06                  1162.5158     2.9808    30.0516
         INT.     0.3701D+09                  8008.9653    43.4513    59.7420
         TRA.     0.2200D+28                  1937.5263     4.9680    41.8846
         TOT.                       33.671    9946.4917    48.4194   101.6267

 400.00  VIB.     0.5635D+03                  7257.2006    41.6768    30.7303
         ROT.     0.8564D+06                  1192.3239     2.9808    30.1270
         INT.     0.4826D+09                  8449.5245    44.6576    60.8574
         TRA.     0.2285D+28                  1987.2065     4.9680    42.0104
         TOT.                       34.161   10436.7310    49.6257   102.8678

   *: NOTE: HEATS OF FORMATION ARE RELATIVE TO THE
            ELEMENTS IN THEIR STANDARD STATE AT 298K
              (=  Standard Enthalpy of Formation).

            Hvib:  Zero-point energy is not included.
                   frequencies of less than zero cm-1 are not included.
            Hrot = (3/2)RT
            Htra = (3/2)RT + pV = (5/2)RT

            Heat capacity is Cp, not Cv

          For more information, see: HTTP://OpenMOPAC.net/Manual/thermochemistry.html


           FORCE CONSTANT IN CARTESIAN COORDINATES (Millidynes/A)

    ATOM   CHEMICAL       X               Y               Z
   NUMBER   SYMBOL  FORCE CONSTANT  FORCE CONSTANT  FORCE CONSTANT

      1       C        9.169819        8.360065        8.516567
      2       C        8.310841        8.338206        8.678640
      3       C        8.783349        8.905601        7.944411
      4       C        8.505216        8.231725        8.948420
      5       C        8.970739        7.280323       11.968304
      6       C       10.328057        8.438552        9.544402
      7       C        9.002571        8.920660        9.365421
      8       C       10.061945        6.696512       10.040325
      9       C        9.401418        7.947180       10.348630
     10       C        9.774638        6.766439       10.964266
     11       H        1.095056        3.320855        1.405204
     12       H        1.183470        4.264204        0.921964
     13       H        1.205535        2.506243        2.542877
     14       H        0.661062        4.973779        0.701351
     15       H        3.764752        0.925855        1.578902
     16       H        4.817997        0.817208        1.000244
     17       H        0.919466        1.995250        3.825164
     18       H        0.681519        5.097564        0.863518
     19       H        0.898276        2.085736        3.433134
     20       H        4.318948        1.003624        0.951564
     21       H        1.211733        3.346987        1.718564
     22       H        1.257125        0.783251        4.235398

 **********************
 *                    *
 * JOB ENDED NORMALLY *
 *                    *
 **********************



 TOTAL JOB TIME:            10.09 SECONDS

 == MOPAC DONE ==
