 *******************************************************************************
 ** Site#: 14399        For non-commercial use only    Version 18.184L 64BITS **
 *******************************************************************************
 ** Cite this program as: MOPAC2016, Version: 18.184L, James J. P. Stewart,   **
 ** Stewart Computational Chemistry, web: HTTP://OpenMOPAC.net. Days left:  20**
 *******************************************************************************
 **                                                                           **
 **                                MOPAC2016                                  **
 **                                                                           **
 *******************************************************************************

                              PM3 CALCULATION RESULTS

 *******************************************************************************
 *  CALCULATION DONE:                                Thu Jun 13 15:54:29 2019  *
 *  PM3        - The PM3 Hamiltonian to be used
 *  PRECISE    - CRITERIA TO BE INCREASED BY 100 TIMES
 *  NOSYM      - POINT-GROUP SYMMETRY SET TO C1
 *  THREADS=1  - MULTI-THREADING NOT USED
 *  T=         - A TIME OF 172800.0 SECONDS REQUESTED
 *  DUMP=N     - RESTART FILE WRITTEN EVERY  7200.000 SECONDS
 *******************************************************************************
pm3  precise nosym THREADS=1
 InChI=1S/C10H10/c1-8-6-9-4-2-3-5-10(9)7-8/h2-5H,1,6-7H2

   ATOM   CHEMICAL          X               Y               Z
  NUMBER   SYMBOL      (ANGSTROMS)     (ANGSTROMS)     (ANGSTROMS)
 
     1       C         -1.00410000  *  -1.28010000  *  -0.21940000  *
     2       C         -1.08250000  *   1.21830000  *  -0.05450000  *
     3       C         -1.87280000  *  -0.05550000  *  -0.15910000  *
     4       C          0.35200000  *  -0.67930000  *  -0.14570000  *
     5       C          0.30870000  *   0.69890000  *  -0.05470000  *
     6       C          1.57060000  *  -1.36160000  *  -0.16110000  *
     7       C          1.48230000  *   1.45200000  *   0.02460000  *
     8       C          2.75990000  *  -0.62050000  *  -0.08220000  *
     9       C          2.71580000  *   0.78270000  *   0.01050000  *
    10       C         -3.20770000  *  -0.09500000  *  -0.19490000  *
    11       H         -1.14410000  *  -1.82130000  *  -1.17940000  *
    12       H         -1.18940000  *  -1.94360000  *   0.65200000  *
    13       H         -1.26000000  *   1.87100000  *  -0.93560000  *
    14       H         -1.30530000  *   1.74870000  *   0.89580000  *
    15       H          1.59900000  *  -2.44120000  *  -0.23250000  *
    16       H          1.44290000  *   2.53130000  *   0.09580000  *
    17       H          3.71430000  *  -1.13050000  *  -0.09260000  *
    18       H          3.63650000  *   1.34830000  *   0.07110000  *
    19       H         -3.72880000  *  -1.04420000  *  -0.27120000  *
    20       H         -3.78740000  *   0.82150000  *  -0.14800000  *
 


          CARTESIAN COORDINATES 

    NO.       ATOM           X           Y           Z

     1         C         -1.0041     -1.2801     -0.2194
     2         C         -1.0825      1.2183     -0.0545
     3         C         -1.8728     -0.0555     -0.1591
     4         C          0.3520     -0.6793     -0.1457
     5         C          0.3087      0.6989     -0.0547
     6         C          1.5706     -1.3616     -0.1611
     7         C          1.4823      1.4520      0.0246
     8         C          2.7599     -0.6205     -0.0822
     9         C          2.7158      0.7827      0.0105
    10         C         -3.2077     -0.0950     -0.1949
    11         H         -1.1441     -1.8213     -1.1794
    12         H         -1.1894     -1.9436      0.6520
    13         H         -1.2600      1.8710     -0.9356
    14         H         -1.3053      1.7487      0.8958
    15         H          1.5990     -2.4412     -0.2325
    16         H          1.4429      2.5313      0.0958
    17         H          3.7143     -1.1305     -0.0926
    18         H          3.6365      1.3483      0.0711
    19         H         -3.7288     -1.0442     -0.2712
    20         H         -3.7874      0.8215     -0.1480

  H: (PM3): J. J. P. STEWART, J. COMP. CHEM. 10, 209 (1989).
  C: (PM3): J. J. P. STEWART, J. COMP. CHEM. 10, 209 (1989).

           Empirical Formula: C10 H10  =    20 atoms



      MOLECULAR POINT GROUP   :   C1  


      RHF CALCULATION, NO. OF DOUBLY OCCUPIED LEVELS = 25


          Geometry optimization using EF

          DIAGONAL MATRIX USED AS START HESSIAN

 CYCLE:     1 TIME:   0.027 TIME LEFT:  2.00D  GRAD.:    93.897 HEAT:  34.60477
 CYCLE:     2 TIME:   0.047 TIME LEFT:  2.00D  GRAD.:    43.347 HEAT:  33.08605
 CYCLE:     3 TIME:   0.023 TIME LEFT:  2.00D  GRAD.:    45.802 HEAT:  32.64749
 CYCLE:     4 TIME:   0.023 TIME LEFT:  2.00D  GRAD.:    40.069 HEAT:  32.39981
 CYCLE:     5 TIME:   0.023 TIME LEFT:  2.00D  GRAD.:    40.680 HEAT:  32.23923
 CYCLE:     6 TIME:   0.023 TIME LEFT:  2.00D  GRAD.:    34.458 HEAT:  32.17083
 CYCLE:     7 TIME:   0.023 TIME LEFT:  2.00D  GRAD.:    24.462 HEAT:  32.01353
 CYCLE:     8 TIME:   0.031 TIME LEFT:  2.00D  GRAD.:    20.491 HEAT:  31.94043
 CYCLE:     9 TIME:   0.020 TIME LEFT:  2.00D  GRAD.:    20.617 HEAT:  31.91116
 CYCLE:    10 TIME:   0.023 TIME LEFT:  2.00D  GRAD.:    16.588 HEAT:  31.85146
 CYCLE:    11 TIME:   0.023 TIME LEFT:  2.00D  GRAD.:    16.517 HEAT:  31.84895
 CYCLE:    12 TIME:   0.023 TIME LEFT:  2.00D  GRAD.:     8.122 HEAT:  31.76614
 CYCLE:    13 TIME:   0.035 TIME LEFT:  2.00D  GRAD.:     3.731 HEAT:  31.74729
 CYCLE:    14 TIME:   0.023 TIME LEFT:  2.00D  GRAD.:     3.895 HEAT:  31.73610
 CYCLE:    15 TIME:   0.023 TIME LEFT:  2.00D  GRAD.:     4.963 HEAT:  31.72456
 CYCLE:    16 TIME:   0.023 TIME LEFT:  2.00D  GRAD.:     6.313 HEAT:  31.72277
 CYCLE:    17 TIME:   0.031 TIME LEFT:  2.00D  GRAD.:     2.245 HEAT:  31.71389
 CYCLE:    18 TIME:   0.020 TIME LEFT:  2.00D  GRAD.:     4.629 HEAT:  31.71644
 CYCLE:    19 TIME:   0.023 TIME LEFT:  2.00D  GRAD.:     1.797 HEAT:  31.71234
 CYCLE:    20 TIME:   0.023 TIME LEFT:  2.00D  GRAD.:     2.156 HEAT:  31.71263
 CYCLE:    21 TIME:   0.023 TIME LEFT:  2.00D  GRAD.:     1.096 HEAT:  31.71139
 CYCLE:    22 TIME:   0.023 TIME LEFT:  2.00D  GRAD.:     1.862 HEAT:  31.71193
 CYCLE:    23 TIME:   0.023 TIME LEFT:  2.00D  GRAD.:     0.536 HEAT:  31.71092
 CYCLE:    24 TIME:   0.023 TIME LEFT:  2.00D  GRAD.:     1.019 HEAT:  31.71103
 CYCLE:    25 TIME:   0.020 TIME LEFT:  2.00D  GRAD.:     0.266 HEAT:  31.71075
 CYCLE:    26 TIME:   0.023 TIME LEFT:  2.00D  GRAD.:     0.327 HEAT:  31.71070
 CYCLE:    27 TIME:   0.023 TIME LEFT:  2.00D  GRAD.:     0.181 HEAT:  31.71063
 CYCLE:    28 TIME:   0.023 TIME LEFT:  2.00D  GRAD.:     0.209 HEAT:  31.71060
 CYCLE:    29 TIME:   0.023 TIME LEFT:  2.00D  GRAD.:     0.224 HEAT:  31.71060
 CYCLE:    30 TIME:   0.023 TIME LEFT:  2.00D  GRAD.:     0.097 HEAT:  31.71059
 CYCLE:    31 TIME:   0.020 TIME LEFT:  2.00D  GRAD.:     0.067 HEAT:  31.71058
 CYCLE:    32 TIME:   0.023 TIME LEFT:  2.00D  GRAD.:     0.032 HEAT:  31.71058

     GRADIENT =  0.03178  IS LESS THAN CUTOFF =  0.05000



 -------------------------------------------------------------------------------
 pm3  precise nosym THREADS=1
 InChI=1S/C10H10/c1-8-6-9-4-2-3-5-10(9)7-8/h2-5H,1,6-7H2



     GEOMETRY OPTIMISED USING EIGENVECTOR FOLLOWING (EF).     
     SCF FIELD WAS ACHIEVED                                   


                              PM3 CALCULATION
                                                       MOPAC2016 (Version: 18.184L)
                                                       Thu Jun 13 15:54:29 2019
                                                       No. of days remaining =  20




          FINAL HEAT OF FORMATION =         31.71058 KCAL/MOL =     132.67707 KJ/MOL


          TOTAL ENERGY            =      -1338.35584 EV
          ELECTRONIC ENERGY       =      -7032.11333 EV  POINT GROUP:     C1  
          CORE-CORE REPULSION     =       5693.75748 EV
          COSMO AREA              =        173.84 SQUARE ANGSTROMS
          COSMO VOLUME            =        172.99 CUBIC ANGSTROMS

          GRADIENT NORM           =          0.03178 = 0.00711 PER ATOM
          IONIZATION POTENTIAL    =          9.199093 EV
          HOMO LUMO ENERGIES (EV) =         -9.199  0.350
          NO. OF FILLED LEVELS    =         25
          MOLECULAR WEIGHT        =        130.1890

          MOLECULAR DIMENSIONS (Angstroms)

            Atom       Atom       Distance
            H    20    H    17     7.81552
            H    16    H    11     5.04637
            H    12    H    13     2.37667


          SCF CALCULATIONS        =         39
 
          WALL-CLOCK TIME         =          0.844 SECONDS
          COMPUTATION TIME        =          0.337 SECONDS




   ATOM   CHEMICAL          X               Y               Z
  NUMBER   SYMBOL      (ANGSTROMS)     (ANGSTROMS)     (ANGSTROMS)
 
     1       C         -1.00468017  *  -1.26173019  *  -0.21779709  *
     2       C         -1.08193644  *   1.19994707  *  -0.05531105  *
     3       C         -1.90536392  *  -0.05639935  *  -0.15998484  *
     4       C          0.37587997  *  -0.69052108  *  -0.14567002  *
     5       C          0.33188129  *   0.71154067  *  -0.05307558  *
     6       C          1.58635448  *  -1.36087794  *  -0.16070521  *
     7       C          1.49811136  *   1.45225446  *   0.02510644  *
     8       C          2.76256582  *  -0.61190747  *  -0.08180882  *
     9       C          2.71908002  *   0.77426451  *   0.00975827  *
    10       C         -3.23214154  *  -0.09578918  *  -0.19616150  *
    11       H         -1.15775410  *  -1.83856306  *  -1.14917593  *
    12       H         -1.20148217  *  -1.95605031  *   0.62055707  *
    13       H         -1.27448861  *   1.88335132  *  -0.90354839  *
    14       H         -1.31830217  *   1.76457791  *   0.86608008  *
    15       H          1.62113146  *  -2.45215434  *  -0.23273325  *
    16       H          1.46447885  *   2.54355905  *   0.09723579  *
    17       H          3.72955475  *  -1.12530957  *  -0.09241767  *
    18       H          3.65211574  *   1.34393564  *   0.07071212  *
    19       H         -3.78751669  *  -1.02533168  *  -0.27232425  *
    20       H         -3.84514485  *   0.79894210  *  -0.15192193  *

                             CARTESIAN COORDINATES

   1    C       -1.004680173    -1.261730192    -0.217797090
   2    C       -1.081936441     1.199947074    -0.055311047
   3    C       -1.905363920    -0.056399352    -0.159984838
   4    C        0.375879969    -0.690521084    -0.145670021
   5    C        0.331881294     0.711540666    -0.053075585
   6    C        1.586354483    -1.360877938    -0.160705206
   7    C        1.498111360     1.452254461     0.025106443
   8    C        2.762565819    -0.611907474    -0.081808823
   9    C        2.719080017     0.774264509     0.009758274
  10    C       -3.232141545    -0.095789184    -0.196161498
  11    H       -1.157754099    -1.838563062    -1.149175933
  12    H       -1.201482165    -1.956050310     0.620557071
  13    H       -1.274488606     1.883351319    -0.903548394
  14    H       -1.318302174     1.764577906     0.866080077
  15    H        1.621131455    -2.452154340    -0.232733255
  16    H        1.464478849     2.543559046     0.097235785
  17    H        3.729554754    -1.125309571    -0.092417667
  18    H        3.652115744     1.343935639     0.070712121
  19    H       -3.787516691    -1.025331683    -0.272324253
  20    H       -3.845144852     0.798942101    -0.151921926


           Empirical Formula: C10 H10  =    20 atoms



      MOLECULAR POINT GROUP   :   C1  


                  EIGENVALUES  
 -41.49002 -35.93210 -30.89236 -29.60742 -26.51387 -24.61542 -21.10249 -20.24136
 -18.77372 -17.55480 -16.40263 -15.74958 -15.73080 -14.89930 -14.71248 -14.03976
 -13.76509 -13.76464 -12.76536 -12.69349 -12.27300 -12.16702 -10.12652  -9.63658
  -9.19909   0.35026   0.40850   1.04346   2.75782   3.10150   3.11810   3.46852
   3.47608   3.59170   3.59517   3.90839   3.94054   4.04924   4.16664   4.42508
   4.42592   4.52757   4.99269   5.05020   5.28769   5.32825   5.53654   5.92170
   6.16325   6.40084


              NET ATOMIC CHARGES AND DIPOLE CONTRIBUTIONS

  ATOM NO.   TYPE          CHARGE      No. of ELECS.   s-Pop       p-Pop       
    1          C          -0.004630        4.0046     1.13462     2.87001
    2          C          -0.004598        4.0046     1.13460     2.86999
    3          C          -0.116623        4.1166     1.20688     2.90974
    4          C          -0.088225        4.0882     1.18723     2.90100
    5          C          -0.088220        4.0882     1.18723     2.90099
    6          C          -0.085938        4.0859     1.17170     2.91424
    7          C          -0.085931        4.0859     1.17170     2.91423
    8          C          -0.103692        4.1037     1.17918     2.92451
    9          C          -0.103698        4.1037     1.17919     2.92451
   10          C          -0.172403        4.1724     1.17633     2.99608
   11          H           0.067161        0.9328     0.93284
   12          H           0.067162        0.9328     0.93284
   13          H           0.067157        0.9328     0.93284
   14          H           0.067160        0.9328     0.93284
   15          H           0.105789        0.8942     0.89421
   16          H           0.105786        0.8942     0.89421
   17          H           0.101392        0.8986     0.89861
   18          H           0.101392        0.8986     0.89861
   19          H           0.085472        0.9145     0.91453
   20          H           0.085487        0.9145     0.91451
 DIPOLE           X         Y         Z       TOTAL
 POINT-CHG.    -0.082    -0.002    -0.002     0.082
 HYBRID        -0.020    -0.001    -0.000     0.020
 SUM           -0.101    -0.003    -0.002     0.102


          ATOMIC ORBITAL ELECTRON POPULATIONS

     Atom    s        px        py        pz   
    1  C   1.13462   0.90810   0.94996   1.01196
    2  C   1.13460   0.90948   0.94863   1.01188
    3  C   1.20688   0.95606   0.95926   0.99442
    4  C   1.18723   0.95065   0.94824   1.00211
    5  C   1.18723   0.95118   0.94774   1.00208
    6  C   1.17170   0.92794   0.97924   1.00706
    7  C   1.17170   0.92874   0.97848   1.00701
    8  C   1.17918   0.97118   0.94812   1.00522
    9  C   1.17919   0.96873   0.95042   1.00536
   10  C   1.17633   0.94543   1.01537   1.03527
   11  H   0.93284
   12  H   0.93284
   13  H   0.93284
   14  H   0.93284
   15  H   0.89421
   16  H   0.89421
   17  H   0.89861
   18  H   0.89861
   19  H   0.91453
   20  H   0.91451
 *******************************************************************************
 ** Site#: 14399        For non-commercial use only    Version 18.184L 64BITS **
 *******************************************************************************
 ** Cite this program as: MOPAC2016, Version: 18.184L, James J. P. Stewart,   **
 ** Stewart Computational Chemistry, web: HTTP://OpenMOPAC.net. Days left:  20**
 *******************************************************************************
 **                                                                           **
 **                                MOPAC2016                                  **
 **                                                                           **
 *******************************************************************************

                              PM3 CALCULATION RESULTS

 *******************************************************************************
 *  CALCULATION DONE:                                Thu Jun 13 15:54:29 2019  *
 *  PM3        - The PM3 Hamiltonian to be used
 *  OLDGEO     - PREVIOUS GEOMETRY TO BE USED
 *  PRECISE    - CRITERIA TO BE INCREASED BY 100 TIMES
 *  NOSYM      - POINT-GROUP SYMMETRY SET TO C1
 *  THREADS=1  - MULTI-THREADING NOT USED
 *  T=         - A TIME OF 172800.0 SECONDS REQUESTED
 *  DUMP=N     - RESTART FILE WRITTEN EVERY  7200.000 SECONDS
 *  THERMO     - THERMODYNAMIC QUANTITIES TO BE CALCULATED
 *******************************************************************************
oldgeo thermo nosym precise THREADS=1  pm3
 InChI=1S/C10H10/c1-8-6-9-4-2-3-5-10(9)7-8/h2-5H,1,6-7H2

   ATOM   CHEMICAL          X               Y               Z
  NUMBER   SYMBOL      (ANGSTROMS)     (ANGSTROMS)     (ANGSTROMS)
 
     1       C         -1.00468017  *  -1.26173019  *  -0.21779709  *
     2       C         -1.08193644  *   1.19994707  *  -0.05531105  *
     3       C         -1.90536392  *  -0.05639935  *  -0.15998484  *
     4       C          0.37587997  *  -0.69052108  *  -0.14567002  *
     5       C          0.33188129  *   0.71154067  *  -0.05307558  *
     6       C          1.58635448  *  -1.36087794  *  -0.16070521  *
     7       C          1.49811136  *   1.45225446  *   0.02510644  *
     8       C          2.76256582  *  -0.61190747  *  -0.08180882  *
     9       C          2.71908002  *   0.77426451  *   0.00975827  *
    10       C         -3.23214154  *  -0.09578918  *  -0.19616150  *
    11       H         -1.15775410  *  -1.83856306  *  -1.14917593  *
    12       H         -1.20148217  *  -1.95605031  *   0.62055707  *
    13       H         -1.27448861  *   1.88335132  *  -0.90354839  *
    14       H         -1.31830217  *   1.76457791  *   0.86608008  *
    15       H          1.62113146  *  -2.45215434  *  -0.23273325  *
    16       H          1.46447885  *   2.54355905  *   0.09723579  *
    17       H          3.72955475  *  -1.12530957  *  -0.09241767  *
    18       H          3.65211574  *   1.34393564  *   0.07071212  *
    19       H         -3.78751669  *  -1.02533168  *  -0.27232425  *
    20       H         -3.84514485  *   0.79894210  *  -0.15192193  *
 


          CARTESIAN COORDINATES 

    NO.       ATOM           X           Y           Z

     1         C         -1.0047     -1.2617     -0.2178
     2         C         -1.0819      1.1999     -0.0553
     3         C         -1.9054     -0.0564     -0.1600
     4         C          0.3759     -0.6905     -0.1457
     5         C          0.3319      0.7115     -0.0531
     6         C          1.5864     -1.3609     -0.1607
     7         C          1.4981      1.4523      0.0251
     8         C          2.7626     -0.6119     -0.0818
     9         C          2.7191      0.7743      0.0098
    10         C         -3.2321     -0.0958     -0.1962
    11         H         -1.1578     -1.8386     -1.1492
    12         H         -1.2015     -1.9561      0.6206
    13         H         -1.2745      1.8834     -0.9035
    14         H         -1.3183      1.7646      0.8661
    15         H          1.6211     -2.4522     -0.2327
    16         H          1.4645      2.5436      0.0972
    17         H          3.7296     -1.1253     -0.0924
    18         H          3.6521      1.3439      0.0707
    19         H         -3.7875     -1.0253     -0.2723
    20         H         -3.8451      0.7989     -0.1519

  H: (PM3): J. J. P. STEWART, J. COMP. CHEM. 10, 209 (1989).
  C: (PM3): J. J. P. STEWART, J. COMP. CHEM. 10, 209 (1989).

           Empirical Formula: C10 H10  =    20 atoms



      MOLECULAR POINT GROUP   :   C1  


      RHF CALCULATION, NO. OF DOUBLY OCCUPIED LEVELS = 25



          HEAT OF FORMATION =      31.710580 KCALS/MOLE


          CARTESIAN COORDINATE DERIVATIVES

   NUMBER  ATOM         X            Y            Z

     1       C     -0.001242     0.003347    -0.001802
     2       C     -0.001819    -0.008055     0.009367
     3       C      0.001829     0.003837    -0.006049
     4       C      0.022060     0.005873     0.003978
     5       C     -0.010653     0.016355    -0.010204
     6       C     -0.002836    -0.014703     0.000838
     7       C      0.003259    -0.011784    -0.000278
     8       C     -0.021060     0.010105    -0.002169
     9       C      0.013231     0.016900     0.005307
    10       C      0.001970     0.003538     0.004991
    11       H     -0.001102    -0.004325    -0.000875
    12       H      0.000249    -0.008097     0.003796
    13       H     -0.001735    -0.010650     0.002224
    14       H      0.001645    -0.005527    -0.000771
    15       H     -0.001435    -0.001752     0.000568
    16       H      0.000711    -0.005038     0.000319
    17       H      0.006275     0.008156    -0.002040
    18       H     -0.001900    -0.002447    -0.001902
    19       H      0.000147    -0.002247    -0.002117
    20       H     -0.007593     0.006516    -0.003182
 


          GRADIENT NORM =   0.05687


          TIME FOR SCF CALCULATION =    0.03

          TIME FOR DERIVATIVES     =    0.01

          MOLECULAR WEIGHT =  130.19



          ROTATIONAL CONSTANTS IN CM(-1)

          A =    0.11833205   B =    0.03346698   C =    0.02634726



           PRINCIPAL MOMENTS OF INERTIA IN UNITS OF 10**(-40)*GRAM-CM**2

          A =      236.5612   B =      836.4297   C =     1062.4547


          ORIENTATION OF MOLECULE IN FORCE CALCULATION

    NO.       ATOM         X         Y         Z

     1          C      -1.2341    1.2170    0.0009
     2          C       1.2342    1.2170    0.0009
     3          C       0.0000    2.0797    0.0009
     4          C      -0.7029   -0.1813    0.0001
     5          C       0.7029   -0.1813    0.0001
     6          C      -1.4103   -1.3706   -0.0006
     7          C       1.4103   -1.3706   -0.0006
     8          C      -0.6950   -2.5701   -0.0014
     9          C       0.6949   -2.5702   -0.0014
    10          C      -0.0001    3.4076    0.0008
    11          H      -1.8659    1.4123   -0.8858
    12          H      -1.8652    1.4114    0.8884
    13          H       1.8659    1.4122   -0.8858
    14          H       1.8653    1.4114    0.8883
    15          H      -2.5045   -1.3711   -0.0007
    16          H       2.5045   -1.3713   -0.0005
    17          H      -1.2380   -3.5209   -0.0021
    18          H       1.2379   -3.5209   -0.0020
    19          H      -0.9148    3.9921    0.0008
    20          H       0.9143    3.9924    0.0007


    FIRST DERIVATIVES WILL BE USED IN THE CALCULATION OF SECOND DERIVATIVES

          ESTIMATED TIME TO COMPLETE CALCULATION =        9.38 SECONDS

    FOR POINT-GROUP C1   THERE ARE   1 UNIQUE SYMMETRY FUNCTIONS.

 STEP:   1 TIME =     0.05 SECS, INTEGRAL =      0.05 TIME LEFT: 172799.91
 STEP:   2 TIME =     0.04 SECS, INTEGRAL =      0.09 TIME LEFT: 172799.87
 STEP:   3 TIME =     0.05 SECS, INTEGRAL =      0.14 TIME LEFT: 172799.82
 STEP:   4 TIME =     0.04 SECS, INTEGRAL =      0.18 TIME LEFT: 172799.78
 STEP:   5 TIME =     0.05 SECS, INTEGRAL =      0.23 TIME LEFT: 172799.73
 STEP:   6 TIME =     0.05 SECS, INTEGRAL =      0.28 TIME LEFT: 172799.68
 STEP:   7 TIME =     0.04 SECS, INTEGRAL =      0.32 TIME LEFT: 172799.64
 STEP:   8 TIME =     0.05 SECS, INTEGRAL =      0.37 TIME LEFT: 172799.59
 STEP:   9 TIME =     0.05 SECS, INTEGRAL =      0.41 TIME LEFT: 172799.55
 STEP:  10 TIME =     0.05 SECS, INTEGRAL =      0.46 TIME LEFT: 172799.50
 STEP:  11 TIME =     0.04 SECS, INTEGRAL =      0.50 TIME LEFT: 172799.46
 STEP:  12 TIME =     0.05 SECS, INTEGRAL =      0.55 TIME LEFT: 172799.41
 STEP:  13 TIME =     0.05 SECS, INTEGRAL =      0.60 TIME LEFT: 172799.36
 STEP:  14 TIME =     0.05 SECS, INTEGRAL =      0.64 TIME LEFT: 172799.32
 STEP:  15 TIME =     0.05 SECS, INTEGRAL =      0.69 TIME LEFT: 172799.27
 STEP:  16 TIME =     0.04 SECS, INTEGRAL =      0.73 TIME LEFT: 172799.23
 STEP:  17 TIME =     0.05 SECS, INTEGRAL =      0.79 TIME LEFT: 172799.18
 STEP:  18 TIME =     0.05 SECS, INTEGRAL =      0.83 TIME LEFT: 172799.13
 STEP:  19 TIME =     0.04 SECS, INTEGRAL =      0.88 TIME LEFT: 172799.09
 STEP:  20 TIME =     0.05 SECS, INTEGRAL =      0.92 TIME LEFT: 172799.04
 STEP:  21 TIME =     0.05 SECS, INTEGRAL =      0.97 TIME LEFT: 172798.99
 STEP:  22 TIME =     0.05 SECS, INTEGRAL =      1.02 TIME LEFT: 172798.94
 STEP:  23 TIME =     0.04 SECS, INTEGRAL =      1.06 TIME LEFT: 172798.90
 STEP:  24 TIME =     0.05 SECS, INTEGRAL =      1.11 TIME LEFT: 172798.85
 STEP:  25 TIME =     0.05 SECS, INTEGRAL =      1.16 TIME LEFT: 172798.80
 STEP:  26 TIME =     0.05 SECS, INTEGRAL =      1.20 TIME LEFT: 172798.76
 STEP:  27 TIME =     0.05 SECS, INTEGRAL =      1.25 TIME LEFT: 172798.71
 STEP:  28 TIME =     0.04 SECS, INTEGRAL =      1.29 TIME LEFT: 172798.67
 STEP:  29 TIME =     0.04 SECS, INTEGRAL =      1.34 TIME LEFT: 172798.62
 STEP:  30 TIME =     0.05 SECS, INTEGRAL =      1.38 TIME LEFT: 172798.58
 STEP:  31 TIME =     0.04 SECS, INTEGRAL =      1.43 TIME LEFT: 172798.54
 STEP:  32 TIME =     0.05 SECS, INTEGRAL =      1.47 TIME LEFT: 172798.49
 STEP:  33 TIME =     0.05 SECS, INTEGRAL =      1.52 TIME LEFT: 172798.44
 STEP:  34 TIME =     0.04 SECS, INTEGRAL =      1.56 TIME LEFT: 172798.40
 STEP:  35 TIME =     0.05 SECS, INTEGRAL =      1.61 TIME LEFT: 172798.35
 STEP:  36 TIME =     0.05 SECS, INTEGRAL =      1.66 TIME LEFT: 172798.30
 STEP:  37 TIME =     0.05 SECS, INTEGRAL =      1.70 TIME LEFT: 172798.26
 STEP:  38 TIME =     0.05 SECS, INTEGRAL =      1.75 TIME LEFT: 172798.21
 STEP:  39 TIME =     0.04 SECS, INTEGRAL =      1.79 TIME LEFT: 172798.17
 STEP:  40 TIME =     0.05 SECS, INTEGRAL =      1.84 TIME LEFT: 172798.12
 STEP:  41 TIME =     0.05 SECS, INTEGRAL =      1.89 TIME LEFT: 172798.07
 STEP:  42 TIME =     0.04 SECS, INTEGRAL =      1.93 TIME LEFT: 172798.03
 STEP:  43 TIME =     0.04 SECS, INTEGRAL =      1.97 TIME LEFT: 172797.99
 STEP:  44 TIME =     0.05 SECS, INTEGRAL =      2.02 TIME LEFT: 172797.94
 STEP:  45 TIME =     0.05 SECS, INTEGRAL =      2.07 TIME LEFT: 172797.89
 STEP:  46 TIME =     0.04 SECS, INTEGRAL =      2.11 TIME LEFT: 172797.85
 STEP:  47 TIME =     0.04 SECS, INTEGRAL =      2.15 TIME LEFT: 172797.81
 STEP:  48 TIME =     0.05 SECS, INTEGRAL =      2.20 TIME LEFT: 172797.76
 STEP:  49 TIME =     0.05 SECS, INTEGRAL =      2.25 TIME LEFT: 172797.71
 STEP:  50 TIME =     0.05 SECS, INTEGRAL =      2.29 TIME LEFT: 172797.67
 STEP:  51 TIME =     0.05 SECS, INTEGRAL =      2.34 TIME LEFT: 172797.62
 STEP:  52 TIME =     0.05 SECS, INTEGRAL =      2.39 TIME LEFT: 172797.57
 STEP:  53 TIME =     0.04 SECS, INTEGRAL =      2.43 TIME LEFT: 172797.53
 STEP:  54 TIME =     0.05 SECS, INTEGRAL =      2.48 TIME LEFT: 172797.48
 STEP:  55 TIME =     0.05 SECS, INTEGRAL =      2.53 TIME LEFT: 172797.43
 STEP:  56 TIME =     0.04 SECS, INTEGRAL =      2.57 TIME LEFT: 172797.39
 STEP:  57 TIME =     0.05 SECS, INTEGRAL =      2.62 TIME LEFT: 172797.34
 STEP:  58 TIME =     0.04 SECS, INTEGRAL =      2.66 TIME LEFT: 172797.30
 STEP:  59 TIME =     0.04 SECS, INTEGRAL =      2.70 TIME LEFT: 172797.26
 STEP:  60 TIME =     0.05 SECS, INTEGRAL =      2.75 TIME LEFT: 172797.21

(To convert to Hartree/Bohr^2, multiply by (10^(-21) x N x a0^2)/(4.184 x 627.51) =  0.0642)


           FORCE MATRIX IN MILLIDYNES/ANGSTROM


                  C  1       C  2       C  3       C  4       C  5       C  6
 ------------------------------------------------------------------------------
     C    1  14.932318
     C    2   0.705477  14.932159
     C    3   4.357548   4.357606  18.960745
     C    4   4.679150   0.994189   0.992442  18.528683
     C    5   0.993834   4.678959   0.992742   6.341432  18.497746
     C    6   0.557895   0.086507   0.053057   7.347284   2.293204  17.450175
     C    7   0.086569   0.558176   0.053213   2.283665   7.339408   1.733024
     C    8   0.099856   0.015258   0.006773   2.390547   1.700632   6.877430
     C    9   0.015230   0.099943   0.007689   1.703067   2.420965   2.389932
     C   10   0.719158   0.719066  10.933531   0.054324   0.054700   0.009341
     H   11   4.492147   0.026510   0.434438   0.434526   0.028825   0.016424
     H   12   4.491843   0.026485   0.434353   0.434307   0.028806   0.016356
     H   13   0.026557   4.492224   0.434487   0.028586   0.434895   0.009985
     H   14   0.026465   4.491959   0.434418   0.028887   0.434620   0.010019
     H   15   0.038165   0.008300   0.001881   0.448359   0.090214   4.879677
     H   16   0.008273   0.038186   0.001890   0.090142   0.448825   0.011053
     H   17   0.006868   0.007662   0.001567   0.087377   0.007847   0.433520
     H   18   0.007523   0.006858   0.001568   0.007786   0.087260   0.088280
     H   19   0.087665   0.124838   0.479048   0.001960   0.005955   0.001414
     H   20   0.124798   0.087571   0.479122   0.006381   0.001458   0.001214


                  C  7       C  8       C  9       C 10       H 11       H 12
 ------------------------------------------------------------------------------
     C    7  17.437200
     C    8   2.376579  17.305075
     C    9   6.866373   7.050748  17.269189
     C   10   0.009429   0.001997   0.002053  18.114173
     H   11   0.010012   0.010396   0.002142   0.021283   5.087869
     H   12   0.010012   0.010392   0.002158   0.021282   0.554591   5.087615
     H   13   0.016332   0.002079   0.010316   0.021241   0.002108   0.001240
     H   14   0.016233   0.002068   0.010307   0.021217   0.001230   0.002102
     H   15   0.011131   0.437687   0.085883   0.001046   0.005393   0.005403
     H   16   4.879630   0.085862   0.438263   0.001040   0.000998   0.000989
     H   17   0.088588   4.861843   0.435059   0.000813   0.000644   0.000653
     H   18   0.433786   0.434782   4.861184   0.000801   0.000971   0.000969
     H   19   0.001528   0.000780   0.000376   5.111348   0.010550   0.010551
     H   20   0.001821   0.000528   0.000710   5.111618   0.012412   0.012422


                  H 13       H 14       H 15       H 16       H 17       H 18
 ------------------------------------------------------------------------------
     H   13   5.087945
     H   14   0.554621   5.087792
     H   15   0.001003   0.000995   5.249789
     H   16   0.005379   0.005386   0.008337   5.249837
     H   17   0.000978   0.000982   0.039370   0.006687   5.224695
     H   18   0.000647   0.000634   0.006655   0.039239   0.043252   5.224383
     H   19   0.012455   0.012452   0.000344   0.000267   0.000166   0.000211
     H   20   0.010543   0.010529   0.000255   0.000330   0.000197   0.000150


                  H 19       H 20
 ------------------------------
     H   19   5.490705
     H   20   0.410148   5.491009


          HEAT OF FORMATION =      31.710580 KCALS/MOLE

          ZERO POINT ENERGY     105.259 KCAL/MOL


           NORMAL COORDINATE ANALYSIS (Total motion = 1 Angstrom)


   Root No.       1         2         3         4         5         6         7         8

                 1 A       2 A       3 A       4 A       5 A       6 A       7 A       8 A   

                  76.7     170.3     239.3     283.0     400.7     450.8     460.8     471.9
  
           1   -0.0000   -0.0000   -0.0000   -0.0289    0.0000    0.0000    0.0191   -0.0000
           2    0.0000    0.0000    0.0000    0.0081    0.0000    0.0001    0.0305   -0.0001
           3   -0.0487   -0.0480   -0.0265    0.0001   -0.0026   -0.0053    0.0000   -0.0010
           4   -0.0000   -0.0000   -0.0000   -0.0289    0.0000    0.0001    0.0191   -0.0000
           5    0.0000   -0.0000    0.0000   -0.0081   -0.0000   -0.0001   -0.0305    0.0000
           6   -0.0485    0.0482   -0.0262    0.0000   -0.0026   -0.0053    0.0000    0.0010
           7   -0.0000   -0.0000   -0.0000   -0.0189    0.0000    0.0001    0.0479   -0.0001
           8    0.0000    0.0000    0.0000    0.0000    0.0000   -0.0001    0.0001   -0.0000
           9   -0.0036    0.0001   -0.0210    0.0000    0.0028    0.1000   -0.0002   -0.0000
          10   -0.0000    0.0000   -0.0000   -0.0359   -0.0000   -0.0001   -0.0402    0.0001
          11    0.0000   -0.0000   -0.0000   -0.0032   -0.0000    0.0001    0.0043   -0.0000
          12   -0.0273    0.0008    0.0474   -0.0000    0.0543   -0.0136    0.0001    0.0412
          13   -0.0000    0.0000   -0.0001   -0.0360   -0.0000   -0.0001   -0.0404    0.0001
          14    0.0000   -0.0000   -0.0000    0.0033   -0.0000   -0.0000   -0.0043    0.0000
          15   -0.0273   -0.0010    0.0473   -0.0001    0.0544   -0.0136   -0.0001   -0.0413
          16    0.0000    0.0000    0.0000   -0.0028    0.0000   -0.0000   -0.0120    0.0000
          17   -0.0000   -0.0000   -0.0001   -0.0256    0.0000   -0.0000   -0.0176    0.0000
          18    0.0015    0.0390    0.0353   -0.0000   -0.0515    0.0043    0.0000    0.0252
          19   -0.0000    0.0000   -0.0000   -0.0028   -0.0000   -0.0000   -0.0120    0.0001
          20   -0.0000    0.0000    0.0000    0.0254    0.0000    0.0001    0.0174   -0.0000
          21    0.0014   -0.0392    0.0350   -0.0001   -0.0515    0.0043   -0.0000   -0.0253
          22    0.0000   -0.0000    0.0000    0.0279    0.0000    0.0001    0.0186   -0.0000
          23   -0.0000   -0.0000    0.0000   -0.0101   -0.0000    0.0000   -0.0045    0.0001
          24    0.0328    0.0305   -0.0361    0.0000    0.0186   -0.0020   -0.0001   -0.0537
          25    0.0000   -0.0000    0.0000    0.0281    0.0000    0.0001    0.0188   -0.0000
          26   -0.0000    0.0000    0.0000    0.0102   -0.0000    0.0000    0.0044    0.0000
          27    0.0327   -0.0304   -0.0362    0.0000    0.0185   -0.0019    0.0001    0.0539
          28    0.0000    0.0000    0.0001    0.0773   -0.0000   -0.0001   -0.0206    0.0000
          29    0.0000    0.0000    0.0000    0.0000    0.0000   -0.0001    0.0001   -0.0000
          30    0.0818   -0.0001    0.0066   -0.0000   -0.0022   -0.0275    0.0001    0.0000
          31    0.0365    0.0522    0.0404   -0.0266    0.0416    0.1124    0.0299    0.0448
          32   -0.0016   -0.0193   -0.0433    0.0132   -0.0383    0.0256    0.0640   -0.0392
          33   -0.0753   -0.0900   -0.0655    0.0000   -0.0417   -0.0823   -0.0001   -0.0431
          34   -0.0366   -0.0523   -0.0405   -0.0266   -0.0416   -0.1124    0.0302   -0.0450
          35    0.0016    0.0193    0.0434    0.0131    0.0384   -0.0252    0.0642    0.0390
          36   -0.0753   -0.0899   -0.0655    0.0002   -0.0416   -0.0823    0.0003   -0.0430
          37   -0.0364    0.0526   -0.0401   -0.0266   -0.0416   -0.1122    0.0304    0.0451
          38   -0.0015    0.0195   -0.0432   -0.0131   -0.0384    0.0253   -0.0642    0.0393
          39   -0.0750    0.0905   -0.0649    0.0001   -0.0417   -0.0823    0.0005    0.0433
          40    0.0364   -0.0526    0.0401   -0.0266    0.0416    0.1126    0.0296   -0.0452
          41    0.0016   -0.0195    0.0432   -0.0133    0.0384   -0.0257   -0.0642   -0.0391
          42   -0.0750    0.0905   -0.0648   -0.0000   -0.0417   -0.0822    0.0001    0.0433
          43    0.0000    0.0000    0.0000   -0.0028    0.0000   -0.0000   -0.0120    0.0000
          44   -0.0000   -0.0000   -0.0001   -0.0607    0.0001   -0.0001   -0.0570    0.0001
          45    0.0024    0.0700    0.0522   -0.0000   -0.1821    0.0280    0.0001    0.0525
          46   -0.0000    0.0000   -0.0000   -0.0028   -0.0000   -0.0000   -0.0120    0.0001
          47    0.0000    0.0000    0.0000    0.0607    0.0001    0.0002    0.0571   -0.0001
          48    0.0022   -0.0701    0.0517   -0.0001   -0.1819    0.0279   -0.0001   -0.0531
          49    0.0000   -0.0000    0.0000    0.0479    0.0000    0.0001    0.0363   -0.0000
          50   -0.0000   -0.0000    0.0000   -0.0217   -0.0000    0.0000   -0.0148    0.0002
          51    0.0581    0.0633   -0.0935    0.0001    0.0433    0.0007   -0.0003   -0.1694
          52    0.0000   -0.0000    0.0001    0.0479    0.0000    0.0001    0.0362   -0.0001
          53   -0.0000    0.0000    0.0001    0.0216   -0.0000    0.0001    0.0147   -0.0001
          54    0.0577   -0.0627   -0.0934    0.0002    0.0432    0.0010    0.0002    0.1689
          55    0.0000    0.0000    0.0001    0.1329   -0.0000   -0.0003   -0.0741    0.0001
          56    0.0000    0.0000    0.0001    0.0849   -0.0000   -0.0004   -0.0808    0.0001
          57    0.1199   -0.0362    0.0198   -0.0001   -0.0046   -0.0992    0.0003    0.0094
          58    0.0000    0.0000    0.0001    0.1330   -0.0000   -0.0003   -0.0742    0.0001
          59    0.0000    0.0000   -0.0001   -0.0848    0.0000    0.0002    0.0810   -0.0002
          60    0.1200    0.0358    0.0200   -0.0001   -0.0046   -0.0990    0.0002   -0.0092


   Root No.       9        10        11        12        13        14        15        16

                 9 A      10 A      11 A      12 A      13 A      14 A      15 A      16 A   

                 496.1     592.3     608.4     657.7     676.5     772.4     863.2     865.9
  
           1    0.0226   -0.0367    0.0000   -0.0427   -0.0000    0.0000    0.0001    0.0261
           2    0.0260    0.0442   -0.0000    0.0225    0.0000   -0.0000   -0.0001   -0.0344
           3    0.0001    0.0001    0.0048   -0.0000    0.0148    0.0077   -0.0234    0.0002
           4   -0.0227   -0.0367    0.0000    0.0427    0.0001   -0.0000    0.0001    0.0261
           5    0.0261   -0.0442    0.0000    0.0224    0.0000   -0.0000    0.0001    0.0344
           6    0.0000   -0.0000   -0.0048    0.0000   -0.0148    0.0076    0.0235   -0.0002
           7   -0.0001   -0.0193    0.0000    0.0000    0.0000   -0.0000    0.0000    0.0005
           8    0.0718   -0.0000   -0.0000   -0.0381   -0.0000    0.0000    0.0000    0.0000
           9    0.0002   -0.0000    0.0000   -0.0001   -0.0000   -0.0087   -0.0000   -0.0000
          10    0.0035   -0.0024    0.0000   -0.0004    0.0000    0.0000   -0.0000   -0.0138
          11   -0.0034    0.0492   -0.0001    0.0410    0.0000   -0.0000   -0.0000   -0.0128
          12    0.0000    0.0001    0.0087   -0.0001    0.0467    0.0095    0.0069   -0.0000
          13   -0.0033   -0.0025    0.0000    0.0003    0.0000   -0.0000   -0.0000   -0.0140
          14   -0.0035   -0.0492    0.0000    0.0409    0.0001   -0.0000    0.0000    0.0129
          15   -0.0001   -0.0001   -0.0087    0.0001   -0.0467    0.0095   -0.0069    0.0000
          16    0.0373    0.0258   -0.0000    0.0630    0.0001   -0.0000   -0.0001   -0.0463
          17   -0.0379    0.0488   -0.0000    0.0081    0.0000    0.0000    0.0000    0.0108
          18   -0.0000   -0.0000   -0.0093    0.0001   -0.0167   -0.0165    0.0261   -0.0002
          19   -0.0372    0.0259    0.0000   -0.0630   -0.0001   -0.0000   -0.0002   -0.0463
          20   -0.0381   -0.0489    0.0000    0.0081    0.0000    0.0000   -0.0000   -0.0110
          21   -0.0000    0.0000    0.0093   -0.0000    0.0167   -0.0163   -0.0263    0.0002
          22    0.0003    0.0353   -0.0000    0.0047   -0.0000   -0.0000    0.0001    0.0340
          23   -0.0641    0.0524   -0.0000   -0.0309   -0.0001    0.0000    0.0002    0.0564
          24   -0.0001    0.0001    0.0090   -0.0001    0.0170   -0.0251    0.0134   -0.0000
          25   -0.0004    0.0355   -0.0000   -0.0046   -0.0000   -0.0000    0.0001    0.0342
          26   -0.0642   -0.0522    0.0001   -0.0309    0.0000    0.0000   -0.0002   -0.0563
          27    0.0000   -0.0001   -0.0091    0.0000   -0.0171   -0.0246   -0.0136    0.0000
          28    0.0000   -0.0119    0.0000    0.0000    0.0000   -0.0000   -0.0000   -0.0084
          29    0.0816   -0.0000   -0.0000   -0.0481   -0.0001    0.0000    0.0000    0.0000
          30   -0.0000   -0.0000   -0.0000    0.0000    0.0000   -0.0002   -0.0000    0.0000
          31    0.0228   -0.0396    0.0563   -0.0419    0.0392    0.0175   -0.0652    0.0272
          32    0.0221    0.0493   -0.0116    0.0410   -0.0527   -0.0294    0.0133   -0.0581
          33   -0.0003    0.0023   -0.0399    0.0026   -0.0262   -0.0121    0.0281   -0.0051
          34    0.0224   -0.0397   -0.0563   -0.0417   -0.0393   -0.0175    0.0654    0.0262
          35    0.0221    0.0494    0.0115    0.0408    0.0529    0.0293   -0.0138   -0.0579
          36    0.0001   -0.0023   -0.0398   -0.0025   -0.0262   -0.0121    0.0281    0.0046
          37   -0.0228   -0.0395    0.0562    0.0418    0.0393   -0.0174   -0.0654    0.0274
          38    0.0225   -0.0494    0.0116    0.0406    0.0528   -0.0292   -0.0136    0.0578
          39   -0.0002   -0.0022    0.0398    0.0026    0.0262   -0.0120   -0.0282    0.0051
          40   -0.0227   -0.0398   -0.0562    0.0417   -0.0392    0.0174    0.0656    0.0264
          41    0.0223   -0.0495   -0.0116    0.0408   -0.0527    0.0292    0.0140    0.0577
          42    0.0002    0.0024    0.0398   -0.0025    0.0262   -0.0120   -0.0282   -0.0046
          43    0.0368    0.0260   -0.0000    0.0629    0.0001   -0.0000   -0.0001   -0.0472
          44   -0.0446    0.0289    0.0000    0.0096    0.0001   -0.0000   -0.0000   -0.0416
          45    0.0000   -0.0001   -0.0362    0.0003   -0.1161    0.1356   -0.1626    0.0010
          46   -0.0367    0.0262    0.0000   -0.0629   -0.0001   -0.0000   -0.0002   -0.0472
          47   -0.0450   -0.0286    0.0000    0.0098   -0.0000   -0.0000    0.0001    0.0420
          48    0.0000    0.0001    0.0362   -0.0002    0.1162    0.1341    0.1637   -0.0010
          49   -0.0191   -0.0125    0.0000   -0.0367   -0.0000   -0.0000    0.0001    0.0146
          50   -0.0535    0.0797   -0.0001   -0.0070   -0.0001   -0.0001    0.0003    0.0684
          51   -0.0001    0.0002    0.0326   -0.0001    0.0578    0.2209   -0.0868    0.0005
          52    0.0189   -0.0126   -0.0000    0.0368    0.0000    0.0000    0.0001    0.0146
          53   -0.0537   -0.0796    0.0001   -0.0070    0.0001   -0.0001   -0.0003   -0.0684
          54    0.0001   -0.0001   -0.0325    0.0002   -0.0576    0.2198    0.0880   -0.0005
          55    0.0031   -0.0131    0.0000   -0.0033    0.0000   -0.0000    0.0001    0.0268
          56    0.0882   -0.0008    0.0000   -0.0550   -0.0001    0.0000    0.0001    0.0526
          57   -0.0000    0.0004    0.2597    0.0004   -0.0892    0.0096    0.0345   -0.0002
          58   -0.0029   -0.0131    0.0000    0.0033    0.0000    0.0000    0.0001    0.0268
          59    0.0879    0.0007   -0.0000   -0.0549   -0.0001    0.0000   -0.0001   -0.0525
          60   -0.0003   -0.0003   -0.2596   -0.0003    0.0892    0.0098   -0.0343    0.0002


   Root No.      17        18        19        20        21        22        23        24

                17 A      18 A      19 A      20 A      21 A      22 A      23 A      24 A   

                 908.4     922.2     925.4     927.1     943.9     971.9    1004.1    1009.1
  
           1   -0.0108    0.0000    0.0223    0.0002    0.0658    0.0000   -0.0000    0.0000
           2    0.0364   -0.0000    0.0175    0.0002    0.0088    0.0000    0.0000    0.0000
           3    0.0001    0.0294    0.0003   -0.0296    0.0001   -0.0193   -0.0010   -0.0142
           4    0.0108    0.0000    0.0223    0.0001   -0.0658   -0.0000    0.0000   -0.0000
           5    0.0364   -0.0001   -0.0176   -0.0001    0.0088    0.0000   -0.0000    0.0000
           6    0.0000    0.0287   -0.0005    0.0303   -0.0001   -0.0193    0.0009   -0.0142
           7    0.0000   -0.0000   -0.0093   -0.0001    0.0000    0.0000   -0.0000    0.0000
           8   -0.0108    0.0000    0.0000   -0.0000   -0.0189   -0.0000    0.0000   -0.0000
           9   -0.0000   -0.0215    0.0001   -0.0003    0.0000    0.0123    0.0001    0.0152
          10   -0.0171    0.0000   -0.0021   -0.0000    0.0071    0.0000    0.0000   -0.0000
          11   -0.0058    0.0000    0.0051    0.0000    0.0003   -0.0000    0.0000   -0.0000
          12   -0.0000   -0.0113   -0.0003    0.0270   -0.0001    0.0155    0.0021    0.0161
          13    0.0170   -0.0000   -0.0020   -0.0000   -0.0071   -0.0000    0.0000    0.0000
          14   -0.0058    0.0000   -0.0051   -0.0000    0.0003   -0.0000    0.0000   -0.0000
          15    0.0000   -0.0107    0.0004   -0.0273    0.0000    0.0155   -0.0020    0.0161
          16   -0.0346    0.0000    0.0058    0.0000    0.0169    0.0000    0.0000    0.0000
          17   -0.0187    0.0000   -0.0023   -0.0000    0.0101    0.0000    0.0000    0.0000
          18   -0.0000   -0.0180    0.0003   -0.0147    0.0000   -0.0286   -0.0278   -0.0126
          19    0.0345   -0.0000    0.0058    0.0000   -0.0170   -0.0000    0.0000   -0.0000
          20   -0.0187    0.0000    0.0023    0.0000    0.0101    0.0000   -0.0000    0.0000
          21   -0.0001   -0.0182   -0.0002    0.0143    0.0000   -0.0283    0.0279   -0.0129
          22   -0.0010   -0.0000   -0.0045   -0.0000    0.0009    0.0000   -0.0000    0.0000
          23   -0.0064   -0.0000   -0.0102   -0.0001   -0.0017   -0.0000   -0.0000   -0.0000
          24    0.0000    0.0168    0.0001   -0.0151    0.0000    0.0152    0.0458    0.0047
          25    0.0010   -0.0000   -0.0046   -0.0000   -0.0008   -0.0000   -0.0000   -0.0000
          26   -0.0064    0.0000    0.0102    0.0000   -0.0018   -0.0000    0.0000   -0.0000
          27   -0.0000    0.0162   -0.0002    0.0156   -0.0000    0.0149   -0.0460    0.0052
          28   -0.0000   -0.0001   -0.0635   -0.0005   -0.0000    0.0000   -0.0000   -0.0000
          29   -0.0158    0.0000    0.0000   -0.0001   -0.0358   -0.0000    0.0000   -0.0000
          30   -0.0000   -0.0101    0.0000   -0.0001   -0.0000    0.0228   -0.0004   -0.0410
          31    0.0048    0.0636    0.0374   -0.0943    0.1030   -0.0504   -0.0249   -0.0071
          32    0.1129   -0.0588    0.0547   -0.0472    0.0607    0.0002   -0.0711    0.0939
          33    0.0046   -0.0314   -0.0024    0.0298   -0.0128    0.0182    0.0012    0.0127
          34    0.0046   -0.0636    0.0352    0.0952    0.1025    0.0505    0.0249    0.0071
          35    0.1130    0.0588    0.0531    0.0483    0.0606   -0.0001    0.0711   -0.0939
          36   -0.0046   -0.0313    0.0017    0.0299    0.0127    0.0182    0.0013    0.0126
          37   -0.0047   -0.0612    0.0378   -0.0962   -0.1025    0.0502   -0.0251    0.0073
          38    0.1129   -0.0599   -0.0545    0.0460    0.0605    0.0006    0.0725    0.0931
          39    0.0046   -0.0306    0.0025   -0.0307   -0.0127    0.0182   -0.0011    0.0127
          40   -0.0046    0.0613    0.0349    0.0966   -0.1029   -0.0503    0.0251   -0.0074
          41    0.1130    0.0596   -0.0535   -0.0465    0.0606   -0.0006   -0.0726   -0.0931
          42   -0.0046   -0.0305   -0.0016   -0.0307    0.0128    0.0182   -0.0012    0.0126
          43   -0.0358    0.0000    0.0059    0.0000    0.0178    0.0000    0.0000    0.0000
          44   -0.0798    0.0000   -0.0025   -0.0001    0.0426   -0.0001   -0.0000   -0.0000
          45   -0.0000    0.0810   -0.0011    0.0622   -0.0002    0.1281    0.0947    0.0559
          46    0.0357   -0.0000    0.0059    0.0000   -0.0178   -0.0000    0.0000   -0.0000
          47   -0.0797    0.0000    0.0024    0.0001    0.0428   -0.0000    0.0001    0.0000
          48    0.0002    0.0819    0.0007   -0.0606    0.0000    0.1274   -0.0951    0.0569
          49    0.0375   -0.0000    0.0046    0.0000   -0.0255    0.0000    0.0000   -0.0000
          50   -0.0299    0.0001   -0.0158   -0.0002    0.0139    0.0000    0.0001    0.0000
          51   -0.0002   -0.0879   -0.0010    0.0886   -0.0001   -0.0660   -0.1675   -0.0171
          52   -0.0374    0.0000    0.0046    0.0000    0.0256   -0.0000    0.0001    0.0000
          53   -0.0299    0.0001    0.0158    0.0001    0.0139    0.0000   -0.0001    0.0000
          54    0.0000   -0.0855    0.0015   -0.0916    0.0002   -0.0650    0.1691   -0.0189
          55   -0.0037    0.0001    0.0951    0.0007   -0.0133    0.0000   -0.0000    0.0000
          56   -0.0230    0.0003    0.2411    0.0017   -0.0608   -0.0000    0.0000    0.0000
          57    0.0001    0.0580   -0.0007    0.0405   -0.0000   -0.1037    0.0090    0.1602
          58    0.0038    0.0001    0.0952    0.0007    0.0134    0.0000    0.0000    0.0000
          59   -0.0231   -0.0003   -0.2411   -0.0019   -0.0610   -0.0000   -0.0000   -0.0000
          60    0.0001    0.0591    0.0003   -0.0389    0.0001   -0.1039   -0.0061    0.1604


   Root No.      25        26        27        28        29        30        31        32

                25 A      26 A      27 A      28 A      29 A      30 A      31 A      32 A   

                1051.5    1076.5    1086.0    1107.7    1151.1    1177.1    1190.0    1239.2
  
           1    0.0000   -0.0000   -0.0118   -0.0041   -0.0019    0.0072   -0.0059    0.0145
           2    0.0000    0.0000    0.0062    0.0069   -0.0026    0.0134    0.0019    0.0358
           3   -0.0141   -0.0158    0.0000   -0.0000   -0.0000    0.0000    0.0000    0.0000
           4   -0.0000    0.0000    0.0118   -0.0041    0.0019    0.0072   -0.0058   -0.0145
           5    0.0000    0.0000    0.0063   -0.0069   -0.0027   -0.0134   -0.0021    0.0359
           6    0.0141   -0.0159    0.0000   -0.0000   -0.0000   -0.0000    0.0000    0.0000
           7    0.0000   -0.0000   -0.0000   -0.0048   -0.0000    0.0112   -0.0202   -0.0001
           8    0.0000    0.0000    0.0001    0.0000    0.0002    0.0000   -0.0000    0.0064
           9    0.0000    0.0515   -0.0000    0.0000    0.0000    0.0000    0.0000   -0.0000
          10   -0.0000    0.0000    0.0035    0.0118   -0.0079   -0.0039    0.0330   -0.0013
          11   -0.0000    0.0000   -0.0100   -0.0038   -0.0041    0.0226   -0.0075    0.0141
          12    0.0367   -0.0071    0.0000    0.0000   -0.0000    0.0000    0.0000    0.0000
          13   -0.0000   -0.0000   -0.0035    0.0119    0.0081   -0.0039    0.0335    0.0014
          14    0.0000   -0.0000   -0.0100    0.0038   -0.0041   -0.0226    0.0073    0.0141
          15   -0.0367   -0.0070   -0.0000   -0.0000   -0.0000   -0.0000   -0.0000    0.0000
          16    0.0000    0.0000   -0.0231   -0.0262   -0.0085    0.0021   -0.0147   -0.0177
          17    0.0000   -0.0000   -0.0002    0.0085    0.0031    0.0126    0.0069   -0.0007
          18   -0.0184    0.0023   -0.0000   -0.0000   -0.0000    0.0000   -0.0000   -0.0000
          19    0.0000    0.0000    0.0232   -0.0262    0.0083    0.0021   -0.0146    0.0177
          20   -0.0000   -0.0000   -0.0002   -0.0084    0.0031   -0.0126   -0.0064   -0.0008
          21    0.0185    0.0023    0.0000   -0.0000   -0.0000   -0.0000   -0.0000   -0.0000
          22   -0.0000   -0.0000   -0.0220    0.0078   -0.0069   -0.0116   -0.0093   -0.0110
          23   -0.0000    0.0000   -0.0255    0.0002   -0.0029   -0.0041    0.0086   -0.0146
          24    0.0130   -0.0007   -0.0000   -0.0000    0.0000   -0.0000    0.0000   -0.0000
          25   -0.0000    0.0000    0.0220    0.0077    0.0068   -0.0116   -0.0097    0.0109
          26    0.0000   -0.0000   -0.0254   -0.0003   -0.0030    0.0041   -0.0089   -0.0146
          27   -0.0130   -0.0007   -0.0000    0.0000    0.0000    0.0000   -0.0000   -0.0000
          28   -0.0000    0.0000   -0.0000    0.0007    0.0000   -0.0047    0.0051    0.0000
          29   -0.0000   -0.0000    0.0025    0.0000    0.0026    0.0000    0.0001   -0.0132
          30   -0.0000   -0.0268    0.0000   -0.0000   -0.0000    0.0000   -0.0000    0.0000
          31    0.0172   -0.0839   -0.0133   -0.0045   -0.0009   -0.0271    0.0077   -0.0251
          32    0.1643   -0.1454    0.0324    0.0225    0.0082   -0.1082    0.0802   -0.1188
          33    0.0107    0.0132    0.0058    0.0031    0.0013   -0.0022    0.0065   -0.0052
          34   -0.0172    0.0839   -0.0133   -0.0045   -0.0009   -0.0271    0.0076   -0.0251
          35   -0.1643    0.1454    0.0322    0.0225    0.0082   -0.1082    0.0801   -0.1188
          36    0.0106    0.0132   -0.0058   -0.0031   -0.0013    0.0021   -0.0064    0.0051
          37    0.0172    0.0839    0.0133   -0.0045    0.0009   -0.0271    0.0076    0.0252
          38   -0.1643   -0.1452    0.0324   -0.0226    0.0077    0.1082   -0.0800   -0.1192
          39   -0.0107    0.0132    0.0058   -0.0031    0.0013    0.0022   -0.0065   -0.0052
          40   -0.0172   -0.0839    0.0133   -0.0045    0.0008   -0.0271    0.0076    0.0252
          41    0.1645    0.1453    0.0324   -0.0224    0.0078    0.1082   -0.0799   -0.1192
          42   -0.0106    0.0132   -0.0058    0.0031   -0.0013   -0.0021    0.0064    0.0051
          43    0.0000    0.0000   -0.0253   -0.0268   -0.0106    0.0023   -0.0151   -0.0198
          44   -0.0001    0.0000    0.2561    0.1720   -0.1203   -0.0894   -0.1684   -0.0162
          45    0.0531   -0.0094    0.0001    0.0001   -0.0000   -0.0000   -0.0001   -0.0000
          46    0.0000    0.0000    0.0254   -0.0268    0.0104    0.0022   -0.0151    0.0198
          47   -0.0001    0.0001    0.2560   -0.1716   -0.1190    0.0895    0.1692   -0.0157
          48   -0.0533   -0.0094    0.0001   -0.0001   -0.0000    0.0000    0.0001    0.0000
          49   -0.0000   -0.0000   -0.0822    0.1904   -0.2848    0.0829    0.0599   -0.0090
          50    0.0000    0.0000    0.0071   -0.1022    0.1561   -0.0587   -0.0313   -0.0183
          51   -0.0303    0.0012   -0.0000   -0.0000    0.0000   -0.0000    0.0000   -0.0000
          52   -0.0001   -0.0001    0.0819    0.1905    0.2854    0.0828    0.0587    0.0093
          53   -0.0000   -0.0001    0.0070    0.1022    0.1563    0.0586    0.0305   -0.0181
          54    0.0306    0.0013   -0.0000   -0.0000    0.0000    0.0000    0.0000   -0.0000
          55    0.0000   -0.0000    0.0025   -0.0025    0.0030    0.0047   -0.0077   -0.0504
          56    0.0000   -0.0000    0.0070   -0.0045    0.0079    0.0140   -0.0187   -0.1004
          57   -0.0030    0.0875   -0.0000    0.0000    0.0000   -0.0000    0.0000   -0.0000
          58    0.0000    0.0000   -0.0024   -0.0025   -0.0030    0.0047   -0.0079    0.0504
          59   -0.0000   -0.0000    0.0069    0.0046    0.0080   -0.0140    0.0192   -0.1002
          60    0.0030    0.0876   -0.0000    0.0000    0.0000   -0.0000    0.0000    0.0000


   Root No.      33        34        35        36        37        38        39        40

                33 A      34 A      35 A      36 A      37 A      38 A      39 A      40 A   

                1292.6    1322.8    1334.2    1353.5    1371.3    1390.7    1454.8    1590.5
  
           1   -0.0086    0.0043   -0.0185   -0.0149    0.0332   -0.0553    0.0075   -0.0048
           2    0.0276    0.0089   -0.0549   -0.0291   -0.0092    0.0068   -0.0388   -0.0281
           3    0.0000    0.0000   -0.0000   -0.0000   -0.0000    0.0000   -0.0000   -0.0000
           4   -0.0087   -0.0042   -0.0186    0.0142   -0.0341   -0.0548   -0.0081   -0.0052
           5   -0.0277    0.0087    0.0553   -0.0283   -0.0089   -0.0060   -0.0390    0.0276
           6   -0.0000    0.0000    0.0000   -0.0000   -0.0000   -0.0000   -0.0000    0.0000
           7    0.0417   -0.0003    0.0722    0.0007    0.0006    0.0607    0.0002    0.0073
           8   -0.0000   -0.0232   -0.0002    0.0140   -0.0023   -0.0000    0.0017   -0.0000
           9    0.0000    0.0000   -0.0000    0.0000    0.0000   -0.0000   -0.0000    0.0000
          10    0.0268   -0.0144   -0.0159   -0.0319   -0.0166    0.0168    0.0448    0.0214
          11   -0.0220    0.0130    0.0100    0.0093   -0.0033   -0.0110    0.0514    0.0674
          12   -0.0000    0.0000    0.0000    0.0000    0.0000   -0.0000    0.0000    0.0000
          13    0.0275    0.0140   -0.0164    0.0310    0.0162    0.0162   -0.0438    0.0235
          14    0.0221    0.0128   -0.0099    0.0089   -0.0034    0.0106    0.0517   -0.0663
          15    0.0000    0.0000   -0.0000    0.0000    0.0000    0.0000    0.0000   -0.0000
          16   -0.0198   -0.0129    0.0183   -0.0137   -0.0033   -0.0055   -0.0167   -0.0581
          17   -0.0156    0.0188    0.0156    0.0432    0.0281   -0.0036    0.0029    0.0349
          18   -0.0000    0.0000    0.0000    0.0000    0.0000   -0.0000    0.0000    0.0000
          19   -0.0195    0.0130    0.0183    0.0143    0.0036   -0.0060    0.0162   -0.0579
          20    0.0165    0.0189   -0.0161    0.0432    0.0282    0.0023    0.0025   -0.0358
          21    0.0000    0.0000   -0.0000    0.0000    0.0000    0.0000   -0.0000   -0.0000
          22    0.0103   -0.0007   -0.0123    0.0134    0.0141    0.0004   -0.0826    0.0519
          23    0.0009   -0.0206    0.0069   -0.0326   -0.0170    0.0041   -0.0115   -0.0812
          24    0.0000   -0.0000    0.0000   -0.0000   -0.0000    0.0000   -0.0000   -0.0000
          25    0.0099    0.0008   -0.0119   -0.0135   -0.0142    0.0004    0.0826    0.0509
          26   -0.0015   -0.0206   -0.0066   -0.0330   -0.0174   -0.0031   -0.0109    0.0813
          27   -0.0000   -0.0000   -0.0000   -0.0000   -0.0000   -0.0000    0.0000    0.0000
          28   -0.0120    0.0001   -0.0100   -0.0000   -0.0001   -0.0114   -0.0001    0.0002
          29   -0.0000   -0.0244   -0.0003    0.0243   -0.0030   -0.0001    0.0015    0.0000
          30   -0.0000   -0.0000    0.0000   -0.0000    0.0000    0.0000   -0.0000   -0.0000
          31   -0.1119    0.0391   -0.0624    0.0657   -0.1297    0.1124   -0.0073    0.0070
          32   -0.0230   -0.0455    0.0651    0.0144    0.0297   -0.0385    0.0508    0.0181
          33    0.0553   -0.0323    0.0513   -0.0422    0.1089   -0.1121    0.0272    0.0006
          34   -0.1119    0.0392   -0.0624    0.0657   -0.1297    0.1125   -0.0074    0.0070
          35   -0.0229   -0.0454    0.0651    0.0144    0.0299   -0.0386    0.0508    0.0181
          36   -0.0552    0.0322   -0.0512    0.0422   -0.1088    0.1119   -0.0271   -0.0006
          37   -0.1121   -0.0373   -0.0626   -0.0637    0.1319    0.1108    0.0079    0.0070
          38    0.0224   -0.0447   -0.0657    0.0145    0.0303    0.0374    0.0510   -0.0184
          39   -0.0555   -0.0310   -0.0516   -0.0407    0.1109    0.1103    0.0280   -0.0003
          40   -0.1121   -0.0373   -0.0626   -0.0637    0.1320    0.1109    0.0079    0.0070
          41    0.0224   -0.0447   -0.0658    0.0145    0.0305    0.0375    0.0509   -0.0184
          42    0.0554    0.0309    0.0515    0.0406   -0.1108   -0.1102   -0.0279    0.0003
          43   -0.0214   -0.0148    0.0202   -0.0158   -0.0037   -0.0059   -0.0206   -0.0693
          44    0.0036   -0.0172   -0.0177   -0.0198   -0.0109   -0.0098   -0.0945   -0.0162
          45    0.0000    0.0000   -0.0000   -0.0000    0.0000   -0.0000   -0.0001   -0.0000
          46   -0.0211    0.0149    0.0201    0.0165    0.0040   -0.0065    0.0201   -0.0691
          47   -0.0037   -0.0179    0.0176   -0.0208   -0.0115    0.0111   -0.0933    0.0182
          48   -0.0000   -0.0000    0.0000   -0.0000   -0.0000    0.0000   -0.0000    0.0000
          49   -0.0493    0.0057    0.0549    0.0122    0.0080   -0.0008    0.0127   -0.1205
          50    0.0350   -0.0273   -0.0310   -0.0357   -0.0149    0.0051   -0.0759    0.0082
          51    0.0000   -0.0000   -0.0000   -0.0000   -0.0000    0.0000   -0.0000   -0.0001
          52   -0.0497   -0.0058    0.0551   -0.0112   -0.0076   -0.0004   -0.0135   -0.1201
          53   -0.0356   -0.0274    0.0313   -0.0356   -0.0150   -0.0038   -0.0756   -0.0072
          54   -0.0000   -0.0000    0.0000   -0.0000    0.0000    0.0000   -0.0001   -0.0000
          55    0.0117    0.1232    0.0199   -0.0703    0.0115    0.0130   -0.0010    0.0017
          56    0.0358    0.1804    0.0431   -0.0910    0.0160    0.0359    0.0003    0.0016
          57    0.0000    0.0000   -0.0000    0.0000   -0.0000   -0.0000    0.0000    0.0000
          58    0.0113   -0.1234    0.0176    0.0707   -0.0113    0.0127    0.0010    0.0017
          59   -0.0351    0.1809   -0.0399   -0.0916    0.0153   -0.0356   -0.0000   -0.0016
          60    0.0000    0.0000    0.0000    0.0000    0.0000    0.0000   -0.0000    0.0000


   Root No.      41        42        43        44        45        46        47        48

                41 A      42 A      43 A      44 A      45 A      46 A      47 A      48 A   

                1611.7    1798.9    1825.5    1914.0    2969.2    2970.1    3042.0    3043.3
  
           1    0.0258   -0.0035    0.0009   -0.0167   -0.0000   -0.0000   -0.0208   -0.0205
           2   -0.0417   -0.0147    0.0235   -0.0205    0.0000    0.0000    0.0065    0.0064
           3   -0.0000   -0.0000    0.0000    0.0000   -0.0312   -0.0301   -0.0000   -0.0000
           4   -0.0257    0.0035    0.0009    0.0167   -0.0000    0.0000   -0.0201    0.0212
           5   -0.0423   -0.0148   -0.0234   -0.0206   -0.0000    0.0000   -0.0063    0.0066
           6   -0.0000   -0.0000   -0.0000   -0.0000    0.0300   -0.0313    0.0000   -0.0000
           7   -0.0000   -0.0000   -0.0005   -0.0000   -0.0000   -0.0000   -0.0006    0.0000
           8    0.0014    0.0245   -0.0002    0.2456    0.0000    0.0000   -0.0000   -0.0005
           9    0.0000   -0.0000    0.0000   -0.0000   -0.0000   -0.0001   -0.0000    0.0000
          10   -0.0894    0.1019   -0.0445   -0.0232   -0.0000   -0.0000    0.0001   -0.0005
          11    0.0953    0.0527   -0.1288   -0.0190   -0.0000   -0.0000    0.0005   -0.0000
          12    0.0001    0.0000   -0.0001   -0.0000    0.0000   -0.0002    0.0000    0.0000
          13    0.0890   -0.1021   -0.0433    0.0231   -0.0000    0.0000    0.0001    0.0005
          14    0.0969    0.0534    0.1280   -0.0188    0.0000   -0.0000   -0.0005    0.0000
          15    0.0000    0.0000    0.0001   -0.0000   -0.0000   -0.0002   -0.0000    0.0000
          16   -0.0090   -0.0515    0.0176    0.0097    0.0000    0.0000    0.0001    0.0001
          17   -0.0876   -0.0152    0.1442    0.0051    0.0000    0.0000   -0.0001   -0.0000
          18   -0.0000   -0.0000    0.0001    0.0000   -0.0000   -0.0001   -0.0000    0.0000
          19    0.0102    0.0515    0.0172   -0.0097   -0.0000   -0.0000    0.0000   -0.0001
          20   -0.0870   -0.0160   -0.1435    0.0049   -0.0000   -0.0000    0.0001   -0.0000
          21   -0.0000   -0.0000   -0.0001    0.0000    0.0000   -0.0001    0.0000    0.0000
          22    0.0168    0.1072    0.0275   -0.0158    0.0000   -0.0000   -0.0001   -0.0000
          23    0.0208   -0.0314   -0.0563    0.0053   -0.0000   -0.0000   -0.0001    0.0001
          24    0.0000   -0.0000   -0.0000    0.0000   -0.0000   -0.0000    0.0000    0.0000
          25   -0.0179   -0.1070    0.0278    0.0159    0.0000    0.0000   -0.0001    0.0000
          26    0.0192   -0.0310    0.0562    0.0054   -0.0000    0.0000    0.0001    0.0001
          27    0.0000   -0.0000    0.0000    0.0000    0.0000   -0.0000   -0.0000   -0.0000
          28   -0.0000   -0.0000   -0.0005    0.0000   -0.0000    0.0000    0.0000   -0.0000
          29    0.0010   -0.0240    0.0002   -0.1877   -0.0000   -0.0000    0.0000    0.0001
          30    0.0000   -0.0000   -0.0000    0.0000   -0.0000   -0.0001   -0.0000    0.0000
          31    0.0019    0.0041   -0.0073    0.0011    0.1394    0.1340    0.1260    0.1215
          32   -0.0067    0.0208   -0.0131    0.0188   -0.0429   -0.0414   -0.0388   -0.0376
          33    0.0205    0.0040    0.0009   -0.0014    0.1889    0.1818    0.2021    0.1951
          34    0.0019    0.0041   -0.0073    0.0011   -0.1394   -0.1340    0.1257    0.1212
          35   -0.0066    0.0208   -0.0131    0.0187    0.0427    0.0413   -0.0385   -0.0373
          36   -0.0205   -0.0040   -0.0009    0.0014    0.1893    0.1821   -0.2021   -0.1951
          37   -0.0021   -0.0041   -0.0073   -0.0011    0.1342   -0.1393    0.1217   -0.1258
          38   -0.0064    0.0210    0.0129    0.0188    0.0413   -0.0431    0.0374   -0.0389
          39    0.0204    0.0041   -0.0010   -0.0014   -0.1818    0.1890   -0.1952    0.2020
          40   -0.0021   -0.0041   -0.0072   -0.0011   -0.1341    0.1393    0.1215   -0.1256
          41   -0.0063    0.0209    0.0129    0.0187   -0.0411    0.0429    0.0372   -0.0387
          42   -0.0205   -0.0040    0.0010    0.0014   -0.1821    0.1892    0.1952   -0.2020
          43   -0.0143   -0.0617    0.0241    0.0123   -0.0000   -0.0000   -0.0013   -0.0012
          44    0.1079    0.0076   -0.0557    0.0006    0.0000   -0.0000    0.0002    0.0002
          45    0.0000   -0.0000    0.0000    0.0000    0.0000    0.0001    0.0000    0.0000
          46    0.0158    0.0617    0.0236   -0.0123    0.0000    0.0000   -0.0013    0.0012
          47    0.1078    0.0080    0.0556    0.0006   -0.0000    0.0000   -0.0002    0.0002
          48    0.0001   -0.0000    0.0000   -0.0000   -0.0000    0.0001   -0.0000    0.0000
          49   -0.0180   -0.0255   -0.0280    0.0039    0.0000    0.0000    0.0007   -0.0004
          50    0.0460    0.0502   -0.0310   -0.0066    0.0000    0.0000    0.0012   -0.0007
          51    0.0001    0.0000   -0.0001   -0.0000   -0.0000    0.0000    0.0000   -0.0000
          52    0.0204    0.0253   -0.0281   -0.0040   -0.0000    0.0000    0.0007    0.0004
          53    0.0463    0.0503    0.0306   -0.0066    0.0000   -0.0000   -0.0012   -0.0007
          54    0.0000    0.0000   -0.0000    0.0000    0.0000    0.0000   -0.0000   -0.0000
          55    0.0004    0.0184   -0.0006    0.1385    0.0000    0.0000   -0.0006   -0.0012
          56    0.0020   -0.0009    0.0005   -0.0297   -0.0000   -0.0000    0.0001    0.0003
          57    0.0000    0.0000    0.0000    0.0000    0.0007   -0.0002   -0.0000    0.0000
          58   -0.0005   -0.0184   -0.0003   -0.1385    0.0000   -0.0000   -0.0005    0.0013
          59    0.0021   -0.0009   -0.0004   -0.0298    0.0000   -0.0000   -0.0001    0.0003
          60    0.0000   -0.0000    0.0000    0.0000   -0.0007   -0.0002    0.0000   -0.0000


   Root No.      49        50        51        52        53        54

                49 A      50 A      51 A      52 A      53 A      54 A   

                3055.9    3065.0    3074.9    3081.2    3144.1    3146.4
  
           1   -0.0002   -0.0000   -0.0001   -0.0001   -0.0001    0.0001
           2    0.0000   -0.0001   -0.0001   -0.0001   -0.0000    0.0005
           3   -0.0000   -0.0000    0.0000   -0.0000    0.0000    0.0000
           4   -0.0002    0.0000   -0.0001    0.0001    0.0001    0.0001
           5   -0.0000   -0.0001    0.0001   -0.0001   -0.0000   -0.0005
           6   -0.0000   -0.0000    0.0000   -0.0000    0.0000   -0.0000
           7    0.0000   -0.0000    0.0000    0.0000   -0.0000   -0.0005
           8    0.0000   -0.0000    0.0000   -0.0001   -0.0068    0.0001
           9    0.0000    0.0000    0.0000   -0.0000    0.0000   -0.0000
          10    0.0003    0.0003    0.0009    0.0002    0.0000    0.0000
          11    0.0000    0.0007    0.0014    0.0014    0.0001   -0.0000
          12    0.0000    0.0000    0.0000    0.0000   -0.0000   -0.0000
          13    0.0003   -0.0003    0.0009   -0.0002   -0.0000    0.0000
          14   -0.0000    0.0007   -0.0014    0.0014    0.0001    0.0000
          15    0.0000    0.0000   -0.0000    0.0000    0.0000   -0.0000
          16   -0.0095   -0.0186   -0.0305   -0.0219   -0.0001   -0.0000
          17   -0.0009   -0.0010    0.0000    0.0006   -0.0000   -0.0000
          18   -0.0000   -0.0000   -0.0000    0.0000    0.0000   -0.0000
          19   -0.0097    0.0184   -0.0306    0.0219    0.0001   -0.0000
          20    0.0009   -0.0010   -0.0000    0.0006   -0.0000    0.0000
          21   -0.0000    0.0000   -0.0000    0.0000    0.0000   -0.0000
          22    0.0141    0.0118   -0.0037   -0.0100   -0.0000    0.0000
          23    0.0260    0.0180   -0.0095   -0.0173   -0.0001    0.0000
          24    0.0000    0.0000   -0.0000   -0.0000   -0.0000    0.0000
          25    0.0142   -0.0117   -0.0036    0.0099    0.0000   -0.0000
          26   -0.0263    0.0177    0.0095   -0.0172   -0.0000   -0.0000
          27   -0.0000    0.0000    0.0000   -0.0000    0.0000    0.0000
          28    0.0000   -0.0000   -0.0000    0.0000   -0.0012   -0.0650
          29    0.0000   -0.0000   -0.0000   -0.0001    0.0473   -0.0009
          30    0.0000   -0.0000   -0.0000    0.0000   -0.0000    0.0000
          31    0.0007    0.0001    0.0003    0.0005    0.0006    0.0003
          32   -0.0002   -0.0001   -0.0002   -0.0002   -0.0002    0.0004
          33    0.0011    0.0001    0.0005    0.0009    0.0009    0.0004
          34    0.0007    0.0000    0.0003    0.0005    0.0006    0.0004
          35   -0.0002   -0.0001   -0.0002   -0.0002   -0.0002    0.0004
          36   -0.0011   -0.0001   -0.0005   -0.0009   -0.0009   -0.0004
          37    0.0007   -0.0000    0.0003   -0.0005   -0.0006    0.0004
          38    0.0002   -0.0001    0.0002   -0.0002   -0.0003   -0.0004
          39   -0.0011    0.0001   -0.0005    0.0009    0.0009   -0.0004
          40    0.0007   -0.0000    0.0003   -0.0005   -0.0006    0.0004
          41    0.0002   -0.0001    0.0002   -0.0002   -0.0003   -0.0004
          42    0.0011   -0.0001    0.0005   -0.0008   -0.0009    0.0004
          43    0.1117    0.2171    0.3432    0.2410    0.0008    0.0000
          44    0.0020    0.0014   -0.0005   -0.0011   -0.0000   -0.0000
          45    0.0000    0.0000    0.0000    0.0000   -0.0000   -0.0000
          46    0.1136   -0.2148    0.3450   -0.2403   -0.0008    0.0000
          47   -0.0020    0.0014    0.0005   -0.0011   -0.0000    0.0000
          48    0.0000   -0.0000    0.0000   -0.0000    0.0000    0.0000
          49   -0.1688   -0.1235    0.0535    0.1058    0.0003    0.0000
          50   -0.2985   -0.2110    0.0987    0.1857    0.0006    0.0000
          51   -0.0002   -0.0001    0.0001    0.0001    0.0000    0.0000
          52   -0.1708    0.1219    0.0533   -0.1051   -0.0003   -0.0000
          53    0.3020   -0.2082   -0.0986    0.1845    0.0005   -0.0000
          54    0.0002   -0.0001   -0.0001    0.0001    0.0000    0.0000
          55    0.0000   -0.0000   -0.0000   -0.0007    0.4093    0.3807
          56   -0.0000    0.0000    0.0000    0.0004   -0.2462   -0.2515
          57    0.0000    0.0000    0.0000    0.0000    0.0000    0.0000
          58   -0.0000    0.0000    0.0000    0.0006   -0.3947    0.3962
          59   -0.0000    0.0000   -0.0000    0.0004   -0.2368    0.2610
          60    0.0000   -0.0000    0.0000    0.0000    0.0000   -0.0000


           MASS-WEIGHTED COORDINATE ANALYSIS (NORMAL COORDINATES)


   Root No.       1         2         3         4         5         6         7         8

                 1 A       2 A       3 A       4 A       5 A       6 A       7 A       8 A   

                  76.7     170.3     239.3     283.0     400.7     450.8     460.8     471.9
  
           1   -0.0001   -0.0001   -0.0003   -0.2076    0.0000    0.0001    0.1573   -0.0003
           2    0.0001    0.0002    0.0002    0.0579    0.0002    0.0007    0.2512   -0.0005
           3   -0.3410   -0.3912   -0.2092    0.0005   -0.0190   -0.0378    0.0001   -0.0076
           4   -0.0001   -0.0001   -0.0002   -0.2077    0.0001    0.0007    0.1568   -0.0002
           5    0.0001   -0.0001    0.0000   -0.0579   -0.0001   -0.0008   -0.2508    0.0003
           6   -0.3398    0.3935   -0.2068    0.0002   -0.0189   -0.0377    0.0002    0.0079
           7   -0.0000   -0.0001   -0.0001   -0.1358    0.0002    0.0011    0.3945   -0.0007
           8    0.0001    0.0001    0.0001    0.0002    0.0000   -0.0006    0.0009   -0.0002
           9   -0.0249    0.0005   -0.1660    0.0003    0.0202    0.7120   -0.0019   -0.0003
          10   -0.0000    0.0001   -0.0003   -0.2576   -0.0001   -0.0008   -0.3307    0.0007
          11    0.0001   -0.0000   -0.0002   -0.0233   -0.0001    0.0004    0.0356   -0.0002
          12   -0.1911    0.0064    0.3743   -0.0003    0.3894   -0.0965    0.0007    0.3107
          13   -0.0002    0.0001   -0.0004   -0.2589   -0.0002   -0.0008   -0.3326    0.0007
          14    0.0000   -0.0000   -0.0002    0.0235   -0.0001   -0.0000   -0.0354    0.0001
          15   -0.1909   -0.0080    0.3737   -0.0006    0.3897   -0.0971   -0.0006   -0.3114
          16    0.0000    0.0000    0.0001   -0.0202    0.0001   -0.0003   -0.0987    0.0000
          17   -0.0001   -0.0002   -0.0004   -0.1837    0.0001   -0.0001   -0.1452    0.0003
          18    0.0108    0.3179    0.2786   -0.0003   -0.3693    0.0307    0.0004    0.1903
          19   -0.0000    0.0001   -0.0001   -0.0201   -0.0002   -0.0002   -0.0991    0.0004
          20   -0.0000    0.0001    0.0000    0.1823    0.0002    0.0005    0.1430   -0.0001
          21    0.0100   -0.3196    0.2763   -0.0004   -0.3694    0.0304   -0.0003   -0.1911
          22    0.0001   -0.0001    0.0003    0.2004    0.0001    0.0004    0.1530   -0.0003
          23   -0.0002   -0.0001    0.0001   -0.0724   -0.0001    0.0003   -0.0367    0.0006
          24    0.2299    0.2489   -0.2853    0.0002    0.1332   -0.0142   -0.0006   -0.4051
          25    0.0001   -0.0000    0.0003    0.2017    0.0001    0.0004    0.1546   -0.0004
          26   -0.0002    0.0001    0.0001    0.0730   -0.0002    0.0003    0.0366    0.0000
          27    0.2290   -0.2482   -0.2861    0.0003    0.1329   -0.0136    0.0006    0.4067
          28    0.0002    0.0001    0.0006    0.5553   -0.0001   -0.0006   -0.1691    0.0002
          29    0.0001    0.0001    0.0001    0.0003    0.0000   -0.0007    0.0010   -0.0003
          30    0.5728   -0.0010    0.0522   -0.0003   -0.0161   -0.1956    0.0005    0.0003
          31    0.0742    0.1235    0.0925   -0.0554    0.0863    0.2318    0.0712    0.0980
          32   -0.0032   -0.0455   -0.0992    0.0274   -0.0795    0.0528    0.1525   -0.0857
          33   -0.1528   -0.2126   -0.1500    0.0001   -0.0866   -0.1697   -0.0002   -0.0942
          34   -0.0743   -0.1236   -0.0927   -0.0553   -0.0863   -0.2317    0.0720   -0.0983
          35    0.0033    0.0456    0.0994    0.0272    0.0798   -0.0519    0.1530    0.0852
          36   -0.1527   -0.2124   -0.1498    0.0004   -0.0864   -0.1696    0.0008   -0.0940
          37   -0.0738    0.1242   -0.0918   -0.0553   -0.0863   -0.2314    0.0724    0.0985
          38   -0.0031    0.0461   -0.0989   -0.0274   -0.0797    0.0521   -0.1530    0.0858
          39   -0.1521    0.2139   -0.1486    0.0003   -0.0866   -0.1696    0.0011    0.0947
          40    0.0739   -0.1243    0.0917   -0.0554    0.0865    0.2320    0.0706   -0.0988
          41    0.0032   -0.0462    0.0989   -0.0276    0.0797   -0.0529   -0.1531   -0.0855
          42   -0.1521    0.2138   -0.1484   -0.0000   -0.0865   -0.1695    0.0002    0.0945
          43    0.0000    0.0000    0.0000   -0.0058    0.0000   -0.0001   -0.0285    0.0000
          44   -0.0000   -0.0001   -0.0002   -0.1262    0.0002   -0.0003   -0.1359    0.0003
          45    0.0049    0.1654    0.1195   -0.0001   -0.3779    0.0577    0.0002    0.1148
          46   -0.0000    0.0000   -0.0000   -0.0057   -0.0001   -0.0000   -0.0286    0.0001
          47    0.0000    0.0000    0.0001    0.1264    0.0003    0.0004    0.1360   -0.0002
          48    0.0045   -0.1658    0.1183   -0.0001   -0.3777    0.0574   -0.0001   -0.1160
          49    0.0000   -0.0000    0.0001    0.0998    0.0000    0.0002    0.0864   -0.0001
          50   -0.0001   -0.0001    0.0001   -0.0452   -0.0001    0.0000   -0.0353    0.0004
          51    0.1179    0.1497   -0.2141    0.0002    0.0899    0.0014   -0.0007   -0.3700
          52    0.0000   -0.0000    0.0001    0.0996    0.0000    0.0002    0.0863   -0.0002
          53   -0.0001    0.0000    0.0001    0.0450   -0.0001    0.0001    0.0350   -0.0002
          54    0.1171   -0.1482   -0.2137    0.0003    0.0896    0.0020    0.0006    0.3690
          55    0.0001    0.0001    0.0003    0.2766   -0.0001   -0.0005   -0.1767    0.0002
          56    0.0001    0.0001    0.0002    0.1766   -0.0001   -0.0007   -0.1926    0.0002
          57    0.2433   -0.0856    0.0453   -0.0002   -0.0096   -0.2046    0.0007    0.0205
          58    0.0001    0.0001    0.0003    0.2767   -0.0001   -0.0005   -0.1768    0.0002
          59    0.0000    0.0000   -0.0002   -0.1764    0.0001    0.0003    0.1932   -0.0004
          60    0.2434    0.0846    0.0458   -0.0001   -0.0095   -0.2041    0.0005   -0.0201


   Root No.       9        10        11        12        13        14        15        16

                 9 A      10 A      11 A      12 A      13 A      14 A      15 A      16 A   

                 496.1     592.3     608.4     657.7     676.5     772.4     863.2     865.9
  
           1    0.1287   -0.2163    0.0002   -0.2737   -0.0004    0.0001    0.0008    0.1791
           2    0.1481    0.2603   -0.0004    0.1444    0.0001   -0.0001   -0.0011   -0.2368
           3    0.0003    0.0004    0.0406   -0.0001    0.1363    0.0652   -0.2273    0.0011
           4   -0.1293   -0.2162    0.0001    0.2734    0.0006   -0.0000    0.0007    0.1797
           5    0.1487   -0.2607    0.0002    0.1437    0.0004   -0.0000    0.0009    0.2365
           6    0.0000   -0.0002   -0.0406    0.0003   -0.1363    0.0644    0.2282   -0.0010
           7   -0.0007   -0.1135    0.0001    0.0002    0.0000   -0.0000    0.0000    0.0035
           8    0.4084   -0.0002   -0.0000   -0.2444   -0.0005    0.0000    0.0000    0.0000
           9    0.0010   -0.0002    0.0003   -0.0004   -0.0001   -0.0736   -0.0004   -0.0000
          10    0.0199   -0.0140    0.0000   -0.0024    0.0000    0.0001   -0.0004   -0.0950
          11   -0.0195    0.2902   -0.0005    0.2624    0.0001   -0.0001   -0.0004   -0.0879
          12    0.0001    0.0004    0.0736   -0.0006    0.4302    0.0812    0.0668   -0.0003
          13   -0.0187   -0.0150    0.0001    0.0019    0.0000   -0.0001   -0.0005   -0.0965
          14   -0.0198   -0.2900    0.0002    0.2621    0.0007   -0.0001    0.0005    0.0886
          15   -0.0005   -0.0005   -0.0735    0.0006   -0.4301    0.0806   -0.0667    0.0002
          16    0.2121    0.1523   -0.0004    0.4037    0.0006   -0.0000   -0.0013   -0.3181
          17   -0.2158    0.2876   -0.0002    0.0519    0.0001    0.0001    0.0003    0.0742
          18   -0.0000   -0.0001   -0.0790    0.0003   -0.1541   -0.1403    0.2532   -0.0011
          19   -0.2116    0.1529    0.0002   -0.4036   -0.0005   -0.0000   -0.0016   -0.3184
          20   -0.2169   -0.2885    0.0003    0.0521    0.0002    0.0001   -0.0001   -0.0755
          21   -0.0001    0.0000    0.0791   -0.0002    0.1542   -0.1391   -0.2546    0.0011
          22    0.0019    0.2083   -0.0003    0.0300   -0.0002   -0.0000    0.0011    0.2335
          23   -0.3647    0.3089   -0.0002   -0.1978   -0.0006    0.0001    0.0017    0.3877
          24   -0.0005    0.0003    0.0766   -0.0004    0.1568   -0.2139    0.1303   -0.0001
          25   -0.0022    0.2094   -0.0002   -0.0296   -0.0002   -0.0000    0.0010    0.2350
          26   -0.3654   -0.3075    0.0006   -0.1980    0.0001    0.0002   -0.0017   -0.3869
          27    0.0001   -0.0004   -0.0770    0.0001   -0.1572   -0.2095   -0.1314    0.0002
          28    0.0001   -0.0701    0.0002    0.0001    0.0000   -0.0000   -0.0002   -0.0579
          29    0.4643   -0.0002   -0.0000   -0.3080   -0.0006    0.0001    0.0000    0.0000
          30   -0.0002   -0.0000   -0.0003    0.0001    0.0001   -0.0019   -0.0000    0.0000
          31    0.0375   -0.0676    0.1384   -0.0777    0.1046    0.0433   -0.1829    0.0542
          32    0.0364    0.0841   -0.0286    0.0761   -0.1407   -0.0724    0.0373   -0.1157
          33   -0.0005    0.0039   -0.0981    0.0049   -0.0700   -0.0298    0.0790   -0.0102
          34    0.0369   -0.0678   -0.1383   -0.0774   -0.1049   -0.0432    0.1836    0.0521
[...]
 T-DIPOLE    0.1374         C  1 -- C  4          +9.8% ( 41.9%)     93.6%
 TRAVEL      0.0867         C  2 -- C  3          +7.2% ( 35.9%)     19.6%
 RED. MASS   0.5603         C  1 -- C  3          +7.2% ( 35.8%)     19.6%
 EFF. MASS   6.9451

 VIBRATION   34   34A         ATOM PAIR      ENERGY CONTRIBUTION    RADIAL
 FREQ.      1322.78         C 10 -- H 20         +19.6% ( 52.0%)      1.7%
 T-DIPOLE    0.0849         C 10 -- H 19         +19.6% ( 51.9%)      1.8%
 TRAVEL      0.1118         C  7 -- C  9          +7.3% ( 31.6%)     94.5%
 RED. MASS   0.2936         C  6 -- C  8          +7.2% ( 31.5%)     94.5%
 EFF. MASS   4.0787

 VIBRATION   35   35A         ATOM PAIR      ENERGY CONTRIBUTION    RADIAL
 FREQ.      1334.20         C  2 -- C  3         +17.0% ( 61.3%)     99.6%
 T-DIPOLE    0.1051         C  1 -- C  3         +16.9% ( 61.1%)     99.5%
 TRAVEL      0.0745         C  3 -- C 10          +8.7% ( 43.8%)      0.0%
 RED. MASS   1.6865         C  2 -- H 14          +7.1% ( 39.7%)      0.0%
 EFF. MASS   9.0963

 VIBRATION   36   36A         ATOM PAIR      ENERGY CONTRIBUTION    RADIAL
 FREQ.      1353.54         C  7 -- C  9         +11.9% ( 53.4%)     96.5%
 T-DIPOLE    0.1332         C  6 -- C  8         +11.8% ( 53.0%)     96.3%
 TRAVEL      0.0747         C  4 -- C  5          +7.3% ( 41.7%)    100.0%
 RED. MASS   0.7615         C  4 -- C  6          +6.9% ( 40.5%)     99.8%
 EFF. MASS   8.9237

 VIBRATION   37   37A         ATOM PAIR      ENERGY CONTRIBUTION    RADIAL
 FREQ.      1371.34         C  2 -- H 14         +10.9% ( 41.2%)      5.3%
 T-DIPOLE    0.0585         C  2 -- H 13         +10.9% ( 41.2%)      5.3%
 TRAVEL      0.1019         C  1 -- H 11         +10.5% ( 40.4%)      5.3%
 RED. MASS   0.3367         C  1 -- H 12         +10.5% ( 40.4%)      5.3%
 EFF. MASS   4.7335

 VIBRATION   38   38A         ATOM PAIR      ENERGY CONTRIBUTION    RADIAL
 FREQ.      1390.68         C  1 -- C  3         +16.3% ( 54.2%)     61.5%
 T-DIPOLE    0.1235         C  2 -- C  3         +16.1% ( 54.0%)     62.3%
 TRAVEL      0.0833         C  1 -- H 11         +10.3% ( 43.1%)      8.2%
 RED. MASS   1.0411         C  1 -- H 12         +10.3% ( 43.1%)      8.2%
 EFF. MASS   6.9831         C  2 -- H 14         +10.0% ( 42.6%)      8.2%
                            C  2 -- H 13         +10.0% ( 42.6%)      8.2%

 VIBRATION   39   39A         ATOM PAIR      ENERGY CONTRIBUTION    RADIAL
 FREQ.      1454.84         C  8 -- C  9         +22.2% ( 75.7%)    100.0%
 T-DIPOLE    0.5167         C  4 -- C  5         +11.9% ( 55.4%)    100.0%
 TRAVEL      0.0653         C  1 -- C  4          +7.8% ( 44.9%)     53.1%
 RED. MASS   1.8617         C  2 -- C  5          +7.8% ( 44.8%)     54.7%
 EFF. MASS  10.8814

 VIBRATION   40   40A         ATOM PAIR      ENERGY CONTRIBUTION    RADIAL
 FREQ.      1590.49         C  6 -- C  8         +14.5% ( 56.8%)     95.2%
 T-DIPOLE    0.4826         C  7 -- C  9         +14.5% ( 56.8%)     95.6%
 TRAVEL      0.0609         C  8 -- C  9         +13.4% ( 54.6%)      0.0%
 RED. MASS   1.7391         C  4 -- C  5          +9.1% ( 45.1%)      0.0%
 EFF. MASS  11.4152

 VIBRATION   41   41A         ATOM PAIR      ENERGY CONTRIBUTION    RADIAL
 FREQ.      1611.67         C  4 -- C  5         +20.4% ( 67.3%)    100.0%
 T-DIPOLE    0.6100         C  5 -- C  7         +15.3% ( 58.2%)     34.7%
 TRAVEL      0.0604         C  4 -- C  6         +15.1% ( 58.0%)     33.7%
 RED. MASS   2.5253         C  2 -- C  5         +11.5% ( 50.6%)     89.7%
 EFF. MASS  11.4834         C  1 -- C  4         +11.4% ( 50.2%)     89.1%

 VIBRATION   42   42A         ATOM PAIR      ENERGY CONTRIBUTION    RADIAL
 FREQ.      1798.88         C  4 -- C  5         +16.7% ( 57.4%)    100.0%
 T-DIPOLE    0.1339         C  8 -- C  9         +16.2% ( 56.4%)    100.0%
 TRAVEL      0.0562         C  5 -- C  7         +10.3% ( 45.1%)     67.2%
 RED. MASS   2.2465         C  4 -- C  6         +10.2% ( 44.9%)     66.5%
 EFF. MASS  11.8671

 VIBRATION   43   43A         ATOM PAIR      ENERGY CONTRIBUTION    RADIAL
 FREQ.      1825.50         C  4 -- C  6         +18.2% ( 60.5%)     90.5%
 T-DIPOLE    0.2768         C  5 -- C  7         +17.9% ( 60.0%)     90.3%
 TRAVEL      0.0557         C  4 -- C  5         +13.7% ( 52.5%)      0.0%
 RED. MASS   2.4260         C  6 -- C  8          +9.2% ( 43.1%)     78.0%
 EFF. MASS  11.9038

 VIBRATION   44   44A         ATOM PAIR      ENERGY CONTRIBUTION    RADIAL
 FREQ.      1913.98         C  3 -- C 10         +43.7% ( 97.8%)    100.0%
 T-DIPOLE    0.3603         C  2 -- C  3         +18.0% ( 62.8%)     38.8%
 TRAVEL      0.0544         C  1 -- C  3         +18.0% ( 62.8%)     38.8%
 RED. MASS   5.5222         C 10 -- H 19          +8.9% ( 44.1%)     11.7%
 EFF. MASS  11.9034

 VIBRATION   45   45A         ATOM PAIR      ENERGY CONTRIBUTION    RADIAL
 FREQ.      2969.21         C  1 -- H 12         +25.4% ( 52.3%)     96.7%
 T-DIPOLE    0.0021         C  1 -- H 11         +25.4% ( 52.2%)     96.7%
 TRAVEL      0.1217         C  2 -- H 14         +23.5% ( 50.3%)     96.7%
 RED. MASS   0.2591         C  2 -- H 13         +23.5% ( 50.3%)     96.7%
 EFF. MASS   1.5333

 VIBRATION   46   46A         ATOM PAIR      ENERGY CONTRIBUTION    RADIAL
 FREQ.      2970.09         C  2 -- H 14         +25.4% ( 52.3%)     96.6%
 T-DIPOLE    0.1095         C  2 -- H 13         +25.4% ( 52.2%)     96.6%
 TRAVEL      0.1214         C  1 -- H 12         +23.5% ( 50.3%)     96.6%
 RED. MASS   0.2596         C  1 -- H 11         +23.5% ( 50.2%)     96.6%
 EFF. MASS   1.5397

 VIBRATION   47   47A         ATOM PAIR      ENERGY CONTRIBUTION    RADIAL
 FREQ.      3042.03         C  1 -- H 11         +25.5% ( 49.9%)     97.6%
 T-DIPOLE    0.1789         C  1 -- H 12         +25.5% ( 49.8%)     97.5%
 TRAVEL      0.1318         C  2 -- H 13         +23.8% ( 48.2%)     97.6%
 RED. MASS   0.2423         C  2 -- H 14         +23.8% ( 48.1%)     97.6%
 EFF. MASS   1.2757

 VIBRATION   48   48A         ATOM PAIR      ENERGY CONTRIBUTION    RADIAL
 FREQ.      3043.31         C  2 -- H 13         +25.5% ( 49.9%)     97.4%
 T-DIPOLE    0.0635         C  2 -- H 14         +25.5% ( 49.8%)     97.4%
 TRAVEL      0.1309         C  1 -- H 11         +23.8% ( 48.2%)     97.4%
 RED. MASS   0.2425         C  1 -- H 12         +23.8% ( 48.1%)     97.4%
 EFF. MASS   1.2931

 VIBRATION   49   49A         ATOM PAIR      ENERGY CONTRIBUTION    RADIAL
 FREQ.      3055.88         C  9 -- H 18         +44.4% ( 67.8%)    100.0%
 T-DIPOLE    0.0822         C  8 -- H 17         +43.4% ( 67.0%)    100.0%
 TRAVEL      0.1215         C  7 -- H 16          +4.8% ( 22.2%)     99.9%
 RED. MASS   0.3841         C  6 -- H 15          +4.6% ( 21.9%)     99.9%
 EFF. MASS   1.4936

 VIBRATION   50   50A         ATOM PAIR      ENERGY CONTRIBUTION    RADIAL
 FREQ.      3064.96         C  8 -- H 17         +27.4% ( 53.2%)     99.9%
 T-DIPOLE    0.3101         C  9 -- H 18         +26.7% ( 52.5%)     99.9%
 TRAVEL      0.1208         C  6 -- H 15         +21.7% ( 47.3%)    100.0%
 RED. MASS   0.2359         C  7 -- H 16         +21.2% ( 46.8%)    100.0%
 EFF. MASS   1.5076

 VIBRATION   51   51A         ATOM PAIR      ENERGY CONTRIBUTION    RADIAL
 FREQ.      3074.94         C  7 -- H 16         +44.0% ( 67.3%)    100.0%
 T-DIPOLE    0.5400         C  6 -- H 15         +43.5% ( 67.0%)    100.0%
 TRAVEL      0.1194         C  8 -- H 17          +4.6% ( 21.9%)     99.7%
 RED. MASS   0.3841         C  9 -- H 18          +4.6% ( 21.8%)     99.7%
 EFF. MASS   1.5387

 VIBRATION   52   52A         ATOM PAIR      ENERGY CONTRIBUTION    RADIAL
 FREQ.      3081.20         C  6 -- H 15         +27.1% ( 52.8%)    100.0%
 T-DIPOLE    0.3252         C  7 -- H 16         +27.0% ( 52.7%)    100.0%
 TRAVEL      0.1174         C  8 -- H 17         +21.3% ( 46.8%)    100.0%
 RED. MASS   0.2363         C  9 -- H 18         +21.1% ( 46.5%)    100.0%
 EFF. MASS   1.5873

 VIBRATION   53   53A         ATOM PAIR      ENERGY CONTRIBUTION    RADIAL
 FREQ.      3144.06         C 10 -- H 19         +51.1% ( 71.5%)     95.6%
 T-DIPOLE    0.3397         C 10 -- H 20         +47.3% ( 68.8%)     94.9%
 TRAVEL      0.1242         C  3 -- C 10          +1.5% ( 12.4%)     99.9%
 RED. MASS   0.4867
 EFF. MASS   1.3894

 VIBRATION   54   54A         ATOM PAIR      ENERGY CONTRIBUTION    RADIAL
 FREQ.      3146.42         C 10 -- H 20         +51.1% ( 73.3%)     97.3%
 T-DIPOLE    0.2001         C 10 -- H 19         +47.6% ( 70.7%)     96.8%
 TRAVEL      0.1155         C  3 -- C 10          +1.3% ( 11.7%)      0.0%
 RED. MASS   0.5355
 EFF. MASS   1.6060

      SYMMETRY NUMBER FOR POINT-GROUP C1  =  1


          SYSTEM IS A GROUND STATE



 InChI=1S/C10H10/c1-8-6-9-4-2-3-5-10(9)7-8/h2-5H,1,6-7H2


          MOLECULE IS NOT LINEAR

          THERE ARE 54 GENUINE VIBRATIONS IN THIS SYSTEM
          THIS THERMODYNAMICS CALCULATION IS LIMITED TO
          MOLECULES WHICH HAVE NO INTERNAL ROTATIONS




                    CALCULATED THERMODYNAMIC PROPERTIES
                                          *
   TEMP. (K)   PARTITION FUNCTION   H.O.F.    ENTHALPY  HEAT CAPACITY ENTROPY
                                   KCAL/MOL   CAL/MOLE    CAL/K/MOL  CAL/K/MOL


 298.00  VIB.     0.2990D+02                  3148.7819    26.2473    17.3184
         ROT.     0.5172D+06                   888.2813     2.9808    29.1250
         INT.     0.1546D+08                  4037.0632    29.2281    46.4433
         TRA.     0.1436D+28                  1480.4688     4.9680    40.5022
         TOT.                       31.711    5517.5321    34.1961    86.9455

 200.00  VIB.     0.6064D+01                  1158.6349    14.5681     9.3750
         ROT.     0.2844D+06                   596.1620     2.9808    27.9363
         INT.     0.1725D+07                  1754.7968    17.5489    37.3113
         TRA.     0.7896D+27                   993.6033     4.9680    38.5210
         TOT.                       28.941    2748.4001    22.5170    75.8323

 210.00  VIB.     0.7029D+01                  1309.8886    15.6869    10.1127
         ROT.     0.3060D+06                   625.9700     2.9808    28.0817
         INT.     0.2151D+07                  1935.8586    18.6677    38.1944
         TRA.     0.8496D+27                  1043.2834     4.9680    38.7634
         TOT.                       29.172    2979.1420    23.6357    76.9579

 220.00  VIB.     0.8177D+01                  1472.4550    16.8302    10.8688
         ROT.     0.3281D+06                   655.7781     2.9808    28.2204
         INT.     0.2683D+07                  2128.2331    19.8110    39.0892
         TRA.     0.9110D+27                  1092.9636     4.9680    38.9945
         TOT.                       29.414    3221.1967    24.7791    78.0837

 230.00  VIB.     0.9547D+01                  1646.5655    17.9952    11.6425
         ROT.     0.3507D+06                   685.5862     2.9808    28.3529
         INT.     0.3348D+07                  2332.1517    20.9761    39.9954
         TRA.     0.9738D+27                  1142.6437     4.9680    39.2154
         TOT.                       29.668    3474.7954    25.9441    79.2108

 240.00  VIB.     0.1118D+02                  1832.4220    19.1789    12.4333
         ROT.     0.3738D+06                   715.3943     2.9808    28.4798
         INT.     0.4181D+07                  2547.8163    22.1597    40.9131
         TRA.     0.1038D+28                  1192.3239     4.9680    39.4268
         TOT.                       29.933    3740.1402    27.1277    80.3399

 250.00  VIB.     0.1315D+02                  2030.1952    20.3780    13.2405
         ROT.     0.3974D+06                   745.2024     2.9808    28.6014
         INT.     0.5226D+07                  2775.3977    23.3589    41.8420
         TRA.     0.1103D+28                  1242.0041     4.9680    39.6296
         TOT.                       30.210    4017.4017    28.3269    81.4716

 260.00  VIB.     0.1551D+02                  2240.0235    21.5894    14.0633
         ROT.     0.4215D+06                   775.0105     2.9808    28.7184
         INT.     0.6538D+07                  3015.0340    24.5702    42.7817
         TRA.     0.1170D+28                  1291.6842     4.9680    39.8245
         TOT.                       30.500    4306.7183    29.5382    82.6062

 270.00  VIB.     0.1835D+02                  2462.0124    22.8096    14.9010
         ROT.     0.4461D+06                   804.8186     2.9808    28.8309
         INT.     0.8187D+07                  3266.8311    25.7904    43.7318
         TRA.     0.1239D+28                  1341.3644     4.9680    40.0120
         TOT.                       30.801    4608.1954    30.7585    83.7438

 280.00  VIB.     0.2179D+02                  2696.2354    24.0357    15.7527
         ROT.     0.4711D+06                   834.6267     2.9808    28.9393
         INT.     0.1026D+08                  3530.8622    27.0165    44.6919
         TRA.     0.1308D+28                  1391.0445     4.9680    40.1926
         TOT.                       31.115    4921.9067    31.9845    84.8846

 290.00  VIB.     0.2594D+02                  2942.7346    25.2644    16.6175
         ROT.     0.4965D+06                   864.4348     2.9808    29.0439
         INT.     0.1288D+08                  3807.1694    28.2452    45.6614
         TRA.     0.1379D+28                  1440.7247     4.9680    40.3670
         TOT.                       31.441    5247.8941    33.2132    86.0284

 300.00  VIB.     0.3098D+02                  3201.5221    26.4929    17.4947
         ROT.     0.5224D+06                   894.2429     2.9808    29.1449
         INT.     0.1619D+08                  4095.7651    29.4737    46.6397
         TRA.     0.1451D+28                  1490.4049     4.9680    40.5354
         TOT.                       31.779    5586.1699    34.4417    87.1751

 310.00  VIB.     0.3711D+02                  3472.5822    27.7184    18.3834
         ROT.     0.5488D+06                   924.0510     2.9808    29.2427
         INT.     0.2037D+08                  4396.6332    30.6993    47.6261
         TRA.     0.1524D+28                  1540.0850     4.9680    40.6983
         TOT.                       32.130    5936.7183    35.6673    88.3244

 320.00  VIB.     0.4457D+02                  3755.8728    28.9386    19.2827
         ROT.     0.5755D+06                   953.8591     2.9808    29.3373
         INT.     0.2565D+08                  4709.7320    31.9194    48.6200
         TRA.     0.1598D+28                  1589.7652     4.9680    40.8560
         TOT.                       32.493    6299.4972    36.8874    89.4761

 330.00  VIB.     0.5368D+02                  4051.3282    30.1510    20.1918
         ROT.     0.6027D+06                   983.6672     2.9808    29.4290
         INT.     0.3235D+08                  5034.9954    33.1318    49.6208
         TRA.     0.1674D+28                  1639.4454     4.9680    41.0089
         TOT.                       32.867    6674.4408    38.0998    90.6297

 340.00  VIB.     0.6481D+02                  4358.8608    31.3537    21.1098
         ROT.     0.6303D+06                  1013.4753     2.9808    29.5180
         INT.     0.4085D+08                  5372.3361    34.3345    50.6278
         TRA.     0.1750D+28                  1689.1255     4.9680    41.1572
         TOT.                       33.255    7061.4616    39.3025    91.7850

 350.00  VIB.     0.7845D+02                  4678.3639    32.5448    22.0359
         ROT.     0.6584D+06                  1043.2834     2.9808    29.6044
         INT.     0.5165D+08                  5721.6473    35.5256    51.6403
         TRA.     0.1828D+28                  1738.8057     4.9680    41.3012
         TOT.                       33.654    7460.4530    40.4937    92.9415

 360.00  VIB.     0.9519D+02                  5009.7136    33.7228    22.9692
         ROT.     0.6868D+06                  1073.0915     2.9808    29.6884
         INT.     0.6537D+08                  6082.8051    36.7036    52.6576
         TRA.     0.1907D+28                  1788.4859     4.9680    41.4412
         TOT.                       34.064    7871.2910    41.6716    94.0988

 370.00  VIB.     0.1158D+03                  5352.7713    34.8862    23.9091
         ROT.     0.7156D+06                  1102.8996     2.9808    29.7700
         INT.     0.8283D+08                  6455.6709    37.8670    53.6792
         TRA.     0.1987D+28                  1838.1660     4.9680    41.5773
         TOT.                       34.487    8293.8369    42.8350    95.2565

 380.00  VIB.     0.1411D+03                  5707.3854    36.0339    24.8547
         ROT.     0.7448D+06                  1132.7077     2.9808    29.8495
         INT.     0.1051D+09                  6840.0932    39.0147    54.7043
         TRA.     0.2068D+28                  1887.8462     4.9680    41.7098
         TOT.                       34.921    8727.9393    43.9827    96.4141

 390.00  VIB.     0.1723D+03                  6073.3939    37.1649    25.8054
         ROT.     0.7744D+06                  1162.5158     2.9808    29.9270
         INT.     0.1334D+09                  7235.9097    40.1457    55.7324
         TRA.     0.2150D+28                  1937.5263     4.9680    41.8388
         TOT.                       35.366    9173.4360    45.1137    97.5712

 400.00  VIB.     0.2109D+03                  6450.6254    38.2784    26.7604
         ROT.     0.8044D+06                  1192.3239     2.9808    30.0024
         INT.     0.1696D+09                  7642.9493    41.2592    56.7628
         TRA.     0.2233D+28                  1987.2065     4.9680    41.9646
         TOT.                       35.823    9630.1558    46.2272    98.7275

   *: NOTE: HEATS OF FORMATION ARE RELATIVE TO THE
            ELEMENTS IN THEIR STANDARD STATE AT 298K
              (=  Standard Enthalpy of Formation).

            Hvib:  Zero-point energy is not included.
                   frequencies of less than zero cm-1 are not included.
            Hrot = (3/2)RT
            Htra = (3/2)RT + pV = (5/2)RT

            Heat capacity is Cp, not Cv

          For more information, see: HTTP://OpenMOPAC.net/Manual/thermochemistry.html


           FORCE CONSTANT IN CARTESIAN COORDINATES (Millidynes/A)

    ATOM   CHEMICAL       X               Y               Z
   NUMBER   SYMBOL  FORCE CONSTANT  FORCE CONSTANT  FORCE CONSTANT

      1       C        9.405182        8.477380        7.869267
      2       C        9.405034        8.477042        7.869493
      3       C        8.279284       16.830310        2.775600
      4       C       11.987136       13.735953        2.673294
      5       C       11.938670       13.738309        2.672996
      6       C       12.282677       12.168082        2.337316
      7       C       12.283019       12.149154        2.337121
      8       C       12.205625       12.040936        2.345702
      9       C       12.160111       12.035473        2.345926
     10       C        9.170397       15.497353        1.964470
     11       H        1.986096        0.775853        3.533822
     12       H        1.982855        0.774536        3.537983
     13       H        1.985838        0.775713        3.534203
     14       H        1.983223        0.774618        3.537773
     15       H        5.186195        0.733047        0.355391
     16       H        5.186224        0.733040        0.355705
     17       H        1.841885        4.076540        0.352747
     18       H        1.841648        4.076403        0.354283
     19       H        4.076419        2.036318        0.333721
     20       H        4.074853        2.038073        0.334043

 **********************
 *                    *
 * JOB ENDED NORMALLY *
 *                    *
 **********************



 TOTAL JOB TIME:             5.32 SECONDS

 == MOPAC DONE ==
