 *******************************************************************************
 ** Site#: 14399        For non-commercial use only    Version 18.184L 64BITS **
 *******************************************************************************
 ** Cite this program as: MOPAC2016, Version: 18.184L, James J. P. Stewart,   **
 ** Stewart Computational Chemistry, web: HTTP://OpenMOPAC.net. Days left:  20**
 *******************************************************************************
 **                                                                           **
 **                                MOPAC2016                                  **
 **                                                                           **
 *******************************************************************************

                              PM3 CALCULATION RESULTS

 *******************************************************************************
 *  CALCULATION DONE:                                Thu Jun 13 19:03:05 2019  *
 *  PM3        - The PM3 Hamiltonian to be used
 *  PRECISE    - CRITERIA TO BE INCREASED BY 100 TIMES
 *  NOSYM      - POINT-GROUP SYMMETRY SET TO C1
 *  THREADS=1  - MULTI-THREADING NOT USED
 *  T=         - A TIME OF 172800.0 SECONDS REQUESTED
 *  DUMP=N     - RESTART FILE WRITTEN EVERY  7200.000 SECONDS
 *******************************************************************************
pm3  precise nosym THREADS=1
 InChI=1S/C7H12/c1-7-5-3-2-4-6-7/h5H,2-4,6H2,1H3

   ATOM   CHEMICAL          X               Y               Z
  NUMBER   SYMBOL      (ANGSTROMS)     (ANGSTROMS)     (ANGSTROMS)
 
     1       C         -1.20410000  *  -1.18690000  *   0.14190000  *
     2       C         -1.77390000  *   0.10560000  *   0.72060000  *
     3       C          0.31970000  *  -1.22510000  *   0.30990000  *
     4       C         -1.19720000  *   1.31860000  *  -0.01650000  *
     5       C          2.48610000  *   0.10340000  *  -0.24350000  *
     6       C          0.99280000  *   0.08080000  *  -0.06590000  *
     7       C          0.29750000  *   1.22950000  *  -0.20510000  *
     8       H         -1.65540000  *  -2.05930000  *   0.66170000  *
     9       H         -1.46350000  *  -1.25730000  *  -0.93770000  *
    10       H         -2.88070000  *   0.10360000  *   0.62060000  *
    11       H         -1.52500000  *   0.17100000  *   1.80300000  *
    12       H          0.57180000  *  -1.46160000  *   1.36620000  *
    13       H          0.71930000  *  -2.04250000  *  -0.32830000  *
    14       H         -1.43350000  *   2.23500000  *   0.56520000  *
    15       H         -1.67480000  *   1.41350000  *  -1.01530000  *
    16       H          2.73730000  *   0.42770000  *  -1.27550000  *
    17       H          2.94150000  *   0.80940000  *   0.48290000  *
    18       H          2.92240000  *  -0.90370000  *  -0.07420000  *
    19       H          0.81980000  *   2.13820000  *  -0.49280000  *
 


          CARTESIAN COORDINATES 

    NO.       ATOM           X           Y           Z

     1         C         -1.2041     -1.1869      0.1419
     2         C         -1.7739      0.1056      0.7206
     3         C          0.3197     -1.2251      0.3099
     4         C         -1.1972      1.3186     -0.0165
     5         C          2.4861      0.1034     -0.2435
     6         C          0.9928      0.0808     -0.0659
     7         C          0.2975      1.2295     -0.2051
     8         H         -1.6554     -2.0593      0.6617
     9         H         -1.4635     -1.2573     -0.9377
    10         H         -2.8807      0.1036      0.6206
    11         H         -1.5250      0.1710      1.8030
    12         H          0.5718     -1.4616      1.3662
    13         H          0.7193     -2.0425     -0.3283
    14         H         -1.4335      2.2350      0.5652
    15         H         -1.6748      1.4135     -1.0153
    16         H          2.7373      0.4277     -1.2755
    17         H          2.9415      0.8094      0.4829
    18         H          2.9224     -0.9037     -0.0742
    19         H          0.8198      2.1382     -0.4928

  H: (PM3): J. J. P. STEWART, J. COMP. CHEM. 10, 209 (1989).
  C: (PM3): J. J. P. STEWART, J. COMP. CHEM. 10, 209 (1989).

           Empirical Formula: C7 H12  =    19 atoms



      MOLECULAR POINT GROUP   :   C1  


      RHF CALCULATION, NO. OF DOUBLY OCCUPIED LEVELS = 20


          Geometry optimization using EF

          DIAGONAL MATRIX USED AS START HESSIAN

 CYCLE:     1 TIME:   0.016 TIME LEFT:  2.00D  GRAD.:    50.077 HEAT: -12.11190
 CYCLE:     2 TIME:   0.039 TIME LEFT:  2.00D  GRAD.:    68.942 HEAT: -12.67280
 CYCLE:     3 TIME:   0.031 TIME LEFT:  2.00D  GRAD.:    42.275 HEAT: -13.33954
 CYCLE:     4 TIME:   0.023 TIME LEFT:  2.00D  GRAD.:    38.279 HEAT: -13.36065
 CYCLE:     5 TIME:   0.023 TIME LEFT:  2.00D  GRAD.:    36.714 HEAT: -13.39901
 CYCLE:     6 TIME:   0.023 TIME LEFT:  2.00D  GRAD.:    35.937 HEAT: -13.46780
 CYCLE:     7 TIME:   0.016 TIME LEFT:  2.00D  GRAD.:    33.379 HEAT: -13.50602
 CYCLE:     8 TIME:   0.023 TIME LEFT:  2.00D  GRAD.:    34.697 HEAT: -13.52077
 CYCLE:     9 TIME:   0.023 TIME LEFT:  2.00D  GRAD.:    31.895 HEAT: -13.55305
 CYCLE:    10 TIME:   0.031 TIME LEFT:  2.00D  GRAD.:    12.002 HEAT: -13.82524
 CYCLE:    11 TIME:   0.016 TIME LEFT:  2.00D  GRAD.:     8.640 HEAT: -13.85988
 CYCLE:    12 TIME:   0.023 TIME LEFT:  2.00D  GRAD.:     5.139 HEAT: -13.88401
 CYCLE:    13 TIME:   0.023 TIME LEFT:  2.00D  GRAD.:     6.482 HEAT: -13.89704
 CYCLE:    14 TIME:   0.023 TIME LEFT:  2.00D  GRAD.:     9.309 HEAT: -13.90578
 CYCLE:    15 TIME:   0.023 TIME LEFT:  2.00D  GRAD.:     5.561 HEAT: -13.93819
 CYCLE:    16 TIME:   0.023 TIME LEFT:  2.00D  GRAD.:     9.089 HEAT: -13.93959
 CYCLE:    17 TIME:   0.016 TIME LEFT:  2.00D  GRAD.:     3.425 HEAT: -13.96347
 CYCLE:    18 TIME:   0.039 TIME LEFT:  2.00D  GRAD.:     3.628 HEAT: -13.96605
 CYCLE:    19 TIME:   0.023 TIME LEFT:  2.00D  GRAD.:     2.905 HEAT: -13.97036
 CYCLE:    20 TIME:   0.023 TIME LEFT:  2.00D  GRAD.:     3.691 HEAT: -13.97462
 CYCLE:    21 TIME:   0.031 TIME LEFT:  2.00D  GRAD.:     2.957 HEAT: -13.97993
 CYCLE:    22 TIME:   0.031 TIME LEFT:  2.00D  GRAD.:     2.768 HEAT: -13.98530
 CYCLE:    23 TIME:   0.016 TIME LEFT:  2.00D  GRAD.:     1.717 HEAT: -13.98863
 CYCLE:    24 TIME:   0.023 TIME LEFT:  2.00D  GRAD.:     1.518 HEAT: -13.99051
 CYCLE:    25 TIME:   0.023 TIME LEFT:  2.00D  GRAD.:     1.120 HEAT: -13.99209
 CYCLE:    26 TIME:   0.023 TIME LEFT:  2.00D  GRAD.:     0.946 HEAT: -13.99332
 CYCLE:    27 TIME:   0.023 TIME LEFT:  2.00D  GRAD.:     0.839 HEAT: -13.99399
 CYCLE:    28 TIME:   0.023 TIME LEFT:  2.00D  GRAD.:     0.724 HEAT: -13.99456
 CYCLE:    29 TIME:   0.023 TIME LEFT:  2.00D  GRAD.:     1.099 HEAT: -13.99583
 CYCLE:    30 TIME:   0.023 TIME LEFT:  2.00D  GRAD.:     1.450 HEAT: -13.99645
 CYCLE:    31 TIME:   0.023 TIME LEFT:  2.00D  GRAD.:     0.709 HEAT: -13.99739
 CYCLE:    32 TIME:   0.023 TIME LEFT:  2.00D  GRAD.:     0.644 HEAT: -13.99786
 CYCLE:    33 TIME:   0.023 TIME LEFT:  2.00D  GRAD.:     0.626 HEAT: -13.99860
 CYCLE:    34 TIME:   0.016 TIME LEFT:  2.00D  GRAD.:     0.743 HEAT: -13.99980
 CYCLE:    35 TIME:   0.023 TIME LEFT:  2.00D  GRAD.:     0.721 HEAT: -14.00077
 CYCLE:    36 TIME:   0.023 TIME LEFT:  2.00D  GRAD.:     0.872 HEAT: -14.00240
 CYCLE:    37 TIME:   0.023 TIME LEFT:  2.00D  GRAD.:     0.929 HEAT: -14.00405
 CYCLE:    38 TIME:   0.031 TIME LEFT:  2.00D  GRAD.:     0.976 HEAT: -14.00637
 CYCLE:    39 TIME:   0.023 TIME LEFT:  2.00D  GRAD.:     0.929 HEAT: -14.00819
 CYCLE:    40 TIME:   0.031 TIME LEFT:  2.00D  GRAD.:     0.902 HEAT: -14.01058
 CYCLE:    41 TIME:   0.023 TIME LEFT:  2.00D  GRAD.:     0.988 HEAT: -14.01305
 CYCLE:    42 TIME:   0.031 TIME LEFT:  2.00D  GRAD.:     1.071 HEAT: -14.01586
 CYCLE:    43 TIME:   0.023 TIME LEFT:  2.00D  GRAD.:     1.609 HEAT: -14.02013
 CYCLE:    44 TIME:   0.031 TIME LEFT:  2.00D  GRAD.:     1.858 HEAT: -14.02610
 CYCLE:    45 TIME:   0.023 TIME LEFT:  2.00D  GRAD.:     4.114 HEAT: -14.03102
 CYCLE:    46 TIME:   0.023 TIME LEFT:  2.00D  GRAD.:     2.378 HEAT: -14.04544
 CYCLE:    47 TIME:   0.023 TIME LEFT:  2.00D  GRAD.:     2.878 HEAT: -14.05973
 CYCLE:    48 TIME:   0.023 TIME LEFT:  2.00D  GRAD.:     4.490 HEAT: -14.08065
 CYCLE:    49 TIME:   0.023 TIME LEFT:  2.00D  GRAD.:     3.911 HEAT: -14.08863
 CYCLE:    50 TIME:   0.023 TIME LEFT:  2.00D  GRAD.:     4.462 HEAT: -14.11825
 CYCLE:    51 TIME:   0.023 TIME LEFT:  2.00D  GRAD.:     4.180 HEAT: -14.14082
 CYCLE:    52 TIME:   0.023 TIME LEFT:  2.00D  GRAD.:     2.886 HEAT: -14.16003
 CYCLE:    53 TIME:   0.023 TIME LEFT:  2.00D  GRAD.:     6.805 HEAT: -14.16734
 CYCLE:    54 TIME:   0.023 TIME LEFT:  2.00D  GRAD.:     3.756 HEAT: -14.18274
 CYCLE:    55 TIME:   0.023 TIME LEFT:  2.00D  GRAD.:     2.496 HEAT: -14.20185
 CYCLE:    56 TIME:   0.023 TIME LEFT:  2.00D  GRAD.:     3.804 HEAT: -14.21257
 CYCLE:    57 TIME:   0.023 TIME LEFT:  2.00D  GRAD.:     4.216 HEAT: -14.22907
 CYCLE:    58 TIME:   0.023 TIME LEFT:  2.00D  GRAD.:     4.251 HEAT: -14.25322
 CYCLE:    59 TIME:   0.023 TIME LEFT:  2.00D  GRAD.:     3.177 HEAT: -14.27503
 CYCLE:    60 TIME:   0.023 TIME LEFT:  2.00D  GRAD.:     8.496 HEAT: -14.29048
 CYCLE:    61 TIME:   0.023 TIME LEFT:  2.00D  GRAD.:     8.054 HEAT: -14.30634
 CYCLE:    62 TIME:   0.023 TIME LEFT:  2.00D  GRAD.:     3.536 HEAT: -14.35665
 CYCLE:    63 TIME:   0.031 TIME LEFT:  2.00D  GRAD.:     5.486 HEAT: -14.37025
 CYCLE:    64 TIME:   0.023 TIME LEFT:  2.00D  GRAD.:     3.563 HEAT: -14.39207
 CYCLE:    65 TIME:   0.031 TIME LEFT:  2.00D  GRAD.:     4.417 HEAT: -14.41865
 CYCLE:    66 TIME:   0.023 TIME LEFT:  2.00D  GRAD.:     3.438 HEAT: -14.43986
 CYCLE:    67 TIME:   0.023 TIME LEFT:  2.00D  GRAD.:     4.616 HEAT: -14.45956
 CYCLE:    68 TIME:   0.031 TIME LEFT:  2.00D  GRAD.:     2.446 HEAT: -14.47754
 CYCLE:    69 TIME:   0.023 TIME LEFT:  2.00D  GRAD.:     1.727 HEAT: -14.48551
 CYCLE:    70 TIME:   0.023 TIME LEFT:  2.00D  GRAD.:     1.382 HEAT: -14.49267
 CYCLE:    71 TIME:   0.023 TIME LEFT:  2.00D  GRAD.:     2.024 HEAT: -14.49673
 CYCLE:    72 TIME:   0.023 TIME LEFT:  2.00D  GRAD.:     1.329 HEAT: -14.50192
 CYCLE:    73 TIME:   0.023 TIME LEFT:  2.00D  GRAD.:     1.286 HEAT: -14.50573
 CYCLE:    74 TIME:   0.031 TIME LEFT:  2.00D  GRAD.:     1.107 HEAT: -14.50839
 CYCLE:    75 TIME:   0.023 TIME LEFT:  2.00D  GRAD.:     1.064 HEAT: -14.51075
 CYCLE:    76 TIME:   0.023 TIME LEFT:  2.00D  GRAD.:     0.996 HEAT: -14.51438
 CYCLE:    77 TIME:   0.023 TIME LEFT:  2.00D  GRAD.:     0.891 HEAT: -14.51634
 CYCLE:    78 TIME:   0.023 TIME LEFT:  2.00D  GRAD.:     0.694 HEAT: -14.51853
 CYCLE:    79 TIME:   0.023 TIME LEFT:  2.00D  GRAD.:     0.944 HEAT: -14.51894
 CYCLE:    80 TIME:   0.023 TIME LEFT:  2.00D  GRAD.:     0.375 HEAT: -14.51963
 CYCLE:    81 TIME:   0.023 TIME LEFT:  2.00D  GRAD.:     0.345 HEAT: -14.52015
 CYCLE:    82 TIME:   0.023 TIME LEFT:  2.00D  GRAD.:     0.617 HEAT: -14.52093
 CYCLE:    83 TIME:   0.023 TIME LEFT:  2.00D  GRAD.:     0.598 HEAT: -14.52143
 CYCLE:    84 TIME:   0.023 TIME LEFT:  2.00D  GRAD.:     0.589 HEAT: -14.52210
 CYCLE:    85 TIME:   0.023 TIME LEFT:  2.00D  GRAD.:     0.367 HEAT: -14.52242
 CYCLE:    86 TIME:   0.023 TIME LEFT:  2.00D  GRAD.:     0.315 HEAT: -14.52274
 CYCLE:    87 TIME:   0.023 TIME LEFT:  2.00D  GRAD.:     0.279 HEAT: -14.52287
 CYCLE:    88 TIME:   0.023 TIME LEFT:  2.00D  GRAD.:     0.269 HEAT: -14.52308
 CYCLE:    89 TIME:   0.023 TIME LEFT:  2.00D  GRAD.:     0.311 HEAT: -14.52320
 CYCLE:    90 TIME:   0.023 TIME LEFT:  2.00D  GRAD.:     0.283 HEAT: -14.52334
 CYCLE:    91 TIME:   0.023 TIME LEFT:  2.00D  GRAD.:     0.273 HEAT: -14.52344
 CYCLE:    92 TIME:   0.023 TIME LEFT:  2.00D  GRAD.:     0.314 HEAT: -14.52360
 CYCLE:    93 TIME:   0.023 TIME LEFT:  2.00D  GRAD.:     0.382 HEAT: -14.52378
 CYCLE:    94 TIME:   0.023 TIME LEFT:  2.00D  GRAD.:     0.497 HEAT: -14.52418
 CYCLE:    95 TIME:   0.023 TIME LEFT:  2.00D  GRAD.:     0.486 HEAT: -14.52451
 CYCLE:    96 TIME:   0.016 TIME LEFT:  2.00D  GRAD.:     0.499 HEAT: -14.52505
 CYCLE:    97 TIME:   0.023 TIME LEFT:  2.00D  GRAD.:     0.291 HEAT: -14.52523
 CYCLE:    98 TIME:   0.023 TIME LEFT:  2.00D  GRAD.:     0.180 HEAT: -14.52542
 CYCLE:    99 TIME:   0.023 TIME LEFT:  2.00D  GRAD.:     0.151 HEAT: -14.52550
 CYCLE:   100 TIME:   0.031 TIME LEFT:  2.00D  GRAD.:     0.132 HEAT: -14.52557
 CYCLE:   101 TIME:   0.023 TIME LEFT:  2.00D  GRAD.:     0.085 HEAT: -14.52560
 CYCLE:   102 TIME:   0.023 TIME LEFT:  2.00D  GRAD.:     0.066 HEAT: -14.52562
 CYCLE:   103 TIME:   0.023 TIME LEFT:  2.00D  GRAD.:     0.042 HEAT: -14.52562

     GRADIENT =  0.04233  IS LESS THAN CUTOFF =  0.05000



 -------------------------------------------------------------------------------
 pm3  precise nosym THREADS=1
 InChI=1S/C7H12/c1-7-5-3-2-4-6-7/h5H,2-4,6H2,1H3



     GEOMETRY OPTIMISED USING EIGENVECTOR FOLLOWING (EF).     
     SCF FIELD WAS ACHIEVED                                   


                              PM3 CALCULATION
                                                       MOPAC2016 (Version: 18.184L)
                                                       Thu Jun 13 19:03:07 2019
                                                       No. of days remaining =  20




          FINAL HEAT OF FORMATION =        -14.52562 KCAL/MOL =     -60.77520 KJ/MOL


          TOTAL ENERGY            =      -1015.10495 EV
          ELECTRONIC ENERGY       =      -4969.21648 EV  POINT GROUP:     C1  
          CORE-CORE REPULSION     =       3954.11153 EV
          COSMO AREA              =        147.31 SQUARE ANGSTROMS
          COSMO VOLUME            =        142.45 CUBIC ANGSTROMS

          GRADIENT NORM           =          0.04233 = 0.00971 PER ATOM
          IONIZATION POTENTIAL    =          9.332909 EV
          HOMO LUMO ENERGIES (EV) =         -9.333  1.116
          NO. OF FILLED LEVELS    =         20
          MOLECULAR WEIGHT        =         96.1718

          MOLECULAR DIMENSIONS (Angstroms)

            Atom       Atom       Distance
            H    17    H    10     5.92269
            H    14    H    13     4.59717
            H    15    H    12     3.02066


          SCF CALCULATIONS        =        110
 
          WALL-CLOCK TIME         =          2.562 SECONDS
          COMPUTATION TIME        =          1.004 SECONDS




   ATOM   CHEMICAL          X               Y               Z
  NUMBER   SYMBOL      (ANGSTROMS)     (ANGSTROMS)     (ANGSTROMS)
 
     1       C         -1.17833577  *  -1.16828825  *   0.06971600  *
     2       C         -1.77038258  *   0.08031364  *   0.69927084  *
     3       C          0.32984426  *  -1.20407284  *   0.26037487  *
     4       C         -1.18379878  *   1.33162576  *   0.06455633  *
     5       C          2.45031165  *   0.06258774  *  -0.25510465  *
     6       C          0.97896611  *   0.10510355  *  -0.04948823  *
     7       C          0.28805421  *   1.24955896  *  -0.12331451  *
     8       H         -1.63605611  *  -2.07527342  *   0.50901232  *
     9       H         -1.42621438  *  -1.19749887  *  -1.00969011  *
    10       H         -2.87190169  *   0.08097332  *   0.59156146  *
    11       H         -1.57411878  *   0.07851054  *   1.78966582  *
    12       H          0.58029470  *  -1.47375114  *   1.30676029  *
    13       H          0.77235431  *  -1.99943850  *  -0.37175080  *
    14       H         -1.42884068  *   2.21881596  *   0.68089994  *
    15       H         -1.64655743  *   1.51439263  *  -0.92687073  *
    16       H          2.69957979  *  -0.53253599  *  -1.14443460  *
    17       H          2.88575857  *   1.06119627  *  -0.39169819  *
    18       H          2.94963753  *  -0.40309446  *   0.60538516  *
    19       H          0.79680829  *   2.19493580  *  -0.34799846  *

                             CARTESIAN COORDINATES

   1    C       -1.178335766    -1.168288252     0.069715999
   2    C       -1.770382582     0.080313641     0.699270840
   3    C        0.329844257    -1.204072839     0.260374867
   4    C       -1.183798782     1.331625762     0.064556329
   5    C        2.450311651     0.062587738    -0.255104654
   6    C        0.978966106     0.105103552    -0.049488233
   7    C        0.288054209     1.249558960    -0.123314507
   8    H       -1.636056113    -2.075273425     0.509012321
   9    H       -1.426214381    -1.197498870    -1.009690107
  10    H       -2.871901691     0.080973320     0.591561460
  11    H       -1.574118780     0.078510541     1.789665820
  12    H        0.580294695    -1.473751142     1.306760291
  13    H        0.772354308    -1.999438499    -0.371750804
  14    H       -1.428840681     2.218815959     0.680899942
  15    H       -1.646557428     1.514392630    -0.926870727
  16    H        2.699579795    -0.532535995    -1.144434600
  17    H        2.885758569     1.061196275    -0.391698189
  18    H        2.949637535    -0.403094459     0.605385158
  19    H        0.796808287     2.194935795    -0.347998464


           Empirical Formula: C7 H12  =    19 atoms



      MOLECULAR POINT GROUP   :   C1  


                  EIGENVALUES  
 -40.68022 -33.00017 -30.52307 -25.86279 -22.35465 -20.94781 -17.70172 -16.71235
 -15.40412 -15.18557 -14.73407 -14.11557 -13.95516 -13.49590 -12.88494 -12.81500
 -11.89325 -11.55900 -11.46400  -9.33291   1.11578   3.37139   3.63561   3.64129
   3.83096   3.87645   3.89962   4.10474   4.22873   4.34463   4.38428   4.44200
   4.52502   4.68606   4.83958   4.95980   5.00522   5.15087   5.84306   6.12520


              NET ATOMIC CHARGES AND DIPOLE CONTRIBUTIONS

  ATOM NO.   TYPE          CHARGE      No. of ELECS.   s-Pop       p-Pop       
    1          C          -0.094716        4.0947     1.15846     2.93626
    2          C          -0.095787        4.0958     1.15861     2.93718
    3          C          -0.051007        4.0510     1.14638     2.90463
    4          C          -0.053948        4.0539     1.14544     2.90851
    5          C          -0.065160        4.0652     1.12516     2.94000
    6          C          -0.126277        4.1263     1.19658     2.92970
    7          C          -0.152807        4.1528     1.19295     2.95986
    8          H           0.047782        0.9522     0.95222
    9          H           0.051461        0.9485     0.94854
   10          H           0.047769        0.9522     0.95223
   11          H           0.051140        0.9489     0.94886
   12          H           0.054670        0.9453     0.94533
   13          H           0.053604        0.9464     0.94640
   14          H           0.051852        0.9481     0.94815
   15          H           0.053653        0.9463     0.94635
   16          H           0.043739        0.9563     0.95626
   17          H           0.041426        0.9586     0.95857
   18          H           0.042710        0.9573     0.95729
   19          H           0.099898        0.9001     0.90010
 DIPOLE           X         Y         Z       TOTAL
 POINT-CHG.    -0.069    -0.180     0.026     0.194
 HYBRID         0.068     0.016    -0.012     0.071
 SUM           -0.002    -0.164     0.014     0.164


          ATOMIC ORBITAL ELECTRON POPULATIONS

     Atom    s        px        py        pz   
    1  C   1.15846   0.95452   0.97355   1.00818
    2  C   1.15861   0.98917   0.95140   0.99661
    3  C   1.14638   0.94955   0.94735   1.00772
    4  C   1.14544   0.93832   0.97093   0.99925
    5  C   1.12516   0.92709   1.00990   1.00300
    6  C   1.19658   0.95843   0.95823   1.01304
    7  C   1.19295   0.96281   0.96866   1.02839
    8  H   0.95222
    9  H   0.94854
   10  H   0.95223
   11  H   0.94886
   12  H   0.94533
   13  H   0.94640
   14  H   0.94815
   15  H   0.94635
   16  H   0.95626
   17  H   0.95857
   18  H   0.95729
   19  H   0.90010
 *******************************************************************************
 ** Site#: 14399        For non-commercial use only    Version 18.184L 64BITS **
 *******************************************************************************
 ** Cite this program as: MOPAC2016, Version: 18.184L, James J. P. Stewart,   **
 ** Stewart Computational Chemistry, web: HTTP://OpenMOPAC.net. Days left:  20**
 *******************************************************************************
 **                                                                           **
 **                                MOPAC2016                                  **
 **                                                                           **
 *******************************************************************************

                              PM3 CALCULATION RESULTS

 *******************************************************************************
 *  CALCULATION DONE:                                Thu Jun 13 19:03:07 2019  *
 *  PM3        - The PM3 Hamiltonian to be used
 *  OLDGEO     - PREVIOUS GEOMETRY TO BE USED
 *  PRECISE    - CRITERIA TO BE INCREASED BY 100 TIMES
 *  NOSYM      - POINT-GROUP SYMMETRY SET TO C1
 *  THREADS=1  - MULTI-THREADING NOT USED
 *  T=         - A TIME OF 172800.0 SECONDS REQUESTED
 *  DUMP=N     - RESTART FILE WRITTEN EVERY  7200.000 SECONDS
 *  THERMO     - THERMODYNAMIC QUANTITIES TO BE CALCULATED
 *******************************************************************************
oldgeo thermo nosym precise THREADS=1  pm3
 InChI=1S/C7H12/c1-7-5-3-2-4-6-7/h5H,2-4,6H2,1H3

   ATOM   CHEMICAL          X               Y               Z
  NUMBER   SYMBOL      (ANGSTROMS)     (ANGSTROMS)     (ANGSTROMS)
 
     1       C         -1.17833577  *  -1.16828825  *   0.06971600  *
     2       C         -1.77038258  *   0.08031364  *   0.69927084  *
     3       C          0.32984426  *  -1.20407284  *   0.26037487  *
     4       C         -1.18379878  *   1.33162576  *   0.06455633  *
     5       C          2.45031165  *   0.06258774  *  -0.25510465  *
     6       C          0.97896611  *   0.10510355  *  -0.04948823  *
     7       C          0.28805421  *   1.24955896  *  -0.12331451  *
     8       H         -1.63605611  *  -2.07527342  *   0.50901232  *
     9       H         -1.42621438  *  -1.19749887  *  -1.00969011  *
    10       H         -2.87190169  *   0.08097332  *   0.59156146  *
    11       H         -1.57411878  *   0.07851054  *   1.78966582  *
    12       H          0.58029470  *  -1.47375114  *   1.30676029  *
    13       H          0.77235431  *  -1.99943850  *  -0.37175080  *
    14       H         -1.42884068  *   2.21881596  *   0.68089994  *
    15       H         -1.64655743  *   1.51439263  *  -0.92687073  *
    16       H          2.69957979  *  -0.53253599  *  -1.14443460  *
    17       H          2.88575857  *   1.06119627  *  -0.39169819  *
    18       H          2.94963753  *  -0.40309446  *   0.60538516  *
    19       H          0.79680829  *   2.19493580  *  -0.34799846  *
 


          CARTESIAN COORDINATES 

    NO.       ATOM           X           Y           Z

     1         C         -1.1783     -1.1683      0.0697
     2         C         -1.7704      0.0803      0.6993
     3         C          0.3298     -1.2041      0.2604
     4         C         -1.1838      1.3316      0.0646
     5         C          2.4503      0.0626     -0.2551
     6         C          0.9790      0.1051     -0.0495
     7         C          0.2881      1.2496     -0.1233
     8         H         -1.6361     -2.0753      0.5090
     9         H         -1.4262     -1.1975     -1.0097
    10         H         -2.8719      0.0810      0.5916
    11         H         -1.5741      0.0785      1.7897
    12         H          0.5803     -1.4738      1.3068
    13         H          0.7724     -1.9994     -0.3718
    14         H         -1.4288      2.2188      0.6809
    15         H         -1.6466      1.5144     -0.9269
    16         H          2.6996     -0.5325     -1.1444
    17         H          2.8858      1.0612     -0.3917
    18         H          2.9496     -0.4031      0.6054
    19         H          0.7968      2.1949     -0.3480

  H: (PM3): J. J. P. STEWART, J. COMP. CHEM. 10, 209 (1989).
  C: (PM3): J. J. P. STEWART, J. COMP. CHEM. 10, 209 (1989).

           Empirical Formula: C7 H12  =    19 atoms



      MOLECULAR POINT GROUP   :   C1  


      RHF CALCULATION, NO. OF DOUBLY OCCUPIED LEVELS = 20



          HEAT OF FORMATION =     -14.525621 KCALS/MOLE


          CARTESIAN COORDINATE DERIVATIVES

   NUMBER  ATOM         X            Y            Z

     1       C      0.002814    -0.001402    -0.003240
     2       C      0.003015     0.003464     0.000468
     3       C     -0.000131     0.001998    -0.005022
     4       C     -0.002278     0.007701     0.001619
     5       C      0.002678    -0.005114     0.000804
     6       C     -0.000284     0.003007    -0.003187
     7       C      0.000177     0.004894     0.005551
     8       H      0.006317    -0.016414    -0.000855
     9       H     -0.005152     0.019551     0.002049
    10       H     -0.000111     0.003072     0.001553
    11       H      0.002617    -0.006826    -0.000735
    12       H     -0.018099     0.005539    -0.004520
    13       H      0.006538    -0.004935    -0.000750
    14       H     -0.000822    -0.000458     0.001189
    15       H     -0.001502    -0.007971    -0.002977
    16       H     -0.004334     0.000268     0.004234
    17       H      0.002218     0.002013     0.002062
    18       H     -0.002679     0.001464    -0.003294
    19       H      0.009019    -0.009852     0.005048
 


          GRADIENT NORM =   0.04281


          TIME FOR SCF CALCULATION =    0.02

          TIME FOR DERIVATIVES     =    0.01

          MOLECULAR WEIGHT =   96.17



          ROTATIONAL CONSTANTS IN CM(-1)

          A =    0.15072032   B =    0.07669121   C =    0.05466348



           PRINCIPAL MOMENTS OF INERTIA IN UNITS OF 10**(-40)*GRAM-CM**2

          A =      185.7266   B =      365.0063   C =      512.0928


          ORIENTATION OF MOLECULE IN FORCE CALCULATION

    NO.       ATOM         X         Y         Z

     1          C      -0.5585   -1.4238   -0.7178
     2          C       0.9600   -1.4238   -0.7178
     3          C      -1.0969   -0.0017   -0.7178
     4          C       1.4971   -0.7150    0.5158
     5          C      -1.0958    2.1465    0.6056
     6          C      -0.4019    0.8753    0.2717
     7          C       0.7779    0.5505    0.8150
     8          H      -0.9437   -1.9734   -1.5980
     9          H      -0.9334   -1.9726    0.1686
    10          H       1.3454   -2.4606   -0.7576
    11          H       1.3341   -0.9278   -1.6352
    12          H      -0.9824    0.4543   -1.7225
    13          H      -2.1855   -0.0093   -0.5107
    14          H       2.5777   -0.5055    0.3913
    15          H       1.4168   -1.3737    1.4047
    16          H      -2.0510    1.9450    1.1097
    17          H      -0.5011    2.7900    1.2672
    18          H      -1.3166    2.7195   -0.3051
    19          H       1.2637    1.2201    1.5352


    FIRST DERIVATIVES WILL BE USED IN THE CALCULATION OF SECOND DERIVATIVES

          ESTIMATED TIME TO COMPLETE CALCULATION =        7.12 SECONDS

    FOR POINT-GROUP C1   THERE ARE   1 UNIQUE SYMMETRY FUNCTIONS.

 STEP:   1 TIME =     0.05 SECS, INTEGRAL =      0.05 TIME LEFT: 172799.92
 STEP:   2 TIME =     0.04 SECS, INTEGRAL =      0.09 TIME LEFT: 172799.88
 STEP:   3 TIME =     0.03 SECS, INTEGRAL =      0.12 TIME LEFT: 172799.85
 STEP:   4 TIME =     0.03 SECS, INTEGRAL =      0.15 TIME LEFT: 172799.82
 STEP:   5 TIME =     0.03 SECS, INTEGRAL =      0.18 TIME LEFT: 172799.79
 STEP:   6 TIME =     0.03 SECS, INTEGRAL =      0.21 TIME LEFT: 172799.76
 STEP:   7 TIME =     0.03 SECS, INTEGRAL =      0.24 TIME LEFT: 172799.73
 STEP:   8 TIME =     0.03 SECS, INTEGRAL =      0.27 TIME LEFT: 172799.70
 STEP:   9 TIME =     0.04 SECS, INTEGRAL =      0.31 TIME LEFT: 172799.66
 STEP:  10 TIME =     0.04 SECS, INTEGRAL =      0.35 TIME LEFT: 172799.62
 STEP:  11 TIME =     0.04 SECS, INTEGRAL =      0.39 TIME LEFT: 172799.58
 STEP:  12 TIME =     0.04 SECS, INTEGRAL =      0.43 TIME LEFT: 172799.54
 STEP:  13 TIME =     0.04 SECS, INTEGRAL =      0.47 TIME LEFT: 172799.50
 STEP:  14 TIME =     0.03 SECS, INTEGRAL =      0.50 TIME LEFT: 172799.47
 STEP:  15 TIME =     0.03 SECS, INTEGRAL =      0.53 TIME LEFT: 172799.44
 STEP:  16 TIME =     0.03 SECS, INTEGRAL =      0.56 TIME LEFT: 172799.41
 STEP:  17 TIME =     0.03 SECS, INTEGRAL =      0.59 TIME LEFT: 172799.38
 STEP:  18 TIME =     0.03 SECS, INTEGRAL =      0.62 TIME LEFT: 172799.34
 STEP:  19 TIME =     0.03 SECS, INTEGRAL =      0.66 TIME LEFT: 172799.31
 STEP:  20 TIME =     0.05 SECS, INTEGRAL =      0.70 TIME LEFT: 172799.27
 STEP:  21 TIME =     0.05 SECS, INTEGRAL =      0.75 TIME LEFT: 172799.22
 STEP:  22 TIME =     0.04 SECS, INTEGRAL =      0.79 TIME LEFT: 172799.18
 STEP:  23 TIME =     0.04 SECS, INTEGRAL =      0.83 TIME LEFT: 172799.14
 STEP:  24 TIME =     0.03 SECS, INTEGRAL =      0.86 TIME LEFT: 172799.11
 STEP:  25 TIME =     0.03 SECS, INTEGRAL =      0.89 TIME LEFT: 172799.08
 STEP:  26 TIME =     0.03 SECS, INTEGRAL =      0.92 TIME LEFT: 172799.05
 STEP:  27 TIME =     0.03 SECS, INTEGRAL =      0.95 TIME LEFT: 172799.02
 STEP:  28 TIME =     0.03 SECS, INTEGRAL =      0.98 TIME LEFT: 172798.98
 STEP:  29 TIME =     0.03 SECS, INTEGRAL =      1.02 TIME LEFT: 172798.95
 STEP:  30 TIME =     0.03 SECS, INTEGRAL =      1.05 TIME LEFT: 172798.92
 STEP:  31 TIME =     0.04 SECS, INTEGRAL =      1.09 TIME LEFT: 172798.88
 STEP:  32 TIME =     0.03 SECS, INTEGRAL =      1.12 TIME LEFT: 172798.85
 STEP:  33 TIME =     0.03 SECS, INTEGRAL =      1.15 TIME LEFT: 172798.82
 STEP:  34 TIME =     0.03 SECS, INTEGRAL =      1.18 TIME LEFT: 172798.79
 STEP:  35 TIME =     0.03 SECS, INTEGRAL =      1.21 TIME LEFT: 172798.76
 STEP:  36 TIME =     0.03 SECS, INTEGRAL =      1.24 TIME LEFT: 172798.73
 STEP:  37 TIME =     0.03 SECS, INTEGRAL =      1.27 TIME LEFT: 172798.70
 STEP:  38 TIME =     0.03 SECS, INTEGRAL =      1.30 TIME LEFT: 172798.66
 STEP:  39 TIME =     0.03 SECS, INTEGRAL =      1.34 TIME LEFT: 172798.63
 STEP:  40 TIME =     0.04 SECS, INTEGRAL =      1.38 TIME LEFT: 172798.59
 STEP:  41 TIME =     0.03 SECS, INTEGRAL =      1.41 TIME LEFT: 172798.56
 STEP:  42 TIME =     0.03 SECS, INTEGRAL =      1.44 TIME LEFT: 172798.53
 STEP:  43 TIME =     0.03 SECS, INTEGRAL =      1.47 TIME LEFT: 172798.50
 STEP:  44 TIME =     0.03 SECS, INTEGRAL =      1.50 TIME LEFT: 172798.47
 STEP:  45 TIME =     0.03 SECS, INTEGRAL =      1.53 TIME LEFT: 172798.44
 STEP:  46 TIME =     0.03 SECS, INTEGRAL =      1.56 TIME LEFT: 172798.41
 STEP:  47 TIME =     0.03 SECS, INTEGRAL =      1.59 TIME LEFT: 172798.38
 STEP:  48 TIME =     0.03 SECS, INTEGRAL =      1.62 TIME LEFT: 172798.34
 STEP:  49 TIME =     0.03 SECS, INTEGRAL =      1.66 TIME LEFT: 172798.31
 STEP:  50 TIME =     0.03 SECS, INTEGRAL =      1.69 TIME LEFT: 172798.28
 STEP:  51 TIME =     0.03 SECS, INTEGRAL =      1.72 TIME LEFT: 172798.25
 STEP:  52 TIME =     0.02 SECS, INTEGRAL =      1.74 TIME LEFT: 172798.23
 STEP:  53 TIME =     0.03 SECS, INTEGRAL =      1.77 TIME LEFT: 172798.20
 STEP:  54 TIME =     0.03 SECS, INTEGRAL =      1.80 TIME LEFT: 172798.16
 STEP:  55 TIME =     0.03 SECS, INTEGRAL =      1.84 TIME LEFT: 172798.13
 STEP:  56 TIME =     0.04 SECS, INTEGRAL =      1.88 TIME LEFT: 172798.09
 STEP:  57 TIME =     0.04 SECS, INTEGRAL =      1.91 TIME LEFT: 172798.05

(To convert to Hartree/Bohr^2, multiply by (10^(-21) x N x a0^2)/(4.184 x 627.51) =  0.0642)


           FORCE MATRIX IN MILLIDYNES/ANGSTROM


                  C  1       C  2       C  3       C  4       C  5       C  6
 ------------------------------------------------------------------------------
     C    1  14.449212
     C    2   4.236412  14.447592
     C    3   4.178303   0.681423  14.710992
     C    4   0.682338   4.175693   0.086277  14.731616
     C    5   0.046741   0.003840   0.619938   0.132055  14.718381
     C    6   0.672718   0.061305   4.731771   0.816933   5.006848  18.467816
     C    7   0.067001   0.683826   0.803498   5.001703   0.831419  10.347729
     H    8   4.495735   0.438057   0.432005   0.051859   0.008277   0.050253
     H    9   4.465703   0.444753   0.442340   0.022869   0.001185   0.010226
     H   10   0.437766   4.499009   0.051838   0.433058   0.000803   0.004931
     H   11   0.444993   4.464794   0.022842   0.441382   0.000449   0.007171
     H   12   0.444926   0.013605   4.406842   0.012833   0.017551   0.419434
     H   13   0.431328   0.049529   4.447468   0.008967   0.042083   0.444146
     H   14   0.049188   0.431415   0.007625   4.460002   0.016039   0.040901
     H   15   0.012884   0.443981   0.011911   4.401433   0.019414   0.027994
     H   16   0.001467   0.000846   0.021322   0.018622   4.692969   0.445141
     H   17   0.008111   0.000741   0.044811   0.002743   4.732485   0.471855
     H   18   0.001705   0.000951   0.025290   0.017604   4.703516   0.451400
     H   19   0.003301   0.042559   0.109540   0.424123   0.077127   0.457980


                  C  7       H  8       H  9       H 10       H 11       H 12
 ------------------------------------------------------------------------------
     C    7  18.232209
     H    8   0.004646   5.113349
     H    9   0.006735   0.566760   5.077123
     H   10   0.050413   0.032080   0.028420   5.116526
     H   11   0.008831   0.028532   0.046166   0.567627   5.076351
     H   12   0.027891   0.034761   0.044356   0.001516   0.008883   5.003186
     H   13   0.040721   0.024486   0.035539   0.008359   0.002237   0.565784
     H   14   0.428276   0.008344   0.002153   0.022945   0.036115   0.000920
     H   15   0.409968   0.001285   0.007840   0.035303   0.043425   0.001872
     H   16   0.030757   0.000427   0.000191   0.000215   0.000213   0.001626
     H   17   0.051391   0.001583   0.000269   0.000195   0.000147   0.001198
     H   18   0.034113   0.000486   0.000321   0.000264   0.000169   0.008610
     H   19   4.786350   0.000856   0.000556   0.007035   0.001296   0.015148


                  H 13       H 14       H 15       H 16       H 17       H 18
 ------------------------------------------------------------------------------
     H   13   5.051398
     H   14   0.000394   5.057695
     H   15   0.001023   0.568515   4.998782
     H   16   0.020834   0.001790   0.003283   5.414095
     H   17   0.001995   0.000513   0.000517   0.564037   5.456664
     H   18   0.003284   0.002776   0.002337   0.572846   0.563033   5.422599
     H   19   0.012766   0.035598   0.020581   0.009074   0.029708   0.008193


                  H 19
 ------------------
     H   19   5.170057


          HEAT OF FORMATION =     -14.525621 KCALS/MOLE

          ZERO POINT ENERGY     107.735 KCAL/MOL


           NORMAL COORDINATE ANALYSIS (Total motion = 1 Angstrom)


   Root No.       1         2         3         4         5         6         7         8

                 1 A       2 A       3 A       4 A       5 A       6 A       7 A       8 A   

                 110.8     136.9     228.9     271.9     363.1     446.2     469.1     521.7
  
           1    0.0120   -0.0031   -0.0024   -0.0017    0.0144    0.0194    0.0273    0.0132
           2   -0.0063   -0.0034   -0.0019   -0.0037   -0.0141   -0.0190    0.0209    0.0524
           3   -0.0165    0.0125    0.0245    0.0354    0.0062    0.0010    0.0151    0.0127
           4    0.0119   -0.0032   -0.0023   -0.0010    0.0164    0.0163    0.0257    0.0203
           5    0.0281   -0.0027    0.0165    0.0274    0.0023   -0.0298   -0.0296    0.0027
           6   -0.0178   -0.0015   -0.0183   -0.0204    0.0074   -0.0273   -0.0159    0.0092
           7   -0.0269   -0.0014    0.0065    0.0113   -0.0199    0.0321   -0.0046   -0.0380
           8   -0.0205   -0.0027    0.0010    0.0009   -0.0194   -0.0081    0.0126    0.0255
           9    0.0370    0.0020   -0.0083   -0.0136   -0.0294    0.0147    0.0117   -0.0120
          10   -0.0130    0.0089    0.0134   -0.0164   -0.0067   -0.0281   -0.0042    0.0317
          11   -0.0121    0.0083    0.0060   -0.0198    0.0139   -0.0037   -0.0216   -0.0202
          12    0.0157   -0.0130   -0.0178    0.0130    0.0074   -0.0221   -0.0097    0.0113
          13    0.0207    0.0009    0.0118   -0.0080    0.0460   -0.0112   -0.0230   -0.0025
          14    0.0168    0.0014    0.0103   -0.0118    0.0198    0.0379    0.0182   -0.0115
          15   -0.0275   -0.0005   -0.0240    0.0046    0.0428    0.0083    0.0014   -0.0092
          16   -0.0032   -0.0036   -0.0087    0.0107   -0.0304   -0.0355    0.0107   -0.0347
          17   -0.0058   -0.0021   -0.0100    0.0043   -0.0036    0.0069    0.0380   -0.0359
          18    0.0076    0.0034    0.0125   -0.0137   -0.0336    0.0502   -0.0256    0.0293
          19   -0.0021   -0.0012   -0.0275    0.0114   -0.0361   -0.0057   -0.0179    0.0018
          20   -0.0037   -0.0003   -0.0304    0.0042   -0.0028    0.0131   -0.0237   -0.0232
          21    0.0065   -0.0008    0.0418   -0.0129   -0.0205   -0.0124    0.0011   -0.0354
          22    0.0235   -0.0113   -0.0262   -0.0347    0.0239   -0.0105   -0.0116    0.0067
          23    0.0166   -0.0128   -0.0329   -0.0502   -0.0477   -0.0088    0.0003    0.0130
          24   -0.0359    0.0220    0.0548    0.0800    0.0234    0.0078    0.0459    0.0415
          25    0.0281    0.0046    0.0253    0.0381    0.0259    0.0354    0.0581    0.0268
          26   -0.0497    0.0067    0.0288    0.0410    0.0054   -0.0197    0.0467    0.0926
          27   -0.0364    0.0220    0.0551    0.0801    0.0234    0.0075    0.0462    0.0449
          28    0.0361   -0.0029    0.0140    0.0305    0.0302    0.0214   -0.0089   -0.0340
          29    0.0389   -0.0028    0.0240    0.0426    0.0072   -0.0295   -0.0445   -0.0180
          30   -0.0616    0.0038   -0.0465   -0.0881    0.0144    0.0009    0.0132    0.0124
          31    0.0029   -0.0126   -0.0355   -0.0391    0.0151    0.0219    0.0510    0.0522
          32    0.0776   -0.0108    0.0382    0.0935    0.0035   -0.0529   -0.0671   -0.0166
          33    0.0055   -0.0098   -0.0204   -0.0003    0.0078   -0.0366   -0.0240    0.0128
          34   -0.0988    0.0056    0.0436    0.0449   -0.0251    0.1232   -0.1035   -0.0136
          35   -0.0041   -0.0074   -0.0096   -0.0244   -0.0386    0.0067   -0.0030    0.0612
          36    0.0362    0.0007   -0.0089   -0.0213   -0.0379    0.0306   -0.0047    0.0066
          37   -0.0149   -0.0028    0.0007    0.0065   -0.0194    0.0164    0.0103   -0.0453
          38   -0.0554   -0.0018    0.0171    0.0229   -0.0342   -0.0068   -0.0299    0.0038
          39    0.0996   -0.0055   -0.0404   -0.0409   -0.0309   -0.0772    0.0973   -0.0498
          40   -0.0046    0.0037   -0.0025   -0.0007   -0.0094   -0.0193   -0.0050    0.0357
          41   -0.0318    0.0238    0.0664   -0.0709    0.0364   -0.0285   -0.0046   -0.0283
          42    0.0572   -0.0337   -0.0580    0.0716    0.0220    0.0205    0.0145    0.0333
          43   -0.0580    0.0354    0.0861   -0.0962   -0.0065   -0.0806   -0.0124    0.0124
          44   -0.0283    0.0089   -0.0256   -0.0290    0.0211    0.0006   -0.0320   -0.0110
          45   -0.0005   -0.0102   -0.0353   -0.0005    0.0128   -0.0225   -0.0175    0.0169
          46    0.0042   -0.1222    0.0160   -0.0065    0.0596   -0.0220   -0.0153   -0.0163
          47    0.0516    0.0103    0.0464   -0.0397    0.0544    0.0949   -0.0296    0.0453
          48   -0.0451   -0.2307   -0.0024   -0.0031    0.0808    0.0088   -0.0014   -0.0140
          49    0.0231   -0.1020    0.0318   -0.0222    0.1159    0.0082   -0.0444    0.0128
          50    0.0131   -0.1090    0.0294   -0.0156   -0.0459    0.0458    0.0189   -0.0011
          51   -0.0260    0.1997   -0.0606    0.0207    0.0473   -0.0165    0.0191   -0.0339
          52    0.0563    0.2386    0.0078   -0.0151    0.0405    0.0157   -0.0484    0.0296
          53    0.0067    0.1147   -0.0248    0.0028    0.0798    0.0083    0.0364   -0.0466
          54   -0.0427    0.0130   -0.0454    0.0156    0.0832   -0.0175    0.0193   -0.0403
          55    0.0079   -0.0034   -0.0540    0.0193   -0.0549    0.0434   -0.0361    0.0302
          56    0.0058   -0.0029   -0.0567    0.0080    0.0044    0.0215   -0.0669    0.0266
          57   -0.0093    0.0034    0.0843   -0.0223   -0.0128   -0.0537    0.0537   -0.1002


   Root No.       9        10        11        12        13        14        15        16

                 9 A      10 A      11 A      12 A      13 A      14 A      15 A      16 A   

                 649.9     808.2     839.8     884.9     935.5     949.0     962.8     985.9
  
           1   -0.0040   -0.0086    0.0076   -0.0148    0.0063    0.0060    0.0201    0.0204
           2   -0.0141   -0.0009    0.0179   -0.0146    0.0058    0.0116    0.0022    0.0161
           3    0.0034    0.0180    0.0222   -0.0207    0.0230   -0.0103    0.0110    0.0068
           4   -0.0022    0.0045    0.0089   -0.0015   -0.0141   -0.0230   -0.0059   -0.0120
           5    0.0012    0.0108    0.0044    0.0234    0.0230    0.0388    0.0186   -0.0077
           6    0.0186    0.0034   -0.0085   -0.0124    0.0088    0.0016    0.0125    0.0073
           7    0.0050   -0.0117   -0.0087   -0.0206    0.0338    0.0316   -0.0239   -0.0110
           8   -0.0014   -0.0022   -0.0002   -0.0156    0.0001   -0.0185   -0.0057   -0.0115
           9    0.0065    0.0116    0.0324   -0.0024   -0.0158    0.0183   -0.0154   -0.0057
          10    0.0292    0.0298   -0.0219    0.0270    0.0049   -0.0114   -0.0298   -0.0003
          11   -0.0299    0.0111    0.0010   -0.0032    0.0038   -0.0120   -0.0107   -0.0086
          12    0.0147   -0.0180   -0.0015    0.0099   -0.0183    0.0124   -0.0126   -0.0103
          13   -0.0217   -0.0033    0.0163   -0.0047   -0.0063   -0.0111    0.0102   -0.0103
          14    0.0336    0.0011   -0.0169    0.0244   -0.0008   -0.0072    0.0077    0.0085
          15    0.0053    0.0008   -0.0150   -0.0012   -0.0008   -0.0001    0.0179   -0.0255
          16   -0.0072   -0.0020    0.0030    0.0079   -0.0051   -0.0043    0.0093   -0.0053
          17    0.0241    0.0011    0.0024    0.0055   -0.0027   -0.0001    0.0082   -0.0101
          18   -0.0052   -0.0052   -0.0178   -0.0007    0.0007   -0.0063    0.0073    0.0070
          19   -0.0059    0.0035   -0.0180    0.0044   -0.0163    0.0026    0.0144    0.0161
          20   -0.0263   -0.0065   -0.0093   -0.0070   -0.0227   -0.0045   -0.0006    0.0231
          21   -0.0270   -0.0174    0.0020    0.0236    0.0115   -0.0311   -0.0034    0.0197
          22    0.0379    0.0374    0.0167   -0.0339    0.0765   -0.0402    0.1231    0.0740
          23    0.0328    0.0567    0.0987   -0.0709    0.0356    0.0022   -0.0328    0.0039
          24   -0.0463   -0.0405   -0.0337    0.0232   -0.0286    0.0163   -0.0131   -0.0098
          25   -0.0451   -0.0443    0.0061    0.0437   -0.0688    0.0752    0.0074   -0.0045
          26   -0.0634   -0.0696   -0.0629    0.0057   -0.0220    0.0098   -0.0213    0.0199
          27   -0.0473   -0.0423   -0.0308    0.0185   -0.0269    0.0209   -0.0096   -0.0013
          28    0.0306   -0.0113   -0.0129   -0.0621   -0.0264   -0.1213   -0.0059   -0.0395
          29    0.0194    0.0026   -0.0054   -0.0055    0.0153   -0.0013    0.0149   -0.0166
          30   -0.0865    0.0412    0.0161    0.0859    0.0642    0.0694    0.0572   -0.0457
          31   -0.0462   -0.0073    0.0297    0.0608   -0.0482    0.0771    0.0151   -0.0302
          32    0.0992   -0.0345   -0.0265   -0.0789   -0.0371   -0.0252   -0.0095    0.0210
          33    0.0503   -0.0246   -0.0164   -0.0383   -0.0371    0.0100    0.0050    0.0133
          34    0.0463    0.0562    0.1130    0.0344   -0.0712    0.0426   -0.0091    0.0023
          35   -0.0169   -0.0335   -0.0117   -0.0315   -0.0239   -0.0179   -0.0504    0.0242
          36    0.0031    0.0035    0.0378   -0.0040   -0.0368    0.0202   -0.0346    0.0114
          37   -0.0009   -0.0213   -0.0266   -0.0297    0.0516    0.0350   -0.0320   -0.0211
          38    0.0125    0.0423    0.0454    0.0120   -0.0418   -0.0343   -0.0296   -0.0835
          39   -0.0317   -0.0438   -0.0711   -0.0555    0.0828    0.0285   -0.0631   -0.0602
          40    0.0168    0.0584   -0.0353    0.0358    0.0154   -0.0207   -0.0369    0.0100
          41    0.0125   -0.0823    0.0665   -0.0266   -0.0308    0.0023   -0.0113   -0.0978
          42   -0.0427    0.0958   -0.0102    0.0461    0.0270   -0.0554   -0.0853   -0.0708
          43    0.1105   -0.1210    0.0197    0.0038   -0.0547    0.0564    0.0205   -0.0012
          44   -0.0250    0.0181   -0.0221   -0.0531   -0.0392   -0.0029   -0.0226   -0.0057
          45    0.0234   -0.0221   -0.0162   -0.0274   -0.0534    0.0246   -0.0172   -0.0084
          46   -0.0188   -0.0082    0.0375    0.0070   -0.0065   -0.0165   -0.0088    0.0235
          47    0.0178    0.0232   -0.0977   -0.0350    0.0286    0.0696   -0.0255   -0.0124
          48    0.0058   -0.0006   -0.0052    0.0008    0.0103    0.0175   -0.0311    0.0322
          49   -0.0288    0.0042    0.0064   -0.0353    0.0211    0.0498   -0.0729    0.0581
          50    0.0317    0.0034   -0.0403    0.0281   -0.0227   -0.0452    0.0981   -0.0915
          51    0.0132   -0.0083    0.0159    0.0229   -0.0030   -0.0160    0.0005    0.0150
          52   -0.0363    0.0080   -0.0250   -0.0467    0.0015    0.0201    0.0212   -0.0643
          53    0.0473   -0.0083    0.0245    0.0563    0.0132    0.0057   -0.0844    0.1426
          54    0.0174   -0.0085    0.0231    0.0297    0.0063    0.0002   -0.0443    0.0743
          55    0.0149   -0.0959    0.0243    0.0491    0.0720   -0.0438    0.0461    0.0210
          56   -0.0148   -0.0933    0.0400    0.0459    0.0473   -0.0592   -0.0594   -0.0210
          57   -0.0516    0.1300   -0.0730   -0.0552   -0.1144    0.0499    0.0294    0.0584


   Root No.      17        18        19        20        21        22        23        24

                17 A      18 A      19 A      20 A      21 A      22 A      23 A      24 A   

                 987.6    1024.2    1058.3    1076.5    1101.1    1120.1    1140.1    1140.5
  
           1   -0.0010   -0.0069    0.0058    0.0111    0.0058    0.0125   -0.0014   -0.0016
           2    0.0059   -0.0165    0.0038    0.0039   -0.0071   -0.0126   -0.0314    0.0039
           3    0.0142   -0.0062   -0.0108   -0.0110    0.0093   -0.0003    0.0232    0.0068
           4    0.0090    0.0157   -0.0025   -0.0122   -0.0030   -0.0033   -0.0065    0.0047
           5   -0.0102    0.0101   -0.0022   -0.0057    0.0064    0.0029    0.0031    0.0059
           6   -0.0173    0.0114    0.0105    0.0078   -0.0103   -0.0096   -0.0075   -0.0401
           7   -0.0150   -0.0130   -0.0064   -0.0060   -0.0023    0.0025   -0.0050   -0.0020
           8   -0.0021    0.0167    0.0005   -0.0093    0.0154    0.0147    0.0235   -0.0090
           9   -0.0100    0.0071    0.0072    0.0191   -0.0128    0.0112   -0.0208    0.0028
          10    0.0017   -0.0167    0.0026    0.0091    0.0007    0.0019    0.0012   -0.0018
          11   -0.0104   -0.0023    0.0115    0.0024   -0.0108   -0.0112    0.0057   -0.0030
          12    0.0123   -0.0088   -0.0193   -0.0034    0.0194    0.0043   -0.0013    0.0264
          13   -0.0222   -0.0193   -0.0049   -0.0063    0.0002    0.0059   -0.0030   -0.0052
          14   -0.0094   -0.0079   -0.0049   -0.0116    0.0013   -0.0016   -0.0025    0.0024
          15    0.0129   -0.0105    0.0034    0.0162    0.0005   -0.0009   -0.0013   -0.0003
          16    0.0090    0.0097    0.0072    0.0148   -0.0029   -0.0087    0.0057    0.0093
          17    0.0020    0.0020    0.0080    0.0190   -0.0039   -0.0073    0.0031    0.0011
          18   -0.0144   -0.0007   -0.0099   -0.0317   -0.0023   -0.0024   -0.0001    0.0026
          19    0.0106    0.0100   -0.0158   -0.0110    0.0019   -0.0119    0.0018    0.0065
          20    0.0237   -0.0119   -0.0234   -0.0023    0.0028    0.0115   -0.0042   -0.0132
          21    0.0213   -0.0054    0.0205    0.0113    0.0003   -0.0013    0.0017   -0.0004
          22    0.0018    0.0378   -0.0329    0.0348   -0.0800    0.1489    0.0534    0.0897
          23    0.0588   -0.0751    0.0025   -0.0416    0.0794   -0.1084   -0.0287   -0.0354
          24   -0.0223    0.0137    0.0081    0.0078   -0.0073    0.0008   -0.0031   -0.0109
          25    0.0044   -0.0222    0.0843   -0.0129    0.0953   -0.0149    0.0870   -0.1288
          26   -0.0574    0.0212   -0.0163    0.0620   -0.0995    0.0120   -0.1522    0.0621
          27   -0.0248    0.0100    0.0102    0.0161   -0.0111    0.0024   -0.0126   -0.0121
          28   -0.0366    0.1237    0.0017   -0.0006    0.1124   -0.0473   -0.1307   -0.0322
          29   -0.0273    0.0464    0.0014   -0.0007    0.0442   -0.0156   -0.0425   -0.0077
          30   -0.0443    0.0918   -0.0145   -0.0094    0.0950   -0.0163   -0.0548   -0.0113
          31    0.0295    0.0052    0.0445   -0.0805   -0.1015    0.0002    0.0843   -0.0689
          32   -0.0199   -0.0091    0.0519   -0.0020   -0.0688   -0.0245    0.0080   -0.0732
          33   -0.0141   -0.0030    0.0575   -0.0186   -0.0907   -0.0244    0.0336   -0.1140
          34   -0.0103    0.0126    0.0243    0.0624   -0.0262    0.0215   -0.0367    0.0017
          35   -0.1044    0.0516   -0.0619    0.1257    0.0678    0.0238    0.1837   -0.0124
          36   -0.0577    0.0264   -0.0184    0.0881    0.0073    0.0192    0.0492    0.0020
          37   -0.0154   -0.0116   -0.0073   -0.0216   -0.0027    0.0169   -0.0007   -0.0066
          38    0.0612    0.0976    0.0575   -0.1020   -0.0381    0.1720   -0.0201   -0.0284
          39   -0.0089    0.0152   -0.0005   -0.0729   -0.0161    0.0851   -0.0031   -0.0196
          40   -0.0044   -0.0229    0.0236    0.0155    0.0060    0.0097   -0.0046   -0.0170
          41    0.0116    0.0347   -0.1324   -0.0253   -0.0920   -0.1018    0.0607    0.0658
          42   -0.0066   -0.0124   -0.0820    0.0143   -0.0760   -0.0760    0.0452    0.0177
          43    0.0466    0.0025   -0.0582   -0.0169    0.0420    0.0256   -0.0149    0.0147
          44   -0.0569   -0.0266    0.1745   -0.0366    0.0183   -0.0115    0.0447    0.1799
          45   -0.0193   -0.0241    0.0956   -0.0339    0.0459    0.0056    0.0249    0.1614
          46   -0.0480   -0.0162   -0.0125   -0.0304   -0.0005    0.0090   -0.0042   -0.0069
          47    0.1553    0.0744    0.0321    0.0772    0.0007   -0.0231    0.0120    0.0201
          48    0.0255    0.0272    0.0030    0.0012   -0.0011   -0.0023    0.0016    0.0038
          49    0.0560    0.0684    0.0123    0.0175   -0.0049   -0.0146    0.0100    0.0052
          50   -0.0321   -0.0821   -0.0087    0.0089    0.0071    0.0103   -0.0104   -0.0048
          51   -0.0317   -0.0143   -0.0085   -0.0250   -0.0003    0.0064   -0.0054   -0.0020
          52    0.0537   -0.0027    0.0155    0.0552   -0.0015    0.0004    0.0020   -0.0055
          53   -0.0287    0.0506   -0.0175   -0.0688    0.0015   -0.0045    0.0022    0.0130
          54   -0.0196    0.0223   -0.0099   -0.0366    0.0006   -0.0010   -0.0001    0.0060
          55    0.0185    0.0706    0.0724   -0.0165   -0.0441   -0.1420    0.0401    0.0373
          56    0.0451   -0.0659   -0.0028    0.0468    0.0300    0.1127   -0.0257   -0.0374
          57   -0.0024    0.0043   -0.0586   -0.0313    0.0055   -0.0102   -0.0028    0.0037


   Root No.      25        26        27        28        29        30        31        32

                25 A      26 A      27 A      28 A      29 A      30 A      31 A      32 A   

                1156.7    1222.4    1244.5    1311.1    1346.8    1367.5    1383.2    1394.9
  
           1   -0.0261   -0.0041    0.0146   -0.0261    0.0350   -0.0179    0.0081    0.0326
           2   -0.0093   -0.0126   -0.0009    0.0294   -0.0211    0.0130    0.0035   -0.0193
           3    0.0215   -0.0049    0.0014    0.0064    0.0038   -0.0002   -0.0014    0.0035
           4    0.0284    0.0087    0.0123   -0.0262   -0.0316    0.0188    0.0171   -0.0314
           5    0.0124    0.0022    0.0047   -0.0173   -0.0039    0.0076    0.0024   -0.0068
           6   -0.0141   -0.0049    0.0088   -0.0197   -0.0174    0.0125    0.0009   -0.0162
           7    0.0058    0.0029   -0.0028    0.0062   -0.0030   -0.0054   -0.0129   -0.0266
           8   -0.0097    0.0167   -0.0296   -0.0167   -0.0085   -0.0258    0.0123    0.0226
           9   -0.0043    0.0063   -0.0109   -0.0055   -0.0009   -0.0181   -0.0071   -0.0129
          10   -0.0049    0.0123   -0.0032    0.0082    0.0042    0.0097   -0.0093    0.0151
          11   -0.0075    0.0037    0.0093   -0.0012   -0.0122   -0.0346   -0.0177    0.0140
          12   -0.0061    0.0162    0.0076    0.0021   -0.0114   -0.0148   -0.0232    0.0244
          13    0.0010    0.0091    0.0029    0.0036   -0.0048   -0.0205    0.0073   -0.0046
          14    0.0026   -0.0175    0.0100    0.0030    0.0040    0.0193   -0.0063    0.0041
          15    0.0048   -0.0049    0.0071    0.0037   -0.0004    0.0002   -0.0005   -0.0044
          16   -0.0006   -0.0263   -0.0071   -0.0100   -0.0035   -0.0027   -0.0032    0.0015
          17   -0.0021    0.0373   -0.0213   -0.0091    0.0095    0.0120   -0.0006   -0.0017
          18   -0.0096    0.0077   -0.0183   -0.0122    0.0035    0.0051   -0.0021    0.0010
          19   -0.0032   -0.0248   -0.0054   -0.0076    0.0003    0.0036   -0.0014    0.0045
          20    0.0066    0.0220    0.0091    0.0145    0.0063    0.0104    0.0112   -0.0075
          21    0.0071   -0.0034    0.0017    0.0039    0.0043    0.0091    0.0064   -0.0027
          22   -0.0450   -0.0013   -0.0608    0.1221   -0.0201    0.0030   -0.0544   -0.0309
          23    0.0426   -0.0417    0.0689   -0.0157    0.0861    0.0072   -0.0504    0.0322
          24   -0.0020    0.0098   -0.0076   -0.0265   -0.0340   -0.0050    0.0516   -0.0016
          25   -0.1699   -0.0285   -0.0230    0.0833   -0.0306    0.0330   -0.0458   -0.0573
          26    0.0392   -0.0059    0.0369   -0.0169    0.0750   -0.0134   -0.0509    0.0312
          27   -0.0086   -0.0100    0.0076    0.0206    0.0307    0.0044   -0.0504   -0.0031
          28    0.0373   -0.0279   -0.0617    0.1236    0.0048   -0.0066   -0.0603    0.0288
          29    0.0138   -0.0120   -0.0206    0.0348    0.0102   -0.0011   -0.0218    0.0133
          30    0.0271   -0.0260   -0.0340    0.0261    0.1037    0.0158    0.0864    0.0036
          31    0.1864   -0.0115   -0.0658    0.0678    0.0195   -0.0345   -0.0663    0.0582
          32    0.0164   -0.0307   -0.0167    0.0021    0.0722    0.0013    0.0780   -0.0011
          33    0.0517   -0.0314   -0.0347    0.0273    0.0503   -0.0116    0.0164    0.0216
          34   -0.0134   -0.0135    0.0260    0.0686   -0.0688    0.0468    0.1069    0.1594
          35    0.0829   -0.0313    0.0944    0.0203    0.0267    0.0357   -0.0204   -0.0350
          36    0.0364   -0.0171    0.0490    0.0231    0.0016    0.0196    0.0009   -0.0033
          37    0.0033   -0.0001    0.0120    0.0268   -0.0185    0.0132    0.0146    0.0151
          38   -0.0704   -0.0225    0.1317   -0.0099    0.0864    0.0153   -0.0559   -0.0705
          39   -0.0096   -0.0078    0.0705    0.0785   -0.0505    0.0635    0.0909    0.1356
          40    0.0057    0.0317    0.0007    0.0260    0.0178   -0.0221    0.0114   -0.0101
          41   -0.0971   -0.0934   -0.0296   -0.0215    0.0072    0.0807   -0.0205    0.0400
          42   -0.0871   -0.0106   -0.0253    0.0778    0.0977   -0.0427    0.0911   -0.0833
          43    0.0273    0.0558    0.0031    0.0659    0.0611   -0.0789    0.0880   -0.0965
          44    0.0083   -0.0437   -0.0237    0.0040    0.0252    0.0354    0.0311   -0.0282
          45    0.0080   -0.0115   -0.0160    0.0169    0.0275    0.0213    0.0303   -0.0268
          46   -0.0036    0.0289   -0.0093   -0.0016    0.0166    0.0567   -0.0124    0.0194
          47    0.0067   -0.0904    0.0151    0.0006   -0.0429   -0.1184    0.0277   -0.0043
          48   -0.0026   -0.0060   -0.0087   -0.0052    0.0139    0.0668   -0.0172    0.0374
          49   -0.0119    0.0632   -0.0505   -0.0212    0.0278    0.0588   -0.0147   -0.0115
          50    0.0206   -0.0724    0.0567    0.0242   -0.0289   -0.0548    0.0087   -0.0166
          51   -0.0007   -0.0069    0.0097    0.0049    0.0002   -0.0008    0.0048    0.0234
          52    0.0044    0.0478   -0.0175   -0.0046    0.0350    0.1251   -0.0332    0.0204
          53   -0.0087   -0.0710    0.0016   -0.0067   -0.0234   -0.0457    0.0040   -0.0115
          54   -0.0038   -0.0426    0.0046   -0.0011   -0.0230   -0.0625    0.0129   -0.0158
          55   -0.0251    0.1194    0.1117    0.0636   -0.0043   -0.0229   -0.0011    0.0117
          56    0.0292   -0.1023   -0.0920   -0.0460    0.0120    0.0351    0.0127   -0.0141
          57   -0.0003    0.0160    0.0163    0.0128    0.0035    0.0060    0.0052   -0.0005


   Root No.      33        34        35        36        37        38        39        40

                33 A      34 A      35 A      36 A      37 A      38 A      39 A      40 A   

                1396.3    1397.8    1408.7    1416.3    1422.5    1477.5    1898.5    2942.6
  
           1    0.0052   -0.0009    0.0052    0.0245   -0.0165   -0.0004    0.0042   -0.0003
           2    0.0011    0.0038    0.0156    0.0257    0.0116    0.0201    0.0010   -0.0007
           3    0.0004   -0.0001    0.0006    0.0021    0.0041    0.0047    0.0023    0.0074
           4   -0.0012    0.0028   -0.0046   -0.0223    0.0193   -0.0034   -0.0040    0.0003
           5   -0.0014    0.0002   -0.0092   -0.0000   -0.0229   -0.0077    0.0021    0.0061
           6    0.0015    0.0042   -0.0160    0.0040   -0.0286   -0.0071   -0.0002   -0.0043
           7   -0.0032    0.0014    0.0117    0.0001    0.0004   -0.0194   -0.0199    0.0150
           8    0.0052   -0.0004    0.0005   -0.0168   -0.0104   -0.0659   -0.0085    0.0066
           9   -0.0000    0.0017    0.0117   -0.0038   -0.0050   -0.0456   -0.0174   -0.0170
          10   -0.0173   -0.0152    0.0174   -0.0040   -0.0126    0.0003    0.0213   -0.0138
          11    0.0241    0.0169   -0.0090    0.0080    0.0451    0.0156   -0.0258   -0.0119
          12    0.0013   -0.0021    0.0103   -0.0002    0.0268    0.0120   -0.0026    0.0142
          13   -0.0272   -0.0047    0.0014   -0.0057   -0.0122    0.0255   -0.0202    0.0000
          14   -0.0062    0.0102   -0.0104    0.0200    0.0262   -0.0620    0.0234    0.0001
          15    0.0044   -0.0274   -0.0046    0.0082    0.0074   -0.0203    0.0011   -0.0001
          16    0.0091    0.0078   -0.0085    0.0043    0.0142    0.0085    0.2239   -0.0001
          17   -0.0099   -0.0046   -0.0063   -0.0031   -0.0065    0.0919   -0.0682   -0.0001
          18    0.0006    0.0008   -0.0094    0.0003    0.0049    0.0610    0.0996   -0.0001
          19    0.0052    0.0038   -0.0083    0.0064    0.0114   -0.0008   -0.2058    0.0003
          20   -0.0142   -0.0107    0.0117   -0.0078   -0.0263   -0.0206    0.0907    0.0000
          21   -0.0051   -0.0040    0.0015   -0.0005   -0.0094   -0.0129   -0.0745    0.0001
          22   -0.0128   -0.0058   -0.0181   -0.0773    0.0422   -0.0151   -0.0077   -0.0160
          23   -0.0131   -0.0146   -0.0734   -0.0940   -0.0082    0.0086    0.0129   -0.0223
          24    0.0150    0.0119    0.0579    0.1059   -0.0090    0.0139    0.0004   -0.0349
          25   -0.0165   -0.0044   -0.0340   -0.0793    0.0208   -0.0068   -0.0022    0.0234
          26   -0.0120   -0.0143   -0.0645   -0.0994   -0.0144   -0.0244   -0.0005    0.0316
          27   -0.0147   -0.0111   -0.0566   -0.1031    0.0028   -0.0226   -0.0010   -0.0532
          28   -0.0011   -0.0010   -0.0039    0.0601   -0.0708    0.0148    0.0077    0.0163
          29   -0.0015   -0.0012   -0.0068    0.0271   -0.0484   -0.0003    0.0058   -0.0421
          30   -0.0374   -0.0362    0.0865   -0.0643    0.1222    0.0081    0.0109   -0.0020
          31    0.0063    0.0007   -0.0145    0.0509   -0.0720    0.0001    0.0024   -0.0235
          32   -0.0195   -0.0214    0.0724   -0.0603    0.1454    0.0127   -0.0011   -0.0308
          33   -0.0076   -0.0106    0.0313   -0.0066    0.0408    0.0064    0.0004    0.0544
          34    0.0176   -0.0137   -0.0559   -0.0193   -0.0017    0.0188   -0.0013   -0.0192
          35   -0.0115    0.0008    0.0051    0.0259    0.0092    0.0682   -0.0160   -0.0810
          36   -0.0035   -0.0010    0.0004    0.0112    0.0032    0.0235   -0.0132    0.1785
          37    0.0005   -0.0035   -0.0053   -0.0034    0.0012    0.0014   -0.0178   -0.1595
          38   -0.0151   -0.0057    0.0258    0.0474   -0.0009    0.0752   -0.0333    0.0003
          39    0.0104   -0.0205   -0.0527   -0.0110   -0.0000    0.0558   -0.0320    0.0269
          40    0.0135    0.0113   -0.0084    0.0043    0.0009    0.0040    0.0174    0.1510
          41   -0.0666   -0.0559    0.0460   -0.0095   -0.0610   -0.0231   -0.0285    0.0271
          42    0.0566    0.0525   -0.0653    0.0279   -0.0434   -0.0206   -0.0070   -0.0141
          43    0.0855    0.0761   -0.0798    0.0218    0.0126   -0.0032    0.0032    0.0134
          44   -0.0115   -0.0049   -0.0090    0.0011   -0.0492   -0.0194   -0.0142    0.1170
          45   -0.0069   -0.0021   -0.0074   -0.0005   -0.0397   -0.0145   -0.0029   -0.1580
          46    0.0431    0.1051    0.0263   -0.0215   -0.0148    0.0029   -0.0105   -0.0004
          47   -0.0944    0.0703    0.0193   -0.0437   -0.0508    0.0945    0.0231    0.0001
          48    0.0657    0.2229    0.0552   -0.0525   -0.0366    0.0178    0.0055    0.0003
          49    0.0146   -0.1449   -0.0604    0.0689    0.0749   -0.0518    0.0435    0.0003
          50    0.1259   -0.0674    0.0558   -0.0578   -0.0684    0.0289   -0.0364    0.0003
          51   -0.1428    0.1898   -0.0017    0.0028    0.0070   -0.0203    0.0051    0.0003
          52    0.2060    0.0510    0.0477   -0.0319   -0.0180   -0.0189   -0.0167    0.0002
          53    0.1389   -0.0698    0.0394   -0.0541   -0.0547    0.0819    0.0268   -0.0005
          54    0.0356   -0.0687    0.0150   -0.0293   -0.0371    0.0702    0.0101    0.0004
          55   -0.0072   -0.0115    0.0361   -0.0131   -0.0220   -0.0699   -0.0112   -0.0021
          56   -0.0043    0.0008   -0.0265    0.0089   -0.0001    0.0370   -0.1143   -0.0021
          57   -0.0078   -0.0058    0.0072   -0.0026   -0.0120   -0.0197   -0.0746   -0.0022


   Root No.      41        42        43        44        45        46        47        48

                41 A      42 A      43 A      44 A      45 A      46 A      47 A      48 A   

                2942.9    2960.6    2968.1    3022.9    3024.1    3040.0    3044.7    3046.8
  
           1   -0.0003   -0.0007   -0.0000    0.0029    0.0008    0.0107   -0.0083    0.0049
           2   -0.0004   -0.0012   -0.0003    0.0050    0.0009    0.0150   -0.0122    0.0072
           3    0.0057    0.0236    0.0245   -0.0014    0.0002    0.0010   -0.0021    0.0017
           4   -0.0003    0.0008   -0.0001    0.0005    0.0028    0.0099    0.0079   -0.0068
           5   -0.0051    0.0192   -0.0215   -0.0005   -0.0017   -0.0076   -0.0076    0.0069
           6    0.0034   -0.0125    0.0129   -0.0002   -0.0046   -0.0116   -0.0090    0.0076
           7    0.0156   -0.0051   -0.0042   -0.0274   -0.0014    0.0030   -0.0014    0.0020
           8    0.0069   -0.0019   -0.0013    0.0105    0.0005   -0.0006    0.0001   -0.0004
           9   -0.0176    0.0049    0.0038   -0.0177   -0.0009    0.0014   -0.0003    0.0009
          10    0.0149    0.0048   -0.0042    0.0014   -0.0262    0.0024   -0.0008   -0.0052
          11    0.0127    0.0036   -0.0031   -0.0004    0.0082   -0.0006    0.0003    0.0012
          12   -0.0152   -0.0043    0.0035    0.0008   -0.0152    0.0008   -0.0008   -0.0023
          13    0.0000   -0.0000   -0.0000   -0.0001    0.0001   -0.0001   -0.0007   -0.0009
          14    0.0001   -0.0000   -0.0000   -0.0001    0.0001   -0.0000   -0.0002   -0.0003
          15   -0.0001    0.0000    0.0000    0.0003    0.0001   -0.0001   -0.0004   -0.0006
          16    0.0000    0.0001   -0.0000   -0.0004   -0.0001    0.0003    0.0014    0.0020
          17   -0.0000   -0.0001   -0.0001   -0.0003   -0.0001   -0.0002   -0.0004   -0.0008
          18   -0.0001   -0.0000    0.0000   -0.0004   -0.0002    0.0001    0.0006    0.0008
          19   -0.0002   -0.0001    0.0000   -0.0007    0.0036   -0.0017   -0.0101   -0.0130
          20   -0.0000   -0.0001    0.0001   -0.0013    0.0050   -0.0019   -0.0116   -0.0151
          21   -0.0002   -0.0001    0.0001   -0.0013    0.0054   -0.0023   -0.0135   -0.0175
          22   -0.0138   -0.0584   -0.0649   -0.0172   -0.0030   -0.0653    0.0595   -0.0362
          23   -0.0190   -0.0830   -0.0931   -0.0196   -0.0051   -0.0956    0.0828   -0.0500
          24   -0.0299   -0.1270   -0.1427   -0.0427   -0.0096   -0.1747    0.1501   -0.0903
          25    0.0181    0.0658    0.0672   -0.0229   -0.0037   -0.0600    0.0451   -0.0255
          26    0.0228    0.0998    0.0956   -0.0324   -0.0049   -0.0879    0.0659   -0.0372
          27   -0.0398   -0.1574   -0.1503    0.0591    0.0089    0.1633   -0.1248    0.0711
          28   -0.0150    0.0560   -0.0658   -0.0011   -0.0174   -0.0599   -0.0574    0.0483
          29    0.0383   -0.1449    0.1723    0.0059    0.0478    0.1837    0.1647   -0.1401
          30    0.0017   -0.0087    0.0102    0.0000   -0.0037   -0.0036   -0.0027    0.0020
          31    0.0192   -0.0641    0.0693   -0.0014   -0.0207   -0.0554   -0.0428    0.0353
          32    0.0248   -0.0851    0.0859   -0.0017   -0.0320   -0.0905   -0.0719    0.0595
          33   -0.0425    0.1613   -0.1634    0.0029    0.0519    0.1457    0.1134   -0.0938
          34   -0.0198    0.0040    0.0026   -0.0610   -0.0028    0.0060   -0.0021    0.0032
          35   -0.0839    0.0233    0.0191   -0.1403   -0.0068    0.0121   -0.0043    0.0069
          36    0.1850   -0.0470   -0.0371    0.3120    0.0151   -0.0267    0.0091   -0.0148
          37   -0.1680    0.0595    0.0458    0.3912    0.0184   -0.0437    0.0202   -0.0249
          38    0.0003   -0.0005   -0.0002    0.0138    0.0007    0.0004   -0.0006   -0.0000
          39    0.0283   -0.0102   -0.0077   -0.0975   -0.0046    0.0106   -0.0048    0.0060
          40   -0.1641   -0.0573    0.0460   -0.0197    0.3606   -0.0351    0.0103    0.0702
          41   -0.0294   -0.0107    0.0083   -0.0048    0.0848   -0.0091    0.0005    0.0149
          42    0.0153    0.0049   -0.0040    0.0032   -0.0602    0.0042   -0.0032   -0.0111
          43   -0.0143   -0.0028    0.0018    0.0026   -0.0456    0.0041   -0.0016   -0.0077
          44   -0.1252   -0.0322    0.0264    0.0098   -0.1825    0.0136   -0.0077   -0.0297
          45    0.1690    0.0465   -0.0393   -0.0133    0.2449   -0.0186    0.0086    0.0385
          46   -0.0002    0.0002    0.0001    0.0023   -0.0003   -0.0002    0.0026    0.0029
          47    0.0001   -0.0000   -0.0000    0.0002   -0.0001    0.0000    0.0006    0.0008
          48    0.0003   -0.0001   -0.0001   -0.0014    0.0002    0.0000   -0.0017   -0.0020
          49    0.0003   -0.0002   -0.0001   -0.0017   -0.0008    0.0007    0.0035    0.0050
          50    0.0004   -0.0002   -0.0002   -0.0017   -0.0012    0.0009    0.0046    0.0064
          51    0.0003   -0.0002   -0.0001   -0.0016   -0.0010    0.0008    0.0044    0.0061
          52    0.0001   -0.0001   -0.0000   -0.0006    0.0000    0.0001   -0.0001    0.0001
          53   -0.0003    0.0002    0.0001    0.0009    0.0002   -0.0003   -0.0009   -0.0014
          54    0.0002   -0.0002   -0.0001   -0.0023   -0.0004    0.0006    0.0012    0.0022
          55    0.0021    0.0002   -0.0004    0.0124   -0.0422    0.0176    0.1037    0.1331
          56    0.0020   -0.0002   -0.0000    0.0166   -0.0543    0.0242    0.1440    0.1851
          57    0.0012   -0.0002    0.0001    0.0179   -0.0605    0.0260    0.1542    0.1981


   Root No.      49        50        51

                49 A      50 A      51 A   

                3067.7    3075.6    3167.9
  
           1    0.0000    0.0000    0.0000
           2    0.0000   -0.0000    0.0000
           3    0.0000    0.0000   -0.0000
           4    0.0000    0.0000   -0.0000
           5   -0.0000   -0.0000    0.0000
           6   -0.0000   -0.0000    0.0000
           7    0.0003   -0.0003    0.0001
           8   -0.0001    0.0004   -0.0001
           9    0.0001    0.0001   -0.0000
          10   -0.0000    0.0001   -0.0000
          11   -0.0000    0.0000    0.0000
          12    0.0001    0.0001   -0.0000
          13   -0.0285   -0.0361   -0.0103
          14   -0.0258   -0.0114    0.0217
          15    0.0397   -0.0334    0.0060
          16   -0.0002   -0.0007   -0.0002
          17    0.0000    0.0002    0.0004
          18    0.0000   -0.0003    0.0001
          19    0.0002    0.0013    0.0000
          20    0.0001    0.0005   -0.0003
          21    0.0004    0.0011   -0.0002
          22   -0.0002   -0.0000   -0.0000
          23   -0.0003    0.0000   -0.0001
          24   -0.0005    0.0000   -0.0000
          25   -0.0001    0.0000   -0.0000
          26   -0.0002    0.0000   -0.0000
          27    0.0004   -0.0001    0.0001
          28   -0.0000   -0.0001    0.0000
          29    0.0001    0.0003   -0.0001
          30    0.0000    0.0000   -0.0000
          31    0.0000   -0.0000   -0.0000
          32   -0.0000   -0.0001   -0.0000
          33   -0.0000    0.0001    0.0000
          34    0.0004   -0.0004    0.0002
          35    0.0002   -0.0002    0.0005
          36   -0.0014    0.0015   -0.0007
          37   -0.0038    0.0035   -0.0018
          38    0.0005    0.0008    0.0003
          39    0.0015   -0.0004    0.0006
          40   -0.0002   -0.0014    0.0002
          41    0.0000   -0.0002    0.0000
          42    0.0001    0.0003   -0.0000
          43    0.0001    0.0001   -0.0000
          44    0.0002    0.0006   -0.0001
          45   -0.0004   -0.0007    0.0001
          46    0.4130    0.1503    0.2659
          47    0.0905    0.0355    0.0753
          48   -0.2062   -0.1068   -0.1411
          49    0.0216    0.2412   -0.1966
          50    0.0236    0.2582   -0.1859
          51    0.0591    0.2624   -0.2040
          52   -0.0931    0.0389    0.0554
          53    0.1953   -0.1594   -0.1518
          54   -0.3292    0.2413    0.2730
          55   -0.0017   -0.0072    0.0014
          56   -0.0028   -0.0123    0.0031
          57   -0.0034   -0.0121    0.0027


           MASS-WEIGHTED COORDINATE ANALYSIS (NORMAL COORDINATES)


   Root No.       1         2         3         4         5         6         7         8

                 1 A       2 A       3 A       4 A       5 A       6 A       7 A       8 A   

                 110.8     136.9     228.9     271.9     363.1     446.2     469.1     521.7
  
           1    0.1107   -0.0232   -0.0221   -0.0165    0.1133    0.1538    0.2390    0.1014
           2   -0.0582   -0.0252   -0.0176   -0.0366   -0.1106   -0.1510    0.1827    0.4025
           3   -0.1523    0.0936    0.2282    0.3482    0.0485    0.0081    0.1322    0.0975
           4    0.1104   -0.0239   -0.0210   -0.0102    0.1286    0.1293    0.2250    0.1560
           5    0.2597   -0.0200    0.1542    0.2699    0.0178   -0.2368   -0.2598    0.0205
           6   -0.1640   -0.0116   -0.1707   -0.2010    0.0584   -0.2169   -0.1390    0.0703
           7   -0.2481   -0.0103    0.0609    0.1114   -0.1567    0.2552   -0.0406   -0.2921
           8   -0.1893   -0.0199    0.0093    0.0093   -0.1523   -0.0647    0.1101    0.1956
           9    0.3414    0.0147   -0.0777   -0.1337   -0.2310    0.1171    0.1022   -0.0925
          10   -0.1198    0.0669    0.1251   -0.1612   -0.0530   -0.2237   -0.0367    0.2436
          11   -0.1114    0.0623    0.0561   -0.1952    0.1096   -0.0295   -0.1890   -0.1549
          12    0.1447   -0.0971   -0.1655    0.1276    0.0585   -0.1760   -0.0848    0.0869
          13    0.1907    0.0070    0.1104   -0.0791    0.3616   -0.0894   -0.2011   -0.0195
          14    0.1555    0.0104    0.0958   -0.1160    0.1559    0.3015    0.1599   -0.0883
          15   -0.2541   -0.0034   -0.2237    0.0448    0.3362    0.0657    0.0121   -0.0706
          16   -0.0293   -0.0271   -0.0811    0.1055   -0.2393   -0.2818    0.0937   -0.2662
          17   -0.0538   -0.0156   -0.0934    0.0427   -0.0284    0.0551    0.3327   -0.2753
          18    0.0699    0.0254    0.1164   -0.1347   -0.2639    0.3992   -0.2244    0.2249
          19   -0.0192   -0.0087   -0.2560    0.1123   -0.2838   -0.0456   -0.1572    0.0141
          20   -0.0343   -0.0024   -0.2829    0.0416   -0.0222    0.1042   -0.2076   -0.1779
          21    0.0602   -0.0057    0.3898   -0.1267   -0.1608   -0.0986    0.0095   -0.2715
          22    0.0629   -0.0245   -0.0706   -0.0989    0.0544   -0.0241   -0.0294    0.0149
          23    0.0445   -0.0277   -0.0888   -0.1431   -0.1085   -0.0202    0.0008    0.0290
          24   -0.0960    0.0477    0.1479    0.2278    0.0533    0.0180    0.1165    0.0923
          25    0.0751    0.0101    0.0684    0.1085    0.0591    0.0815    0.1476    0.0596
          26   -0.1329    0.0146    0.0777    0.1168    0.0123   -0.0453    0.1184    0.2059
          27   -0.0973    0.0477    0.1486    0.2282    0.0532    0.0173    0.1172    0.0998
          28    0.0967   -0.0062    0.0378    0.0870    0.0688    0.0493   -0.0225   -0.0756
          29    0.1039   -0.0060    0.0648    0.1214    0.0164   -0.0679   -0.1130   -0.0400
          30   -0.1648    0.0082   -0.1255   -0.2510    0.0329    0.0021    0.0335    0.0275
          31    0.0079   -0.0273   -0.0958   -0.1115    0.0345    0.0504    0.1295    0.1160
          32    0.2076   -0.0234    0.1030    0.2665    0.0080   -0.1217   -0.1703   -0.0370
          33    0.0146   -0.0212   -0.0552   -0.0008    0.0178   -0.0843   -0.0610    0.0286
          34   -0.2642    0.0121    0.1177    0.1279   -0.0573    0.2837   -0.2627   -0.0302
          35   -0.0109   -0.0160   -0.0258   -0.0694   -0.0880    0.0155   -0.0076    0.1362
          36    0.0968    0.0016   -0.0240   -0.0608   -0.0864    0.0704   -0.0119    0.0148
          37   -0.0399   -0.0062    0.0018    0.0185   -0.0441    0.0377    0.0261   -0.1007
          38   -0.1483   -0.0039    0.0461    0.0653   -0.0779   -0.0155   -0.0758    0.0083
          39    0.2664   -0.0120   -0.1091   -0.1164   -0.0704   -0.1778    0.2471   -0.1107
          40   -0.0122    0.0079   -0.0067   -0.0021   -0.0214   -0.0445   -0.0126    0.0794
          41   -0.0850    0.0516    0.1791   -0.2019    0.0828   -0.0656   -0.0118   -0.0630
          42    0.1531   -0.0732   -0.1565    0.2039    0.0501    0.0471    0.0367    0.0741
          43   -0.1551    0.0768    0.2326   -0.2741   -0.0147   -0.1857   -0.0315    0.0276
          44   -0.0757    0.0193   -0.0692   -0.0826    0.0480    0.0015   -0.0812   -0.0244
          45   -0.0013   -0.0222   -0.0952   -0.0014    0.0293   -0.0517   -0.0444    0.0375
          46    0.0112   -0.2651    0.0431   -0.0186    0.1358   -0.0506   -0.0389   -0.0363
          47    0.1381    0.0223    0.1251   -0.1130    0.1239    0.2184   -0.0752    0.1007
          48   -0.1206   -0.5005   -0.0064   -0.0088    0.1841    0.0203   -0.0034   -0.0311
          49    0.0617   -0.2214    0.0859   -0.0632    0.2639    0.0189   -0.1126    0.0285
          50    0.0352   -0.2365    0.0793   -0.0443   -0.1046    0.1055    0.0479   -0.0025
          51   -0.0696    0.4333   -0.1636    0.0591    0.1077   -0.0380    0.0484   -0.0753
          52    0.1507    0.5178    0.0211   -0.0431    0.0922    0.0361   -0.1229    0.0658
          53    0.0179    0.2489   -0.0671    0.0078    0.1818    0.0192    0.0925   -0.1037
          54   -0.1142    0.0283   -0.1226    0.0446    0.1894   -0.0404    0.0490   -0.0897
          55    0.0212   -0.0074   -0.1459    0.0550   -0.1250    0.0999   -0.0918    0.0673
          56    0.0154   -0.0064   -0.1532    0.0227    0.0101    0.0494   -0.1699    0.0591
          57   -0.0248    0.0073    0.2277   -0.0635   -0.0293   -0.1236    0.1363   -0.2229


   Root No.       9        10        11        12        13        14        15        16

                 9 A      10 A      11 A      12 A      13 A      14 A      15 A      16 A   

                 649.9     808.2     839.8     884.9     935.5     949.0     962.8     985.9
  
           1   -0.0369   -0.0828    0.0759   -0.1499    0.0614    0.0566    0.2000    0.1962
           2   -0.1300   -0.0085    0.1787   -0.1479    0.0567    0.1102    0.0217    0.1548
           3    0.0313    0.1740    0.2220   -0.2098    0.2257   -0.0977    0.1088    0.0652
           4   -0.0201    0.0437    0.0891   -0.0150   -0.1379   -0.2174   -0.0591   -0.1154
           5    0.0107    0.1041    0.0439    0.2373    0.2260    0.3668    0.1850   -0.0744
           6    0.1709    0.0329   -0.0848   -0.1254    0.0866    0.0149    0.1241    0.0703
           7    0.0462   -0.1126   -0.0872   -0.2086    0.3317    0.2993   -0.2378   -0.1059
           8   -0.0125   -0.0208   -0.0019   -0.1586    0.0012   -0.1750   -0.0570   -0.1103
           9    0.0595    0.1122    0.3236   -0.0247   -0.1547    0.1730   -0.1529   -0.0549
          10    0.2684    0.2874   -0.2185    0.2741    0.0477   -0.1081   -0.2957   -0.0026
          11   -0.2747    0.1075    0.0103   -0.0327    0.0368   -0.1139   -0.1065   -0.0824
          12    0.1352   -0.1737   -0.0152    0.1008   -0.1794    0.1173   -0.1252   -0.0992
          13   -0.1992   -0.0322    0.1625   -0.0482   -0.0622   -0.1051    0.1008   -0.0992
          14    0.3088    0.0110   -0.1692    0.2474   -0.0075   -0.0686    0.0763    0.0819
          15    0.0484    0.0077   -0.1501   -0.0125   -0.0077   -0.0013    0.1783   -0.2448
          16   -0.0663   -0.0197    0.0298    0.0803   -0.0498   -0.0406    0.0923   -0.0507
          17    0.2218    0.0110    0.0243    0.0559   -0.0262   -0.0005    0.0817   -0.0967
          18   -0.0483   -0.0497   -0.1782   -0.0072    0.0064   -0.0599    0.0729    0.0672
          19   -0.0545    0.0336   -0.1803    0.0444   -0.1598    0.0250    0.1430    0.1550
          20   -0.2423   -0.0625   -0.0933   -0.0706   -0.2231   -0.0426   -0.0062    0.2213
          21   -0.2482   -0.1680    0.0197    0.2393    0.1132   -0.2939   -0.0340    0.1893
          22    0.1010    0.1046    0.0484   -0.0996    0.2173   -0.1101    0.3543    0.2057
          23    0.0875    0.1585    0.2858   -0.2084    0.1011    0.0061   -0.0945    0.0108
          24   -0.1234   -0.1131   -0.0974    0.0680   -0.0812    0.0446   -0.0377   -0.0274
          25   -0.1203   -0.1238    0.0176    0.1284   -0.1956    0.2060    0.0213   -0.0125
          26   -0.1688   -0.1945   -0.1821    0.0167   -0.0626    0.0269   -0.0612    0.0552
          27   -0.1261   -0.1182   -0.0892    0.0543   -0.0764    0.0572   -0.0276   -0.0035
          28    0.0816   -0.0316   -0.0374   -0.1824   -0.0750   -0.3324   -0.0169   -0.1099
          29    0.0517    0.0073   -0.0155   -0.0162    0.0434   -0.0036    0.0428   -0.0462
          30   -0.2304    0.1151    0.0466    0.2523    0.1825    0.1903    0.1645   -0.1271
[...]
 T-DIPOLE    0.0145         C  5 -- H 16         +10.1% ( 40.5%)      3.9%
 TRAVEL      0.0976         C  4 -- H 14          +8.9% ( 38.1%)      0.7%
 RED. MASS   0.4840         C  2 -- C  4          +8.6% ( 37.3%)     77.7%
 EFF. MASS   5.1793

 VIBRATION   31   31A         ATOM PAIR      ENERGY CONTRIBUTION    RADIAL
 FREQ.      1383.20         C  4 -- H 15         +12.4% ( 37.5%)      1.8%
 T-DIPOLE    0.0444         C  4 -- H 14         +11.8% ( 36.6%)      2.9%
 TRAVEL      0.1250         C  3 -- H 12          +9.4% ( 32.6%)      4.0%
 RED. MASS   0.2477         C  3 -- H 13          +9.1% ( 32.2%)      4.8%
 EFF. MASS   3.1191

 VIBRATION   32   32A         ATOM PAIR      ENERGY CONTRIBUTION    RADIAL
 FREQ.      1394.93         C  3 -- H 12         +12.6% ( 45.3%)      4.3%
 T-DIPOLE    0.0246         C  1 -- C  3         +11.4% ( 43.0%)     65.5%
 TRAVEL      0.0940         C  3 -- H 13         +11.1% ( 42.4%)      7.5%
 RED. MASS   0.5952         C  1 -- C  2         +10.7% ( 41.7%)     88.3%
 EFF. MASS   5.4667

 VIBRATION   33   33A         ATOM PAIR      ENERGY CONTRIBUTION    RADIAL
 FREQ.      1396.32         C  5 -- H 18         +30.9% ( 54.8%)      0.0%
 T-DIPOLE    0.0625         C  5 -- H 17         +18.3% ( 42.1%)      4.3%
 TRAVEL      0.1351         C  5 -- H 16          +8.3% ( 28.5%)     25.5%
 RED. MASS   0.3235         C  4 -- C  7          +8.3% ( 28.4%)     99.6%
 EFF. MASS   2.6468

 VIBRATION   34   34A         ATOM PAIR      ENERGY CONTRIBUTION    RADIAL
 FREQ.      1397.82         C  5 -- H 16         +33.2% ( 53.5%)      1.0%
 T-DIPOLE    0.0629         C  5 -- H 17         +31.0% ( 51.7%)      1.6%
 TRAVEL      0.1516         C  5 -- H 18          +7.0% ( 24.6%)     49.7%
 RED. MASS   0.3349         C  4 -- H 14          +5.6% ( 21.9%)      5.6%
 EFF. MASS   2.1000

 VIBRATION   35   35A         ATOM PAIR      ENERGY CONTRIBUTION    RADIAL
 FREQ.      1408.70         C  1 -- H  8          +7.7% ( 30.5%)      4.8%
 T-DIPOLE    0.0399         C  4 -- H 15          +7.6% ( 30.3%)      6.4%
 TRAVEL      0.1170         C  2 -- H 10          +7.6% ( 30.2%)      2.8%
 RED. MASS   0.1807         C  1 -- H  9          +7.4% ( 29.9%)      4.2%
 EFF. MASS   3.4972

 VIBRATION   36   36A         ATOM PAIR      ENERGY CONTRIBUTION    RADIAL
 FREQ.      1416.26         C  1 -- H  9         +18.6% ( 48.3%)      4.9%
 T-DIPOLE    0.0486         C  1 -- H  8         +17.7% ( 47.1%)      6.8%
 TRAVEL      0.1135         C  1 -- C  2         +10.5% ( 36.3%)     76.7%
 RED. MASS   0.3529         C  1 -- C  3          +8.5% ( 32.7%)     39.8%
 EFF. MASS   3.6947

 VIBRATION   37   37A         ATOM PAIR      ENERGY CONTRIBUTION    RADIAL
 FREQ.      1422.45         C  2 -- C  4         +14.0% ( 50.0%)     49.1%
 T-DIPOLE    0.0655         C  4 -- C  7         +13.7% ( 49.5%)     91.0%
 TRAVEL      0.0860         C  2 -- H 11         +11.2% ( 44.8%)      4.3%
 RED. MASS   0.8488         C  4 -- H 14          +9.4% ( 41.1%)      0.5%
 EFF. MASS   6.4113

 VIBRATION   38   38A         ATOM PAIR      ENERGY CONTRIBUTION    RADIAL
 FREQ.      1477.47         C  3 -- C  6         +24.1% ( 73.9%)     83.9%
 T-DIPOLE    0.0549         C  5 -- C  6         +21.5% ( 69.9%)     81.4%
 TRAVEL      0.0666         C  6 -- C  7         +12.8% ( 53.9%)      0.7%
 RED. MASS   3.0203         C  3 -- H 13          +7.2% ( 40.4%)      0.6%
 EFF. MASS  10.2965

 VIBRATION   39   39A         ATOM PAIR      ENERGY CONTRIBUTION    RADIAL
 FREQ.      1898.51         C  6 -- C  7         +43.8% ( 97.4%)     99.1%
 T-DIPOLE    0.0904         C  5 -- C  6         +15.0% ( 57.1%)     37.3%
 TRAVEL      0.0547         C  3 -- C  6         +14.9% ( 56.8%)     31.7%
 RED. MASS   5.5425         C  4 -- C  7         +13.1% ( 53.2%)     53.9%
 EFF. MASS  11.8565         C  7 -- H 19         +12.1% ( 51.3%)      4.0%

 VIBRATION   40   40A         ATOM PAIR      ENERGY CONTRIBUTION    RADIAL
 FREQ.      2942.61         C  3 -- H 12         +26.6% ( 53.6%)     97.3%
 T-DIPOLE    0.0233         C  4 -- H 15         +26.5% ( 53.5%)     97.5%
 TRAVEL      0.1217         C  3 -- H 13         +18.5% ( 44.7%)     95.4%
 RED. MASS   0.2243         C  4 -- H 14         +16.9% ( 42.7%)     95.0%
 EFF. MASS   1.5476

 VIBRATION   41   41A         ATOM PAIR      ENERGY CONTRIBUTION    RADIAL
 FREQ.      2942.90         C  4 -- H 15         +28.2% ( 55.2%)     97.5%
 T-DIPOLE    0.0087         C  3 -- H 12         +26.5% ( 53.5%)     97.3%
 TRAVEL      0.1221         C  3 -- H 13         +19.1% ( 45.3%)     95.5%
 RED. MASS   0.2395         C  4 -- H 14         +18.5% ( 44.7%)     95.2%
 EFF. MASS   1.5372

 VIBRATION   42   42A         ATOM PAIR      ENERGY CONTRIBUTION    RADIAL
 FREQ.      2960.64         C  1 -- H  9         +26.9% ( 53.9%)     97.3%
 T-DIPOLE    0.0078         C  2 -- H 11         +25.7% ( 52.7%)     97.4%
 TRAVEL      0.1216         C  1 -- H  8         +18.8% ( 45.0%)     95.4%
 RED. MASS   0.2226         C  2 -- H 10         +17.3% ( 43.1%)     95.2%
 EFF. MASS   1.5396

 VIBRATION   43   43A         ATOM PAIR      ENERGY CONTRIBUTION    RADIAL
 FREQ.      2968.06         C  2 -- H 11         +25.0% ( 51.8%)     97.0%
 T-DIPOLE    0.0125         C  1 -- H  9         +23.4% ( 50.1%)     96.8%
 TRAVEL      0.1215         C  2 -- H 10         +22.3% ( 48.9%)     96.3%
 RED. MASS   0.2330         C  1 -- H  8         +21.7% ( 48.3%)     96.4%
 EFF. MASS   1.5384

 VIBRATION   44   44A         ATOM PAIR      ENERGY CONTRIBUTION    RADIAL
 FREQ.      3022.88         C  3 -- H 13         +55.3% ( 73.3%)     98.5%
 T-DIPOLE    0.0601         C  3 -- H 12         +40.3% ( 62.6%)     96.6%
 TRAVEL      0.1321         C  1 -- H  9          +1.7% ( 13.0%)     98.8%
 RED. MASS   0.4642         C  1 -- H  8          +0.8% (  9.1%)     94.9%
 EFF. MASS   1.2784

 VIBRATION   45   45A         ATOM PAIR      ENERGY CONTRIBUTION    RADIAL
 FREQ.      3024.06         C  4 -- H 14         +55.4% ( 73.5%)     98.6%
 T-DIPOLE    0.0427         C  4 -- H 15         +36.6% ( 59.8%)     96.2%
 TRAVEL      0.1315         C  7 -- H 19          +3.6% ( 18.7%)    100.0%
 RED. MASS   0.4397         C  2 -- H 11          +1.6% ( 12.6%)     98.4%
 EFF. MASS   1.2894

 VIBRATION   46   46A         ATOM PAIR      ENERGY CONTRIBUTION    RADIAL
 FREQ.      3039.95         C  1 -- H  8         +27.6% ( 51.8%)     98.1%
 T-DIPOLE    0.0267         C  1 -- H  9         +23.6% ( 47.9%)     97.1%
 TRAVEL      0.1319         C  2 -- H 10         +23.5% ( 47.7%)     98.1%
 RED. MASS   0.2257         C  2 -- H 11         +20.1% ( 44.2%)     97.1%
 EFF. MASS   1.2750

 VIBRATION   47   47A         ATOM PAIR      ENERGY CONTRIBUTION    RADIAL
 FREQ.      3044.73         C  7 -- H 19         +35.5% ( 59.3%)    100.0%
 T-DIPOLE    0.1783         C  1 -- H  8         +19.6% ( 44.1%)     98.6%
 TRAVEL      0.1278         C  2 -- H 10         +18.1% ( 42.4%)     98.6%
 RED. MASS   0.2192         C  1 -- H  9         +12.8% ( 35.6%)     96.2%
 EFF. MASS   1.3556         C  2 -- H 11         +11.6% ( 33.9%)     96.2%

 VIBRATION   48   48A         ATOM PAIR      ENERGY CONTRIBUTION    RADIAL
 FREQ.      3046.75         C  7 -- H 19         +59.5% ( 77.3%)    100.0%
 T-DIPOLE    0.2126         C  2 -- H 10         +13.4% ( 36.6%)     98.7%
 TRAVEL      0.1242         C  2 -- H 11          +8.0% ( 28.4%)     95.6%
 RED. MASS   0.3685         C  1 -- H  8          +7.3% ( 27.0%)     98.7%
 EFF. MASS   1.4336

 VIBRATION   49   49A         ATOM PAIR      ENERGY CONTRIBUTION    RADIAL
 FREQ.      3067.68         C  5 -- H 16         +56.9% ( 77.8%)     98.0%
 T-DIPOLE    0.0141         C  5 -- H 18         +40.3% ( 65.5%)     95.6%
 TRAVEL      0.1210         C  5 -- H 17          +1.9% ( 14.1%)     21.3%
 RED. MASS   0.5139         C  5 -- C  6          +1.0% ( 10.2%)      0.0%
 EFF. MASS   1.5016

 VIBRATION   50   50A         ATOM PAIR      ENERGY CONTRIBUTION    RADIAL
 FREQ.      3075.56         C  5 -- H 17         +60.6% ( 80.4%)     98.7%
 T-DIPOLE    0.0154         C  5 -- H 18         +26.7% ( 53.4%)     90.9%
 TRAVEL      0.1204         C  5 -- H 16         +11.5% ( 35.0%)     76.2%
 RED. MASS   0.4831         C  5 -- C  6          +1.0% ( 10.6%)      0.0%
 EFF. MASS   1.5123

 VIBRATION   51   51A         ATOM PAIR      ENERGY CONTRIBUTION    RADIAL
 FREQ.      3167.89         C  5 -- H 17         +37.1% ( 58.6%)     97.6%
 T-DIPOLE    0.0389         C  5 -- H 18         +32.1% ( 54.5%)     96.9%
 TRAVEL      0.1367         C  5 -- H 16         +30.6% ( 53.2%)     96.7%
 RED. MASS   0.3289         C  5 -- C  6          +0.3% (  5.3%)     99.6%
 EFF. MASS   1.1389

      SYMMETRY NUMBER FOR POINT-GROUP C1  =  1


          SYSTEM IS A GROUND STATE



 InChI=1S/C7H12/c1-7-5-3-2-4-6-7/h5H,2-4,6H2,1H3


          MOLECULE IS NOT LINEAR

          THERE ARE 51 GENUINE VIBRATIONS IN THIS SYSTEM
          THIS THERMODYNAMICS CALCULATION IS LIMITED TO
          MOLECULES WHICH HAVE NO INTERNAL ROTATIONS




                    CALCULATED THERMODYNAMIC PROPERTIES
                                          *
   TEMP. (K)   PARTITION FUNCTION   H.O.F.    ENTHALPY  HEAT CAPACITY ENTROPY
                                   KCAL/MOL   CAL/MOLE    CAL/K/MOL  CAL/K/MOL


 298.00  VIB.     0.2076D+02                  2687.5620    21.4011    15.0463
         ROT.     0.2102D+06                   888.2813     2.9808    27.3355
         INT.     0.4364D+07                  3575.8433    24.3819    42.3818
         TRA.     0.9118D+27                  1480.4688     4.9680    39.5994
         TOT.                      -14.526    5056.3122    29.3499    81.9812

 200.00  VIB.     0.5125D+01                  1057.0650    12.2544     8.5325
         ROT.     0.1156D+06                   596.1620     2.9808    26.1468
         INT.     0.5922D+06                  1653.2269    15.2353    34.6793
         TRA.     0.5013D+27                   993.6033     4.9680    37.6183
         TOT.                      -16.935    2646.8302    20.2033    72.2976

 210.00  VIB.     0.5860D+01                  1183.6725    13.0720     9.1501
         ROT.     0.1243D+06                   625.9700     2.9808    26.2923
         INT.     0.7286D+06                  1809.6426    16.0529    35.4423
         TRA.     0.5394D+27                  1043.2834     4.9680    37.8607
         TOT.                      -16.729    2852.9260    21.0209    73.3030

 220.00  VIB.     0.6714D+01                  1318.6060    13.9197     9.7776
         ROT.     0.1333D+06                   655.7781     2.9808    26.4309
         INT.     0.8951D+06                  1974.3842    16.9005    36.2085
         TRA.     0.5784D+27                  1092.9636     4.9680    38.0918
         TOT.                      -16.515    3067.3477    21.8685    74.3003

 230.00  VIB.     0.7708D+01                  1462.1646    14.7969    10.4156
         ROT.     0.1425D+06                   685.5862     2.9808    26.5634
         INT.     0.1099D+07                  2147.7509    17.7777    36.9790
         TRA.     0.6182D+27                  1142.6437     4.9680    38.3126
         TOT.                      -16.292    3290.3946    22.7458    75.2917

 240.00  VIB.     0.8867D+01                  1614.6397    15.7027    11.0644
         ROT.     0.1519D+06                   715.3943     2.9808    26.6903
         INT.     0.1347D+07                  2330.0341    18.6835    37.7547
         TRA.     0.6590D+27                  1192.3239     4.9680    38.5241
         TOT.                      -16.060    3522.3580    23.6515    76.2788

 250.00  VIB.     0.1022D+02                  1776.3080    16.6352    11.7242
         ROT.     0.1615D+06                   745.2024     2.9808    26.8120
         INT.     0.1651D+07                  2521.5104    19.6160    38.5362
         TRA.     0.7006D+27                  1242.0041     4.9680    38.7269
         TOT.                      -15.818    3763.5145    24.5840    77.2631

 260.00  VIB.     0.1180D+02                  1947.4252    17.5921    12.3953
         ROT.     0.1713D+06                   775.0105     2.9808    26.9289
         INT.     0.2022D+07                  2722.4358    20.5729    39.3241
         TRA.     0.7431D+27                  1291.6842     4.9680    38.9217
         TOT.                      -15.568    4014.1200    25.5409    78.2459

 270.00  VIB.     0.1366D+02                  2128.2224    18.5707    13.0775
         ROT.     0.1813D+06                   804.8186     2.9808    27.0414
         INT.     0.2476D+07                  2933.0410    21.5515    40.1189
         TRA.     0.7864D+27                  1341.3644     4.9680    39.1092
         TOT.                      -15.308    4274.4054    26.5195    79.2281

 280.00  VIB.     0.1583D+02                  2318.9022    19.5681    13.7708
         ROT.     0.1914D+06                   834.6267     2.9808    27.1498
         INT.     0.3031D+07                  3153.5290    22.5489    40.9206
         TRA.     0.8304D+27                  1391.0445     4.9680    39.2899
         TOT.                      -15.037    4544.5735    27.5170    80.2105

 290.00  VIB.     0.1839D+02                  2519.6375    20.5813    14.4751
         ROT.     0.2018D+06                   864.4348     2.9808    27.2544
         INT.     0.3711D+07                  3384.0723    23.5621    41.7295
         TRA.     0.8753D+27                  1440.7247     4.9680    39.4642
         TOT.                      -14.757    4824.7970    28.5301    81.1937

 300.00  VIB.     0.2141D+02                  2730.5701    21.6071    15.1901
         ROT.     0.2123D+06                   894.2429     2.9808    27.3554
         INT.     0.4545D+07                  3624.8130    24.5879    42.5456
         TRA.     0.9210D+27                  1490.4049     4.9680    39.6326
         TOT.                      -14.467    5115.2179    29.5559    82.1782

 310.00  VIB.     0.2496D+02                  2951.8111    22.6425    15.9155
         ROT.     0.2230D+06                   924.0510     2.9808    27.4532
         INT.     0.5567D+07                  3875.8621    25.6233    43.3687
         TRA.     0.9674D+27                  1540.0850     4.9680    39.7955
         TOT.                      -14.166    5415.9472    30.5913    83.1642

 320.00  VIB.     0.2916D+02                  3183.4413    23.6844    16.6508
         ROT.     0.2339D+06                   953.8591     2.9808    27.5478
         INT.     0.6820D+07                  4137.3004    26.6653    44.1986
         TRA.     0.1015D+28                  1589.7652     4.9680    39.9533
         TOT.                      -13.855    5727.0656    31.6333    84.1519

 330.00  VIB.     0.3413D+02                  3425.5127    24.7302    17.3956
         ROT.     0.2449D+06                   983.6672     2.9808    27.6395
         INT.     0.8360D+07                  4409.1799    27.7110    45.0351
         TRA.     0.1063D+28                  1639.4454     4.9680    40.1062
         TOT.                      -13.533    6048.6253    32.6791    85.1413

 340.00  VIB.     0.4002D+02                  3678.0498    25.7772    18.1494
         ROT.     0.2562D+06                  1013.4753     2.9808    27.7285
         INT.     0.1025D+08                  4691.5251    28.7580    45.8779
         TRA.     0.1111D+28                  1689.1255     4.9680    40.2545
         TOT.                      -13.201    6380.6506    33.7260    86.1324

 350.00  VIB.     0.4701D+02                  3941.0518    26.8228    18.9117
         ROT.     0.2675D+06                  1043.2834     2.9808    27.8149
         INT.     0.1258D+08                  4984.3352    29.8036    46.7267
         TRA.     0.1161D+28                  1738.8057     4.9680    40.3985
         TOT.                      -12.859    6723.1409    34.7716    87.1251

 360.00  VIB.     0.5532D+02                  4214.4945    27.8650    19.6820
         ROT.     0.2791D+06                  1073.0915     2.9808    27.8989
         INT.     0.1544D+08                  5287.5860    30.8458    47.5809
         TRA.     0.1211D+28                  1788.4859     4.9680    40.5384
         TOT.                      -12.506    7076.0718    35.8138    88.1193

 370.00  VIB.     0.6521D+02                  4498.3326    28.9016    20.4596
         ROT.     0.2908D+06                  1102.8996     2.9808    27.9806
         INT.     0.1896D+08                  5601.2322    31.8824    48.4402
         TRA.     0.1261D+28                  1838.1660     4.9680    40.6745
         TOT.                      -12.143    7439.3982    36.8504    89.1147

 380.00  VIB.     0.7701D+02                  4792.5019    29.9309    21.2440
         ROT.     0.3027D+06                  1132.7077     2.9808    28.0601
         INT.     0.2331D+08                  5925.2096    32.9117    49.3041
         TRA.     0.1313D+28                  1887.8462     4.9680    40.8070
         TOT.                      -11.769    7813.0557    37.8797    90.1111

 390.00  VIB.     0.9108D+02                  5096.9213    30.9514    22.0347
         ROT.     0.3147D+06                  1162.5158     2.9808    28.1375
         INT.     0.2866D+08                  6259.4371    33.9322    50.1722
         TRA.     0.1365D+28                  1937.5263     4.9680    40.9361
         TOT.                      -11.385    8196.9635    38.9002    91.1083

 400.00  VIB.     0.1079D+03                  5411.4954    31.9616    22.8311
         ROT.     0.3269D+06                  1192.3239     2.9808    28.2130
         INT.     0.3527D+08                  6603.8193    34.9424    51.0441
         TRA.     0.1418D+28                  1987.2065     4.9680    41.0619
         TOT.                      -10.991    8591.0258    39.9104    92.1059

   *: NOTE: HEATS OF FORMATION ARE RELATIVE TO THE
            ELEMENTS IN THEIR STANDARD STATE AT 298K
              (=  Standard Enthalpy of Formation).

            Hvib:  Zero-point energy is not included.
                   frequencies of less than zero cm-1 are not included.
            Hrot = (3/2)RT
            Htra = (3/2)RT + pV = (5/2)RT

            Heat capacity is Cp, not Cv

          For more information, see: HTTP://OpenMOPAC.net/Manual/thermochemistry.html


           FORCE CONSTANT IN CARTESIAN COORDINATES (Millidynes/A)

    ATOM   CHEMICAL       X               Y               Z
   NUMBER   SYMBOL  FORCE CONSTANT  FORCE CONSTANT  FORCE CONSTANT

      1       C        8.228339        8.364596        8.412779
      2       C        8.225730        8.559009        8.217688
      3       C        8.730917        8.501133        8.219103
      4       C        8.776494        8.567982        8.132541
      5       C        8.411983        8.808406        8.239731
      6       C       12.550570        8.813727        6.637873
      7       C       12.343970        8.497078        6.506144
      8       H        1.210913        1.714412        3.522158
      9       H        1.186223        1.691451        3.524864
     10       H        1.210676        4.522924        0.716926
     11       H        1.185059        1.627799        3.591010
     12       H        0.722570        1.408853        4.129747
     13       H        4.764485        0.743829        0.852120
     14       H        4.707794        0.852161        0.784926
     15       H        0.688684        2.166501        3.395488
     16       H        4.146824        0.875732        1.642745
     17       H        2.164977        2.249020        2.363677
     18       H        0.812893        1.876518        3.982497
     19       H        1.533128        2.310688        2.398557

 **********************
 *                    *
 * JOB ENDED NORMALLY *
 *                    *
 **********************



 TOTAL JOB TIME:             7.70 SECONDS

 == MOPAC DONE ==
