 *******************************************************************************
 ** Site#: 14399        For non-commercial use only    Version 18.184L 64BITS **
 *******************************************************************************
 ** Cite this program as: MOPAC2016, Version: 18.184L, James J. P. Stewart,   **
 ** Stewart Computational Chemistry, web: HTTP://OpenMOPAC.net. Days left:  20**
 *******************************************************************************
 **                                                                           **
 **                                MOPAC2016                                  **
 **                                                                           **
 *******************************************************************************

                              PM3 CALCULATION RESULTS

 *******************************************************************************
 *  CALCULATION DONE:                                Thu Jun 13 15:48:49 2019  *
 *  PM3        - The PM3 Hamiltonian to be used
 *  PRECISE    - CRITERIA TO BE INCREASED BY 100 TIMES
 *  NOSYM      - POINT-GROUP SYMMETRY SET TO C1
 *  THREADS=1  - MULTI-THREADING NOT USED
 *  T=         - A TIME OF 172800.0 SECONDS REQUESTED
 *  DUMP=N     - RESTART FILE WRITTEN EVERY  7200.000 SECONDS
 *******************************************************************************
pm3  precise nosym THREADS=1
 InChI=1S/C6H10/c1-6-4-2-3-5-6/h2,4,6H,3,5H2,1H3

   ATOM   CHEMICAL          X               Y               Z
  NUMBER   SYMBOL      (ANGSTROMS)     (ANGSTROMS)     (ANGSTROMS)
 
     1       C         -0.63390000  *  -0.18400000  *   0.52610000  *
     2       C          0.54660000  *  -1.03470000  *   0.02090000  *
     3       C          1.68270000  *  -0.05250000  *  -0.28390000  *
     4       C         -1.86750000  *  -0.30620000  *  -0.37190000  *
     5       C         -0.11090000  *   1.21060000  *   0.51620000  *
     6       C          1.13460000  *   1.27900000  *   0.08090000  *
     7       H         -0.90040000  *  -0.46970000  *   1.56730000  *
     8       H          0.28850000  *  -1.61700000  *  -0.89160000  *
     9       H          0.86460000  *  -1.74970000  *   0.81140000  *
    10       H          1.94620000  *  -0.06910000  *  -1.36320000  *
    11       H          2.58050000  *  -0.27590000  *   0.33140000  *
    12       H         -2.22900000  *  -1.35640000  *  -0.37460000  *
    13       H         -2.68290000  *   0.34340000  *   0.01220000  *
    14       H         -1.62790000  *  -0.00440000  *  -1.41470000  *
    15       H         -0.68020000  *   2.07850000  *   0.83380000  *
    16       H          1.68910000  *   2.20810000  *  -0.00050000  *
 


          CARTESIAN COORDINATES 

    NO.       ATOM           X           Y           Z

     1         C         -0.6339     -0.1840      0.5261
     2         C          0.5466     -1.0347      0.0209
     3         C          1.6827     -0.0525     -0.2839
     4         C         -1.8675     -0.3062     -0.3719
     5         C         -0.1109      1.2106      0.5162
     6         C          1.1346      1.2790      0.0809
     7         H         -0.9004     -0.4697      1.5673
     8         H          0.2885     -1.6170     -0.8916
     9         H          0.8646     -1.7497      0.8114
    10         H          1.9462     -0.0691     -1.3632
    11         H          2.5805     -0.2759      0.3314
    12         H         -2.2290     -1.3564     -0.3746
    13         H         -2.6829      0.3434      0.0122
    14         H         -1.6279     -0.0044     -1.4147
    15         H         -0.6802      2.0785      0.8338
    16         H          1.6891      2.2081     -0.0005

  H: (PM3): J. J. P. STEWART, J. COMP. CHEM. 10, 209 (1989).
  C: (PM3): J. J. P. STEWART, J. COMP. CHEM. 10, 209 (1989).

           Empirical Formula: C6 H10  =    16 atoms



      MOLECULAR POINT GROUP   :   C1  


      RHF CALCULATION, NO. OF DOUBLY OCCUPIED LEVELS = 17


          Geometry optimization using EF

          DIAGONAL MATRIX USED AS START HESSIAN

 CYCLE:     1 TIME:   0.027 TIME LEFT:  2.00D  GRAD.:    50.007 HEAT:-0.9006196
 CYCLE:     2 TIME:   0.031 TIME LEFT:  2.00D  GRAD.:    43.807 HEAT: -1.511278
 CYCLE:     3 TIME:   0.020 TIME LEFT:  2.00D  GRAD.:    25.001 HEAT: -1.959481
 CYCLE:     4 TIME:   0.023 TIME LEFT:  2.00D  GRAD.:    34.298 HEAT: -2.036809
 CYCLE:     5 TIME:   0.023 TIME LEFT:  2.00D  GRAD.:    36.195 HEAT: -2.143934
 CYCLE:     6 TIME:   0.027 TIME LEFT:  2.00D  GRAD.:    16.269 HEAT: -2.456798
 CYCLE:     7 TIME:   0.023 TIME LEFT:  2.00D  GRAD.:     9.163 HEAT: -2.538341
 CYCLE:     8 TIME:   0.023 TIME LEFT:  2.00D  GRAD.:     8.792 HEAT: -2.561434
 CYCLE:     9 TIME:   0.020 TIME LEFT:  2.00D  GRAD.:     7.307 HEAT: -2.592044
 CYCLE:    10 TIME:   0.027 TIME LEFT:  2.00D  GRAD.:     5.394 HEAT: -2.610444
 CYCLE:    11 TIME:   0.016 TIME LEFT:  2.00D  GRAD.:     4.398 HEAT: -2.629274
 CYCLE:    12 TIME:   0.023 TIME LEFT:  2.00D  GRAD.:     4.746 HEAT: -2.639498
 CYCLE:    13 TIME:   0.027 TIME LEFT:  2.00D  GRAD.:     2.829 HEAT: -2.644652
 CYCLE:    14 TIME:   0.020 TIME LEFT:  2.00D  GRAD.:     2.883 HEAT: -2.646077
 CYCLE:    15 TIME:   0.023 TIME LEFT:  2.00D  GRAD.:     2.686 HEAT: -2.648157
 CYCLE:    16 TIME:   0.023 TIME LEFT:  2.00D  GRAD.:     2.487 HEAT: -2.649154
 CYCLE:    17 TIME:   0.020 TIME LEFT:  2.00D  GRAD.:     2.029 HEAT: -2.650924
 CYCLE:    18 TIME:   0.023 TIME LEFT:  2.00D  GRAD.:     1.609 HEAT: -2.652474
 CYCLE:    19 TIME:   0.023 TIME LEFT:  2.00D  GRAD.:     1.079 HEAT: -2.654303
 CYCLE:    20 TIME:   0.023 TIME LEFT:  2.00D  GRAD.:     1.695 HEAT: -2.656706
 CYCLE:    21 TIME:   0.023 TIME LEFT:  2.00D  GRAD.:     2.241 HEAT: -2.658309
 CYCLE:    22 TIME:   0.023 TIME LEFT:  2.00D  GRAD.:     1.580 HEAT: -2.660347
 CYCLE:    23 TIME:   0.023 TIME LEFT:  2.00D  GRAD.:     0.926 HEAT: -2.661947
 CYCLE:    24 TIME:   0.020 TIME LEFT:  2.00D  GRAD.:     1.144 HEAT: -2.663894
 CYCLE:    25 TIME:   0.023 TIME LEFT:  2.00D  GRAD.:     1.365 HEAT: -2.666072
 CYCLE:    26 TIME:   0.023 TIME LEFT:  2.00D  GRAD.:     0.967 HEAT: -2.668243
 CYCLE:    27 TIME:   0.023 TIME LEFT:  2.00D  GRAD.:     0.843 HEAT: -2.669975
 CYCLE:    28 TIME:   0.023 TIME LEFT:  2.00D  GRAD.:     1.174 HEAT: -2.671809
 CYCLE:    29 TIME:   0.031 TIME LEFT:  2.00D  GRAD.:     1.216 HEAT: -2.673850
 CYCLE:    30 TIME:   0.023 TIME LEFT:  2.00D  GRAD.:     1.030 HEAT: -2.675600
 CYCLE:    31 TIME:   0.023 TIME LEFT:  2.00D  GRAD.:     0.849 HEAT: -2.677507
 CYCLE:    32 TIME:   0.023 TIME LEFT:  2.00D  GRAD.:     1.150 HEAT: -2.679563
 CYCLE:    33 TIME:   0.023 TIME LEFT:  2.00D  GRAD.:     1.467 HEAT: -2.682818
 CYCLE:    34 TIME:   0.023 TIME LEFT:  2.00D  GRAD.:     1.510 HEAT: -2.687378
 CYCLE:    35 TIME:   0.020 TIME LEFT:  2.00D  GRAD.:     1.193 HEAT: -2.690638
 CYCLE:    36 TIME:   0.023 TIME LEFT:  2.00D  GRAD.:     1.091 HEAT: -2.693092
 CYCLE:    37 TIME:   0.023 TIME LEFT:  2.00D  GRAD.:     1.126 HEAT: -2.695123
 CYCLE:    38 TIME:   0.023 TIME LEFT:  2.00D  GRAD.:     1.072 HEAT: -2.697436
 CYCLE:    39 TIME:   0.023 TIME LEFT:  2.00D  GRAD.:     0.764 HEAT: -2.699260
 CYCLE:    40 TIME:   0.023 TIME LEFT:  2.00D  GRAD.:     0.509 HEAT: -2.700053
 CYCLE:    41 TIME:   0.023 TIME LEFT:  2.00D  GRAD.:     0.434 HEAT: -2.700472
 CYCLE:    42 TIME:   0.020 TIME LEFT:  2.00D  GRAD.:     0.381 HEAT: -2.700818
 CYCLE:    43 TIME:   0.023 TIME LEFT:  2.00D  GRAD.:     0.267 HEAT: -2.701074
 CYCLE:    44 TIME:   0.023 TIME LEFT:  2.00D  GRAD.:     0.207 HEAT: -2.701198
 CYCLE:    45 TIME:   0.023 TIME LEFT:  2.00D  GRAD.:     0.188 HEAT: -2.701270
 CYCLE:    46 TIME:   0.023 TIME LEFT:  2.00D  GRAD.:     0.171 HEAT: -2.701343
 CYCLE:    47 TIME:   0.023 TIME LEFT:  2.00D  GRAD.:     0.185 HEAT: -2.701427
 CYCLE:    48 TIME:   0.023 TIME LEFT:  2.00D  GRAD.:     0.170 HEAT: -2.701481
 CYCLE:    49 TIME:   0.020 TIME LEFT:  2.00D  GRAD.:     0.189 HEAT: -2.701559
 CYCLE:    50 TIME:   0.023 TIME LEFT:  2.00D  GRAD.:     0.241 HEAT: -2.701661
 CYCLE:    51 TIME:   0.023 TIME LEFT:  2.00D  GRAD.:     0.272 HEAT: -2.701812
 CYCLE:    52 TIME:   0.023 TIME LEFT:  2.00D  GRAD.:     0.249 HEAT: -2.702052
 CYCLE:    53 TIME:   0.023 TIME LEFT:  2.00D  GRAD.:     0.180 HEAT: -2.702140
 CYCLE:    54 TIME:   0.023 TIME LEFT:  2.00D  GRAD.:     0.249 HEAT: -2.702247
 CYCLE:    55 TIME:   0.023 TIME LEFT:  2.00D  GRAD.:     0.183 HEAT: -2.702299
 CYCLE:    56 TIME:   0.020 TIME LEFT:  2.00D  GRAD.:     0.141 HEAT: -2.702395
 CYCLE:    57 TIME:   0.023 TIME LEFT:  2.00D  GRAD.:     0.110 HEAT: -2.702433
 CYCLE:    58 TIME:   0.023 TIME LEFT:  2.00D  GRAD.:     0.096 HEAT: -2.702486
 CYCLE:    59 TIME:   0.023 TIME LEFT:  2.00D  GRAD.:     0.092 HEAT: -2.702512
 CYCLE:    60 TIME:   0.023 TIME LEFT:  2.00D  GRAD.:     0.061 HEAT: -2.702544
 CYCLE:    61 TIME:   0.023 TIME LEFT:  2.00D  GRAD.:     0.048 HEAT: -2.702554

     GRADIENT =  0.04791  IS LESS THAN CUTOFF =  0.05000



 -------------------------------------------------------------------------------
 pm3  precise nosym THREADS=1
 InChI=1S/C6H10/c1-6-4-2-3-5-6/h2,4,6H,3,5H2,1H3



     GEOMETRY OPTIMISED USING EIGENVECTOR FOLLOWING (EF).     
     SCF FIELD WAS ACHIEVED                                   


                              PM3 CALCULATION
                                                       MOPAC2016 (Version: 18.184L)
                                                       Thu Jun 13 15:48:51 2019
                                                       No. of days remaining =  20




          FINAL HEAT OF FORMATION =         -2.70255 KCAL/MOL =     -11.30749 KJ/MOL


          TOTAL ENERGY            =       -865.28648 EV
          ELECTRONIC ENERGY       =      -3855.21866 EV  POINT GROUP:     C1  
          CORE-CORE REPULSION     =       2989.93218 EV
          COSMO AREA              =        131.74 SQUARE ANGSTROMS
          COSMO VOLUME            =        123.17 CUBIC ANGSTROMS

          GRADIENT NORM           =          0.04791 = 0.01198 PER ATOM
          IONIZATION POTENTIAL    =          9.614934 EV
          HOMO LUMO ENERGIES (EV) =         -9.615  1.140
          NO. OF FILLED LEVELS    =         17
          MOLECULAR WEIGHT        =         82.1450

          MOLECULAR DIMENSIONS (Angstroms)

            Atom       Atom       Distance
            H    16    H    12     5.37225
            H    15    H    10     4.07400
            H    14    H     9     3.29219


          SCF CALCULATIONS        =         69
 
          WALL-CLOCK TIME         =          1.473 SECONDS
          COMPUTATION TIME        =          0.330 SECONDS




   ATOM   CHEMICAL          X               Y               Z
  NUMBER   SYMBOL      (ANGSTROMS)     (ANGSTROMS)     (ANGSTROMS)
 
     1       C         -0.63558895  *  -0.17743009  *   0.50890672  *
     2       C          0.54118706  *  -1.02668795  *  -0.01861546  *
     3       C          1.70640610  *  -0.05283183  *  -0.24713907  *
     4       C         -1.88767303  *  -0.32642768  *  -0.33134146  *
     5       C         -0.11809501  *   1.23329359  *   0.48825741  *
     6       C          1.15433318  *   1.29659197  *   0.08252263  *
     7       H         -0.87050464  *  -0.45723545  *   1.56300148  *
     8       H          0.27007453  *  -1.55142010  *  -0.95330608  *
     9       H          0.81376895  *  -1.81862518  *   0.70110958  *
    10       H          2.07760997  *  -0.08284276  *  -1.28789203  *
    11       H          2.57544974  *  -0.28647762  *   0.39519020  *
    12       H         -2.25081810  *  -1.36217834  *  -0.32124372  *
    13       H         -2.69592513  *   0.31364152  *   0.04532741  *
    14       H         -1.71117620  *  -0.04957757  *  -1.37914036  *
    15       H         -0.75375140  *   2.06866060  *   0.78061668  *
    16       H          1.76280938  *   2.19542088  *  -0.01245447  *

                             CARTESIAN COORDINATES

   1    C       -0.635588950    -0.177430086     0.508906720
   2    C        0.541187057    -1.026687952    -0.018615457
   3    C        1.706406097    -0.052831829    -0.247139069
   4    C       -1.887673032    -0.326427684    -0.331341459
   5    C       -0.118095007     1.233293594     0.488257415
   6    C        1.154333179     1.296591975     0.082522629
   7    H       -0.870504642    -0.457235448     1.563001478
   8    H        0.270074529    -1.551420100    -0.953306079
   9    H        0.813768954    -1.818625182     0.701109584
  10    H        2.077609974    -0.082842762    -1.287892027
  11    H        2.575449738    -0.286477624     0.395190203
  12    H       -2.250818102    -1.362178339    -0.321243722
  13    H       -2.695925130     0.313641524     0.045327409
  14    H       -1.711176197    -0.049577566    -1.379140361
  15    H       -0.753751398     2.068660598     0.780616677
  16    H        1.762809382     2.195420876    -0.012454473


           Empirical Formula: C6 H10  =    16 atoms



      MOLECULAR POINT GROUP   :   C1  


                  EIGENVALUES  
 -40.43183 -31.33248 -28.01384 -24.23513 -19.84586 -18.48338 -17.42744 -16.11676
 -14.41476 -14.10751 -13.54471 -13.07294 -12.84134 -12.27804 -12.00818 -11.81825
  -9.61493   1.13995   3.42906   3.53206   3.72019   3.79330   3.87119   4.08903
   4.17565   4.26365   4.32199   4.57887   4.65601   4.74484   5.15963   5.26096
   5.63846   6.01442


              NET ATOMIC CHARGES AND DIPOLE CONTRIBUTIONS

  ATOM NO.   TYPE          CHARGE      No. of ELECS.   s-Pop       p-Pop       
    1          C          -0.045836        4.0458     1.17031     2.87553
    2          C          -0.100964        4.1010     1.16934     2.93162
    3          C          -0.065068        4.0651     1.15384     2.91123
    4          C          -0.103048        4.1030     1.13921     2.96384
    5          C          -0.154968        4.1550     1.20469     2.95028
    6          C          -0.151431        4.1514     1.20200     2.94943
    7          H           0.066280        0.9337     0.93372
    8          H           0.054383        0.9456     0.94562
    9          H           0.049503        0.9505     0.95050
   10          H           0.054913        0.9451     0.94509
   11          H           0.055004        0.9450     0.94500
   12          H           0.037970        0.9620     0.96203
   13          H           0.038669        0.9613     0.96133
   14          H           0.042468        0.9575     0.95753
   15          H           0.112097        0.8879     0.88790
   16          H           0.110028        0.8900     0.88997
 DIPOLE           X         Y         Z       TOTAL
 POINT-CHG.     0.008    -0.153    -0.023     0.155
 HYBRID         0.004     0.022    -0.014     0.027
 SUM            0.012    -0.131    -0.037     0.136


          ATOMIC ORBITAL ELECTRON POPULATIONS

     Atom    s        px        py        pz   
    1  C   1.17031   0.94962   0.93640   0.98952
    2  C   1.16934   0.95278   0.96878   1.01006
    3  C   1.15384   0.96998   0.93555   1.00570
    4  C   1.13921   0.96405   1.00556   0.99423
    5  C   1.20469   0.96783   0.97268   1.00977
    6  C   1.20200   0.96789   0.97637   1.00517
    7  H   0.93372
    8  H   0.94562
    9  H   0.95050
   10  H   0.94509
   11  H   0.94500
   12  H   0.96203
   13  H   0.96133
   14  H   0.95753
   15  H   0.88790
   16  H   0.88997
 *******************************************************************************
 ** Site#: 14399        For non-commercial use only    Version 18.184L 64BITS **
 *******************************************************************************
 ** Cite this program as: MOPAC2016, Version: 18.184L, James J. P. Stewart,   **
 ** Stewart Computational Chemistry, web: HTTP://OpenMOPAC.net. Days left:  20**
 *******************************************************************************
 **                                                                           **
 **                                MOPAC2016                                  **
 **                                                                           **
 *******************************************************************************

                              PM3 CALCULATION RESULTS

 *******************************************************************************
 *  CALCULATION DONE:                                Thu Jun 13 15:48:51 2019  *
 *  PM3        - The PM3 Hamiltonian to be used
 *  OLDGEO     - PREVIOUS GEOMETRY TO BE USED
 *  PRECISE    - CRITERIA TO BE INCREASED BY 100 TIMES
 *  NOSYM      - POINT-GROUP SYMMETRY SET TO C1
 *  THREADS=1  - MULTI-THREADING NOT USED
 *  T=         - A TIME OF 172800.0 SECONDS REQUESTED
 *  DUMP=N     - RESTART FILE WRITTEN EVERY  7200.000 SECONDS
 *  THERMO     - THERMODYNAMIC QUANTITIES TO BE CALCULATED
 *******************************************************************************
oldgeo thermo nosym precise THREADS=1  pm3
 InChI=1S/C6H10/c1-6-4-2-3-5-6/h2,4,6H,3,5H2,1H3

   ATOM   CHEMICAL          X               Y               Z
  NUMBER   SYMBOL      (ANGSTROMS)     (ANGSTROMS)     (ANGSTROMS)
 
     1       C         -0.63558895  *  -0.17743009  *   0.50890672  *
     2       C          0.54118706  *  -1.02668795  *  -0.01861546  *
     3       C          1.70640610  *  -0.05283183  *  -0.24713907  *
     4       C         -1.88767303  *  -0.32642768  *  -0.33134146  *
     5       C         -0.11809501  *   1.23329359  *   0.48825741  *
     6       C          1.15433318  *   1.29659197  *   0.08252263  *
     7       H         -0.87050464  *  -0.45723545  *   1.56300148  *
     8       H          0.27007453  *  -1.55142010  *  -0.95330608  *
     9       H          0.81376895  *  -1.81862518  *   0.70110958  *
    10       H          2.07760997  *  -0.08284276  *  -1.28789203  *
    11       H          2.57544974  *  -0.28647762  *   0.39519020  *
    12       H         -2.25081810  *  -1.36217834  *  -0.32124372  *
    13       H         -2.69592513  *   0.31364152  *   0.04532741  *
    14       H         -1.71117620  *  -0.04957757  *  -1.37914036  *
    15       H         -0.75375140  *   2.06866060  *   0.78061668  *
    16       H          1.76280938  *   2.19542088  *  -0.01245447  *
 


          CARTESIAN COORDINATES 

    NO.       ATOM           X           Y           Z

     1         C         -0.6356     -0.1774      0.5089
     2         C          0.5412     -1.0267     -0.0186
     3         C          1.7064     -0.0528     -0.2471
     4         C         -1.8877     -0.3264     -0.3313
     5         C         -0.1181      1.2333      0.4883
     6         C          1.1543      1.2966      0.0825
     7         H         -0.8705     -0.4572      1.5630
     8         H          0.2701     -1.5514     -0.9533
     9         H          0.8138     -1.8186      0.7011
    10         H          2.0776     -0.0828     -1.2879
    11         H          2.5754     -0.2865      0.3952
    12         H         -2.2508     -1.3622     -0.3212
    13         H         -2.6959      0.3136      0.0453
    14         H         -1.7112     -0.0496     -1.3791
    15         H         -0.7538      2.0687      0.7806
    16         H          1.7628      2.1954     -0.0125

  H: (PM3): J. J. P. STEWART, J. COMP. CHEM. 10, 209 (1989).
  C: (PM3): J. J. P. STEWART, J. COMP. CHEM. 10, 209 (1989).

           Empirical Formula: C6 H10  =    16 atoms



      MOLECULAR POINT GROUP   :   C1  


      RHF CALCULATION, NO. OF DOUBLY OCCUPIED LEVELS = 17



          HEAT OF FORMATION =      -2.702554 KCALS/MOLE


          CARTESIAN COORDINATE DERIVATIVES

   NUMBER  ATOM         X            Y            Z

     1       C      0.006666     0.003681    -0.003109
     2       C      0.001839     0.010980     0.000003
     3       C     -0.009124     0.006997    -0.007275
     4       C      0.000711    -0.005739     0.006000
     5       C     -0.005263    -0.000302    -0.003282
     6       C      0.003637     0.013870    -0.005425
     7       H      0.008363    -0.008767     0.002436
     8       H      0.012606     0.000591     0.002068
     9       H     -0.001418     0.003294     0.012842
    10       H      0.005518    -0.001681    -0.006852
    11       H     -0.013230    -0.015770     0.002711
    12       H     -0.013998    -0.010985    -0.005505
    13       H     -0.003801    -0.002784    -0.002037
    14       H     -0.003624     0.003555    -0.003105
    15       H      0.002054    -0.003732     0.003048
    16       H      0.009063     0.006791     0.007483
 


          GRADIENT NORM =   0.04843


          TIME FOR SCF CALCULATION =    0.02

          TIME FOR DERIVATIVES     =    0.01

          MOLECULAR WEIGHT =   82.14



          ROTATIONAL CONSTANTS IN CM(-1)

          A =    0.21089570   B =    0.11091297   C =    0.08266958



           PRINCIPAL MOMENTS OF INERTIA IN UNITS OF 10**(-40)*GRAM-CM**2

          A =      132.7328   B =      252.3850   C =      338.6103


          ORIENTATION OF MOLECULE IN FORCE CALCULATION

    NO.       ATOM         X         Y         Z

     1          C      -0.5468   -0.6922    0.2335
     2          C       0.9973   -0.6922    0.2335
     3          C       1.4278    0.7819    0.2335
     4          C      -1.1320   -1.4792   -0.9216
     5          C      -0.9212    0.7614    0.1607
     6          C       0.1523    1.5584    0.1661
     7          H      -0.9320   -1.1136    1.1919
     8          H       1.3986   -1.2254   -0.6481
     9          H       1.3948   -1.2275    1.1138
    10          H       2.0828    1.0256   -0.6230
    11          H       1.9992    1.0481    1.1418
    12          H      -0.8425   -2.5366   -0.8677
    13          H      -2.2287   -1.4333   -0.9167
    14          H      -0.7918   -1.0937   -1.8918
    15          H      -1.9650    1.0703    0.1105
    16          H       0.1541    2.6474    0.1297


    FIRST DERIVATIVES WILL BE USED IN THE CALCULATION OF SECOND DERIVATIVES

          ESTIMATED TIME TO COMPLETE CALCULATION =        5.25 SECONDS

    FOR POINT-GROUP C1   THERE ARE   1 UNIQUE SYMMETRY FUNCTIONS.

 STEP:   1 TIME =     0.03 SECS, INTEGRAL =      0.03 TIME LEFT: 172799.94
 STEP:   2 TIME =     0.03 SECS, INTEGRAL =      0.06 TIME LEFT: 172799.91
 STEP:   3 TIME =     0.03 SECS, INTEGRAL =      0.09 TIME LEFT: 172799.89
 STEP:   4 TIME =     0.03 SECS, INTEGRAL =      0.11 TIME LEFT: 172799.86
 STEP:   5 TIME =     0.03 SECS, INTEGRAL =      0.14 TIME LEFT: 172799.83
 STEP:   6 TIME =     0.03 SECS, INTEGRAL =      0.17 TIME LEFT: 172799.80
 STEP:   7 TIME =     0.03 SECS, INTEGRAL =      0.20 TIME LEFT: 172799.78
 STEP:   8 TIME =     0.03 SECS, INTEGRAL =      0.22 TIME LEFT: 172799.75
 STEP:   9 TIME =     0.02 SECS, INTEGRAL =      0.25 TIME LEFT: 172799.73
 STEP:  10 TIME =     0.03 SECS, INTEGRAL =      0.27 TIME LEFT: 172799.70
 STEP:  11 TIME =     0.03 SECS, INTEGRAL =      0.30 TIME LEFT: 172799.67
 STEP:  12 TIME =     0.03 SECS, INTEGRAL =      0.33 TIME LEFT: 172799.64
 STEP:  13 TIME =     0.02 SECS, INTEGRAL =      0.35 TIME LEFT: 172799.62
 STEP:  14 TIME =     0.03 SECS, INTEGRAL =      0.38 TIME LEFT: 172799.59
 STEP:  15 TIME =     0.03 SECS, INTEGRAL =      0.41 TIME LEFT: 172799.57
 STEP:  16 TIME =     0.03 SECS, INTEGRAL =      0.43 TIME LEFT: 172799.54
 STEP:  17 TIME =     0.03 SECS, INTEGRAL =      0.46 TIME LEFT: 172799.51
 STEP:  18 TIME =     0.03 SECS, INTEGRAL =      0.49 TIME LEFT: 172799.48
 STEP:  19 TIME =     0.03 SECS, INTEGRAL =      0.52 TIME LEFT: 172799.46
 STEP:  20 TIME =     0.03 SECS, INTEGRAL =      0.55 TIME LEFT: 172799.43
 STEP:  21 TIME =     0.03 SECS, INTEGRAL =      0.57 TIME LEFT: 172799.40
 STEP:  22 TIME =     0.03 SECS, INTEGRAL =      0.60 TIME LEFT: 172799.37
 STEP:  23 TIME =     0.03 SECS, INTEGRAL =      0.63 TIME LEFT: 172799.34
 STEP:  24 TIME =     0.02 SECS, INTEGRAL =      0.65 TIME LEFT: 172799.32
 STEP:  25 TIME =     0.03 SECS, INTEGRAL =      0.68 TIME LEFT: 172799.29
 STEP:  26 TIME =     0.03 SECS, INTEGRAL =      0.71 TIME LEFT: 172799.27
 STEP:  27 TIME =     0.03 SECS, INTEGRAL =      0.73 TIME LEFT: 172799.24
 STEP:  28 TIME =     0.03 SECS, INTEGRAL =      0.76 TIME LEFT: 172799.21
 STEP:  29 TIME =     0.02 SECS, INTEGRAL =      0.79 TIME LEFT: 172799.19
 STEP:  30 TIME =     0.03 SECS, INTEGRAL =      0.81 TIME LEFT: 172799.16
 STEP:  31 TIME =     0.03 SECS, INTEGRAL =      0.84 TIME LEFT: 172799.13
 STEP:  32 TIME =     0.02 SECS, INTEGRAL =      0.86 TIME LEFT: 172799.11
 STEP:  33 TIME =     0.03 SECS, INTEGRAL =      0.89 TIME LEFT: 172799.09
 STEP:  34 TIME =     0.03 SECS, INTEGRAL =      0.91 TIME LEFT: 172799.06
 STEP:  35 TIME =     0.03 SECS, INTEGRAL =      0.94 TIME LEFT: 172799.03
 STEP:  36 TIME =     0.03 SECS, INTEGRAL =      0.97 TIME LEFT: 172799.00
 STEP:  37 TIME =     0.03 SECS, INTEGRAL =      1.00 TIME LEFT: 172798.98
 STEP:  38 TIME =     0.02 SECS, INTEGRAL =      1.02 TIME LEFT: 172798.95
 STEP:  39 TIME =     0.03 SECS, INTEGRAL =      1.05 TIME LEFT: 172798.93
 STEP:  40 TIME =     0.03 SECS, INTEGRAL =      1.07 TIME LEFT: 172798.90
 STEP:  41 TIME =     0.03 SECS, INTEGRAL =      1.10 TIME LEFT: 172798.87
 STEP:  42 TIME =     0.03 SECS, INTEGRAL =      1.13 TIME LEFT: 172798.84
 STEP:  43 TIME =     0.03 SECS, INTEGRAL =      1.16 TIME LEFT: 172798.82
 STEP:  44 TIME =     0.03 SECS, INTEGRAL =      1.18 TIME LEFT: 172798.79
 STEP:  45 TIME =     0.03 SECS, INTEGRAL =      1.21 TIME LEFT: 172798.76
 STEP:  46 TIME =     0.03 SECS, INTEGRAL =      1.24 TIME LEFT: 172798.73
 STEP:  47 TIME =     0.02 SECS, INTEGRAL =      1.26 TIME LEFT: 172798.71
 STEP:  48 TIME =     0.03 SECS, INTEGRAL =      1.29 TIME LEFT: 172798.68

(To convert to Hartree/Bohr^2, multiply by (10^(-21) x N x a0^2)/(4.184 x 627.51) =  0.0642)


           FORCE MATRIX IN MILLIDYNES/ANGSTROM


                  C  1       C  2       C  3       C  4       C  5       C  6
 ------------------------------------------------------------------------------
     C    1  14.698398
     C    2   3.503650  14.204898
     C    3   0.724213   3.772533  14.678506
     C    4   4.319606   0.585065   0.035759  14.410190
     C    5   4.472996   0.862724   1.184126   0.666870  18.379978
     C    6   1.142095   0.886607   4.744615   0.043604  10.609888  18.397101
     H    7   4.260390   0.421431   0.024411   0.428496   0.403399   0.037279
     H    8   0.452795   4.537094   0.439962   0.062242   0.023678   0.025854
     H    9   0.438730   4.582047   0.440375   0.026177   0.030199   0.029709
     H   10   0.030959   0.435878   4.526279   0.001447   0.038809   0.430542
     H   11   0.026404   0.436290   4.516498   0.005292   0.037709   0.429492
     H   12   0.453768   0.017690   0.002617   4.744058   0.050502   0.007485
     H   13   0.453075   0.047119   0.004956   4.744558   0.021730   0.002757
     H   14   0.465913   0.020874   0.001408   4.734260   0.015151   0.002598
     H   15   0.415441   0.040923   0.114093   0.011126   5.016622   0.448262
     H   16   0.115236   0.043120   0.412788   0.017088   0.449227   5.019524


                  H  7       H  8       H  9       H 10       H 11       H 12
 ------------------------------------------------------------------------------
     H    7   4.724050
     H    8   0.027792   5.157833
     H    9   0.028852   0.581961   5.186538
     H   10   0.003709   0.029364   0.026025   5.132501
     H   11   0.001254   0.028317   0.029174   0.573540   5.123283
     H   12   0.028600   0.015899   0.001588   0.000304   0.000486   5.477247
     H   13   0.030366   0.002730   0.004234   0.000422   0.001005   0.567478
     H   14   0.045969   0.023829   0.001432   0.000446   0.000486   0.571275
     H   15   0.014085   0.002512   0.003100   0.015620   0.016062   0.001771
     H   16   0.014968   0.002764   0.003352   0.015065   0.014119   0.002848


                  H 13       H 14       H 15       H 16
 ------------------------------------------------------
     H   13   5.477503
     H   14   0.573467   5.472669
     H   15   0.007987   0.002345   5.414124
     H   16   0.000644   0.000789   0.048211   5.416268


          HEAT OF FORMATION =      -2.702554 KCALS/MOLE

          ZERO POINT ENERGY      90.003 KCAL/MOL


           NORMAL COORDINATE ANALYSIS (Total motion = 1 Angstrom)


   Root No.       1         2         3         4         5         6         7         8

                 1 A       2 A       3 A       4 A       5 A       6 A       7 A       8 A   

                  90.4     194.8     276.7     379.1     496.0     657.8     754.7     770.7
  
           1    0.0059   -0.0055   -0.0136   -0.0267   -0.0053    0.0439    0.0192   -0.0049
           2    0.0063    0.0025    0.0171    0.0182   -0.0020    0.0342   -0.0261   -0.0227
           3   -0.0112    0.0042   -0.0267    0.0199   -0.0436   -0.0342    0.0043    0.0201
           4    0.0057   -0.0055   -0.0141   -0.0284   -0.0024    0.0307   -0.0106   -0.0163
           5    0.0059   -0.0040    0.0034   -0.0074    0.0162   -0.0436   -0.0357   -0.0051
           6   -0.0439    0.0119    0.0003   -0.0300    0.0114   -0.0042    0.0082   -0.0027
           7    0.0034    0.0017    0.0044   -0.0070    0.0127   -0.0387   -0.0568   -0.0140
           8    0.0066   -0.0067   -0.0027   -0.0189    0.0154   -0.0357   -0.0020    0.0075
           9    0.0480    0.0034   -0.0214   -0.0027    0.0080   -0.0041    0.0128   -0.0233
          10   -0.0234    0.0018    0.0085    0.0522   -0.0251    0.0151   -0.0024    0.0006
          11   -0.0271    0.0058   -0.0429   -0.0124   -0.0383    0.0179   -0.0175   -0.0042
          12    0.0275   -0.0022    0.0046    0.0015   -0.0213    0.0168   -0.0131    0.0042
          13    0.0061    0.0013    0.0027   -0.0108    0.0120   -0.0265    0.0574    0.0338
          14    0.0053    0.0040    0.0219    0.0252    0.0078    0.0235    0.0084   -0.0106
          15   -0.0315   -0.0053   -0.0193    0.0334    0.0481   -0.0006    0.0189   -0.0241
          16    0.0054    0.0056    0.0099    0.0067    0.0137   -0.0236   -0.0003    0.0048
          17    0.0063   -0.0015    0.0131    0.0039    0.0097    0.0113    0.0846    0.0286
          18    0.0048   -0.0121    0.0598   -0.0167   -0.0225   -0.0062    0.0063   -0.0132
          19    0.0287   -0.0099   -0.0280   -0.0292   -0.0074    0.0564   -0.0053   -0.0222
          20    0.0333    0.0014    0.0452    0.0151   -0.0329    0.0570   -0.0394    0.0093
          21    0.0104    0.0016   -0.0185    0.0163   -0.0558   -0.0168   -0.0116    0.0269
          22   -0.0163   -0.0048   -0.0001   -0.0668    0.0405    0.0773   -0.0123   -0.0221
          23    0.0714   -0.0115   -0.0235    0.0243   -0.0107   -0.0929    0.0149   -0.0362
          24   -0.0939    0.0168    0.0230   -0.0691    0.0496    0.0473   -0.0260    0.0144
          25    0.0282   -0.0126   -0.0404    0.0000   -0.0504   -0.0194    0.0340    0.0076
          26   -0.0589   -0.0003    0.0205   -0.0540    0.0461   -0.0133   -0.0666    0.0402
          27   -0.0938    0.0173    0.0229   -0.0719    0.0522    0.0406   -0.0311    0.0148
          28    0.0598    0.0103   -0.0661    0.0279    0.0645   -0.0061   -0.1250    0.0843
          29    0.0454   -0.0170   -0.0061   -0.0195    0.0035   -0.0183   -0.0418    0.0069
          30    0.1024    0.0071   -0.0775    0.0244    0.0457    0.0284   -0.0514    0.0561
          31   -0.0574   -0.0048    0.0865   -0.0350   -0.0383   -0.0909    0.0170   -0.1153
          32   -0.0323   -0.0018   -0.0156   -0.0408    0.0230   -0.0376   -0.0104   -0.0137
          33    0.0979    0.0062   -0.0703    0.0219    0.0396    0.0302   -0.0358    0.0496
          34   -0.0116    0.2261    0.0507    0.0965   -0.0162    0.0098   -0.0249   -0.0128
          35   -0.0230    0.0588   -0.0299    0.0004   -0.0349    0.0181   -0.0252   -0.0096
          36    0.0449   -0.1555    0.0488    0.0395    0.0200    0.0551   -0.0380   -0.0497
          37   -0.0237   -0.0067    0.0069    0.0514   -0.0258    0.0153   -0.0018    0.0015
          38   -0.0374   -0.2214   -0.0874   -0.0612   -0.0502    0.0276    0.0025    0.0118
          39    0.0617    0.1479    0.0072   -0.0705    0.0066    0.0752    0.0063   -0.0211
          40   -0.0585   -0.2047   -0.0099    0.0984   -0.0542   -0.0294   -0.0154    0.0279
          41   -0.0484    0.1824   -0.0717   -0.0167   -0.0843   -0.0286   -0.0119    0.0489
          42    0.0067   -0.0041   -0.0127    0.0151   -0.0480   -0.0159   -0.0153    0.0335
          43    0.0074    0.0031    0.0077   -0.0064    0.0113   -0.0418    0.0484    0.0261
          44    0.0040    0.0089    0.0354    0.0461    0.0252   -0.0148   -0.0407   -0.0156
          45   -0.0663   -0.0101   -0.0374    0.0776    0.1713    0.0883   -0.0869    0.1098
          46    0.0060    0.0114    0.0199    0.0313    0.0094    0.0189    0.0081   -0.0231
          47    0.0064   -0.0020    0.0161    0.0029    0.0093    0.0128    0.0798    0.0369
          48    0.0066   -0.0256    0.1470   -0.0467   -0.0440    0.0537   -0.1551    0.2311


   Root No.       9        10        11        12        13        14        15        16

                 9 A      10 A      11 A      12 A      13 A      14 A      15 A      16 A   

                 821.6     924.0     936.5     956.2     996.2    1021.2    1044.2    1058.2
  
           1    0.0041   -0.0160   -0.0082   -0.0122    0.0025    0.0082   -0.0142   -0.0059
           2    0.0040   -0.0013   -0.0045    0.0122   -0.0048    0.0144   -0.0030   -0.0077
           3   -0.0046    0.0166    0.0021   -0.0041   -0.0054   -0.0124    0.0041   -0.0193
           4    0.0072    0.0577    0.0121    0.0141   -0.0043   -0.0027    0.0069   -0.0060
           5   -0.0024   -0.0179   -0.0068   -0.0256    0.0106   -0.0157   -0.0299    0.0004
           6    0.0308    0.0175   -0.0188    0.0005   -0.0163    0.0026   -0.0098   -0.0069
           7   -0.0001   -0.0078   -0.0024    0.0069   -0.0072    0.0272    0.0029   -0.0246
           8   -0.0008   -0.0015    0.0039    0.0138   -0.0068    0.0099    0.0221    0.0043
           9    0.0211   -0.0148    0.0187   -0.0001    0.0248   -0.0060    0.0110   -0.0140
          10   -0.0003   -0.0295   -0.0132   -0.0242   -0.0093   -0.0011    0.0193    0.0072
          11   -0.0016   -0.0234   -0.0085    0.0327    0.0005   -0.0213   -0.0026    0.0076
          12   -0.0057   -0.0181    0.0102   -0.0002    0.0110    0.0041    0.0006    0.0197
          13   -0.0047   -0.0215    0.0019    0.0242   -0.0019   -0.0068    0.0034    0.0168
          14    0.0017    0.0326    0.0016   -0.0269    0.0040    0.0007    0.0026   -0.0120
          15   -0.0196    0.0139   -0.0249    0.0054    0.0215    0.0199    0.0144   -0.0017
          16   -0.0018    0.0015    0.0005   -0.0055    0.0036   -0.0124    0.0044    0.0147
          17   -0.0039   -0.0004    0.0012    0.0041    0.0014    0.0104   -0.0101   -0.0227
          18   -0.0209    0.0002    0.0080   -0.0040   -0.0375    0.0011   -0.0241    0.0245
          19   -0.0274   -0.0088    0.0215   -0.0657    0.0999   -0.0102   -0.1039   -0.0327
          20    0.0273    0.0106    0.0582    0.0502   -0.0695    0.1426    0.0181    0.0214
          21   -0.0074    0.0201    0.0406   -0.0079    0.0056    0.0364   -0.0221   -0.0160
          22   -0.0445    0.0229    0.0731    0.0148    0.0915   -0.0086    0.0205    0.0868
          23    0.1187    0.0011   -0.0364   -0.0197    0.0302   -0.0111   -0.0486    0.0774
          24   -0.0708   -0.0107    0.0294   -0.0025    0.0167   -0.0041    0.0094   -0.0107
          25    0.0642    0.1608   -0.0377   -0.0066   -0.0943   -0.0749   -0.0433   -0.0821
          26   -0.1215   -0.0019    0.0290   -0.0488   -0.0015   -0.0893   -0.0400   -0.0410
          27   -0.0717   -0.0198    0.0272   -0.0055    0.0183   -0.0099    0.0063   -0.0008
          28   -0.0696    0.0192   -0.0723   -0.0015   -0.0567    0.0770   -0.0846    0.0003
          29   -0.0739    0.0291    0.0641    0.0252   -0.0578   -0.0691    0.1703   -0.0568
          30   -0.0568    0.0153   -0.0190   -0.0024   -0.0302    0.0096   -0.0133   -0.0115
          31    0.0717   -0.0796    0.0596   -0.0028    0.0561    0.0115    0.0272   -0.1425
          32    0.0831    0.0682   -0.0321    0.0369    0.0198    0.0420    0.0071    0.2139
          33   -0.0524    0.0120   -0.0110   -0.0021   -0.0249   -0.0058   -0.0016   -0.0029
          34   -0.0134   -0.0034    0.0064    0.1205    0.0240   -0.0434   -0.0379    0.0093
          35   -0.0048   -0.0186   -0.0052    0.0773    0.0088   -0.0358   -0.0186    0.0088
          36   -0.0054   -0.0546   -0.0531    0.1718    0.0021   -0.1060   -0.0232    0.0084
          37   -0.0003   -0.0309   -0.0125   -0.0282   -0.0092    0.0008    0.0202    0.0085
          38    0.0112   -0.0668   -0.0248   -0.1214   -0.0298    0.0258    0.0593    0.0253
          39    0.0176   -0.1170   -0.0856   -0.1072   -0.0557   -0.0220    0.0882    0.0226
          40   -0.0201    0.0319    0.0675    0.0268    0.0475    0.0320   -0.0392    0.0242
          41   -0.0114    0.0212    0.0787   -0.0552    0.0341    0.0732   -0.0118    0.0387
          42   -0.0163    0.0191    0.0703   -0.0162    0.0431    0.0503   -0.0220    0.0381
          43   -0.0120    0.0028    0.0009    0.0114    0.0025   -0.0257    0.0405    0.0509
          44    0.0069    0.0981    0.0263   -0.0709   -0.0011   -0.0696    0.1182    0.0959
          45    0.1634   -0.0911    0.1500   -0.0123   -0.0946   -0.0555   -0.0402   -0.0025
          46   -0.0006    0.0716    0.0041   -0.1072    0.0364   -0.1061   -0.0690    0.0490
          47   -0.0003    0.0025   -0.0018    0.0041    0.0076    0.0100   -0.0065   -0.0256
          48    0.0864    0.0446   -0.0915    0.0151    0.1434   -0.0033    0.0625   -0.0538


   Root No.      17        18        19        20        21        22        23        24

                17 A      18 A      19 A      20 A      21 A      22 A      23 A      24 A   

                1082.2    1100.6    1115.6    1129.2    1153.0    1234.9    1260.7    1305.8
  
           1    0.0057    0.0002    0.0010    0.0211   -0.0181    0.0217   -0.0295    0.0830
           2    0.0079    0.0050   -0.0005    0.0086   -0.0167   -0.0275   -0.0201   -0.0124
           3   -0.0061    0.0101    0.0089    0.0053    0.0485   -0.0140   -0.0291    0.0276
           4   -0.0035   -0.0051   -0.0078   -0.0253    0.0159   -0.0057   -0.0344   -0.0526
           5    0.0241   -0.0005   -0.0243   -0.0050   -0.0019   -0.0074   -0.0420   -0.0247
           6    0.0064   -0.0308   -0.0089    0.0240   -0.0156    0.0025    0.0088   -0.0084
           7   -0.0225   -0.0061    0.0190   -0.0052    0.0077    0.0008    0.0098    0.0028
           8   -0.0126    0.0003    0.0241    0.0084    0.0014    0.0358    0.0185    0.0079
           9   -0.0025    0.0328    0.0057   -0.0124   -0.0059    0.0003   -0.0015    0.0001
          10   -0.0018    0.0043    0.0008   -0.0073    0.0057   -0.0038    0.0085   -0.0148
          11   -0.0034   -0.0009   -0.0012   -0.0016    0.0038    0.0093    0.0060    0.0041
          12   -0.0077   -0.0182    0.0009   -0.0219   -0.0340    0.0044    0.0036    0.0003
          13    0.0136    0.0063   -0.0119    0.0058   -0.0090   -0.0118   -0.0068   -0.0197
          14   -0.0175   -0.0058    0.0107   -0.0034    0.0054   -0.0212    0.0105    0.0323
          15    0.0213    0.0050   -0.0077   -0.0015   -0.0094    0.0049    0.0038   -0.0038
          16    0.0109    0.0036    0.0015    0.0084   -0.0089   -0.0278    0.0062    0.0132
          17   -0.0171   -0.0081    0.0052   -0.0148    0.0148    0.0075    0.0023   -0.0172
          18   -0.0126   -0.0031    0.0027    0.0019    0.0063   -0.0027   -0.0013    0.0016
          19   -0.0906    0.0333   -0.0038    0.2569    0.0137   -0.0386    0.1087   -0.1283
          20    0.2147    0.1086   -0.0823    0.0490    0.0638    0.0767    0.0368    0.0084
          21    0.0461    0.0681   -0.0281    0.1178    0.0985    0.0080    0.0525   -0.0485
          22    0.0184   -0.0791   -0.0709   -0.0856    0.1725   -0.0569    0.1257    0.0769
          23    0.0711   -0.1358   -0.0947   -0.0035    0.0637   -0.0496    0.0857    0.0978
          24   -0.0101    0.0173    0.0048   -0.0039    0.0185    0.0025    0.0049   -0.0206
          25    0.0169    0.0851   -0.0565   -0.0617   -0.1174   -0.0079    0.1701    0.0120
          26    0.0404    0.1439   -0.0443   -0.0841   -0.0528   -0.0315    0.0793    0.0910
          27    0.0054    0.0166    0.0005   -0.0060    0.0149   -0.0103   -0.0089    0.0298
          28   -0.0707   -0.0334   -0.0117   -0.0393    0.0538    0.0734    0.0487    0.0120
          29    0.0979   -0.1198    0.0817    0.1247   -0.0611   -0.0708    0.0352    0.0248
          30   -0.0076   -0.0217   -0.0019   -0.0028    0.0088    0.0229    0.0288    0.0105
          31   -0.0213    0.0072   -0.0151   -0.0512    0.0182    0.0789    0.0518    0.0111
          32   -0.0597    0.1415    0.1482    0.0078   -0.0034   -0.0770    0.0136    0.0330
          33    0.0107   -0.0176   -0.0089    0.0151   -0.0103   -0.0130   -0.0224   -0.0114
          34   -0.0090   -0.0087   -0.0032    0.0107   -0.0150    0.0327    0.0287   -0.0066
          35   -0.0043   -0.0035   -0.0035    0.0040    0.0002    0.0217    0.0171   -0.0019
          36   -0.0166    0.0019   -0.0030    0.0068    0.0252    0.0456    0.0496   -0.0410
          37   -0.0017    0.0046    0.0002   -0.0067    0.0042   -0.0027    0.0135   -0.0207
          38    0.0060    0.0043   -0.0052   -0.0304    0.0008   -0.0083    0.0468   -0.0840
          39   -0.0024    0.0177   -0.0031   -0.0344    0.0470   -0.0070    0.0711   -0.1026
          40   -0.0074   -0.0321   -0.0015   -0.0079   -0.0760    0.0192    0.0247   -0.0138
          41    0.0054   -0.0365   -0.0051   -0.0349   -0.0967    0.0123    0.0297   -0.0593
          42   -0.0068   -0.0449   -0.0014   -0.0365   -0.1001    0.0142    0.0217   -0.0289
          43   -0.0174    0.0161   -0.0676    0.0315   -0.0167    0.0428   -0.0263   -0.0210
          44   -0.1330    0.0241   -0.1686    0.0769   -0.0113    0.1592   -0.0517    0.0273
          45   -0.0331   -0.0027    0.0183    0.0008    0.0211   -0.0119   -0.0081    0.0033
          46    0.1537   -0.0312    0.1982   -0.0165    0.0434    0.1769    0.0062   -0.0629
          47   -0.0168   -0.0081    0.0072   -0.0153    0.0155    0.0090    0.0034   -0.0179
          48    0.0287    0.0135    0.0038   -0.0027   -0.0041    0.0044   -0.0018    0.0012


   Root No.      25        26        27        28        29        30        31        32

                25 A      26 A      27 A      28 A      29 A      30 A      31 A      32 A   

                1350.9    1375.8    1403.4    1407.2    1411.6    1421.7    1424.0    1831.4
  
           1   -0.0096   -0.0108    0.0009   -0.0048    0.0017    0.0158    0.0109    0.0074
           2    0.0401    0.0408    0.0039   -0.0079    0.0008    0.0198    0.0513    0.0185
           3    0.0078    0.0009    0.0037   -0.0094    0.0035    0.0134    0.0227    0.0002
           4   -0.0024   -0.0029   -0.0022   -0.0157    0.0082   -0.0296   -0.0087    0.0049
           5   -0.0159   -0.0140    0.0005    0.0092    0.0055    0.0294   -0.0227   -0.0065
           6   -0.0008    0.0001   -0.0004    0.0009   -0.0003   -0.0028   -0.0034    0.0001
           7   -0.0314   -0.0064    0.0055    0.0390   -0.0308   -0.0063    0.0243   -0.0198
           8    0.0669   -0.0166   -0.0009   -0.0112    0.0017   -0.0172    0.0023   -0.0013
           9   -0.0026   -0.0003    0.0003    0.0018   -0.0013   -0.0002    0.0010   -0.0005
          10    0.0055    0.0109   -0.0268    0.0011   -0.0229   -0.0063   -0.0190   -0.0012
          11   -0.0011    0.0062   -0.0223    0.0243    0.0109   -0.0162   -0.0246    0.0026
          12    0.0073    0.0191    0.0204    0.0170   -0.0122   -0.0161   -0.0350    0.0006
          13    0.0092    0.0138   -0.0000   -0.0029    0.0027    0.0047    0.0062   -0.1755
          14   -0.0054   -0.0337   -0.0027   -0.0100    0.0079   -0.0104   -0.0281   -0.1622
          15   -0.0015    0.0005   -0.0001    0.0011   -0.0006   -0.0009   -0.0017   -0.0007
          16    0.0256   -0.0219   -0.0031   -0.0175    0.0129   -0.0048   -0.0225    0.2066
          17   -0.0350    0.0084    0.0017    0.0156   -0.0105   -0.0005    0.0056    0.1205
          18    0.0024   -0.0006   -0.0001   -0.0013    0.0009    0.0003   -0.0001    0.0024
          19    0.0209    0.0281   -0.0048    0.0016   -0.0101   -0.0293   -0.0093   -0.0205
          20   -0.0493   -0.0335   -0.0040    0.0175   -0.0011   -0.0177   -0.0491    0.0214
          21   -0.0199   -0.0164   -0.0012    0.0048   -0.0025   -0.0212   -0.0296   -0.0042
          22    0.0680    0.0157    0.0114    0.0596   -0.0254    0.1399    0.0267    0.0009
          23   -0.0406    0.0533   -0.0060   -0.0328   -0.0209   -0.1288    0.0753   -0.0020
          24    0.0419   -0.0270    0.0084    0.0525   -0.0003    0.1481   -0.0396   -0.0058
          25    0.0452    0.0104    0.0081    0.0664   -0.0223    0.1101   -0.0015    0.0010
          26   -0.0509    0.0505   -0.0046   -0.0324   -0.0196   -0.1342    0.0720   -0.0023
          27   -0.0382    0.0289   -0.0069   -0.0532   -0.0019   -0.1426    0.0446    0.0055
          28   -0.0141    0.0849   -0.0132   -0.0894    0.0763    0.0434   -0.0502   -0.0247
          29   -0.1394    0.0593   -0.0032   -0.0066    0.0217    0.0529   -0.0260    0.0261
          30   -0.0413    0.0797   -0.0127   -0.0830    0.0752    0.0503   -0.0552   -0.0021
          31   -0.0202    0.0914   -0.0144   -0.0966    0.0832    0.0468   -0.0565   -0.0223
          32   -0.1336    0.0573   -0.0020   -0.0071    0.0211    0.0539   -0.0206    0.0258
          33    0.0426   -0.0727    0.0114    0.0744   -0.0681   -0.0475    0.0501   -0.0015
          34   -0.0463   -0.0588    0.3381   -0.0329    0.0457    0.0058    0.0278   -0.0012
          35   -0.0236   -0.0255    0.0788   -0.0063    0.0124   -0.0016   -0.0012    0.0041
          36   -0.0801   -0.1095   -0.1462   -0.1221   -0.1001    0.0636    0.0514   -0.0008
          37    0.0000    0.0016    0.0036   -0.0028   -0.0089   -0.0038   -0.0063   -0.0018
          38   -0.0254   -0.0384    0.3142   -0.0911   -0.0576    0.0297    0.0303   -0.0005
          39   -0.0386   -0.0779   -0.0810    0.0297    0.1861    0.0016    0.1147   -0.0004
          40   -0.0309   -0.0568   -0.0307    0.0700    0.2264   -0.0152    0.0979    0.0017
          41   -0.0398   -0.0633   -0.1442   -0.1228   -0.1164    0.0698    0.0662   -0.0001
          42   -0.0252   -0.0413   -0.0565   -0.0214    0.0302    0.0205    0.0540   -0.0000
          43   -0.0039    0.0368    0.0017    0.0077   -0.0054    0.0140    0.0270   -0.1447
          44   -0.0525    0.0394    0.0044    0.0275   -0.0215    0.0174    0.0409    0.1001
          45    0.0049    0.0014    0.0003   -0.0019    0.0015    0.0019    0.0035   -0.0074
          46    0.0181    0.0518    0.0057    0.0257   -0.0230    0.0037    0.0494   -0.0562
          47   -0.0370    0.0079    0.0018    0.0168   -0.0116   -0.0015    0.0053    0.1652
          48    0.0034    0.0012    0.0006   -0.0009    0.0000    0.0012    0.0035   -0.0079


   Root No.      33        34        35        36        37        38        39        40

                33 A      34 A      35 A      36 A      37 A      38 A      39 A      40 A   

                2891.6    2972.2    2989.3    3055.2    3067.5    3081.5    3084.8    3115.0
  
           1    0.0230   -0.0005    0.0007    0.0004   -0.0006    0.0005    0.0002   -0.0001
           2    0.0255   -0.0004    0.0006    0.0002    0.0003    0.0006   -0.0002    0.0003
           3   -0.0567    0.0010   -0.0017    0.0000   -0.0003   -0.0013    0.0001    0.0001
           4    0.0009   -0.0006    0.0013    0.0032   -0.0213   -0.0007   -0.0000    0.0001
           5   -0.0001    0.0008   -0.0016   -0.0052    0.0285    0.0007   -0.0005    0.0001
           6    0.0044    0.0219   -0.0381    0.0007   -0.0038   -0.0004   -0.0004   -0.0000
           7   -0.0002    0.0014    0.0007   -0.0338   -0.0051   -0.0001   -0.0000   -0.0001
           8   -0.0001   -0.0006   -0.0004   -0.0139   -0.0016   -0.0000   -0.0000   -0.0002
           9   -0.0002   -0.0386   -0.0214   -0.0005   -0.0003   -0.0000    0.0000    0.0000
          10   -0.0014    0.0000   -0.0000   -0.0001   -0.0003    0.0255    0.0435    0.0000
          11   -0.0016   -0.0000    0.0000    0.0001   -0.0009    0.0278   -0.0366    0.0002
          12    0.0010   -0.0001    0.0001   -0.0001    0.0009   -0.0323    0.0028   -0.0003
          13   -0.0003    0.0000   -0.0000   -0.0003   -0.0004    0.0002    0.0001   -0.0372
          14    0.0009   -0.0000    0.0000    0.0003    0.0000   -0.0002    0.0004    0.0109
          15   -0.0001   -0.0002   -0.0002   -0.0000   -0.0000   -0.0001    0.0002   -0.0018
          16   -0.0003   -0.0000   -0.0000   -0.0005    0.0001   -0.0000   -0.0000    0.0002
          17   -0.0004   -0.0000   -0.0000    0.0017    0.0006    0.0001    0.0000   -0.0374
          18   -0.0003   -0.0000   -0.0001   -0.0001   -0.0000   -0.0000   -0.0000    0.0013
          19   -0.2775    0.0065   -0.0103    0.0004   -0.0027   -0.0038    0.0012   -0.0005
          20   -0.3037    0.0053   -0.0085   -0.0000   -0.0014   -0.0039   -0.0008    0.0014
          21    0.6912   -0.0120    0.0185   -0.0001    0.0041    0.0167   -0.0005   -0.0010
          22    0.0080    0.0669   -0.1158   -0.0198    0.1203    0.0016   -0.0033    0.0002
          23   -0.0145   -0.0837    0.1535    0.0242   -0.1576   -0.0031    0.0021    0.0000
          24   -0.0241   -0.1404    0.2468    0.0485   -0.3046   -0.0075    0.0047   -0.0002
          25   -0.0079   -0.0581    0.0984   -0.0233    0.1380    0.0040   -0.0008    0.0002
          26    0.0182    0.0745   -0.1345    0.0296   -0.1864   -0.0053    0.0008    0.0001
          27   -0.0291   -0.1219    0.2088   -0.0568    0.3492    0.0100   -0.0017    0.0001
          28   -0.0017   -0.1750   -0.0978    0.2219    0.0330    0.0005    0.0003    0.0035
          29   -0.0004   -0.0640   -0.0388    0.0814    0.0130    0.0002    0.0001   -0.0003
          30    0.0022    0.2213    0.1220   -0.3310   -0.0499   -0.0008   -0.0004   -0.0039
          31    0.0005    0.1580    0.0891    0.1821    0.0290    0.0007    0.0002    0.0027
          32   -0.0004    0.0720    0.0435    0.0864    0.0150    0.0004    0.0001   -0.0003
          33    0.0004    0.2439    0.1357    0.3366    0.0535    0.0012    0.0003    0.0037
          34   -0.0050   -0.0001    0.0001    0.0003   -0.0026    0.0739   -0.1104    0.0001
          35    0.0101    0.0001    0.0003   -0.0008    0.0065   -0.1982    0.4431   -0.0001
          36   -0.0036    0.0000   -0.0000    0.0000   -0.0002   -0.0011   -0.0327   -0.0000
          37    0.0111   -0.0019    0.0036    0.0009    0.0013   -0.2373   -0.4376   -0.0001
          38   -0.0028    0.0001   -0.0001   -0.0000   -0.0005    0.0280    0.0067    0.0005
          39   -0.0034    0.0000    0.0000   -0.0000    0.0005   -0.0105    0.0131    0.0000
          40    0.0080   -0.0004    0.0008   -0.0002    0.0040   -0.1404    0.0282   -0.0012
          41    0.0097   -0.0002    0.0005   -0.0003    0.0048   -0.1616   -0.0118   -0.0013
          42   -0.0143    0.0002   -0.0005    0.0007   -0.0119    0.3988   -0.0146    0.0031
          43    0.0055   -0.0001    0.0002    0.0092    0.0097   -0.0023    0.0009    0.4400
          44   -0.0000   -0.0000   -0.0000   -0.0024   -0.0031    0.0009    0.0004   -0.1338
          45   -0.0012   -0.0003   -0.0003    0.0004    0.0005   -0.0002    0.0003    0.0210
          46   -0.0003    0.0001    0.0000   -0.0017    0.0001    0.0000   -0.0000   -0.0025
          47   -0.0040    0.0003    0.0001   -0.0171   -0.0118   -0.0013   -0.0005    0.4457
          48   -0.0006   -0.0008   -0.0006    0.0005    0.0004    0.0001   -0.0001   -0.0150


   Root No.      41        42

                41 A      42 A   

                3134.1    3180.2
  
           1    0.0006   -0.0003
           2    0.0008   -0.0004
           3   -0.0003   -0.0003
           4   -0.0010   -0.0001
           5    0.0014    0.0002
           6   -0.0001    0.0002
           7   -0.0022    0.0000
           8   -0.0007    0.0000
           9   -0.0000    0.0000
          10    0.0000   -0.0098
          11   -0.0002   -0.0129
          12    0.0001   -0.0184
          13    0.0398    0.0002
          14   -0.0063    0.0000
          15    0.0017    0.0000
          16   -0.0052   -0.0000
          17   -0.0411   -0.0000
          18    0.0012   -0.0000
          19   -0.0007    0.0002
          20   -0.0023    0.0002
          21    0.0037   -0.0022
          22    0.0027    0.0003
          23   -0.0036   -0.0017
          24   -0.0070   -0.0030
          25    0.0031    0.0003
          26   -0.0042   -0.0004
          27    0.0080    0.0009
          28    0.0096    0.0000
          29    0.0022    0.0000
          30   -0.0130   -0.0001
          31    0.0077   -0.0000
          32    0.0024   -0.0000
          33    0.0131   -0.0001
          34   -0.0000   -0.0936
          35   -0.0001    0.3062
          36   -0.0000   -0.0312
          37   -0.0012    0.3222
          38   -0.0005   -0.0236
          39   -0.0001   -0.0165
          40    0.0009   -0.1086
          41    0.0009   -0.1249
          42   -0.0020    0.2738
          43   -0.4029   -0.0023
          44    0.1199    0.0004
          45   -0.0192   -0.0002
          46    0.0002    0.0000
          47    0.4342    0.0001
          48   -0.0145   -0.0000


           MASS-WEIGHTED COORDINATE ANALYSIS (NORMAL COORDINATES)


   Root No.       1         2         3         4         5         6         7         8

                 1 A       2 A       3 A       4 A       5 A       6 A       7 A       8 A   

                  90.4     194.8     276.7     379.1     496.0     657.8     754.7     770.7
  
           1    0.0490   -0.0393   -0.1120   -0.2223   -0.0433    0.3271    0.1246   -0.0414
           2    0.0526    0.0181    0.1408    0.1518   -0.0163    0.2552   -0.1692   -0.1927
           3   -0.0934    0.0296   -0.2203    0.1654   -0.3566   -0.2547    0.0278    0.1702
           4    0.0479   -0.0395   -0.1159   -0.2366   -0.0199    0.2291   -0.0690   -0.1381
           5    0.0492   -0.0284    0.0278   -0.0618    0.1326   -0.3254   -0.2319   -0.0432
           6   -0.3673    0.0849    0.0021   -0.2499    0.0935   -0.0312    0.0533   -0.0229
           7    0.0288    0.0121    0.0361   -0.0585    0.1036   -0.2883   -0.3687   -0.1187
           8    0.0551   -0.0476   -0.0223   -0.1570    0.1258   -0.2660   -0.0132    0.0639
           9    0.4010    0.0245   -0.1763   -0.0227    0.0656   -0.0304    0.0829   -0.1973
          10   -0.1957    0.0130    0.0698    0.4345   -0.2050    0.1123   -0.0156    0.0051
          11   -0.2268    0.0417   -0.3536   -0.1034   -0.3127    0.1333   -0.1137   -0.0359
          12    0.2297   -0.0155    0.0380    0.0126   -0.1743    0.1252   -0.0853    0.0355
          13    0.0514    0.0091    0.0220   -0.0900    0.0981   -0.1978    0.3724    0.2862
          14    0.0446    0.0285    0.1805    0.2101    0.0640    0.1751    0.0543   -0.0900
          15   -0.2637   -0.0378   -0.1592    0.2783    0.3931   -0.0044    0.1228   -0.2043
          16    0.0450    0.0401    0.0812    0.0557    0.1121   -0.1762   -0.0017    0.0410
          17    0.0530   -0.0108    0.1077    0.0324    0.0792    0.0841    0.5493    0.2420
          18    0.0399   -0.0867    0.4931   -0.1393   -0.1839   -0.0459    0.0409   -0.1122
          19    0.0695   -0.0204   -0.0668   -0.0704   -0.0176    0.1218   -0.0099   -0.0544
          20    0.0807    0.0029    0.1080    0.0364   -0.0779    0.1232   -0.0741    0.0228
          21    0.0252    0.0034   -0.0443    0.0393   -0.1322   -0.0363   -0.0219    0.0660
          22   -0.0396   -0.0099   -0.0003   -0.1612    0.0959    0.1670   -0.0232   -0.0543
          23    0.1730   -0.0237   -0.0560    0.0587   -0.0253   -0.2008    0.0281   -0.0889
          24   -0.2275    0.0346    0.0550   -0.1667    0.1173    0.1023   -0.0490    0.0353
          25    0.0682   -0.0260   -0.0964    0.0001   -0.1193   -0.0419    0.0640    0.0186
          26   -0.1428   -0.0007    0.0490   -0.1301    0.1091   -0.0287   -0.1251    0.0986
          27   -0.2272    0.0358    0.0547   -0.1734    0.1236    0.0877   -0.0585    0.0363
          28    0.1447    0.0212   -0.1578    0.0672    0.1525   -0.0132   -0.2349    0.2069
          29    0.1100   -0.0351   -0.0147   -0.0471    0.0082   -0.0396   -0.0786    0.0169
          30    0.2480    0.0146   -0.1849    0.0588    0.1081    0.0613   -0.0966    0.1378
          31   -0.1391   -0.0100    0.2064   -0.0844   -0.0906   -0.1964    0.0320   -0.2829
          32   -0.0783   -0.0037   -0.0373   -0.0984    0.0544   -0.0812   -0.0195   -0.0337
          33    0.2372    0.0127   -0.1678    0.0529    0.0936    0.0652   -0.0673    0.1218
          34   -0.0281    0.4673    0.1210    0.2327   -0.0383    0.0211   -0.0468   -0.0313
          35   -0.0558    0.1215   -0.0714    0.0010   -0.0825    0.0391   -0.0473   -0.0237
          36    0.1088   -0.3213    0.1165    0.0953    0.0474    0.1191   -0.0715   -0.1219
          37   -0.0574   -0.0139    0.0166    0.1239   -0.0610    0.0330   -0.0034    0.0037
          38   -0.0905   -0.4574   -0.2087   -0.1476   -0.1189    0.0595    0.0048    0.0289
          39    0.1495    0.3056    0.0172   -0.1701    0.0157    0.1624    0.0119   -0.0517
          40   -0.1416   -0.4230   -0.0236    0.2372   -0.1283   -0.0634   -0.0289    0.0685
          41   -0.1173    0.3770   -0.1712   -0.0402   -0.1994   -0.0617   -0.0223    0.1199
          42    0.0163   -0.0084   -0.0304    0.0365   -0.1137   -0.0344   -0.0287    0.0822
          43    0.0180    0.0065    0.0183   -0.0155    0.0267   -0.0903    0.0909    0.0641
          44    0.0098    0.0184    0.0845    0.1111    0.0597   -0.0320   -0.0766   -0.0383
          45   -0.1605   -0.0209   -0.0892    0.1872    0.4055    0.1908   -0.1634    0.2696
          46    0.0145    0.0235    0.0474    0.0754    0.0224    0.0409    0.0153   -0.0566
          47    0.0154   -0.0040    0.0383    0.0071    0.0219    0.0276    0.1500    0.0905
          48    0.0160   -0.0528    0.3509   -0.1127   -0.1041    0.1159   -0.2917    0.5672


   Root No.       9        10        11        12        13        14        15        16

                 9 A      10 A      11 A      12 A      13 A      14 A      15 A      16 A   

                 821.6     924.0     936.5     956.2     996.2    1021.2    1044.2    1058.2
  
           1    0.0382   -0.1276   -0.0844   -0.1042    0.0249    0.0795   -0.1336   -0.0506
           2    0.0373   -0.0106   -0.0465    0.1043   -0.0471    0.1406   -0.0280   -0.0668
           3   -0.0425    0.1325    0.0217   -0.0352   -0.0530   -0.1210    0.0387   -0.1666
           4    0.0668    0.4599    0.1245    0.1205   -0.0415   -0.0264    0.0646   -0.0517
           5   -0.0224   -0.1430   -0.0694   -0.2186    0.1036   -0.1532   -0.2802    0.0037
           6    0.2848    0.1391   -0.1931    0.0039   -0.1588    0.0256   -0.0919   -0.0594
           7   -0.0013   -0.0625   -0.0244    0.0587   -0.0704    0.2652    0.0273   -0.2127
           8   -0.0074   -0.0123    0.0401    0.1181   -0.0664    0.0966    0.2079    0.0376
           9    0.1948   -0.1178    0.1915   -0.0011    0.2415   -0.0587    0.1031   -0.1208
          10   -0.0029   -0.2353   -0.1354   -0.2071   -0.0910   -0.0105    0.1808    0.0627
          11   -0.0152   -0.1866   -0.0871    0.2790    0.0052   -0.2077   -0.0245    0.0657
          12   -0.0523   -0.1443    0.1043   -0.0020    0.1076    0.0396    0.0059    0.1708
          13   -0.0435   -0.1710    0.0193    0.2064   -0.0189   -0.0662    0.0319    0.1453
          14    0.0159    0.2598    0.0162   -0.2296    0.0391    0.0072    0.0248   -0.1036
          15   -0.1812    0.1106   -0.2559    0.0465    0.2094    0.1940    0.1355   -0.0147
          16   -0.0170    0.0119    0.0050   -0.0466    0.0350   -0.1208    0.0415    0.1276
          17   -0.0356   -0.0033    0.0124    0.0346    0.0141    0.1012   -0.0949   -0.1965
          18   -0.1932    0.0016    0.0821   -0.0340   -0.3661    0.0108   -0.2260    0.2118
          19   -0.0733   -0.0203    0.0640   -0.1627    0.2822   -0.0289   -0.2826   -0.0820
          20    0.0732    0.0245    0.1731    0.1242   -0.1964    0.4027    0.0492    0.0536
          21   -0.0198    0.0465    0.1208   -0.0196    0.0159    0.1028   -0.0600   -0.0400
          22   -0.1192    0.0529    0.2174    0.0365    0.2585   -0.0242    0.0558    0.2175
          23    0.3178    0.0025   -0.1081   -0.0488    0.0853   -0.0313   -0.1320    0.1939
          24   -0.1896   -0.0246    0.0875   -0.0062    0.0471   -0.0116    0.0257   -0.0268
          25    0.1720    0.3712   -0.1120   -0.0163   -0.2664   -0.2115   -0.1178   -0.2059
          26   -0.3252   -0.0044    0.0862   -0.1209   -0.0041   -0.2520   -0.1087   -0.1026
          27   -0.1919   -0.0457    0.0809   -0.0137    0.0518   -0.0278    0.0171   -0.0021
          28   -0.1864    0.0443   -0.2150   -0.0038   -0.1602    0.2173   -0.2301    0.0008
          29   -0.1979    0.0672    0.1906    0.0623   -0.1633   -0.1952    0.4632   -0.1422
          30   -0.1522    0.0353   -0.0564   -0.0060   -0.0854    0.0270   -0.0361   -0.0287
          31    0.1920   -0.1839    0.1773   -0.0069    0.1586    0.0324    0.0739   -0.3572
          32    0.2224    0.1576   -0.0956    0.0913    0.0559    0.1184    0.0193    0.5360
          33   -0.1403    0.0276   -0.0328   -0.0051   -0.0704   -0.0164   -0.0043   -0.0073
          34   -0.0358   -0.0080    0.0189    0.2982    0.0677   -0.1225   -0.1032    0.0232
          35   -0.0129   -0.0430   -0.0155    0.1914    0.0249   -0.1012   -0.0505    0.0221
          36   -0.0144   -0.1261   -0.1579    0.4253    0.0058   -0.2991   -0.0630    0.0212
          37   -0.0009   -0.0714   -0.0372   -0.0698   -0.0259    0.0021    0.0548    0.0214
          38    0.0299   -0.1542   -0.0738   -0.3005   -0.0843    0.0728    0.1612    0.0634
          39    0.0472   -0.2701   -0.2543   -0.2653   -0.1573   -0.0622    0.2397    0.0566
          40   -0.0539    0.0736    0.2008    0.0662    0.1343    0.0903   -0.1067    0.0607
          41   -0.0306    0.0489    0.2340   -0.1366    0.0962    0.2065   -0.0320    0.0970
          42   -0.0436    0.0442    0.2088   -0.0402    0.1218    0.1420   -0.0599    0.0955
          43   -0.0321    0.0065    0.0026    0.0283    0.0072   -0.0725    0.1101    0.1275
          44    0.0185    0.2266    0.0780   -0.1755   -0.0031   -0.1966    0.3213    0.2403
          45    0.4376   -0.2103    0.4459   -0.0304   -0.2674   -0.1566   -0.1093   -0.0063
          46   -0.0017    0.1654    0.0123   -0.2654    0.1028   -0.2996   -0.1877    0.1227
          47   -0.0008    0.0059   -0.0053    0.0101    0.0215    0.0282   -0.0178   -0.0641
          48    0.2314    0.1030   -0.2721    0.0374    0.4052   -0.0095    0.1699   -0.1349


   Root No.      17        18        19        20        21        22        23        24

                17 A      18 A      19 A      20 A      21 A      22 A      23 A      24 A   

                1082.2    1100.6    1115.6    1129.2    1153.0    1234.9    1260.7    1305.8
  
           1    0.0491    0.0016    0.0087    0.1775   -0.1535    0.1918   -0.2478    0.5887
           2    0.0671    0.0447   -0.0045    0.0725   -0.1411   -0.2432   -0.1687   -0.0879
           3   -0.0519    0.0913    0.0779    0.0445    0.4102   -0.1240   -0.2442    0.1959
           4   -0.0299   -0.0459   -0.0686   -0.2134    0.1346   -0.0507   -0.2886   -0.3735
           5    0.2061   -0.0044   -0.2136   -0.0424   -0.0159   -0.0655   -0.3525   -0.1752
           6    0.0547   -0.2773   -0.0783    0.2024   -0.1317    0.0225    0.0742   -0.0597
           7   -0.1925   -0.0553    0.1673   -0.0436    0.0654    0.0073    0.0823    0.0200
           8   -0.1073    0.0031    0.2123    0.0709    0.0119    0.3164    0.1554    0.0559
           9   -0.0211    0.2959    0.0501   -0.1045   -0.0498    0.0027   -0.0127    0.0006
          10   -0.0155    0.0392    0.0072   -0.0617    0.0479   -0.0338    0.0714   -0.1049
          11   -0.0293   -0.0079   -0.0109   -0.0137    0.0320    0.0823    0.0505    0.0288
          12   -0.0662   -0.1639    0.0082   -0.1845   -0.2879    0.0385    0.0300    0.0023
          13    0.1163    0.0567   -0.1045    0.0492   -0.0760   -0.1046   -0.0574   -0.1397
          14   -0.1498   -0.0524    0.0941   -0.0288    0.0460   -0.1871    0.0880    0.2294
          15    0.1821    0.0452   -0.0679   -0.0126   -0.0793    0.0433    0.0320   -0.0269
          16    0.0934    0.0326    0.0135    0.0705   -0.0756   -0.2454    0.0517    0.0936
          17   -0.1459   -0.0729    0.0456   -0.1252    0.1250    0.0662    0.0190   -0.1220
          18   -0.1079   -0.0277    0.0241    0.0162    0.0536   -0.0241   -0.0110    0.0117
          19   -0.2243    0.0870   -0.0097    0.6273    0.0336   -0.0988    0.2642   -0.2638
          20    0.5315    0.2834   -0.2096    0.1196    0.1565    0.1961    0.0894    0.0172
          21    0.1141    0.1778   -0.0716    0.2877    0.2415    0.0203    0.1275   -0.0998
          22    0.0454   -0.2066   -0.1805   -0.2091    0.4229   -0.1456    0.3054    0.1581
          23    0.1761   -0.3544   -0.2413   -0.0086    0.1562   -0.1269    0.2082    0.2011
          24   -0.0251    0.0452    0.0123   -0.0095    0.0453    0.0065    0.0119   -0.0423
          25    0.0418    0.2221   -0.1440   -0.1506   -0.2879   -0.0203    0.4134    0.0246
          26    0.1001    0.3756   -0.1129   -0.2054   -0.1294   -0.0805    0.1927    0.1870
          27    0.0135    0.0433    0.0012   -0.0147    0.0366   -0.0262   -0.0216    0.0613
          28   -0.1751   -0.0871   -0.0298   -0.0960    0.1319    0.1877    0.1184    0.0248
          29    0.2425   -0.3128    0.2081    0.3046   -0.1499   -0.1811    0.0854    0.0510
          30   -0.0189   -0.0566   -0.0048   -0.0068    0.0217    0.0585    0.0699    0.0216
          31   -0.0528    0.0188   -0.0384   -0.1251    0.0447    0.2018    0.1259    0.0227
          32   -0.1478    0.3692    0.3774    0.0191   -0.0084   -0.1969    0.0330    0.0678
          33    0.0264   -0.0459   -0.0227    0.0369   -0.0253   -0.0332   -0.0544   -0.0233
          34   -0.0224   -0.0227   -0.0082    0.0261   -0.0369    0.0836    0.0697   -0.0135
          35   -0.0106   -0.0091   -0.0090    0.0098    0.0004    0.0556    0.0415   -0.0038
          36   -0.0410    0.0049   -0.0078    0.0166    0.0619    0.1165    0.1205   -0.0844
          37   -0.0042    0.0119    0.0005   -0.0163    0.0103   -0.0069    0.0327   -0.0425
          38    0.0148    0.0114   -0.0133   -0.0742    0.0020   -0.0211    0.1139   -0.1727
          39   -0.0060    0.0461   -0.0079   -0.0840    0.1153   -0.0178    0.1727   -0.2109
          40   -0.0184   -0.0838   -0.0038   -0.0193   -0.1864    0.0492    0.0600   -0.0283
          41    0.0134   -0.0952   -0.0131   -0.0853   -0.2372    0.0315    0.0723   -0.1219
          42   -0.0167   -0.1173   -0.0037   -0.0890   -0.2454    0.0362    0.0527   -0.0594
          43   -0.0431    0.0420   -0.1722    0.0770   -0.0410    0.1094   -0.0638   -0.0431
          44   -0.3294    0.0629   -0.4294    0.1878   -0.0278    0.4071   -0.1257    0.0562
          45   -0.0819   -0.0071    0.0467    0.0020    0.0518   -0.0304   -0.0197    0.0067
          46    0.3806   -0.0815    0.5047   -0.0403    0.1065    0.4525    0.0151   -0.1293
          47   -0.0416   -0.0212    0.0184   -0.0374    0.0379    0.0230    0.0084   -0.0368
          48    0.0712    0.0353    0.0096   -0.0065   -0.0100    0.0114   -0.0044    0.0024


   Root No.      25        26        27        28        29        30        31        32

                25 A      26 A      27 A      28 A      29 A      30 A      31 A      32 A   

                1350.9    1375.8    1403.4    1407.2    1411.6    1421.7    1424.0    1831.4
  
           1   -0.0757   -0.1006    0.0057   -0.0447    0.0139    0.1286    0.0921    0.0214
           2    0.3160    0.3791    0.0248   -0.0737    0.0065    0.1617    0.4348    0.0533
           3    0.0612    0.0084    0.0234   -0.0872    0.0291    0.1090    0.1926    0.0005
           4   -0.0187   -0.0267   -0.0138   -0.1461    0.0686   -0.2414   -0.0741    0.0140
           5   -0.1253   -0.1298    0.0034    0.0854    0.0461    0.2401   -0.1924   -0.0187
           6   -0.0060    0.0009   -0.0028    0.0087   -0.0027   -0.0229   -0.0290    0.0003
           7   -0.2473   -0.0593    0.0349    0.3633   -0.2582   -0.0516    0.2059   -0.0570
           8    0.5277   -0.1546   -0.0056   -0.1040    0.0143   -0.1403    0.0194   -0.0036
           9   -0.0205   -0.0027    0.0021    0.0164   -0.0105   -0.0017    0.0088   -0.0014
          10    0.0432    0.1018   -0.1704    0.0100   -0.1922   -0.0512   -0.1611   -0.0033
          11   -0.0088    0.0572   -0.1418    0.2262    0.0913   -0.1319   -0.2085    0.0074
          12    0.0578    0.1775    0.1301    0.1587   -0.1026   -0.1317   -0.2971    0.0016
          13    0.0722    0.1285   -0.0002   -0.0268    0.0227    0.0385    0.0529   -0.5053
          14   -0.0424   -0.3138   -0.0173   -0.0935    0.0663   -0.0846   -0.2380   -0.4669
          15   -0.0115    0.0042   -0.0005    0.0105   -0.0052   -0.0072   -0.0147   -0.0020
          16    0.2020   -0.2039   -0.0196   -0.1629    0.1085   -0.0390   -0.1904    0.5949
          17   -0.2756    0.0783    0.0109    0.1451   -0.0884   -0.0038    0.0471    0.3469
          18    0.0187   -0.0059   -0.0005   -0.0124    0.0074    0.0024   -0.0010    0.0069
          19    0.0476    0.0757   -0.0088    0.0043   -0.0245   -0.0693   -0.0227   -0.0171
          20   -0.1125   -0.0903   -0.0074    0.0472   -0.0027   -0.0418   -0.1205    0.0178
          21   -0.0454   -0.0441   -0.0021    0.0131   -0.0060   -0.0501   -0.0727   -0.0035
          22    0.1552    0.0424    0.0211    0.1609   -0.0617    0.3307    0.0655    0.0007
          23   -0.0927    0.1437   -0.0111   -0.0885   -0.0507   -0.3045    0.1849   -0.0016
          24    0.0956   -0.0728    0.0155    0.1416   -0.0008    0.3502   -0.0973   -0.0049
          25    0.1032    0.0280    0.0150    0.1793   -0.0542    0.2603   -0.0038    0.0008
          26   -0.1161    0.1361   -0.0085   -0.0875   -0.0475   -0.3174    0.1770   -0.0019
          27   -0.0872    0.0778   -0.0127   -0.1435   -0.0047   -0.3372    0.1097    0.0046
          28   -0.0322    0.2287   -0.0244   -0.2413    0.1853    0.1027   -0.1233   -0.0206
          29   -0.3182    0.1598   -0.0059   -0.0177    0.0527    0.1251   -0.0638    0.0217
          30   -0.0944    0.2147   -0.0234   -0.2241    0.1827    0.1189   -0.1356   -0.0017
          31   -0.0460    0.2463   -0.0265   -0.2608    0.2021    0.1107   -0.1387   -0.0186
          32   -0.3051    0.1545   -0.0038   -0.0193    0.0512    0.1275   -0.0505    0.0215
          33    0.0973   -0.1960    0.0210    0.2009   -0.1654   -0.1122    0.1230   -0.0012
          34   -0.1056   -0.1583    0.6239   -0.0889    0.1110    0.0137    0.0683   -0.0010
          35   -0.0538   -0.0687    0.1455   -0.0170    0.0301   -0.0038   -0.0028    0.0034
          36   -0.1829   -0.2950   -0.2698   -0.3296   -0.2432    0.1503    0.1263   -0.0006
          37    0.0001    0.0043    0.0067   -0.0075   -0.0217   -0.0090   -0.0155   -0.0015
          38   -0.0580   -0.1035    0.5798   -0.2459   -0.1398    0.0703    0.0745   -0.0005
          39   -0.0881   -0.2098   -0.1495    0.0803    0.4520    0.0037    0.2817   -0.0003
          40   -0.0705   -0.1530   -0.0566    0.1888    0.5498   -0.0359    0.2404    0.0014
          41   -0.0909   -0.1706   -0.2660   -0.3313   -0.2827    0.1650    0.1626   -0.0001
          42   -0.0576   -0.1112   -0.1043   -0.0578    0.0734    0.0485    0.1326   -0.0000
          43   -0.0089    0.0991    0.0032    0.0207   -0.0132    0.0332    0.0664   -0.1207
          44   -0.1199    0.1063    0.0081    0.0741   -0.0522    0.0413    0.1004    0.0835
          45    0.0112    0.0037    0.0005   -0.0052    0.0037    0.0046    0.0087   -0.0062
          46    0.0412    0.1397    0.0106    0.0693   -0.0559    0.0087    0.1212   -0.0469
          47   -0.0846    0.0213    0.0033    0.0454   -0.0281   -0.0035    0.0130    0.1378
          48    0.0077    0.0032    0.0011   -0.0024    0.0000    0.0028    0.0087   -0.0066


   Root No.      33        34        35        36        37        38        39        40

                33 A      34 A      35 A      36 A      37 A      38 A      39 A      40 A   

                2891.6    2972.2    2989.3    3055.2    3067.5    3081.5    3084.8    3115.0
  
           1    0.0948   -0.0032    0.0050    0.0021   -0.0034    0.0032    0.0013   -0.0003
           2    0.1052   -0.0030    0.0045    0.0014    0.0017    0.0036   -0.0011    0.0014
           3   -0.2336    0.0072   -0.0115    0.0001   -0.0018   -0.0077    0.0003    0.0003
           4    0.0039   -0.0043    0.0090    0.0189   -0.1279   -0.0039   -0.0001    0.0004
           5   -0.0006    0.0052   -0.0111   -0.0305    0.1710    0.0040   -0.0024    0.0004
           6    0.0183    0.1504   -0.2647    0.0041   -0.0225   -0.0022   -0.0022   -0.0000
           7   -0.0009    0.0100    0.0049   -0.1990   -0.0307   -0.0007   -0.0002   -0.0008
           8   -0.0006   -0.0044   -0.0030   -0.0818   -0.0094   -0.0002   -0.0000   -0.0010
           9   -0.0009   -0.2654   -0.1489   -0.0027   -0.0019   -0.0002    0.0002    0.0002
          10   -0.0057    0.0001   -0.0003   -0.0003   -0.0021    0.1516    0.2263    0.0002
          11   -0.0066   -0.0002    0.0002    0.0005   -0.0054    0.1651   -0.1905    0.0009
          12    0.0041   -0.0005    0.0010   -0.0004    0.0056   -0.1923    0.0146   -0.0013
          13   -0.0011    0.0001   -0.0001   -0.0015   -0.0024    0.0012    0.0003   -0.1923
          14    0.0037   -0.0000    0.0002    0.0015    0.0001   -0.0012    0.0019    0.0565
          15   -0.0002   -0.0011   -0.0011   -0.0001   -0.0001   -0.0006    0.0009   -0.0091
          16   -0.0014   -0.0002   -0.0001   -0.0028    0.0004   -0.0000   -0.0002    0.0008
          17   -0.0015   -0.0002   -0.0001    0.0097    0.0038    0.0004    0.0002   -0.1935
          18   -0.0011   -0.0002   -0.0006   -0.0004   -0.0002   -0.0001   -0.0000    0.0065
          19   -0.3311    0.0129   -0.0206    0.0006   -0.0047   -0.0066    0.0018   -0.0008
          20   -0.3624    0.0106   -0.0171   -0.0001   -0.0025   -0.0067   -0.0012    0.0021
          21    0.8246   -0.0239    0.0373   -0.0002    0.0072    0.0288   -0.0007   -0.0016
          22    0.0096    0.1332   -0.2331   -0.0338    0.2089    0.0027   -0.0050    0.0004
          23   -0.0173   -0.1666    0.3089    0.0412   -0.2736   -0.0054    0.0032    0.0000
          24   -0.0288   -0.2797    0.4967    0.0826   -0.5288   -0.0128    0.0071   -0.0003
          25   -0.0094   -0.1158    0.1981   -0.0396    0.2396    0.0070   -0.0013    0.0003
          26    0.0217    0.1485   -0.2707    0.0504   -0.3237   -0.0092    0.0011    0.0001
          27   -0.0347   -0.2428    0.4203   -0.0968    0.6064    0.0173   -0.0026    0.0002
          28   -0.0021   -0.3485   -0.1968    0.3782    0.0573    0.0008    0.0004    0.0052
          29   -0.0005   -0.1274   -0.0780    0.1387    0.0226    0.0003    0.0001   -0.0004
          30    0.0027    0.4408    0.2455   -0.5642   -0.0867   -0.0014   -0.0006   -0.0059
          31    0.0006    0.3148    0.1793    0.3105    0.0504    0.0012    0.0002    0.0040
          32   -0.0005    0.1434    0.0876    0.1474    0.0261    0.0007    0.0001   -0.0004
          33    0.0005    0.4858    0.2731    0.5738    0.0930    0.0021    0.0004    0.0055
          34   -0.0059   -0.0003    0.0003    0.0005   -0.0046    0.1274   -0.1662    0.0002
          35    0.0121    0.0002    0.0006   -0.0014    0.0113   -0.3415    0.6671   -0.0001
          36   -0.0044    0.0001   -0.0001    0.0001   -0.0003   -0.0019   -0.0492   -0.0000
          37    0.0133   -0.0039    0.0072    0.0016    0.0022   -0.4089   -0.6588   -0.0001
          38   -0.0033    0.0001   -0.0003   -0.0000   -0.0009    0.0483    0.0101    0.0008
          39   -0.0041    0.0000    0.0001   -0.0001    0.0008   -0.0180    0.0198    0.0001
          40    0.0095   -0.0008    0.0016   -0.0004    0.0070   -0.2419    0.0425   -0.0018
          41    0.0115   -0.0004    0.0011   -0.0005    0.0083   -0.2785   -0.0178   -0.0020
          42   -0.0171    0.0003   -0.0011    0.0012   -0.0207    0.6873   -0.0220    0.0047
          43    0.0066   -0.0001    0.0004    0.0157    0.0168   -0.0039    0.0014    0.6592
          44   -0.0001   -0.0001   -0.0000   -0.0041   -0.0055    0.0016    0.0006   -0.2005
          45   -0.0014   -0.0007   -0.0006    0.0007    0.0008   -0.0003    0.0004    0.0314
          46   -0.0003    0.0002    0.0001   -0.0029    0.0001    0.0000   -0.0000   -0.0038
          47   -0.0047    0.0007    0.0002   -0.0292   -0.0206   -0.0022   -0.0007    0.6677
          48   -0.0007   -0.0016   -0.0012    0.0009    0.0007    0.0001   -0.0001   -0.0224


   Root No.      41        42

                41 A      42 A   

                3134.1    3180.2
  
           1    0.0032   -0.0018
           2    0.0046   -0.0024
           3   -0.0015   -0.0020
           4   -0.0057   -0.0003
           5    0.0075    0.0010
           6   -0.0005    0.0010
           7   -0.0120    0.0000
           8   -0.0038    0.0000
           9   -0.0002    0.0001
          10    0.0002   -0.0599
          11   -0.0008   -0.0790
          12    0.0006   -0.1129
          13    0.2153    0.0012
          14   -0.0344    0.0002
          15    0.0090    0.0001
          16   -0.0281   -0.0001
          17   -0.2225   -0.0001
          18    0.0066   -0.0000
          19   -0.0010    0.0004
          20   -0.0036    0.0003
          21    0.0058   -0.0039
          22    0.0043    0.0006
          23   -0.0057   -0.0030
          24   -0.0110   -0.0053
          25    0.0049    0.0005
          26   -0.0066   -0.0007
          27    0.0126    0.0016
          28    0.0150    0.0001
          29    0.0034    0.0001
          30   -0.0204   -0.0001
          31    0.0121   -0.0000
          32    0.0038   -0.0000
          33    0.0206   -0.0001
          34   -0.0001   -0.1661
          35   -0.0001    0.5432
          36   -0.0001   -0.0554
          37   -0.0018    0.5716
          38   -0.0008   -0.0419
          39   -0.0002   -0.0292
          40    0.0014   -0.1927
          41    0.0014   -0.2215
          42   -0.0032    0.4858
          43   -0.6320   -0.0041
          44    0.1880    0.0007
          45   -0.0301   -0.0004
          46    0.0003    0.0000
          47    0.6811    0.0002
          48   -0.0227   -0.0001


          DESCRIPTION OF VIBRATIONS


 VIBRATION    1    1A         ATOM PAIR      ENERGY CONTRIBUTION    RADIAL
 FREQ.        90.45         C  2 -- C  3         +18.2% (698.4%)      0.0%
 T-DIPOLE    0.0398         C  1 -- C  4          +9.0% (490.7%)      0.0%
 TRAVEL      0.0415         C  3 -- H 10          +9.0% (490.3%)     99.7%
 RED. MASS   0.9047         C  3 -- C  6          +8.8% (485.4%)      0.0%
 EFF. MASS 433.1199

 VIBRATION    2    2A         ATOM PAIR      ENERGY CONTRIBUTION    RADIAL
 FREQ.       194.84         C  4 -- H 12         +31.9% (312.7%)      0.3%
[...]
 EFF. MASS   3.5837

 VIBRATION   21   21A         ATOM PAIR      ENERGY CONTRIBUTION    RADIAL
 FREQ.      1153.01         C  1 -- C  4         +17.5% ( 56.4%)     23.8%
 T-DIPOLE    0.0966         C  1 -- C  2         +13.6% ( 49.8%)     21.2%
 TRAVEL      0.1024         C  1 -- C  5         +11.7% ( 46.2%)     12.2%
 RED. MASS   0.7380         C  2 -- H  8         +11.0% ( 44.7%)      9.9%
 EFF. MASS   5.5809

 VIBRATION   22   22A         ATOM PAIR      ENERGY CONTRIBUTION    RADIAL
 FREQ.      1234.93         C  6 -- H 16         +17.0% ( 51.9%)      0.4%
 T-DIPOLE    0.0398         C  5 -- H 15         +14.6% ( 48.1%)      0.3%
 TRAVEL      0.1180         C  3 -- H 11          +9.5% ( 38.7%)      0.9%
 RED. MASS   0.4402         C  1 -- H  7          +9.0% ( 37.8%)      1.1%
 EFF. MASS   3.9234

 VIBRATION   23   23A         ATOM PAIR      ENERGY CONTRIBUTION    RADIAL
 FREQ.      1260.67         C  2 -- H  9         +20.3% ( 59.9%)      1.0%
 T-DIPOLE    0.0410         C  2 -- H  8         +17.3% ( 55.3%)      0.0%
 TRAVEL      0.1028         C  1 -- H  7         +12.8% ( 47.6%)      0.4%
 RED. MASS   0.9037         C  1 -- C  2         +11.6% ( 45.3%)      1.2%
 EFF. MASS   5.0628         C  2 -- C  3         +11.5% ( 45.1%)     86.8%

 VIBRATION   24   24A         ATOM PAIR      ENERGY CONTRIBUTION    RADIAL
 FREQ.      1305.84         C  1 -- C  2         +21.1% ( 68.0%)     92.7%
 T-DIPOLE    0.0714         C  1 -- H  7         +16.8% ( 60.7%)      0.0%
 TRAVEL      0.0793         C  1 -- C  5         +16.6% ( 60.2%)     36.6%
 RED. MASS   2.3066         C  1 -- C  4         +12.5% ( 52.4%)     23.7%
 EFF. MASS   8.2116

 VIBRATION   25   25A         ATOM PAIR      ENERGY CONTRIBUTION    RADIAL
 FREQ.      1350.90         C  3 -- C  6         +20.9% ( 64.0%)     75.9%
 T-DIPOLE    0.0558         C  3 -- H 10         +16.8% ( 57.4%)      0.0%
 TRAVEL      0.0827         C  3 -- H 11         +16.5% ( 56.8%)      0.0%
 RED. MASS   1.7303         C  2 -- C  3         +12.4% ( 49.4%)     66.1%
 EFF. MASS   7.2989

 VIBRATION   26   26A         ATOM PAIR      ENERGY CONTRIBUTION    RADIAL
 FREQ.      1375.79         C  1 -- C  5         +17.6% ( 51.5%)     99.3%
 T-DIPOLE    0.0739         C  4 -- H 12          +8.3% ( 35.4%)      0.3%
 TRAVEL      0.0978         C  1 -- H  7          +8.1% ( 34.9%)      2.0%
 RED. MASS   0.5620         C  1 -- C  2          +7.9% ( 34.5%)      2.1%
 EFF. MASS   5.1223

 VIBRATION   27   27A         ATOM PAIR      ENERGY CONTRIBUTION    RADIAL
 FREQ.      1403.42         C  4 -- H 12         +48.0% ( 60.4%)      0.9%
 T-DIPOLE    0.0420         C  4 -- H 13         +35.6% ( 52.1%)      3.5%
 TRAVEL      0.1727         C  4 -- H 14          +9.5% ( 26.8%)     47.4%
 RED. MASS   0.4246         C  1 -- C  4          +5.4% ( 20.2%)      7.7%
 EFF. MASS   1.6115

 VIBRATION   28   28A         ATOM PAIR      ENERGY CONTRIBUTION    RADIAL
 FREQ.      1407.20         C  3 -- C  6         +13.1% ( 42.2%)     98.9%
 T-DIPOLE    0.0218         C  3 -- H 11         +12.9% ( 41.9%)      5.3%
 TRAVEL      0.1054         C  3 -- H 10         +12.9% ( 41.9%)      5.4%
 RED. MASS   0.4282         C  4 -- H 14         +11.5% ( 39.5%)      0.7%
 EFF. MASS   4.3167

 VIBRATION   29   29A         ATOM PAIR      ENERGY CONTRIBUTION    RADIAL
 FREQ.      1411.62         C  4 -- H 14         +30.9% ( 54.6%)      0.5%
 T-DIPOLE    0.0655         C  4 -- H 13         +18.0% ( 41.7%)      8.1%
 TRAVEL      0.1371         C  3 -- H 11          +9.9% ( 31.0%)      6.0%
 RED. MASS   0.3144         C  3 -- H 10          +9.9% ( 30.9%)      6.3%
 EFF. MASS   2.5423

 VIBRATION   30   30A         ATOM PAIR      ENERGY CONTRIBUTION    RADIAL
 FREQ.      1421.74         C  2 -- H  8         +26.1% ( 55.8%)      3.9%
 T-DIPOLE    0.0484         C  2 -- H  9         +22.5% ( 51.7%)      6.1%
 TRAVEL      0.1178         C  1 -- C  2          +9.8% ( 34.1%)     85.3%
 RED. MASS   0.4138         C  2 -- C  3          +8.2% ( 31.2%)     53.7%
 EFF. MASS   3.4175

 VIBRATION   31   31A         ATOM PAIR      ENERGY CONTRIBUTION    RADIAL
 FREQ.      1424.05         C  1 -- C  4         +17.2% ( 57.7%)     90.3%
 T-DIPOLE    0.0660         C  1 -- C  5         +12.8% ( 49.7%)     80.1%
 TRAVEL      0.0819         C  1 -- C  2          +9.9% ( 43.8%)      5.9%
 RED. MASS   1.0913         C  1 -- H  7          +9.4% ( 42.8%)      0.1%
 EFF. MASS   7.0530

 VIBRATION   32   32A         ATOM PAIR      ENERGY CONTRIBUTION    RADIAL
 FREQ.      1831.42         C  5 -- C  6         +45.8% (100.2%)    100.0%
 T-DIPOLE    0.1070         C  1 -- C  5         +13.9% ( 55.2%)     25.2%
 TRAVEL      0.0557         C  3 -- C  6         +13.9% ( 55.2%)     25.6%
 RED. MASS   5.3942         C  5 -- H 15         +13.0% ( 53.3%)     10.0%
 EFF. MASS  11.8853         C  6 -- H 16         +13.0% ( 53.3%)      9.6%

 VIBRATION   33   33A         ATOM PAIR      ENERGY CONTRIBUTION    RADIAL
 FREQ.      2891.65         C  1 -- H  7         +96.4% ( 99.8%)    100.0%
 T-DIPOLE    0.0525         C  1 -- C  2          +1.1% ( 10.4%)     10.0%
 TRAVEL      0.1270         C  1 -- C  4          +1.0% ( 10.4%)      9.0%
 RED. MASS   0.9217         C  1 -- C  5          +1.0% ( 10.3%)      9.9%
 EFF. MASS   1.4453

 VIBRATION   34   34A         ATOM PAIR      ENERGY CONTRIBUTION    RADIAL
 FREQ.      2972.25         C  3 -- H 11         +38.1% ( 64.3%)     96.7%
 T-DIPOLE    0.0071         C  3 -- H 10         +35.8% ( 62.3%)     96.3%
 TRAVEL      0.1209         C  2 -- H  8         +13.3% ( 37.9%)     96.9%
 RED. MASS   0.3290         C  2 -- H  9         +10.4% ( 33.5%)     95.4%
 EFF. MASS   1.5518

 VIBRATION   35   35A         ATOM PAIR      ENERGY CONTRIBUTION    RADIAL
 FREQ.      2989.27         C  2 -- H  8         +42.4% ( 67.4%)     97.4%
 T-DIPOLE    0.0482         C  2 -- H  9         +31.7% ( 58.3%)     95.7%
 TRAVEL      0.1214         C  3 -- H 11         +12.2% ( 36.2%)     97.1%
 RED. MASS   0.3323         C  3 -- H 10         +11.3% ( 34.8%)     96.6%
 EFF. MASS   1.5302

 VIBRATION   36   36A         ATOM PAIR      ENERGY CONTRIBUTION    RADIAL
 FREQ.      3055.20         C  3 -- H 10         +49.9% ( 69.6%)     97.8%
 T-DIPOLE    0.0750         C  3 -- H 11         +46.2% ( 67.1%)     97.4%
 TRAVEL      0.1311         C  2 -- H  9          +1.4% ( 11.8%)     98.3%
 RED. MASS   0.4606         C  2 -- H  8          +1.0% (  9.9%)     96.1%
 EFF. MASS   1.2838

 VIBRATION   37   37A         ATOM PAIR      ENERGY CONTRIBUTION    RADIAL
 FREQ.      3067.52         C  2 -- H  9         +55.3% ( 73.3%)     98.4%
 T-DIPOLE    0.0649         C  2 -- H  8         +40.8% ( 63.0%)     96.6%
 TRAVEL      0.1310         C  3 -- H 11          +1.2% ( 10.9%)     97.9%
 RED. MASS   0.4686         C  3 -- H 10          +1.2% ( 10.6%)     97.8%
 EFF. MASS   1.2805

 VIBRATION   38   38A         ATOM PAIR      ENERGY CONTRIBUTION    RADIAL
 FREQ.      3081.53         C  4 -- H 14         +65.2% ( 83.3%)     98.9%
 T-DIPOLE    0.0156         C  4 -- H 13         +18.8% ( 44.7%)     86.3%
 TRAVEL      0.1206         C  4 -- H 12         +14.9% ( 39.8%)     82.1%
 RED. MASS   0.5113         C  1 -- C  4          +1.0% ( 10.3%)      0.0%
 EFF. MASS   1.5043

 VIBRATION   39   39A         ATOM PAIR      ENERGY CONTRIBUTION    RADIAL
 FREQ.      3084.76         C  4 -- H 12         +51.1% ( 73.8%)     97.4%
 T-DIPOLE    0.0099         C  4 -- H 13         +46.8% ( 70.6%)     96.8%
 TRAVEL      0.1204         C  4 -- H 14          +1.0% ( 10.5%)      2.0%
 RED. MASS   0.5101         C  1 -- C  4          +1.0% ( 10.5%)      0.0%
 EFF. MASS   1.5078

 VIBRATION   40   40A         ATOM PAIR      ENERGY CONTRIBUTION    RADIAL
 FREQ.      3115.03         C  5 -- H 15         +50.3% ( 72.0%)    100.0%
 T-DIPOLE    0.3634         C  6 -- H 16         +47.2% ( 69.7%)    100.0%
 TRAVEL      0.1217         C  5 -- C  6          +1.1% ( 10.7%)      0.0%
 RED. MASS   0.4653         C  1 -- C  5          +0.7% (  8.8%)     25.8%
 EFF. MASS   1.4614

 VIBRATION   41   41A         ATOM PAIR      ENERGY CONTRIBUTION    RADIAL
 FREQ.      3134.07         C  6 -- H 16         +49.2% ( 71.5%)     99.9%
 T-DIPOLE    0.3340         C  5 -- H 15         +46.2% ( 69.3%)     99.9%
 TRAVEL      0.1141         C  5 -- C  6          +2.5% ( 16.1%)    100.0%
 RED. MASS   0.4663         C  3 -- C  6          +1.0% ( 10.0%)     20.8%
 EFF. MASS   1.6520

 VIBRATION   42   42A         ATOM PAIR      ENERGY CONTRIBUTION    RADIAL
 FREQ.      3180.22         C  4 -- H 13         +33.6% ( 55.8%)     97.2%
 T-DIPOLE    0.0302         C  4 -- H 12         +33.2% ( 55.5%)     97.1%
 TRAVEL      0.1367         C  4 -- H 14         +32.8% ( 55.1%)     97.0%
 RED. MASS   0.3271         C  1 -- C  4          +0.3% (  5.1%)    100.0%
 EFF. MASS   1.1351

      SYMMETRY NUMBER FOR POINT-GROUP C1  =  1


          SYSTEM IS A GROUND STATE



 InChI=1S/C6H10/c1-6-4-2-3-5-6/h2,4,6H,3,5H2,1H3


          MOLECULE IS NOT LINEAR

          THERE ARE 42 GENUINE VIBRATIONS IN THIS SYSTEM
          THIS THERMODYNAMICS CALCULATION IS LIMITED TO
          MOLECULES WHICH HAVE NO INTERNAL ROTATIONS




                    CALCULATED THERMODYNAMIC PROPERTIES
                                          *
   TEMP. (K)   PARTITION FUNCTION   H.O.F.    ENTHALPY  HEAT CAPACITY ENTROPY
                                   KCAL/MOL   CAL/MOLE    CAL/K/MOL  CAL/K/MOL


 298.00  VIB.     0.1018D+02                  2001.7478    16.5710    11.3289
         ROT.     0.1201D+06                   888.2813     2.9808    26.2241
         INT.     0.1223D+07                  2890.0291    19.5518    37.5530
         TRA.     0.7198D+27                  1480.4688     4.9680    39.1295
         TOT.                       -2.703    4370.4980    24.5199    76.6825

 200.00  VIB.     0.3638D+01                   771.8054     8.9155     6.4254
         ROT.     0.6606D+05                   596.1620     2.9808    25.0354
         INT.     0.2403D+06                  1367.9674    11.8963    31.4608
         TRA.     0.3957D+27                   993.6033     4.9680    37.1484
         TOT.                       -4.711    2361.5706    16.8643    68.6092

 210.00  VIB.     0.4012D+01                   864.2356     9.5761     6.8763
         ROT.     0.7107D+05                   625.9700     2.9808    25.1809
         INT.     0.2852D+06                  1490.2056    12.5569    32.0571
         TRA.     0.4258D+27                  1043.2834     4.9680    37.3907
         TOT.                       -4.540    2533.4890    17.5249    69.4479

 220.00  VIB.     0.4431D+01                   963.4376    10.2697     7.3376
         ROT.     0.7621D+05                   655.7781     2.9808    25.3195
         INT.     0.3377D+06                  1619.2158    13.2505    32.6571
         TRA.     0.4566D+27                  1092.9636     4.9680    37.6219
         TOT.                       -4.361    2712.1793    18.2186    70.2790

 230.00  VIB.     0.4902D+01                  1069.7358    10.9950     7.8100
         ROT.     0.8147D+05                   685.5862     2.9808    25.4520
         INT.     0.3994D+06                  1755.3220    13.9758    33.2620
         TRA.     0.4880D+27                  1142.6437     4.9680    37.8427
         TOT.                       -4.175    2897.9657    18.9439    71.1047

 240.00  VIB.     0.5432D+01                  1183.4373    11.7500     8.2938
         ROT.     0.8684D+05                   715.3943     2.9808    25.5789
         INT.     0.4717D+06                  1898.8316    14.7308    33.8727
         TRA.     0.5202D+27                  1192.3239     4.9680    38.0541
         TOT.                       -3.982    3091.1555    19.6988    71.9268

 250.00  VIB.     0.6028D+01                  1304.8268    12.5322     8.7892
         ROT.     0.9232D+05                   745.2024     2.9808    25.7006
         INT.     0.5565D+06                  2050.0292    15.5130    34.4898
         TRA.     0.5531D+27                  1242.0041     4.9680    38.2569
         TOT.                       -3.781    3292.0333    20.4810    72.7468

 260.00  VIB.     0.6702D+01                  1434.1623    13.3387     9.2964
         ROT.     0.9791D+05                   775.0105     2.9808    25.8175
         INT.     0.6562D+06                  2209.1729    16.3195    35.1139
         TRA.     0.5866D+27                  1291.6842     4.9680    38.4518
         TOT.                       -3.572    3500.8571    21.2876    73.5657

 270.00  VIB.     0.7463D+01                  1571.6724    14.1666     9.8153
         ROT.     0.1036D+06                   804.8186     2.9808    25.9300
         INT.     0.7733D+06                  2376.4911    17.1474    35.7452
         TRA.     0.6208D+27                  1341.3644     4.9680    38.6393
         TOT.                       -3.355    3717.8554    22.1154    74.3845

 280.00  VIB.     0.8326D+01                  1717.5544    15.0126    10.3457
         ROT.     0.1094D+06                   834.6267     2.9808    26.0384
         INT.     0.9111D+06                  2552.1812    17.9934    36.3841
         TRA.     0.6556D+27                  1391.0445     4.9680    38.8200
         TOT.                       -3.130    3943.2257    22.9614    75.2041

 290.00  VIB.     0.9304D+01                  1871.9740    15.8736    10.8875
         ROT.     0.1153D+06                   864.4348     2.9808    26.1430
         INT.     0.1073D+07                  2736.4088    18.8544    37.0305
         TRA.     0.6910D+27                  1440.7247     4.9680    38.9943
         TOT.                       -2.896    4177.1335    23.8224    76.0248

 300.00  VIB.     0.1042D+02                  2035.0652    16.7464    11.4403
         ROT.     0.1214D+06                   894.2429     2.9808    26.2440
         INT.     0.1264D+07                  2929.3081    19.7272    37.6844
         TRA.     0.7270D+27                  1490.4049     4.9680    39.1627
         TOT.                       -2.653    4419.7130    24.6952    76.8471

 310.00  VIB.     0.1168D+02                  2206.9314    17.6281    12.0038
         ROT.     0.1275D+06                   924.0510     2.9808    26.3418
         INT.     0.1489D+07                  3130.9824    20.6089    38.3456
         TRA.     0.7637D+27                  1540.0850     4.9680    39.3256
         TOT.                       -2.402    4671.0674    25.5769    77.6712

 320.00  VIB.     0.1312D+02                  2387.6465    18.5157    12.5775
         ROT.     0.1337D+06                   953.8591     2.9808    26.4364
         INT.     0.1755D+07                  3341.5056    21.4965    39.0139
         TRA.     0.8009D+27                  1589.7652     4.9680    39.4834
         TOT.                       -2.142    4931.2708    26.4645    78.4972

 330.00  VIB.     0.1477D+02                  2577.2568    19.4067    13.1608
         ROT.     0.1400D+06                   983.6672     2.9808    26.5281
         INT.     0.2068D+07                  3560.9240    22.3875    39.6890
         TRA.     0.8388D+27                  1639.4454     4.9680    39.6362
         TOT.                       -1.873    5200.3693    27.3555    79.3252

 340.00  VIB.     0.1665D+02                  2775.7828    20.2985    13.7534
         ROT.     0.1464D+06                  1013.4753     2.9808    26.6171
         INT.     0.2439D+07                  3789.2581    23.2793    40.3706
         TRA.     0.8772D+27                  1689.1255     4.9680    39.7845
         TOT.                       -1.595    5478.3837    28.2473    80.1551

 350.00  VIB.     0.1881D+02                  2983.2217    21.1889    14.3547
         ROT.     0.1529D+06                  1043.2834     2.9808    26.7035
         INT.     0.2877D+07                  4026.5051    24.1697    41.0582
         TRA.     0.9162D+27                  1738.8057     4.9680    39.9285
         TOT.                       -1.308    5765.3108    29.1377    80.9868

 360.00  VIB.     0.2128D+02                  3199.5489    22.0758    14.9640
         ROT.     0.1595D+06                  1073.0915     2.9808    26.7875
         INT.     0.3395D+07                  4272.6404    25.0567    41.7516
         TRA.     0.9557D+27                  1788.4859     4.9680    40.0685
         TOT.                       -1.012    6061.1263    30.0247    81.8201

 370.00  VIB.     0.2411D+02                  3424.7211    22.9576    15.5809
         ROT.     0.1662D+06                  1102.8996     2.9808    26.8692
         INT.     0.4008D+07                  4527.6207    25.9384    42.4501
         TRA.     0.9958D+27                  1838.1660     4.9680    40.2046
         TOT.                       -0.707    6365.7867    30.9064    82.6547

 380.00  VIB.     0.2737D+02                  3658.6777    23.8325    16.2048
         ROT.     0.1730D+06                  1132.7077     2.9808    26.9487
         INT.     0.4736D+07                  4791.3854    26.8133    43.1535
         TRA.     0.1036D+28                  1887.8462     4.9680    40.3371
         TOT.                       -0.394    6679.2316    31.7813    83.4906

 390.00  VIB.     0.3112D+02                  3901.3435    24.6992    16.8351
         ROT.     0.1799D+06                  1162.5158     2.9808    27.0261
         INT.     0.5598D+07                  5063.8593    27.6800    43.8612
         TRA.     0.1078D+28                  1937.5263     4.9680    40.4662
         TOT.                       -0.072    7001.3856    32.6480    84.3274

 400.00  VIB.     0.3543D+02                  4152.6303    25.5565    17.4713
         ROT.     0.1868D+06                  1192.3239     2.9808    27.1016
         INT.     0.6621D+07                  5344.9542    28.5373    44.5728
         TRA.     0.1119D+28                  1987.2065     4.9680    40.5919
         TOT.                        0.259    7332.1607    33.5053    85.1648

   *: NOTE: HEATS OF FORMATION ARE RELATIVE TO THE
            ELEMENTS IN THEIR STANDARD STATE AT 298K
              (=  Standard Enthalpy of Formation).

            Hvib:  Zero-point energy is not included.
                   frequencies of less than zero cm-1 are not included.
            Hrot = (3/2)RT
            Htra = (3/2)RT + pV = (5/2)RT

            Heat capacity is Cp, not Cv

          For more information, see: HTTP://OpenMOPAC.net/Manual/thermochemistry.html


           FORCE CONSTANT IN CARTESIAN COORDINATES (Millidynes/A)

    ATOM   CHEMICAL       X               Y               Z
   NUMBER   SYMBOL  FORCE CONSTANT  FORCE CONSTANT  FORCE CONSTANT

      1       C        7.830039        9.254545        8.256747
      2       C        7.603517        8.439717        8.414318
      3       C        9.632023        7.570777        8.076516
      4       C        8.399973        8.375419        8.181949
      5       C       14.614781       10.401221        2.434602
      6       C       12.008308       13.107179        2.363490
      7       H        1.177233        1.220438        3.600408
      8       H        1.312953        1.652992        3.560436
      9       H        1.240865        1.672881        3.590521
     10       H        2.107561        0.897755        3.391817
     11       H        1.741652        0.934363        3.708100
     12       H        1.032047        5.018305        0.725420
     13       H        5.374223        0.690393        0.707635
     14       H        1.176782        1.321108        4.283140
     15       H        4.960909        1.094092        0.361198
     16       H        0.711116        5.352112        0.358861

 **********************
 *                    *
 * JOB ENDED NORMALLY *
 *                    *
 **********************



 TOTAL JOB TIME:             4.71 SECONDS

 == MOPAC DONE ==
