 *******************************************************************************
 ** Site#: 14399        For non-commercial use only    Version 18.184L 64BITS **
 *******************************************************************************
 ** Cite this program as: MOPAC2016, Version: 18.184L, James J. P. Stewart,   **
 ** Stewart Computational Chemistry, web: HTTP://OpenMOPAC.net. Days left:  20**
 *******************************************************************************
 **                                                                           **
 **                                MOPAC2016                                  **
 **                                                                           **
 *******************************************************************************

                              PM3 CALCULATION RESULTS

 *******************************************************************************
 *  CALCULATION DONE:                                Thu Jun 13 20:25:10 2019  *
 *  PM3        - The PM3 Hamiltonian to be used
 *  PRECISE    - CRITERIA TO BE INCREASED BY 100 TIMES
 *  NOSYM      - POINT-GROUP SYMMETRY SET TO C1
 *  THREADS=1  - MULTI-THREADING NOT USED
 *  T=         - A TIME OF 172800.0 SECONDS REQUESTED
 *  DUMP=N     - RESTART FILE WRITTEN EVERY  7200.000 SECONDS
 *******************************************************************************
pm3  precise nosym THREADS=1
 InChI=1S/C7H10/c1-6-3-4-7(2)5-6/h7H,1,3,5H2,2H3/lp4

   ATOM   CHEMICAL          X               Y               Z
  NUMBER   SYMBOL      (ANGSTROMS)     (ANGSTROMS)     (ANGSTROMS)
 
     1       C          1.04300000  *  -0.06230000  *  -0.38140000  *
     2       C         -0.05890000  *   0.88340000  *   0.10580000  *
     3       C         -0.92830000  *  -1.44030000  *   0.09380000  *
     4       C          2.39570000  *   0.23440000  *   0.26470000  *
     5       C         -1.24410000  *   0.00140000  *   0.26770000  *
     6       C         -2.46920000  *   0.45770000  *   0.54740000  *
     7       C          0.58290000  *  -1.48280000  *  -0.05390000  *
     8       H          1.13820000  *   0.02430000  *  -1.48650000  *
     9       H         -0.25560000  *   1.67450000  *  -0.65040000  *
    10       H          0.18690000  *   1.35010000  *   1.08510000  *
    11       H          3.16590000  *  -0.46060000  *  -0.13270000  *
    12       H          2.33870000  *   0.11360000  *   1.36820000  *
    13       H          2.70650000  *   1.27470000  *   0.03050000  *
    14       H         -1.23620000  *  -2.02660000  *   0.98510000  *
    15       H         -1.41620000  *  -1.83350000  *  -0.82310000  *
    16       H         -2.64730000  *   1.52180000  *   0.66810000  *
    17       H         -3.30210000  *  -0.22980000  *   0.65770000  *
 


          CARTESIAN COORDINATES 

    NO.       ATOM           X           Y           Z

     1         C          1.0430     -0.0623     -0.3814
     2         C         -0.0589      0.8834      0.1058
     3         C         -0.9283     -1.4403      0.0938
     4         C          2.3957      0.2344      0.2647
     5         C         -1.2441      0.0014      0.2677
     6         C         -2.4692      0.4577      0.5474
     7         C          0.5829     -1.4828     -0.0539
     8         H          1.1382      0.0243     -1.4865
     9         H         -0.2556      1.6745     -0.6504
    10         H          0.1869      1.3501      1.0851
    11         H          3.1659     -0.4606     -0.1327
    12         H          2.3387      0.1136      1.3682
    13         H          2.7065      1.2747      0.0305
    14         H         -1.2362     -2.0266      0.9851
    15         H         -1.4162     -1.8335     -0.8231
    16         H         -2.6473      1.5218      0.6681
    17         H         -3.3021     -0.2298      0.6577

  H: (PM3): J. J. P. STEWART, J. COMP. CHEM. 10, 209 (1989).
  C: (PM3): J. J. P. STEWART, J. COMP. CHEM. 10, 209 (1989).

           Empirical Formula: C7 H10  =    17 atoms



      MOLECULAR POINT GROUP   :   C1  


      RHF CALCULATION, NO. OF DOUBLY OCCUPIED LEVELS = 19


          Geometry optimization using EF

          DIAGONAL MATRIX USED AS START HESSIAN

 CYCLE:     1 TIME:   0.023 TIME LEFT:  2.00D  GRAD.:    85.836 HEAT:  85.21044
 CYCLE:     2 TIME:   0.031 TIME LEFT:  2.00D  GRAD.:   111.918 HEAT:  83.99049
 CYCLE:     3 TIME:   0.023 TIME LEFT:  2.00D  GRAD.:   101.121 HEAT:  83.55962
 CYCLE:     4 TIME:   0.023 TIME LEFT:  2.00D  GRAD.:    90.306 HEAT:  83.27067
 CYCLE:     5 TIME:   0.023 TIME LEFT:  2.00D  GRAD.:   102.109 HEAT:  83.06286
 CYCLE:     6 TIME:   0.031 TIME LEFT:  2.00D  GRAD.:    39.520 HEAT:  81.17317
 CYCLE:     7 TIME:   0.039 TIME LEFT:  2.00D  GRAD.:    22.140 HEAT:  80.70042
 CYCLE:     8 TIME:   0.023 TIME LEFT:  2.00D  GRAD.:    29.060 HEAT:  80.69627
 CYCLE:     9 TIME:   0.023 TIME LEFT:  2.00D  GRAD.:    33.376 HEAT:  80.60227
 CYCLE:    10 TIME:   0.023 TIME LEFT:  2.00D  GRAD.:    33.471 HEAT:  80.57460
 CYCLE:    11 TIME:   0.023 TIME LEFT:  2.00D  GRAD.:    27.182 HEAT:  80.34952
 CYCLE:    12 TIME:   0.023 TIME LEFT:  2.00D  GRAD.:    29.154 HEAT:  80.32477
 CYCLE:    13 TIME:   0.031 TIME LEFT:  2.00D  GRAD.:    12.046 HEAT:  80.09523
 CYCLE:    14 TIME:   0.031 TIME LEFT:  2.00D  GRAD.:     8.098 HEAT:  80.04350
 CYCLE:    15 TIME:   0.023 TIME LEFT:  2.00D  GRAD.:     8.614 HEAT:  80.01294
 CYCLE:    16 TIME:   0.031 TIME LEFT:  2.00D  GRAD.:     8.796 HEAT:  79.97617
 CYCLE:    17 TIME:   0.016 TIME LEFT:  2.00D  GRAD.:     7.941 HEAT:  79.93616
 CYCLE:    18 TIME:   0.023 TIME LEFT:  2.00D  GRAD.:     7.049 HEAT:  79.91024
 CYCLE:    19 TIME:   0.031 TIME LEFT:  2.00D  GRAD.:     8.931 HEAT:  79.89579
 CYCLE:    20 TIME:   0.031 TIME LEFT:  2.00D  GRAD.:     4.282 HEAT:  79.86035
 CYCLE:    21 TIME:   0.023 TIME LEFT:  2.00D  GRAD.:     6.204 HEAT:  79.82557
 CYCLE:    22 TIME:   0.023 TIME LEFT:  2.00D  GRAD.:     7.250 HEAT:  79.77243
 CYCLE:    23 TIME:   0.016 TIME LEFT:  2.00D  GRAD.:     5.961 HEAT:  79.70322
 CYCLE:    24 TIME:   0.023 TIME LEFT:  2.00D  GRAD.:     7.132 HEAT:  79.63252
 CYCLE:    25 TIME:   0.023 TIME LEFT:  2.00D  GRAD.:     7.030 HEAT:  79.56650
 CYCLE:    26 TIME:   0.023 TIME LEFT:  2.00D  GRAD.:     4.813 HEAT:  79.53352
 CYCLE:    27 TIME:   0.023 TIME LEFT:  2.00D  GRAD.:     2.663 HEAT:  79.51736
 CYCLE:    28 TIME:   0.023 TIME LEFT:  2.00D  GRAD.:     1.864 HEAT:  79.51167
 CYCLE:    29 TIME:   0.023 TIME LEFT:  2.00D  GRAD.:     1.883 HEAT:  79.50499
 CYCLE:    30 TIME:   0.023 TIME LEFT:  2.00D  GRAD.:     2.034 HEAT:  79.49689
 CYCLE:    31 TIME:   0.023 TIME LEFT:  2.00D  GRAD.:     1.594 HEAT:  79.49340
 CYCLE:    32 TIME:   0.023 TIME LEFT:  2.00D  GRAD.:     1.018 HEAT:  79.49035
 CYCLE:    33 TIME:   0.023 TIME LEFT:  2.00D  GRAD.:     0.988 HEAT:  79.48827
 CYCLE:    34 TIME:   0.023 TIME LEFT:  2.00D  GRAD.:     0.936 HEAT:  79.48683
 CYCLE:    35 TIME:   0.023 TIME LEFT:  2.00D  GRAD.:     0.730 HEAT:  79.48527
 CYCLE:    36 TIME:   0.023 TIME LEFT:  2.00D  GRAD.:     0.532 HEAT:  79.48404
 CYCLE:    37 TIME:   0.016 TIME LEFT:  2.00D  GRAD.:     0.529 HEAT:  79.48338
 CYCLE:    38 TIME:   0.133 TIME LEFT:  2.00D  GRAD.:     0.401 HEAT:  79.48297
 CYCLE:    39 TIME:   0.023 TIME LEFT:  2.00D  GRAD.:     0.432 HEAT:  79.48242
 CYCLE:    40 TIME:   0.023 TIME LEFT:  2.00D  GRAD.:     0.609 HEAT:  79.48148
 CYCLE:    41 TIME:   0.023 TIME LEFT:  2.00D  GRAD.:     0.598 HEAT:  79.48062
 CYCLE:    42 TIME:   0.023 TIME LEFT:  2.00D  GRAD.:     0.580 HEAT:  79.47994
 CYCLE:    43 TIME:   0.023 TIME LEFT:  2.00D  GRAD.:     0.522 HEAT:  79.47933
 CYCLE:    44 TIME:   0.023 TIME LEFT:  2.00D  GRAD.:     0.559 HEAT:  79.47858
 CYCLE:    45 TIME:   0.023 TIME LEFT:  2.00D  GRAD.:     0.596 HEAT:  79.47776
 CYCLE:    46 TIME:   0.023 TIME LEFT:  2.00D  GRAD.:     0.566 HEAT:  79.47702
 CYCLE:    47 TIME:   0.023 TIME LEFT:  2.00D  GRAD.:     0.529 HEAT:  79.47633
 CYCLE:    48 TIME:   0.016 TIME LEFT:  2.00D  GRAD.:     0.578 HEAT:  79.47553
 CYCLE:    49 TIME:   0.023 TIME LEFT:  2.00D  GRAD.:     0.644 HEAT:  79.47461
 CYCLE:    50 TIME:   0.023 TIME LEFT:  2.00D  GRAD.:     0.646 HEAT:  79.47355
 CYCLE:    51 TIME:   0.023 TIME LEFT:  2.00D  GRAD.:     0.564 HEAT:  79.47268
 CYCLE:    52 TIME:   0.023 TIME LEFT:  2.00D  GRAD.:     0.500 HEAT:  79.47199
 CYCLE:    53 TIME:   0.023 TIME LEFT:  2.00D  GRAD.:     0.483 HEAT:  79.47143
 CYCLE:    54 TIME:   0.023 TIME LEFT:  2.00D  GRAD.:     0.504 HEAT:  79.47093
 CYCLE:    55 TIME:   0.023 TIME LEFT:  2.00D  GRAD.:     0.408 HEAT:  79.47053
 CYCLE:    56 TIME:   0.023 TIME LEFT:  2.00D  GRAD.:     0.379 HEAT:  79.47002
 CYCLE:    57 TIME:   0.023 TIME LEFT:  2.00D  GRAD.:     0.282 HEAT:  79.46986
 CYCLE:    58 TIME:   0.023 TIME LEFT:  2.00D  GRAD.:     0.189 HEAT:  79.46967
 CYCLE:    59 TIME:   0.023 TIME LEFT:  2.00D  GRAD.:     0.106 HEAT:  79.46961
 CYCLE:    60 TIME:   0.023 TIME LEFT:  2.00D  GRAD.:     0.067 HEAT:  79.46959
 CYCLE:    61 TIME:   0.016 TIME LEFT:  2.00D  GRAD.:     0.053 HEAT:  79.46958
 CYCLE:    62 TIME:   0.023 TIME LEFT:  2.00D  GRAD.:     0.038 HEAT:  79.46958

     GRADIENT =  0.03757  IS LESS THAN CUTOFF =  0.05000



 -------------------------------------------------------------------------------
 pm3  precise nosym THREADS=1
 InChI=1S/C7H10/c1-6-3-4-7(2)5-6/h7H,1,3,5H2,2H3/lp4



     GEOMETRY OPTIMISED USING EIGENVECTOR FOLLOWING (EF).     
     SCF FIELD WAS ACHIEVED                                   


                              PM3 CALCULATION
                                                       MOPAC2016 (Version: 18.184L)
                                                       Thu Jun 13 20:25:11 2019
                                                       No. of days remaining =  20




          FINAL HEAT OF FORMATION =         79.46958 KCAL/MOL =     332.50072 KJ/MOL


          TOTAL ENERGY            =       -980.36357 EV
          ELECTRONIC ENERGY       =      -4533.57864 EV  POINT GROUP:     C1  
          CORE-CORE REPULSION     =       3553.21507 EV
          COSMO AREA              =        147.03 SQUARE ANGSTROMS
          COSMO VOLUME            =        140.96 CUBIC ANGSTROMS

          GRADIENT NORM           =          0.03757 = 0.00911 PER ATOM
          IONIZATION POTENTIAL    =          9.026476 EV
          HOMO LUMO ENERGIES (EV) =         -9.026 -0.474
          NO. OF FILLED LEVELS    =         19
          MOLECULAR WEIGHT        =         94.1560

          MOLECULAR DIMENSIONS (Angstroms)

            Atom       Atom       Distance
            H    17    H    11     6.46968
            H    14    H     9     4.07049
            H    15    H    12     3.13260


          SCF CALCULATIONS        =         68
 
          WALL-CLOCK TIME         =          1.648 SECONDS
          COMPUTATION TIME        =          0.685 SECONDS




   ATOM   CHEMICAL          X               Y               Z
  NUMBER   SYMBOL      (ANGSTROMS)     (ANGSTROMS)     (ANGSTROMS)
 
     1       C          1.04752772  *  -0.04789740  *  -0.40476411  *
     2       C         -0.07507994  *   0.90821296  *   0.04060686  *
     3       C         -0.84463668  *  -1.40319550  *   0.12705472  *
     4       C          2.35040380  *   0.16397821  *   0.33809826  *
     5       C         -1.26272906  *   0.02772417  *   0.28109442  *
     6       C         -2.48619614  *   0.44698647  *   0.58037340  *
     7       C          0.56702315  *  -1.43721085  *  -0.26435637  *
     8       H          1.23000973  *   0.04842725  *  -1.50473468  *
     9       H         -0.29157735  *   1.67814269  *  -0.72187753  *
    10       H          0.19583258  *   1.45803850  *   0.96213782  *
    11       H          3.10712669  *  -0.56634677  *   0.02478221  *
    12       H          2.21595211  *   0.05783098  *   1.42261689  *
    13       H          2.74968812  *   1.16889677  *   0.15159931  *
    14       H         -0.94599283  *  -1.97783661  *   1.07069104  *
    15       H         -1.44656641  *  -1.95323812  *  -0.62349854  *
    16       H         -2.73635323  *   1.49880061  *   0.67850707  *
    17       H         -3.31375217  *  -0.23584319  *   0.74575537  *

                             CARTESIAN COORDINATES

   1    C        1.047527719    -0.047897400    -0.404764108
   2    C       -0.075079940     0.908212956     0.040606855
   3    C       -0.844636679    -1.403195495     0.127054718
   4    C        2.350403801     0.163978213     0.338098257
   5    C       -1.262729062     0.027724173     0.281094415
   6    C       -2.486196143     0.446986472     0.580373400
   7    C        0.567023153    -1.437210854    -0.264356374
   8    H        1.230009728     0.048427252    -1.504734677
   9    H       -0.291577349     1.678142686    -0.721877528
  10    H        0.195832577     1.458038502     0.962137821
  11    H        3.107126686    -0.566346765     0.024782208
  12    H        2.215952107     0.057830977     1.422616887
  13    H        2.749688123     1.168896770     0.151599310
  14    H       -0.945992828    -1.977836612     1.070691041
  15    H       -1.446566412    -1.953238120    -0.623498538
  16    H       -2.736353228     1.498800609     0.678507068
  17    H       -3.313752172    -0.235843189     0.745755368


           Empirical Formula: C7 H10  =    17 atoms



      MOLECULAR POINT GROUP   :   C1  


                  EIGENVALUES  
 -40.59569 -32.85283 -28.95076 -26.44173 -22.37279 -18.83722 -18.33026 -16.69725
 -16.02534 -14.79411 -14.55348 -14.30340 -13.73908 -13.08175 -12.63844 -12.40231
 -11.97311 -10.03204  -9.02648  -0.47367   0.87784   3.03550   3.23025   3.47760
   3.49967   3.57481   3.75574   3.86866   4.10050   4.22306   4.25991   4.32492
   4.45602   4.76488   4.83724   4.95048   5.52878   5.73274


              NET ATOMIC CHARGES AND DIPOLE CONTRIBUTIONS

  ATOM NO.   TYPE          CHARGE      No. of ELECS.   s-Pop       p-Pop       
    1          C          -0.197562        4.1976     1.19703     3.00053
    2          C          -0.070272        4.0703     1.15646     2.91381
    3          C          -0.181559        4.1816     1.16989     3.01167
    4          C          -0.064806        4.0648     1.13105     2.93375
    5          C          -0.136977        4.1370     1.20897     2.92800
    6          C          -0.158990        4.1590     1.17604     2.98295
    7          C           0.040449        3.9596     1.68883     2.27072
    8          H           0.109746        0.8903     0.89025
    9          H           0.062167        0.9378     0.93783
   10          H           0.068039        0.9320     0.93196
   11          H           0.054341        0.9457     0.94566
   12          H           0.038910        0.9611     0.96109
   13          H           0.035070        0.9649     0.96493
   14          H           0.116188        0.8838     0.88381
   15          H           0.113551        0.8864     0.88645
   16          H           0.086141        0.9139     0.91386
   17          H           0.085563        0.9144     0.91444
 DIPOLE           X         Y         Z       TOTAL
 POINT-CHG.     0.379    -0.310    -0.077     0.495
 HYBRID        -1.238     1.652     0.251     2.080
 SUM           -0.860     1.342     0.175     1.603


          ATOMIC ORBITAL ELECTRON POPULATIONS

     Atom    s        px        py        pz   
    1  C   1.19703   0.98191   1.00886   1.00976
    2  C   1.15646   0.93222   0.96576   1.01584
    3  C   1.16989   1.03891   0.94394   1.02881
    4  C   1.13105   0.94083   1.00588   0.98704
    5  C   1.20897   0.96446   0.95986   1.00368
    6  C   1.17604   0.95510   1.00869   1.01916
    7  C   1.68883   0.92515   1.11550   0.23007
    8  H   0.89025
    9  H   0.93783
   10  H   0.93196
   11  H   0.94566
   12  H   0.96109
   13  H   0.96493
   14  H   0.88381
   15  H   0.88645
   16  H   0.91386
   17  H   0.91444
 *******************************************************************************
 ** Site#: 14399        For non-commercial use only    Version 18.184L 64BITS **
 *******************************************************************************
 ** Cite this program as: MOPAC2016, Version: 18.184L, James J. P. Stewart,   **
 ** Stewart Computational Chemistry, web: HTTP://OpenMOPAC.net. Days left:  20**
 *******************************************************************************
 **                                                                           **
 **                                MOPAC2016                                  **
 **                                                                           **
 *******************************************************************************

                              PM3 CALCULATION RESULTS

 *******************************************************************************
 *  CALCULATION DONE:                                Thu Jun 13 20:25:11 2019  *
 *  PM3        - The PM3 Hamiltonian to be used
 *  OLDGEO     - PREVIOUS GEOMETRY TO BE USED
 *  PRECISE    - CRITERIA TO BE INCREASED BY 100 TIMES
 *  NOSYM      - POINT-GROUP SYMMETRY SET TO C1
 *  THREADS=1  - MULTI-THREADING NOT USED
 *  T=         - A TIME OF 172800.0 SECONDS REQUESTED
 *  DUMP=N     - RESTART FILE WRITTEN EVERY  7200.000 SECONDS
 *  THERMO     - THERMODYNAMIC QUANTITIES TO BE CALCULATED
 *******************************************************************************
oldgeo thermo nosym precise THREADS=1  pm3
 InChI=1S/C7H10/c1-6-3-4-7(2)5-6/h7H,1,3,5H2,2H3/lp4

   ATOM   CHEMICAL          X               Y               Z
  NUMBER   SYMBOL      (ANGSTROMS)     (ANGSTROMS)     (ANGSTROMS)
 
     1       C          1.04752772  *  -0.04789740  *  -0.40476411  *
     2       C         -0.07507994  *   0.90821296  *   0.04060686  *
     3       C         -0.84463668  *  -1.40319550  *   0.12705472  *
     4       C          2.35040380  *   0.16397821  *   0.33809826  *
     5       C         -1.26272906  *   0.02772417  *   0.28109442  *
     6       C         -2.48619614  *   0.44698647  *   0.58037340  *
     7       C          0.56702315  *  -1.43721085  *  -0.26435637  *
     8       H          1.23000973  *   0.04842725  *  -1.50473468  *
     9       H         -0.29157735  *   1.67814269  *  -0.72187753  *
    10       H          0.19583258  *   1.45803850  *   0.96213782  *
    11       H          3.10712669  *  -0.56634677  *   0.02478221  *
    12       H          2.21595211  *   0.05783098  *   1.42261689  *
    13       H          2.74968812  *   1.16889677  *   0.15159931  *
    14       H         -0.94599283  *  -1.97783661  *   1.07069104  *
    15       H         -1.44656641  *  -1.95323812  *  -0.62349854  *
    16       H         -2.73635323  *   1.49880061  *   0.67850707  *
    17       H         -3.31375217  *  -0.23584319  *   0.74575537  *
 


          CARTESIAN COORDINATES 

    NO.       ATOM           X           Y           Z

     1         C          1.0475     -0.0479     -0.4048
     2         C         -0.0751      0.9082      0.0406
     3         C         -0.8446     -1.4032      0.1271
     4         C          2.3504      0.1640      0.3381
     5         C         -1.2627      0.0277      0.2811
     6         C         -2.4862      0.4470      0.5804
     7         C          0.5670     -1.4372     -0.2644
     8         H          1.2300      0.0484     -1.5047
     9         H         -0.2916      1.6781     -0.7219
    10         H          0.1958      1.4580      0.9621
    11         H          3.1071     -0.5663      0.0248
    12         H          2.2160      0.0578      1.4226
    13         H          2.7497      1.1689      0.1516
    14         H         -0.9460     -1.9778      1.0707
    15         H         -1.4466     -1.9532     -0.6235
    16         H         -2.7364      1.4988      0.6785
    17         H         -3.3138     -0.2358      0.7458

  H: (PM3): J. J. P. STEWART, J. COMP. CHEM. 10, 209 (1989).
  C: (PM3): J. J. P. STEWART, J. COMP. CHEM. 10, 209 (1989).

           Empirical Formula: C7 H10  =    17 atoms



      MOLECULAR POINT GROUP   :   C1  


      RHF CALCULATION, NO. OF DOUBLY OCCUPIED LEVELS = 19



          HEAT OF FORMATION =      79.469579 KCALS/MOLE


          CARTESIAN COORDINATE DERIVATIVES

   NUMBER  ATOM         X            Y            Z

     1       C     -0.004396     0.001783    -0.001172
     2       C     -0.003291    -0.002415     0.003192
     3       C      0.000671    -0.002026     0.000926
     4       C      0.000959     0.006008     0.001447
     5       C     -0.010216    -0.006010     0.004223
     6       C     -0.004781    -0.005217    -0.001080
     7       C     -0.001643     0.005619    -0.004285
     8       H      0.010388     0.014317    -0.003994
     9       H      0.014411     0.002548    -0.001620
    10       H      0.007070     0.001651    -0.003676
    11       H     -0.002351    -0.006572     0.006262
    12       H      0.003727    -0.001791    -0.001320
    13       H     -0.009645    -0.004724     0.004526
    14       H     -0.003716     0.001999     0.006353
    15       H      0.003022    -0.002698    -0.005395
    16       H      0.002159     0.006342    -0.002119
    17       H     -0.002368    -0.008814    -0.002267
 


          GRADIENT NORM =   0.03812


          TIME FOR SCF CALCULATION =    0.02

          TIME FOR DERIVATIVES     =    0.01

          MOLECULAR WEIGHT =   94.16



          ROTATIONAL CONSTANTS IN CM(-1)

          A =    0.18779226   B =    0.06853461   C =    0.05451043



           PRINCIPAL MOMENTS OF INERTIA IN UNITS OF 10**(-40)*GRAM-CM**2

          A =      149.0624   B =      408.4473   C =      513.5306


          ORIENTATION OF MOLECULE IN FORCE CALCULATION

    NO.       ATOM         X         Y         Z

     1          C      -0.9038   -0.8475   -0.1406
     2          C       0.6365   -0.8475   -0.1406
     3          C      -0.2123    1.4377   -0.1406
     4          C      -1.5071   -1.6965    0.9592
     5          C       1.0251    0.5966   -0.2268
     6          C       2.2635    1.0559   -0.3594
     7          C      -1.3754    0.5498   -0.0626
     8          H      -1.2951   -1.1933   -1.1305
     9          H       1.0518   -1.4279   -0.9842
    10          H       1.0468   -1.3076    0.7786
    11          H      -2.6024   -1.6314    0.9528
    12          H      -1.1614   -1.3744    1.9503
    13          H      -1.2282   -2.7509    0.8387
    14          H      -0.2223    2.0850    0.7604
    15          H      -0.3320    2.1239   -1.0025
    16          H       3.1271    0.4007   -0.4190
    17          H       2.4906    2.1159   -0.4167


    FIRST DERIVATIVES WILL BE USED IN THE CALCULATION OF SECOND DERIVATIVES

          ESTIMATED TIME TO COMPLETE CALCULATION =        6.38 SECONDS

    FOR POINT-GROUP C1   THERE ARE   1 UNIQUE SYMMETRY FUNCTIONS.

 STEP:   1 TIME =     0.04 SECS, INTEGRAL =      0.04 TIME LEFT: 172799.93
 STEP:   2 TIME =     0.03 SECS, INTEGRAL =      0.07 TIME LEFT: 172799.90
 STEP:   3 TIME =     0.04 SECS, INTEGRAL =      0.11 TIME LEFT: 172799.86
 STEP:   4 TIME =     0.04 SECS, INTEGRAL =      0.15 TIME LEFT: 172799.82
 STEP:   5 TIME =     0.03 SECS, INTEGRAL =      0.18 TIME LEFT: 172799.79
 STEP:   6 TIME =     0.04 SECS, INTEGRAL =      0.22 TIME LEFT: 172799.75
 STEP:   7 TIME =     0.04 SECS, INTEGRAL =      0.26 TIME LEFT: 172799.71
 STEP:   8 TIME =     0.03 SECS, INTEGRAL =      0.29 TIME LEFT: 172799.68
 STEP:   9 TIME =     0.03 SECS, INTEGRAL =      0.32 TIME LEFT: 172799.65
 STEP:  10 TIME =     0.02 SECS, INTEGRAL =      0.34 TIME LEFT: 172799.62
 STEP:  11 TIME =     0.02 SECS, INTEGRAL =      0.37 TIME LEFT: 172799.60
 STEP:  12 TIME =     0.03 SECS, INTEGRAL =      0.40 TIME LEFT: 172799.57
 STEP:  13 TIME =     0.02 SECS, INTEGRAL =      0.42 TIME LEFT: 172799.55
 STEP:  14 TIME =     0.02 SECS, INTEGRAL =      0.45 TIME LEFT: 172799.52
 STEP:  15 TIME =     0.03 SECS, INTEGRAL =      0.48 TIME LEFT: 172799.49
 STEP:  16 TIME =     0.03 SECS, INTEGRAL =      0.51 TIME LEFT: 172799.46
 STEP:  17 TIME =     0.02 SECS, INTEGRAL =      0.53 TIME LEFT: 172799.44
 STEP:  18 TIME =     0.03 SECS, INTEGRAL =      0.56 TIME LEFT: 172799.41
 STEP:  19 TIME =     0.03 SECS, INTEGRAL =      0.59 TIME LEFT: 172799.38
 STEP:  20 TIME =     0.02 SECS, INTEGRAL =      0.62 TIME LEFT: 172799.35
 STEP:  21 TIME =     0.03 SECS, INTEGRAL =      0.65 TIME LEFT: 172799.32
 STEP:  22 TIME =     0.03 SECS, INTEGRAL =      0.68 TIME LEFT: 172799.29
 STEP:  23 TIME =     0.03 SECS, INTEGRAL =      0.71 TIME LEFT: 172799.26
 STEP:  24 TIME =     0.03 SECS, INTEGRAL =      0.74 TIME LEFT: 172799.23
 STEP:  25 TIME =     0.02 SECS, INTEGRAL =      0.77 TIME LEFT: 172799.20
 STEP:  26 TIME =     0.03 SECS, INTEGRAL =      0.80 TIME LEFT: 172799.17
 STEP:  27 TIME =     0.02 SECS, INTEGRAL =      0.82 TIME LEFT: 172799.15
 STEP:  28 TIME =     0.03 SECS, INTEGRAL =      0.85 TIME LEFT: 172799.12
 STEP:  29 TIME =     0.03 SECS, INTEGRAL =      0.88 TIME LEFT: 172799.09
 STEP:  30 TIME =     0.02 SECS, INTEGRAL =      0.91 TIME LEFT: 172799.06
 STEP:  31 TIME =     0.03 SECS, INTEGRAL =      0.94 TIME LEFT: 172799.03
 STEP:  32 TIME =     0.02 SECS, INTEGRAL =      0.96 TIME LEFT: 172799.01
 STEP:  33 TIME =     0.04 SECS, INTEGRAL =      1.00 TIME LEFT: 172798.97
 STEP:  34 TIME =     0.03 SECS, INTEGRAL =      1.03 TIME LEFT: 172798.94
 STEP:  35 TIME =     0.03 SECS, INTEGRAL =      1.06 TIME LEFT: 172798.91
 STEP:  36 TIME =     0.02 SECS, INTEGRAL =      1.09 TIME LEFT: 172798.88
 STEP:  37 TIME =     0.03 SECS, INTEGRAL =      1.12 TIME LEFT: 172798.85
 STEP:  38 TIME =     0.02 SECS, INTEGRAL =      1.14 TIME LEFT: 172798.83
 STEP:  39 TIME =     0.03 SECS, INTEGRAL =      1.17 TIME LEFT: 172798.80
 STEP:  40 TIME =     0.02 SECS, INTEGRAL =      1.20 TIME LEFT: 172798.77
 STEP:  41 TIME =     0.02 SECS, INTEGRAL =      1.22 TIME LEFT: 172798.75
 STEP:  42 TIME =     0.03 SECS, INTEGRAL =      1.25 TIME LEFT: 172798.72
 STEP:  43 TIME =     0.02 SECS, INTEGRAL =      1.27 TIME LEFT: 172798.70
 STEP:  44 TIME =     0.03 SECS, INTEGRAL =      1.30 TIME LEFT: 172798.66
 STEP:  45 TIME =     0.02 SECS, INTEGRAL =      1.33 TIME LEFT: 172798.64
 STEP:  46 TIME =     0.02 SECS, INTEGRAL =      1.35 TIME LEFT: 172798.62
 STEP:  47 TIME =     0.03 SECS, INTEGRAL =      1.38 TIME LEFT: 172798.59
 STEP:  48 TIME =     0.02 SECS, INTEGRAL =      1.41 TIME LEFT: 172798.56
 STEP:  49 TIME =     0.03 SECS, INTEGRAL =      1.44 TIME LEFT: 172798.53
 STEP:  50 TIME =     0.02 SECS, INTEGRAL =      1.46 TIME LEFT: 172798.51
 STEP:  51 TIME =     0.02 SECS, INTEGRAL =      1.48 TIME LEFT: 172798.48

(To convert to Hartree/Bohr^2, multiply by (10^(-21) x N x a0^2)/(4.184 x 627.51) =  0.0642)


           FORCE MATRIX IN MILLIDYNES/ANGSTROM


                  C  1       C  2       C  3       C  4       C  5       C  6
 ------------------------------------------------------------------------------
     C    1  14.349746
     C    2   3.490920  14.514346
     C    3   1.059400   0.763054  14.685610
     C    4   4.262560   0.571394   0.080259  14.342129
     C    5   0.848184   4.561930   4.457252   0.041046  19.047150
     C    6   0.047640   0.723999   0.733291   0.009174  10.945487  18.121812
     C    7   4.939920   0.860030   5.290099   0.663693   1.014506   0.070231
     H    8   4.166884   0.419180   0.068830   0.435721   0.022974   0.003139
     H    9   0.432905   4.550525   0.028485   0.021599   0.438760   0.022383
     H   10   0.449000   4.492173   0.023647   0.052716   0.430253   0.022278
     H   11   0.459021   0.046722   0.006797   4.770758   0.006203   0.002223
     H   12   0.453473   0.022229   0.004175   4.733788   0.002043   0.001047
     H   13   0.474987   0.015418   0.014475   4.746915   0.002350   0.001203
     H   14   0.066662   0.027670   4.397196   0.018448   0.427552   0.018768
     H   15   0.069026   0.032038   4.434340   0.010064   0.428961   0.018503
     H   16   0.004067   0.088804   0.127882   0.001010   0.478857   5.110162
     H   17   0.005138   0.126256   0.092492   0.001429   0.478370   5.109944


                  C  7       H  8       H  9       H 10       H 11       H 12
 ------------------------------------------------------------------------------
     C    7   9.732977
     H    8   0.273177   4.613831
     H    9   0.041209   0.032377   5.152175
     H   10   0.028803   0.028254   0.571855   5.103440
     H   11   0.033944   0.031893   0.003448   0.002653   5.487749
     H   12   0.023618   0.044559   0.001125   0.025005   0.567571   5.462384
     H   13   0.042133   0.025498   0.002034   0.009408   0.554479   0.573203
     H   14   0.324465   0.010648   0.001119   0.003222   0.000812   0.000548
     H   15   0.329432   0.018192   0.003344   0.000776   0.000743   0.000699
     H   16   0.010241   0.000560   0.010632   0.011394   0.000302   0.000181
     H   17   0.006387   0.000852   0.012045   0.014181   0.000324   0.000165


                  H 13       H 14       H 15       H 16       H 17
 ------------------------------------------------------------------
     H   13   5.469270
     H   14   0.003254   4.997456
     H   15   0.001624   0.576347   5.042254
     H   16   0.000172   0.012848   0.011382   5.486596
     H   17   0.000198   0.010860   0.010228   0.410259   5.486365


          HEAT OF FORMATION =      79.469579 KCALS/MOLE

          ZERO POINT ENERGY      91.154 KCAL/MOL


           NORMAL COORDINATE ANALYSIS (Total motion = 1 Angstrom)


   Root No.       1         2         3         4         5         6         7         8

                 1 A       2 A       3 A       4 A       5 A       6 A       7 A       8 A   

                  66.1     140.3     159.4     304.5     393.8     423.3     442.3     583.4
  
           1    0.0096    0.0028    0.0082    0.0109    0.0218   -0.0161    0.0056    0.0383
           2    0.0045   -0.0101   -0.0110   -0.0154   -0.0163    0.0109   -0.0009    0.0200
           3    0.0091   -0.0207   -0.0091    0.0022   -0.0316   -0.0372    0.0348    0.0170
           4    0.0095    0.0033    0.0085    0.0160    0.0173   -0.0148    0.0061    0.0272
           5    0.0076   -0.0054   -0.0031   -0.0219    0.0153   -0.0223    0.0079   -0.0293
           6    0.0618   -0.0058    0.0059   -0.0198   -0.0044    0.0162   -0.0156    0.0033
           7    0.0053   -0.0000   -0.0031    0.0147   -0.0277    0.0132   -0.0004   -0.0117
           8    0.0046   -0.0077   -0.0069   -0.0202    0.0037   -0.0066    0.0083    0.0140
           9    0.0151    0.0457    0.0218   -0.0008    0.0120    0.0063   -0.0045   -0.0146
          10   -0.0306    0.0008   -0.0059   -0.0505   -0.0030    0.0349   -0.0214    0.0138
          11   -0.0252    0.0312    0.0191    0.0224    0.0294    0.0142   -0.0203    0.0202
          12   -0.0371    0.0119    0.0074   -0.0002   -0.0102   -0.0115    0.0080   -0.0163
          13    0.0054    0.0001    0.0005    0.0154   -0.0120    0.0010    0.0083   -0.0323
          14    0.0054   -0.0037   -0.0002   -0.0177    0.0252   -0.0288    0.0148   -0.0200
          15    0.0041    0.0120    0.0096   -0.0099    0.0158    0.0539    0.0622    0.0031
          16   -0.0007   -0.0050   -0.0055   -0.0089    0.0066   -0.0220    0.0065   -0.0403
          17    0.0034    0.0007    0.0098    0.0518   -0.0318    0.0104   -0.0016   -0.0185
          18   -0.0589   -0.0191   -0.0111    0.0003   -0.0054   -0.0130   -0.0200    0.0041
          19    0.0061   -0.0030   -0.0013    0.0196   -0.0033   -0.0027    0.0027    0.0029
          20    0.0025   -0.0097   -0.0126   -0.0159   -0.0269    0.0172   -0.0011    0.0082
          21    0.0123   -0.0384   -0.0347    0.0381    0.0382    0.0049   -0.0312    0.0103
          22    0.0464    0.0136    0.0174    0.0064    0.0415   -0.0154   -0.0027    0.0336
          23    0.0304   -0.0501   -0.0350   -0.0092   -0.0405    0.0069    0.0013    0.0740
          24   -0.0152   -0.0097   -0.0039    0.0022   -0.0284   -0.0337    0.0345   -0.0021
          25    0.0421    0.0126    0.0195   -0.0008    0.0522    0.0075   -0.0437    0.0027
          26   -0.0374    0.0044    0.0005   -0.0094    0.0363   -0.0137    0.1093    0.0097
          27    0.1092   -0.0079    0.0088   -0.0366   -0.0019    0.0214   -0.1127   -0.0382
          28   -0.0236   -0.0038    0.0050    0.0242    0.0105   -0.0554    0.0572    0.0604
          29    0.0593   -0.0133   -0.0011   -0.0387    0.0163   -0.0495   -0.1027   -0.0742
          30    0.1027   -0.0066    0.0084   -0.0331   -0.0008    0.0218   -0.0971   -0.0351
          31   -0.0306   -0.0039    0.0029   -0.0491   -0.0013    0.0342   -0.0217    0.0146
          32   -0.0298   -0.0581    0.1860    0.0575    0.0679   -0.0085   -0.0204    0.0364
          33   -0.0801   -0.0619    0.1217   -0.0528   -0.0215    0.0422   -0.0266   -0.0515
          34   -0.0727   -0.0872    0.1436   -0.0869   -0.0010    0.0768   -0.0519   -0.0117
          35   -0.0482    0.1420   -0.0870    0.0414    0.0579    0.0310   -0.0450    0.0065
          36   -0.0150    0.0066   -0.0098    0.0059   -0.0197   -0.0305    0.0254   -0.0032
          37   -0.0210    0.0940   -0.1788   -0.0786   -0.0373    0.0526   -0.0197    0.0047
          38   -0.0209    0.0439   -0.0166    0.0109    0.0164    0.0189   -0.0183    0.0189
          39   -0.0520    0.1167   -0.0763    0.0426    0.0328   -0.0147   -0.0085   -0.0221
          40    0.0079   -0.0233   -0.0265    0.0432   -0.0147    0.0247   -0.0572   -0.0094
          41   -0.0073   -0.0832   -0.0552    0.0202    0.0864    0.0947    0.0545   -0.0449
          42    0.0239    0.1005    0.0569   -0.0305   -0.0503   -0.0695   -0.0397    0.0306
          43    0.0030    0.0243    0.0159   -0.0158   -0.0857    0.0279    0.0390    0.0213
          44    0.0158    0.0644    0.0384   -0.0588   -0.0798   -0.0990   -0.0369    0.0735
          45    0.0246    0.1004    0.0559   -0.0284   -0.0489   -0.0729   -0.0473    0.0311
          46   -0.0017   -0.0053   -0.0009    0.0383   -0.0408    0.0086   -0.0092   -0.0287
          47    0.0031    0.0035    0.0174    0.1165   -0.0948    0.0563   -0.0186   -0.0148
          48   -0.0706   -0.0545   -0.0277   -0.0092   -0.0206   -0.0549   -0.0672    0.1428
          49   -0.0051   -0.0092   -0.0158   -0.0852    0.0813   -0.0838    0.0222   -0.0625
          50    0.0020    0.0020    0.0119    0.0703   -0.0494    0.0228   -0.0075   -0.0220
          51   -0.1035   -0.0124   -0.0136    0.0200   -0.0116   -0.0427   -0.0636   -0.1344


   Root No.       9        10        11        12        13        14        15        16

                 9 A      10 A      11 A      12 A      13 A      14 A      15 A      16 A   

                 608.7     676.7     735.7     863.5     902.5     915.6     941.2     951.4
  
           1    0.0271   -0.0066    0.0081    0.0017   -0.0071   -0.0124   -0.0018   -0.0128
           2    0.0100   -0.0448    0.0165    0.0037   -0.0048    0.0026   -0.0043    0.0065
           3    0.0218   -0.0222    0.0199    0.0091   -0.0001   -0.0063   -0.0030   -0.0139
           4    0.0168   -0.0185    0.0107   -0.0010   -0.0123    0.0268    0.0202    0.0447
           5   -0.0191   -0.0025   -0.0016   -0.0182   -0.0052   -0.0198    0.0166   -0.0415
           6   -0.0008   -0.0072   -0.0048   -0.0249    0.0492   -0.0014   -0.0016   -0.0051
           7   -0.0017    0.0310   -0.0005   -0.0088   -0.0006    0.0175    0.0034   -0.0277
           8    0.0203    0.0688   -0.0091    0.0026    0.0018   -0.0218    0.0011    0.0349
           9    0.0046    0.0153    0.0631    0.0180    0.0008   -0.0040    0.0033   -0.0032
          10    0.0046   -0.0122    0.0008   -0.0039   -0.0041   -0.0136   -0.0125   -0.0309
          11    0.0032   -0.0300    0.0015    0.0012    0.0052   -0.0048   -0.0257   -0.0052
          12   -0.0028    0.0185    0.0009    0.0056   -0.0132    0.0038    0.0015    0.0097
          13   -0.0258   -0.0328    0.0003    0.0026   -0.0003   -0.0062   -0.0040    0.0104
          14   -0.0127    0.0106   -0.0079    0.0086    0.0052    0.0050   -0.0024    0.0002
          15   -0.0095   -0.0056   -0.0322    0.0055   -0.0179    0.0016   -0.0017    0.0007
          16   -0.0307   -0.0344    0.0023    0.0032    0.0016   -0.0236   -0.0011    0.0236
          17   -0.0123   -0.0030   -0.0025    0.0107    0.0076    0.0465   -0.0157   -0.0051
          18    0.0044    0.0037   -0.0003    0.0004   -0.0061    0.0011   -0.0008   -0.0005
          19    0.0090    0.0751   -0.0281    0.0306    0.0242   -0.0139   -0.0255   -0.0116
          20    0.0086    0.0020    0.0114   -0.0252   -0.0159    0.0159    0.0032    0.0218
          21   -0.0168   -0.0129   -0.0423   -0.0177   -0.0096    0.0022   -0.0034    0.0040
          22    0.0252   -0.0071    0.0368   -0.1421    0.0086    0.0037    0.0184    0.0223
          23    0.0302   -0.1218   -0.0383    0.2608    0.0899   -0.0112    0.1277   -0.0559
          24    0.0138    0.0076    0.0265   -0.0271   -0.0410   -0.0059   -0.0561   -0.0022
          25    0.0142    0.0326   -0.0240    0.0215   -0.1069    0.0466    0.0541    0.0785
          26   -0.0523    0.0080   -0.0285   -0.1077    0.0818   -0.0176    0.0502   -0.0531
          27    0.0210    0.0113   -0.0042    0.0518   -0.0609    0.0067   -0.0080    0.0179
          28    0.0334   -0.0246    0.0388   -0.0507    0.0578    0.0193    0.0469    0.0140
          29    0.0232    0.0265    0.0179    0.0613   -0.1281   -0.0224    0.0368   -0.0644
          30    0.0144    0.0106   -0.0080    0.0399   -0.0477    0.0006   -0.0044   -0.0014
          31    0.0051   -0.0116    0.0001   -0.0039   -0.0042   -0.0155   -0.0109   -0.0356
          32    0.0128   -0.0215   -0.0109   -0.0049   -0.0254   -0.0444    0.0017   -0.1099
          33   -0.0352    0.0298   -0.0224    0.0226    0.0605    0.0583    0.0650    0.1284
          34   -0.0212   -0.0016   -0.0212    0.0077    0.0609    0.0219    0.0478    0.0416
          35   -0.0195   -0.0073   -0.0439    0.0222    0.0604    0.0077    0.0916   -0.0048
          36    0.0130    0.0074    0.0219   -0.0041   -0.0520   -0.0119   -0.0544   -0.0146
          37   -0.0011   -0.0263    0.0125    0.0053    0.0286    0.0146   -0.0454    0.0480
          38    0.0032   -0.0380    0.0085    0.0042    0.0119    0.0023   -0.0458    0.0176
          39   -0.0172    0.0514   -0.0437    0.0124    0.0077    0.0011    0.1249   -0.0280
          40    0.0029    0.0825    0.1270   -0.1182    0.0439    0.0879    0.0842   -0.0728
          41    0.0590    0.1141    0.1365    0.0346   -0.0068   -0.0210    0.0243    0.0292
          42   -0.0249   -0.0166   -0.0476   -0.0083    0.0068   -0.0034   -0.0125    0.0025
          43    0.0184    0.0089   -0.1023   -0.0360   -0.1317    0.0824    0.0919   -0.1003
          44   -0.0109    0.0486   -0.1450   -0.0486   -0.0032   -0.0112    0.0081    0.0519
          45   -0.0252   -0.0015   -0.0381   -0.0199    0.0149   -0.0045   -0.0041    0.0187
          46   -0.0539   -0.0384    0.0181   -0.0179   -0.0109   -0.1713    0.0324    0.0636
          47   -0.0205   -0.0140    0.0078   -0.0214   -0.0107   -0.1547    0.0299    0.0475
          48   -0.2309    0.0843    0.1153    0.0307    0.0053    0.0155    0.0045   -0.0183
          49   -0.0142   -0.0349   -0.0097    0.0455    0.0365    0.2128   -0.0639   -0.0078
          50   -0.0025   -0.0069   -0.0026   -0.0015    0.0041   -0.0090   -0.0011    0.0032
          51    0.2613   -0.0616   -0.0498   -0.0508    0.0683   -0.0189    0.0122   -0.0039


   Root No.      17        18        19        20        21        22        23        24

                17 A      18 A      19 A      20 A      21 A      22 A      23 A      24 A   

                 972.7     979.8    1009.2    1038.2    1069.3    1097.3    1133.4    1226.4
  
           1    0.0097    0.0041    0.0002    0.0095    0.0046    0.0308   -0.0251   -0.0258
           2   -0.0049    0.0012    0.0020   -0.0151    0.0004    0.0127   -0.0098   -0.0229
           3   -0.0004   -0.0007   -0.0101   -0.0018    0.0151    0.0010   -0.0509    0.0281
           4   -0.0169   -0.0012    0.0060   -0.0099   -0.0045   -0.0374    0.0174   -0.0295
           5   -0.0324   -0.0030   -0.0014   -0.0097    0.0010    0.0081   -0.0026   -0.0275
           6    0.0056   -0.0070    0.0000    0.0060   -0.0218   -0.0261    0.0145   -0.0055
           7   -0.0148   -0.0042   -0.0027   -0.0174   -0.0013    0.0032    0.0019   -0.0011
           8    0.0267    0.0028    0.0006    0.0280    0.0006   -0.0031    0.0014    0.0084
           9    0.0041   -0.0175   -0.0064    0.0015   -0.0168   -0.0022   -0.0035   -0.0001
          10    0.0234    0.0063    0.0060   -0.0055   -0.0056   -0.0155    0.0098    0.0096
          11   -0.0239   -0.0044   -0.0004    0.0245    0.0006   -0.0026   -0.0013    0.0112
          12   -0.0046    0.0076    0.0169    0.0009   -0.0153    0.0290    0.0416   -0.0084
          13    0.0119    0.0020    0.0012    0.0027    0.0040    0.0022    0.0006    0.0031
          14    0.0017    0.0010    0.0008    0.0083    0.0016   -0.0028   -0.0011   -0.0184
          15   -0.0038    0.0124    0.0115   -0.0021    0.0451    0.0031    0.0084    0.0023
          16    0.0187    0.0049   -0.0016    0.0159   -0.0038   -0.0034   -0.0006    0.0065
          17    0.0186    0.0018   -0.0022    0.0039   -0.0010    0.0040   -0.0012    0.0096
          18   -0.0068    0.0301   -0.0345    0.0002   -0.0262   -0.0019   -0.0023   -0.0015
          19   -0.0237   -0.0059   -0.0055   -0.0236    0.0014    0.0041   -0.0020   -0.0036
          20    0.0146   -0.0023   -0.0015   -0.0503   -0.0033   -0.0072    0.0128    0.0010
          21    0.0011   -0.0090   -0.0030    0.0049   -0.0013    0.0010    0.0025   -0.0007
          22    0.0300   -0.0362   -0.0688   -0.0405    0.0240    0.3727    0.0438    0.0835
          23   -0.0144    0.0446    0.0444    0.0285   -0.0383    0.0885    0.0978    0.0293
          24   -0.0057   -0.0004    0.0028   -0.0006    0.0201   -0.1600   -0.1171   -0.0346
          25   -0.0773    0.0388    0.1236   -0.0689   -0.0958   -0.0063   -0.1103    0.1585
          26   -0.0840   -0.0012    0.0770   -0.0459   -0.1237   -0.0282   -0.0489    0.1163
          27    0.0090    0.0121    0.0049    0.0011    0.0201    0.0112   -0.0182   -0.0108
          28   -0.0447   -0.0512   -0.1019   -0.0003    0.0663   -0.1671    0.1955    0.1037
          29   -0.0835   -0.0125   -0.0728   -0.0227    0.1188   -0.0486    0.0799    0.1109
          30   -0.0058    0.0117    0.0137   -0.0044    0.0062    0.0049   -0.0276    0.0027
          31    0.0292    0.0073    0.0058   -0.0082   -0.0055   -0.0159    0.0093    0.0136
          32    0.1063    0.0253    0.0147   -0.0419   -0.0098   -0.0605    0.0133    0.0413
          33   -0.0864   -0.0346   -0.0422    0.0162    0.0304    0.0691   -0.0710   -0.0564
          34   -0.0196   -0.0279   -0.0523   -0.0007    0.0411    0.0026   -0.0963    0.0208
          35    0.0485   -0.0174   -0.0573   -0.0408    0.0473   -0.0413   -0.1193    0.0243
          36   -0.0122    0.0232    0.0544    0.0191   -0.0459    0.0372    0.1140   -0.0186
          37   -0.0955   -0.0218   -0.0130    0.0641    0.0111    0.0280   -0.0287    0.0286
          38   -0.0682   -0.0121   -0.0020    0.0536    0.0025    0.0137   -0.0050    0.0229
          39    0.1323    0.0142   -0.0173   -0.1056    0.0108   -0.0205   -0.0232   -0.0477
          40   -0.0307    0.1979    0.0718    0.1412    0.1008   -0.0068   -0.0136   -0.0175
          41    0.0489   -0.0345   -0.0106    0.0816   -0.0341   -0.0133   -0.0038    0.0423
          42   -0.0105    0.0124    0.0028   -0.0330    0.0102    0.0039    0.0008   -0.0208
          43    0.0153   -0.1589   -0.0367    0.1953   -0.0899   -0.0091   -0.0223   -0.0248
          44    0.0361    0.0479    0.0184    0.0817    0.0349   -0.0084    0.0075    0.0427
          45    0.0054    0.0405    0.0128    0.0123    0.0239   -0.0034    0.0041    0.0264
          46    0.0088   -0.0106    0.0178    0.0336    0.0056   -0.0145    0.0011    0.0310
          47   -0.0005   -0.0026    0.0086    0.0266    0.0010   -0.0113    0.0001    0.0366
          48    0.0209   -0.1494    0.1257   -0.0100    0.0923    0.0107    0.0073   -0.0014
          49    0.0842   -0.0074    0.0112    0.0223    0.0055    0.0078   -0.0019    0.0880
          50    0.0068   -0.0035    0.0050    0.0038    0.0029    0.0014   -0.0006   -0.0059
          51    0.0106   -0.1181    0.1475   -0.0093    0.0849    0.0001    0.0077   -0.0088


   Root No.      25        26        27        28        29        30        31        32

                25 A      26 A      27 A      28 A      29 A      30 A      31 A      32 A   

                1290.6    1299.0    1329.4    1361.2    1378.9    1392.9    1399.2    1403.5
  
           1    0.0713   -0.0062   -0.0180    0.0322   -0.0176    0.0068    0.0023   -0.0161
           2    0.0126    0.0040    0.0197   -0.0291    0.0389    0.0234    0.0159   -0.0267
           3   -0.0304    0.0013    0.0002   -0.0011    0.0026   -0.0122   -0.0047    0.0173
           4   -0.0362    0.0110    0.0273   -0.0276   -0.0154   -0.0106   -0.0245    0.0144
           5   -0.0045    0.0187    0.0254   -0.0174   -0.0194   -0.0138    0.0489    0.0055
           6    0.0084   -0.0008   -0.0022    0.0013    0.0004    0.0024   -0.0017   -0.0030
           7   -0.0045    0.0083   -0.0087    0.0443   -0.0349   -0.0247    0.0086    0.0408
           8    0.0054   -0.0101   -0.0249   -0.0519   -0.0206   -0.0211    0.0198    0.0251
           9   -0.0005   -0.0013    0.0001   -0.0034    0.0024    0.0015   -0.0007   -0.0023
          10   -0.0144    0.0006    0.0034   -0.0032    0.0196   -0.0260   -0.0087    0.0197
          11   -0.0034   -0.0004   -0.0040    0.0103    0.0142   -0.0316    0.0005    0.0185
          12    0.0041   -0.0005   -0.0007   -0.0032   -0.0212   -0.0028   -0.0001   -0.0477
          13    0.0088    0.0292   -0.0156   -0.0285   -0.0002   -0.0018    0.0107   -0.0019
          14   -0.0377   -0.0328   -0.0204    0.0662    0.0164    0.0131   -0.0370   -0.0038
          15    0.0003   -0.0020    0.0018    0.0009   -0.0002   -0.0003    0.0003    0.0005
          16   -0.0041    0.0043   -0.0253   -0.0014    0.0128    0.0076   -0.0095   -0.0080
          17    0.0089    0.0105   -0.0087   -0.0128    0.0010   -0.0003    0.0043   -0.0011
          18    0.0001   -0.0007    0.0027    0.0005   -0.0013   -0.0007    0.0008    0.0008
          19   -0.0129   -0.0089    0.0220   -0.0186    0.0336    0.0202   -0.0065   -0.0287
          20    0.0105   -0.0134   -0.0078    0.0306   -0.0125    0.0061   -0.0230   -0.0138
          21    0.0020    0.0007   -0.0017    0.0013   -0.0026   -0.0015    0.0007    0.0016
          22   -0.0959   -0.0022    0.0171   -0.0348    0.0374   -0.0012   -0.0210    0.0151
          23   -0.0066   -0.0010   -0.0171    0.0295   -0.0341   -0.0194   -0.0085    0.0219
          24    0.0430    0.0014    0.0002    0.0049    0.0069    0.0059    0.0123   -0.0138
          25   -0.0206   -0.0248   -0.0554    0.0490    0.0635    0.0152    0.1396   -0.0203
          26    0.1080    0.0217   -0.0125   -0.0695    0.0076    0.0118   -0.1285   -0.0032
          27   -0.0561   -0.0183   -0.0138    0.0657    0.0185   -0.0025    0.1745   -0.0122
          28    0.0391   -0.0326   -0.0608    0.0584    0.0648    0.0320    0.1544   -0.0375
          29    0.1169    0.0160   -0.0114   -0.0703    0.0083    0.0148   -0.1495   -0.0023
          30    0.0303    0.0154    0.0162   -0.0550   -0.0204   -0.0029   -0.1568    0.0145
          31   -0.0220    0.0006    0.0029   -0.0070    0.0019    0.0055   -0.0045    0.0098
          32   -0.0857    0.0060    0.0104   -0.0497   -0.0976    0.2700    0.0055    0.0576
          33    0.0971   -0.0012    0.0028    0.0170    0.0767    0.0603   -0.0259    0.2147
          34   -0.0204   -0.0023   -0.0141    0.0114   -0.0712   -0.0205    0.0430   -0.1847
          35   -0.0509    0.0055    0.0042   -0.0287   -0.0673   -0.0659   -0.0540   -0.0976
          36    0.0257   -0.0014    0.0034    0.0050    0.0441    0.0229    0.0011    0.0850
          37   -0.0241   -0.0013   -0.0156   -0.0037   -0.1198    0.2716    0.0280    0.0431
          38   -0.0170   -0.0001   -0.0105    0.0053   -0.0473    0.0499    0.0000    0.0065
          39    0.0564   -0.0014    0.0169    0.0030    0.1111    0.0795    0.0608    0.1018
          40   -0.0299   -0.0747   -0.0071   -0.0428    0.0531    0.0311   -0.0221   -0.0422
          41    0.0069    0.1776    0.0900    0.0949    0.0176    0.0175   -0.0086   -0.0181
          42   -0.0022   -0.1180   -0.0713   -0.0930   -0.0216   -0.0225    0.0158    0.0247
          43   -0.0285   -0.0596    0.0027   -0.0319    0.0586    0.0371   -0.0247   -0.0500
          44    0.0100    0.1749    0.0870    0.0899    0.0149    0.0158   -0.0063   -0.0168
          45    0.0068    0.1354    0.0764    0.1026    0.0152    0.0191   -0.0132   -0.0200
          46    0.0134   -0.1250    0.1080    0.0496   -0.0119   -0.0022   -0.0071    0.0053
          47    0.0274   -0.1535    0.1585    0.0564   -0.0303   -0.0125    0.0059    0.0164
          48   -0.0025    0.0165   -0.0159   -0.0061    0.0021    0.0004    0.0007   -0.0006
          49    0.0918   -0.1330    0.1992   -0.0153   -0.0498   -0.0271    0.0456    0.0214
          50   -0.0106    0.0338   -0.0524   -0.0074    0.0141    0.0072   -0.0081   -0.0073
          51   -0.0082    0.0114   -0.0167    0.0017    0.0042    0.0025   -0.0044   -0.0022


   Root No.      33        34        35        36        37        38        39        40

                33 A      34 A      35 A      36 A      37 A      38 A      39 A      40 A   

                1409.2    1441.4    1913.7    2863.4    2946.7    2975.2    3034.4    3055.4
  
           1    0.0099   -0.0144   -0.0052   -0.0236   -0.0001   -0.0010   -0.0004    0.0007
           2    0.0118    0.0998   -0.0094   -0.0212   -0.0000   -0.0007   -0.0008   -0.0003
           3   -0.0081   -0.0189    0.0021   -0.0587   -0.0004   -0.0021   -0.0003   -0.0003
           4   -0.0135   -0.0018   -0.0178   -0.0009    0.0000   -0.0025   -0.0007    0.0252
           5    0.0047   -0.0466   -0.0293    0.0002    0.0000   -0.0006    0.0008   -0.0324
           6    0.0011    0.0041    0.0026    0.0037    0.0009   -0.0581    0.0001   -0.0039
           7   -0.0047    0.0865   -0.0320    0.0003   -0.0033   -0.0001   -0.0040   -0.0002
           8   -0.0044    0.0225    0.0097    0.0002   -0.0017   -0.0000    0.0417    0.0019
           9    0.0003   -0.0062    0.0027    0.0002   -0.0589   -0.0011   -0.0031   -0.0001
          10    0.0181   -0.0068    0.0009    0.0013   -0.0000   -0.0000    0.0001    0.0003
          11   -0.0320   -0.0237    0.0013    0.0013    0.0000   -0.0002   -0.0000    0.0008
          12    0.0127    0.0216   -0.0012    0.0006    0.0000    0.0000   -0.0000    0.0009
          13    0.0009   -0.0162    0.2576    0.0004    0.0001    0.0001   -0.0005   -0.0002
          14   -0.0017    0.0379    0.0956    0.0002   -0.0000    0.0002    0.0004   -0.0005
          15    0.0001   -0.0004   -0.0271   -0.0001   -0.0001   -0.0001    0.0000    0.0000
          16    0.0007   -0.0099   -0.1971   -0.0001   -0.0001   -0.0001    0.0000    0.0000
          17    0.0007   -0.0068   -0.0732   -0.0000   -0.0000   -0.0000   -0.0000    0.0000
          18   -0.0001    0.0013    0.0210    0.0000   -0.0001   -0.0001   -0.0000   -0.0000
          19    0.0037   -0.0361   -0.0084   -0.0003   -0.0002   -0.0000    0.0002   -0.0004
          20   -0.0004   -0.0926    0.0046   -0.0014   -0.0001   -0.0001    0.0008    0.0003
          21   -0.0003    0.0032    0.0006   -0.0009   -0.0008   -0.0002   -0.0001    0.0000
          22   -0.0063    0.0240   -0.0010    0.2851    0.0011    0.0142    0.0016    0.0030
          23   -0.0129   -0.0726    0.0002    0.2615    0.0007    0.0092    0.0007    0.0011
          24    0.0073    0.0251   -0.0057    0.7271    0.0025    0.0247    0.0035    0.0042
          25    0.0397    0.0159    0.0261    0.0062    0.0027   -0.1535    0.0063   -0.1712
          26   -0.0261    0.0526    0.0134   -0.0165   -0.0040    0.2128   -0.0092    0.2416
          27    0.0416   -0.0482   -0.0033   -0.0232   -0.0053    0.2940   -0.0146    0.3945
          28    0.0576    0.0321    0.0212   -0.0062   -0.0033    0.1865    0.0050   -0.1352
          29   -0.0280    0.0646    0.0069    0.0112    0.0039   -0.2056   -0.0055    0.1455
          30   -0.0417    0.0368   -0.0006   -0.0224   -0.0073    0.4049    0.0128   -0.3480
          31    0.0083    0.0001    0.0007   -0.0091   -0.0001   -0.0040   -0.0007   -0.0003
          32    0.0701    0.0281    0.0004    0.0032   -0.0000    0.0002    0.0001    0.0004
          33    0.1550   -0.0672   -0.0004   -0.0033   -0.0000   -0.0000   -0.0001    0.0005
          34   -0.2266    0.0409   -0.0008   -0.0074   -0.0001   -0.0007   -0.0001   -0.0037
          35    0.2454    0.0377   -0.0006   -0.0081   -0.0001   -0.0001   -0.0000   -0.0036
          36    0.0015   -0.0211    0.0001   -0.0127   -0.0002    0.0008    0.0000   -0.0111
          37   -0.0614   -0.0196    0.0009    0.0043    0.0001   -0.0004   -0.0001    0.0024
          38   -0.0026   -0.0219    0.0011   -0.0092    0.0000    0.0004    0.0001   -0.0064
          39   -0.2286    0.0138   -0.0018   -0.0035   -0.0001   -0.0000    0.0001   -0.0006
          40    0.0034   -0.0662    0.0175    0.0000   -0.0018    0.0001   -0.0009   -0.0002
          41    0.0044   -0.0022    0.0062   -0.0002    0.2939    0.0049   -0.2209   -0.0076
          42   -0.0054    0.0077    0.0022    0.0008    0.3967    0.0065   -0.3611   -0.0126
          43    0.0054   -0.0631    0.0215    0.0002    0.0431    0.0006    0.0504    0.0015
          44    0.0044    0.0017    0.0050    0.0047   -0.2717   -0.0044   -0.2785   -0.0096
          45    0.0053   -0.0002   -0.0061   -0.0060    0.3225    0.0052    0.3995    0.0139
          46   -0.0011    0.0188   -0.0858   -0.0000   -0.0003   -0.0005    0.0009    0.0012
          47   -0.0019    0.0334    0.1343    0.0000    0.0001    0.0003   -0.0008   -0.0017
          48    0.0002   -0.0031    0.0036   -0.0000   -0.0008    0.0005   -0.0001   -0.0001
          49    0.0001    0.0004    0.0223    0.0000   -0.0000   -0.0002   -0.0000   -0.0000
          50    0.0008   -0.0080   -0.1578    0.0001   -0.0002   -0.0007    0.0023    0.0009
          51   -0.0000    0.0001    0.0033    0.0001    0.0007   -0.0008   -0.0001   -0.0000


   Root No.      41        42        43        44        45

                41 A      42 A      43 A      44 A      45 A   

                3079.9    3088.6    3142.8    3145.5    3177.5
  
           1   -0.0004   -0.0003   -0.0000   -0.0000   -0.0003
           2   -0.0004    0.0000   -0.0000    0.0000   -0.0004
           3   -0.0011   -0.0002    0.0000   -0.0000    0.0003
           4    0.0006    0.0002   -0.0001    0.0004   -0.0000
           5   -0.0006    0.0003    0.0001    0.0002    0.0001
           6   -0.0001   -0.0004   -0.0001   -0.0001   -0.0002
           7   -0.0000    0.0000    0.0001   -0.0005    0.0000
           8    0.0001    0.0000   -0.0001   -0.0001    0.0000
           9   -0.0000   -0.0000   -0.0000    0.0001    0.0000
          10   -0.0155   -0.0460   -0.0000   -0.0000   -0.0110
          11   -0.0342    0.0265   -0.0000    0.0000   -0.0134
          12   -0.0354   -0.0056    0.0000    0.0000    0.0172
          13    0.0000    0.0000    0.0064    0.0002    0.0000
          14   -0.0000   -0.0000    0.0024   -0.0005   -0.0000
          15   -0.0000    0.0000   -0.0007   -0.0000   -0.0000
          16    0.0000   -0.0000   -0.0442    0.0225    0.0000
          17    0.0000    0.0000   -0.0162   -0.0610    0.0000
          18   -0.0000    0.0000    0.0047   -0.0001    0.0000
          19    0.0000   -0.0002   -0.0001   -0.0000   -0.0001
          20    0.0002   -0.0003   -0.0000    0.0000    0.0000
          21   -0.0001    0.0001    0.0000   -0.0000    0.0000
          22    0.0032   -0.0002   -0.0001   -0.0000    0.0001
          23    0.0017    0.0011   -0.0001   -0.0000   -0.0000
          24    0.0147    0.0034   -0.0001   -0.0000    0.0022
          25   -0.0034   -0.0000    0.0004    0.0002    0.0002
          26    0.0045    0.0004   -0.0005    0.0006   -0.0004
          27    0.0076    0.0004   -0.0007    0.0005   -0.0007
          28   -0.0019    0.0021    0.0007    0.0002    0.0003
          29    0.0028   -0.0007   -0.0007    0.0004   -0.0013
          30   -0.0079    0.0021    0.0015   -0.0004    0.0027
          31    0.1303    0.4529    0.0003    0.0002    0.3326
          32   -0.0271   -0.0211   -0.0000   -0.0000   -0.0298
          33   -0.0148    0.0090   -0.0000    0.0000    0.0160
          34    0.1503    0.0183   -0.0001   -0.0000   -0.1091
          35    0.1334    0.0528   -0.0001    0.0000   -0.1058
          36    0.4125    0.1094   -0.0001    0.0000   -0.2775
          37   -0.0967    0.0781   -0.0001   -0.0000   -0.0890
          38    0.3030   -0.3482    0.0004   -0.0000    0.3001
          39    0.0258   -0.0527    0.0000   -0.0000    0.0499
          40    0.0001   -0.0001    0.0000   -0.0004    0.0000
          41   -0.0000   -0.0002    0.0011    0.0002   -0.0001
          42   -0.0003   -0.0002    0.0014    0.0004   -0.0001
          43    0.0000    0.0001   -0.0002   -0.0005    0.0000
          44   -0.0002   -0.0003    0.0010    0.0003   -0.0001
          45    0.0003    0.0004   -0.0012   -0.0004    0.0001
          46   -0.0001    0.0001    0.3662   -0.3729   -0.0002
          47    0.0000   -0.0001   -0.2940    0.2746    0.0002
          48   -0.0000   -0.0000   -0.0247    0.0259    0.0000
          49   -0.0000   -0.0000    0.0850    0.1038   -0.0001
          50   -0.0001   -0.0001    0.4594    0.4540   -0.0003
          51    0.0000   -0.0000   -0.0235   -0.0251    0.0000


           MASS-WEIGHTED COORDINATE ANALYSIS (NORMAL COORDINATES)


   Root No.       1         2         3         4         5         6         7         8

                 1 A       2 A       3 A       4 A       5 A       6 A       7 A       8 A   

                  66.1     140.3     159.4     304.5     393.8     423.3     442.3     583.4
  
           1    0.0739    0.0234    0.0690    0.0853    0.1835   -0.1311    0.0460    0.3096
           2    0.0341   -0.0850   -0.0929   -0.1209   -0.1376    0.0884   -0.0070    0.1617
           3    0.0696   -0.1735   -0.0765    0.0175   -0.2664   -0.3030    0.2842    0.1374
           4    0.0726    0.0278    0.0720    0.1256    0.1453   -0.1201    0.0500    0.2197
           5    0.0583   -0.0449   -0.0259   -0.1716    0.1292   -0.1817    0.0644   -0.2366
           6    0.4740   -0.0486    0.0496   -0.1553   -0.0373    0.1318   -0.1271    0.0265
           7    0.0410   -0.0003   -0.0260    0.1151   -0.2333    0.1071   -0.0033   -0.0946
           8    0.0352   -0.0643   -0.0584   -0.1589    0.0308   -0.0533    0.0674    0.1131
           9    0.1160    0.3827    0.1838   -0.0059    0.1015    0.0510   -0.0367   -0.1182
          10   -0.2345    0.0066   -0.0496   -0.3968   -0.0249    0.2839   -0.1749    0.1113
          11   -0.1931    0.2617    0.1607    0.1760    0.2473    0.1156   -0.1654    0.1636
          12   -0.2844    0.0998    0.0627   -0.0016   -0.0860   -0.0934    0.0651   -0.1317
          13    0.0412    0.0005    0.0039    0.1210   -0.1013    0.0083    0.0674   -0.2609
          14    0.0413   -0.0311   -0.0021   -0.1389    0.2124   -0.2348    0.1208   -0.1617
          15    0.0316    0.1007    0.0809   -0.0775    0.1329    0.4387    0.5079    0.0247
          16   -0.0055   -0.0415   -0.0461   -0.0698    0.0552   -0.1794    0.0530   -0.3259
          17    0.0261    0.0058    0.0824    0.4070   -0.2677    0.0849   -0.0133   -0.1497
          18   -0.4519   -0.1600   -0.0932    0.0023   -0.0456   -0.1054   -0.1631    0.0335
          19    0.0468   -0.0249   -0.0107    0.1541   -0.0278   -0.0217    0.0219    0.0238
          20    0.0193   -0.0812   -0.1059   -0.1251   -0.2262    0.1399   -0.0093    0.0666
          21    0.0940   -0.3214   -0.2924    0.2995    0.3217    0.0396   -0.2543    0.0836
          22    0.1031    0.0330    0.0423    0.0146    0.1012   -0.0364   -0.0064    0.0786
          23    0.0676   -0.1215   -0.0853   -0.0208   -0.0988    0.0163    0.0031    0.1732
          24   -0.0338   -0.0234   -0.0095    0.0049   -0.0694   -0.0794    0.0815   -0.0049
          25    0.0936    0.0307    0.0475   -0.0019    0.1274    0.0176   -0.1034    0.0064
          26   -0.0830    0.0106    0.0011   -0.0213    0.0885   -0.0323    0.2584    0.0228
          27    0.2425   -0.0192    0.0216   -0.0832   -0.0045    0.0505   -0.2666   -0.0894
          28   -0.0523   -0.0092    0.0122    0.0551    0.0257   -0.1306    0.1353    0.1415
          29    0.1317   -0.0324   -0.0026   -0.0881    0.0398   -0.1166   -0.2427   -0.1737
          30    0.2280   -0.0161    0.0206   -0.0753   -0.0019    0.0515   -0.2296   -0.0822
          31   -0.0680   -0.0095    0.0071   -0.1117   -0.0031    0.0807   -0.0513    0.0343
          32   -0.0662   -0.1411    0.4538    0.1308    0.1657   -0.0201   -0.0482    0.0852
          33   -0.1779   -0.1502    0.2968   -0.1200   -0.0524    0.0996   -0.0630   -0.1205
          34   -0.1614   -0.2115    0.3502   -0.1976   -0.0025    0.1811   -0.1226   -0.0274
          35   -0.1069    0.3446   -0.2122    0.0942    0.1411    0.0731   -0.1063    0.0153
          36   -0.0334    0.0159   -0.0240    0.0134   -0.0482   -0.0718    0.0600   -0.0076
          37   -0.0466    0.2282   -0.4360   -0.1788   -0.0911    0.1241   -0.0465    0.0109
          38   -0.0465    0.1065   -0.0406    0.0249    0.0400    0.0446   -0.0433    0.0442
          39   -0.1154    0.2831   -0.1862    0.0968    0.0800   -0.0345   -0.0201   -0.0518
          40    0.0175   -0.0565   -0.0647    0.0983   -0.0358    0.0582   -0.1352   -0.0220
          41   -0.0163   -0.2018   -0.1345    0.0460    0.2109    0.2232    0.1288   -0.1051
          42    0.0531    0.2439    0.1387   -0.0693   -0.1227   -0.1638   -0.0938    0.0717
          43    0.0067    0.0591    0.0389   -0.0359   -0.2090    0.0657    0.0923    0.0498
          44    0.0351    0.1563    0.0937   -0.1336   -0.1946   -0.2333   -0.0872    0.1723
          45    0.0547    0.2436    0.1363   -0.0646   -0.1194   -0.1718   -0.1118    0.0729
          46   -0.0038   -0.0128   -0.0021    0.0872   -0.0995    0.0202   -0.0218   -0.0672
          47    0.0069    0.0084    0.0425    0.2651   -0.2313    0.1328   -0.0441   -0.0346
          48   -0.1568   -0.1322   -0.0677   -0.0209   -0.0503   -0.1294   -0.1590    0.3344
          49   -0.0114   -0.0224   -0.0384   -0.1939    0.1983   -0.1976    0.0525   -0.1463
          50    0.0043    0.0048    0.0290    0.1599   -0.1206    0.0539   -0.0178   -0.0516
          51   -0.2298   -0.0301   -0.0331    0.0454   -0.0283   -0.1006   -0.1504   -0.3149


   Root No.       9        10        11        12        13        14        15        16

                 9 A      10 A      11 A      12 A      13 A      14 A      15 A      16 A   

                 608.7     676.7     735.7     863.5     902.5     915.6     941.2     951.4
  
           1    0.2102   -0.0427    0.0622    0.0135   -0.0640   -0.0978   -0.0179   -0.1040
           2    0.0778   -0.2921    0.1265    0.0298   -0.0437    0.0205   -0.0433    0.0530
           3    0.1690   -0.1445    0.1525    0.0736   -0.0008   -0.0502   -0.0296   -0.1130
           4    0.1303   -0.1203    0.0819   -0.0082   -0.1109    0.2116    0.2018    0.3632
           5   -0.1480   -0.0163   -0.0120   -0.1473   -0.0469   -0.1567    0.1663   -0.3374
           6   -0.0063   -0.0467   -0.0371   -0.2018    0.4450   -0.0114   -0.0155   -0.0415
           7   -0.0135    0.2019   -0.0038   -0.0713   -0.0053    0.1387    0.0340   -0.2252
           8    0.1569    0.4480   -0.0700    0.0208    0.0163   -0.1723    0.0115    0.2840
           9    0.0355    0.0998    0.4832    0.1459    0.0076   -0.0312    0.0334   -0.0264
          10    0.0355   -0.0795    0.0062   -0.0318   -0.0370   -0.1075   -0.1252   -0.2516
          11    0.0249   -0.1955    0.0111    0.0095    0.0466   -0.0376   -0.2567   -0.0426
          12   -0.0215    0.1203    0.0065    0.0457   -0.1194    0.0300    0.0146    0.0792
          13   -0.2002   -0.2136    0.0027    0.0208   -0.0026   -0.0488   -0.0403    0.0848
          14   -0.0982    0.0691   -0.0603    0.0694    0.0471    0.0393   -0.0245    0.0019
          15   -0.0737   -0.0363   -0.2468    0.0446   -0.1618    0.0124   -0.0173    0.0055
          16   -0.2378   -0.2239    0.0173    0.0256    0.0141   -0.1868   -0.0114    0.1920
          17   -0.0950   -0.0197   -0.0192    0.0864    0.0683    0.3676   -0.1566   -0.0416
          18    0.0339    0.0241   -0.0020    0.0036   -0.0551    0.0085   -0.0079   -0.0042
          19    0.0699    0.4894   -0.2153    0.2475    0.2188   -0.1100   -0.2555   -0.0943
          20    0.0670    0.0132    0.0871   -0.2038   -0.1438    0.1258    0.0319    0.1773
          21   -0.1305   -0.0839   -0.3242   -0.1436   -0.0866    0.0170   -0.0340    0.0326
          22    0.0565   -0.0134    0.0818   -0.3332    0.0226    0.0086    0.0533    0.0526
          23    0.0677   -0.2299   -0.0851    0.6117    0.2353   -0.0256    0.3701   -0.1318
          24    0.0309    0.0144    0.0589   -0.0636   -0.1074   -0.0134   -0.1627   -0.0052
          25    0.0320    0.0615   -0.0533    0.0505   -0.2800    0.1067    0.1569    0.1849
          26   -0.1175    0.0152   -0.0633   -0.2526    0.2141   -0.0403    0.1455   -0.1250
          27    0.0471    0.0214   -0.0094    0.1215   -0.1593    0.0154   -0.0232    0.0421
          28    0.0749   -0.0465    0.0862   -0.1190    0.1513    0.0442    0.1361    0.0330
          29    0.0521    0.0500    0.0397    0.1437   -0.3355   -0.0512    0.1066   -0.1517
          30    0.0322    0.0200   -0.0178    0.0935   -0.1250    0.0013   -0.0127   -0.0034
          31    0.0114   -0.0219    0.0002   -0.0092   -0.0111   -0.0354   -0.0317   -0.0839
          32    0.0287   -0.0405   -0.0242   -0.0115   -0.0665   -0.1017    0.0051   -0.2588
          33   -0.0790    0.0562   -0.0497    0.0531    0.1583    0.1334    0.1883    0.3025
          34   -0.0475   -0.0030   -0.0470    0.0179    0.1596    0.0502    0.1387    0.0981
          35   -0.0439   -0.0139   -0.0974    0.0519    0.1582    0.0177    0.2656   -0.0114
          36    0.0292    0.0139    0.0487   -0.0097   -0.1360   -0.0273   -0.1577   -0.0343
          37   -0.0025   -0.0496    0.0277    0.0124    0.0749    0.0334   -0.1316    0.1130
          38    0.0072   -0.0717    0.0189    0.0097    0.0313    0.0053   -0.1328    0.0415
          39   -0.0385    0.0971   -0.0969    0.0292    0.0201    0.0025    0.3621   -0.0660
          40    0.0065    0.1557    0.2817   -0.2773    0.1148    0.2011    0.2441   -0.1714
          41    0.1324    0.2154    0.3029    0.0812   -0.0177   -0.0481    0.0705    0.0687
          42   -0.0560   -0.0314   -0.1056   -0.0195    0.0178   -0.0077   -0.0363    0.0060
          43    0.0412    0.0168   -0.2270   -0.0844   -0.3448    0.1885    0.2663   -0.2364
          44   -0.0246    0.0918   -0.3217   -0.1140   -0.0083   -0.0256    0.0235    0.1221
          45   -0.0565   -0.0028   -0.0846   -0.0467    0.0389   -0.0104   -0.0120    0.0441
          46   -0.1209   -0.0726    0.0401   -0.0419   -0.0285   -0.3921    0.0938    0.1498
          47   -0.0460   -0.0264    0.0172   -0.0502   -0.0280   -0.3541    0.0866    0.1120
          48   -0.5183    0.1592    0.2559    0.0719    0.0139    0.0356    0.0131   -0.0430
          49   -0.0319   -0.0658   -0.0216    0.1066    0.0954    0.4871   -0.1853   -0.0183
          50   -0.0056   -0.0129   -0.0058   -0.0034    0.0108   -0.0205   -0.0033    0.0076
          51    0.5866   -0.1162   -0.1105   -0.1192    0.1789   -0.0433    0.0353   -0.0091


   Root No.      17        18        19        20        21        22        23        24

                17 A      18 A      19 A      20 A      21 A      22 A      23 A      24 A   

                 972.7     979.8    1009.2    1038.2    1069.3    1097.3    1133.4    1226.4
  
           1    0.0859    0.0380    0.0023    0.0784    0.0423    0.2044   -0.1934   -0.2299
           2   -0.0436    0.0114    0.0193   -0.1243    0.0041    0.0844   -0.0758   -0.2040
           3   -0.0033   -0.0064   -0.0996   -0.0147    0.1395    0.0065   -0.3925    0.2502
           4   -0.1492   -0.0110    0.0589   -0.0819   -0.0418   -0.2480    0.1341   -0.2624
           5   -0.2869   -0.0281   -0.0136   -0.0802    0.0093    0.0538   -0.0201   -0.2448
           6    0.0496   -0.0651    0.0003    0.0492   -0.2022   -0.1727    0.1116   -0.0490
           7   -0.1306   -0.0392   -0.0270   -0.1436   -0.0125    0.0209    0.0146   -0.0096
           8    0.2362    0.0263    0.0055    0.2305    0.0053   -0.0208    0.0106    0.0746
           9    0.0364   -0.1616   -0.0627    0.0121   -0.1553   -0.0144   -0.0270   -0.0013
          10    0.2071    0.0579    0.0586   -0.0455   -0.0515   -0.1027    0.0756    0.0853
          11   -0.2109   -0.0406   -0.0042    0.2017    0.0053   -0.0173   -0.0097    0.0997
          12   -0.0411    0.0700    0.1664    0.0074   -0.1422    0.1919    0.3212   -0.0745
          13    0.1052    0.0187    0.0120    0.0220    0.0369    0.0145    0.0046    0.0277
          14    0.0146    0.0096    0.0081    0.0686    0.0152   -0.0186   -0.0085   -0.1638
          15   -0.0339    0.1144    0.1128   -0.0174    0.4181    0.0206    0.0647    0.0209
          16    0.1657    0.0452   -0.0153    0.1311   -0.0351   -0.0227   -0.0048    0.0582
          17    0.1644    0.0162   -0.0218    0.0318   -0.0096    0.0264   -0.0093    0.0852
          18   -0.0604    0.2786   -0.3399    0.0017   -0.2428   -0.0123   -0.0175   -0.0131
          19   -0.2098   -0.0550   -0.0542   -0.1942    0.0126    0.0270   -0.0157   -0.0319
          20    0.1293   -0.0211   -0.0144   -0.4142   -0.0306   -0.0479    0.0990    0.0090
          21    0.0101   -0.0835   -0.0293    0.0406   -0.0119    0.0065    0.0192   -0.0064
          22    0.0768   -0.0972   -0.1962   -0.0967    0.0644    0.7157    0.0979    0.2154
          23   -0.0368    0.1195    0.1267    0.0681   -0.1029    0.1699    0.2186    0.0757
          24   -0.0146   -0.0009    0.0081   -0.0014    0.0540   -0.3072   -0.2616   -0.0893
          25   -0.1981    0.1040    0.3523   -0.1645   -0.2573   -0.0122   -0.2464    0.4088
          26   -0.2153   -0.0031    0.2194   -0.1095   -0.3320   -0.0541   -0.1092    0.2999
          27    0.0231    0.0323    0.0140    0.0027    0.0539    0.0215   -0.0406   -0.0277
          28   -0.1144   -0.1373   -0.2906   -0.0007    0.1778   -0.3208    0.4369    0.2673
          29   -0.2137   -0.0334   -0.2075   -0.0543    0.3190   -0.0933    0.1786    0.2860
          30   -0.0147    0.0315    0.0390   -0.0104    0.0167    0.0095   -0.0617    0.0070
          31    0.0747    0.0195    0.0166   -0.0196   -0.0148   -0.0306    0.0208    0.0351
          32    0.2723    0.0678    0.0418   -0.1000   -0.0264   -0.1162    0.0298    0.1065
          33   -0.2213   -0.0928   -0.1202    0.0387    0.0816    0.1326   -0.1587   -0.1455
          34   -0.0502   -0.0747   -0.1491   -0.0016    0.1102    0.0050   -0.2153    0.0537
          35    0.1243   -0.0466   -0.1633   -0.0975    0.1270   -0.0792   -0.2665    0.0626
          36   -0.0313    0.0623    0.1550    0.0456   -0.1232    0.0714    0.2546   -0.0479
          37   -0.2446   -0.0585   -0.0370    0.1531    0.0298    0.0537   -0.0642    0.0738
          38   -0.1748   -0.0326   -0.0057    0.1279    0.0066    0.0264   -0.0111    0.0591
          39    0.3388    0.0380   -0.0494   -0.2521    0.0290   -0.0393   -0.0519   -0.1230
          40   -0.0786    0.5307    0.2048    0.3371    0.2706   -0.0131   -0.0303   -0.0451
          41    0.1252   -0.0926   -0.0303    0.1948   -0.0916   -0.0256   -0.0084    0.1091
          42   -0.0269    0.0332    0.0079   -0.0787    0.0273    0.0075    0.0018   -0.0536
          43    0.0392   -0.4262   -0.1045    0.4662   -0.2414   -0.0175   -0.0498   -0.0640
          44    0.0924    0.1285    0.0526    0.1949    0.0938   -0.0162    0.0169    0.1101
          45    0.0138    0.1085    0.0366    0.0292    0.0642   -0.0066    0.0092    0.0682
          46    0.0224   -0.0285    0.0506    0.0803    0.0152   -0.0278    0.0024    0.0800
          47   -0.0014   -0.0070    0.0244    0.0635    0.0026   -0.0217    0.0003    0.0944
          48    0.0534   -0.4007    0.3584   -0.0238    0.2478    0.0205    0.0164   -0.0035
          49    0.2156   -0.0198    0.0319    0.0532    0.0147    0.0150   -0.0042    0.2269
          50    0.0173   -0.0093    0.0143    0.0092    0.0077    0.0027   -0.0012   -0.0151
          51    0.0271   -0.3167    0.4207   -0.0221    0.2279    0.0002    0.0173   -0.0227


   Root No.      25        26        27        28        29        30        31        32

                25 A      26 A      27 A      28 A      29 A      30 A      31 A      32 A   

                1290.6    1299.0    1329.4    1361.2    1378.9    1392.9    1399.2    1403.5
  
           1    0.5575   -0.0481   -0.1500    0.2243   -0.1519    0.0492    0.0165   -0.1196
           2    0.0984    0.0306    0.1641   -0.2028    0.3351    0.1705    0.1165   -0.1978
           3   -0.2378    0.0103    0.0015   -0.0080    0.0220   -0.0889   -0.0346    0.1284
           4   -0.2828    0.0844    0.2272   -0.1921   -0.1329   -0.0772   -0.1789    0.1070
           5   -0.0350    0.1436    0.2112   -0.1215   -0.1671   -0.1005    0.3574    0.0410
           6    0.0658   -0.0059   -0.0183    0.0089    0.0036    0.0174   -0.0125   -0.0224
           7   -0.0349    0.0636   -0.0720    0.3088   -0.3009   -0.1803    0.0625    0.3023
           8    0.0420   -0.0775   -0.2072   -0.3619   -0.1773   -0.1539    0.1448    0.1860
           9   -0.0038   -0.0104    0.0012   -0.0240    0.0209    0.0109   -0.0048   -0.0171
          10   -0.1125    0.0043    0.0283   -0.0224    0.1689   -0.1897   -0.0636    0.1459
          11   -0.0266   -0.0028   -0.0335    0.0717    0.1221   -0.2305    0.0040    0.1369
          12    0.0319   -0.0040   -0.0059   -0.0220   -0.1826   -0.0205   -0.0010   -0.3536
          13    0.0688    0.2252   -0.1296   -0.1984   -0.0018   -0.0130    0.0779   -0.0138
          14   -0.2952   -0.2527   -0.1694    0.4612    0.1413    0.0952   -0.2703   -0.0285
          15    0.0021   -0.0158    0.0146    0.0060   -0.0017   -0.0021    0.0023    0.0036
          16   -0.0318    0.0327   -0.2107   -0.0096    0.1101    0.0551   -0.0697   -0.0596
          17    0.0696    0.0808   -0.0721   -0.0893    0.0088   -0.0022    0.0316   -0.0084
          18    0.0009   -0.0051    0.0225    0.0032   -0.0111   -0.0051    0.0055    0.0058
          19   -0.1005   -0.0682    0.1833   -0.1298    0.2893    0.1469   -0.0478   -0.2130
          20    0.0823   -0.1034   -0.0650    0.2132   -0.1081    0.0447   -0.1678   -0.1026
          21    0.0159    0.0051   -0.0144    0.0091   -0.0223   -0.0112    0.0051    0.0115
          22   -0.2174   -0.0049    0.0413   -0.0702    0.0932   -0.0025   -0.0446    0.0324
          23   -0.0150   -0.0023   -0.0412    0.0595   -0.0850   -0.0410   -0.0181    0.0470
          24    0.0975    0.0032    0.0005    0.0099    0.0172    0.0125    0.0260   -0.0296
          25   -0.0467   -0.0554   -0.1335    0.0988    0.1585    0.0322    0.2955   -0.0437
          26    0.2448    0.0483   -0.0300   -0.1402    0.0190    0.0249   -0.2721   -0.0068
          27   -0.1272   -0.0408   -0.0332    0.1326    0.0461   -0.0052    0.3697   -0.0262
          28    0.0887   -0.0727   -0.1464    0.1179    0.1616    0.0674    0.3270   -0.0805
          29    0.2649    0.0357   -0.0276   -0.1419    0.0207    0.0312   -0.3167   -0.0050
          30    0.0687    0.0343    0.0390   -0.1110   -0.0509   -0.0061   -0.3322    0.0312
          31   -0.0499    0.0013    0.0071   -0.0142    0.0048    0.0116   -0.0095    0.0209
          32   -0.1942    0.0135    0.0250   -0.1003   -0.2436    0.5697    0.0116    0.1236
          33    0.2200   -0.0027    0.0069    0.0342    0.1914    0.1273   -0.0548    0.4610
          34   -0.0463   -0.0050   -0.0339    0.0229   -0.1777   -0.0432    0.0910   -0.3965
          35   -0.1154    0.0122    0.0101   -0.0579   -0.1680   -0.1390   -0.1144   -0.2095
          36    0.0583   -0.0032    0.0083    0.0100    0.1101    0.0484    0.0024    0.1825
          37   -0.0546   -0.0029   -0.0376   -0.0075   -0.2990    0.5732    0.0593    0.0925
          38   -0.0386   -0.0003   -0.0253    0.0106   -0.1182    0.1052    0.0000    0.0140
          39    0.1278   -0.0031    0.0407    0.0061    0.2773    0.1679    0.1288    0.2187
          40   -0.0677   -0.1665   -0.0170   -0.0864    0.1325    0.0656   -0.0468   -0.0906
          41    0.0156    0.3962    0.2169    0.1915    0.0440    0.0369   -0.0181   -0.0388
          42   -0.0049   -0.2632   -0.1718   -0.1877   -0.0538   -0.0475    0.0334    0.0530
          43   -0.0645   -0.1328    0.0066   -0.0644    0.1462    0.0784   -0.0523   -0.1074
          44    0.0227    0.3900    0.2097    0.1815    0.0372    0.0333   -0.0134   -0.0360
          45    0.0155    0.3019    0.1840    0.2071    0.0380    0.0404   -0.0279   -0.0429
          46    0.0303   -0.2789    0.2601    0.1001   -0.0298   -0.0046   -0.0150    0.0115
          47    0.0621   -0.3423    0.3819    0.1139   -0.0756   -0.0264    0.0124    0.0352
          48   -0.0056    0.0368   -0.0382   -0.0124    0.0053    0.0008    0.0015   -0.0013
          49    0.2080   -0.2967    0.4798   -0.0308   -0.1242   -0.0571    0.0967    0.0459
          50   -0.0241    0.0753   -0.1261   -0.0149    0.0353    0.0152   -0.0172   -0.0156
          51   -0.0185    0.0254   -0.0401    0.0034    0.0105    0.0053   -0.0093   -0.0046


   Root No.      33        34        35        36        37        38        39        40

                33 A      34 A      35 A      36 A      37 A      38 A      39 A      40 A   

                1409.2    1441.4    1913.7    2863.4    2946.7    2975.2    3034.4    3055.4
  
           1    0.0709   -0.0751   -0.0146   -0.0952   -0.0003   -0.0052   -0.0023    0.0038
           2    0.0843    0.5203   -0.0264   -0.0856   -0.0002   -0.0035   -0.0041   -0.0015
           3   -0.0583   -0.0988    0.0059   -0.2364   -0.0021   -0.0112   -0.0014   -0.0016
           4   -0.0967   -0.0094   -0.0497   -0.0038    0.0001   -0.0130   -0.0036    0.1335
           5    0.0337   -0.2429   -0.0819    0.0009    0.0000   -0.0032    0.0041   -0.1717
           6    0.0077    0.0216    0.0072    0.0151    0.0045   -0.3033    0.0008   -0.0207
           7   -0.0340    0.4513   -0.0894    0.0011   -0.0168   -0.0003   -0.0209   -0.0010
           8   -0.0313    0.1175    0.0271    0.0009   -0.0087   -0.0001    0.2171    0.0100
           9    0.0018   -0.0322    0.0075    0.0006   -0.2981   -0.0059   -0.0163   -0.0007
          10    0.1298   -0.0354    0.0024    0.0054   -0.0001   -0.0002    0.0006    0.0014
          11   -0.2296   -0.1234    0.0035    0.0050    0.0002   -0.0009   -0.0001    0.0042
          12    0.0907    0.1127   -0.0033    0.0026    0.0002    0.0002   -0.0002    0.0047
          13    0.0068   -0.0844    0.7205    0.0018    0.0006    0.0007   -0.0024   -0.0011
          14   -0.0119    0.1977    0.2674    0.0009   -0.0002    0.0008    0.0021   -0.0028
[...]
 RED. MASS   0.7302         C  4 -- H 12         +11.8% ( 45.1%)     33.2%
 EFF. MASS   5.1035         C  1 -- H  8         +10.8% ( 43.1%)     50.5%

 VIBRATION   24   24A         ATOM PAIR      ENERGY CONTRIBUTION    RADIAL
 FREQ.      1226.36         C  2 -- H  9         +21.7% ( 60.3%)      0.3%
 T-DIPOLE    0.2093         C  2 -- H 10         +16.1% ( 51.9%)      0.1%
 TRAVEL      0.1113         C  1 -- H  8         +11.9% ( 44.7%)      0.9%
 RED. MASS   0.6204         C  1 -- C  4         +11.2% ( 43.3%)     95.1%
 EFF. MASS   4.4401         C  1 -- C  2         +10.8% ( 42.6%)      1.1%

 VIBRATION   25   25A         ATOM PAIR      ENERGY CONTRIBUTION    RADIAL
 FREQ.      1290.56         C  1 -- C  2         +20.1% ( 63.1%)     86.5%
 T-DIPOLE    0.1218         C  1 -- H  8         +17.2% ( 58.3%)      0.0%
 TRAVEL      0.0850         C  1 -- C  4         +15.1% ( 54.6%)     52.8%
 RED. MASS   1.9310         C  1 -- C  7         +14.4% ( 53.3%)      8.7%
 EFF. MASS   7.2338

 VIBRATION   26   26A         ATOM PAIR      ENERGY CONTRIBUTION    RADIAL
 FREQ.      1299.01         C  3 -- H 15         +18.2% ( 42.1%)      1.3%
 T-DIPOLE    0.1947         C  3 -- H 14         +17.5% ( 41.3%)      1.6%
 TRAVEL      0.1388         C  6 -- H 16         +15.7% ( 39.2%)      0.0%
 RED. MASS   0.3541         C  2 -- C  5         +13.4% ( 36.1%)     67.3%
 EFF. MASS   2.6946

 VIBRATION   27   27A         ATOM PAIR      ENERGY CONTRIBUTION    RADIAL
 FREQ.      1329.45         C  6 -- H 17         +17.3% ( 49.5%)      1.9%
 T-DIPOLE    0.2772         C  6 -- H 16         +15.6% ( 47.0%)      2.5%
 TRAVEL      0.1081         C  2 -- C  5         +10.6% ( 38.7%)     77.9%
 RED. MASS   0.3634         C  1 -- C  2          +7.2% ( 32.0%)     98.2%
 EFF. MASS   4.3410

 VIBRATION   28   28A         ATOM PAIR      ENERGY CONTRIBUTION    RADIAL
 FREQ.      1361.21         C  3 -- C  5         +22.2% ( 66.9%)     83.2%
 T-DIPOLE    0.7021         C  2 -- C  5         +11.3% ( 47.7%)     92.4%
 TRAVEL      0.0758         C  3 -- H 14         +10.4% ( 45.7%)      7.7%
 RED. MASS   1.5801         C  3 -- H 15         +10.4% ( 45.7%)      8.0%
 EFF. MASS   8.6207

 VIBRATION   29   29A         ATOM PAIR      ENERGY CONTRIBUTION    RADIAL
 FREQ.      1378.91         C  4 -- H 13         +11.7% ( 44.2%)      0.8%
 T-DIPOLE    0.2779         C  1 -- C  7         +11.0% ( 42.9%)     80.5%
 TRAVEL      0.0895         C  3 -- C  7         +10.2% ( 41.3%)     74.0%
 RED. MASS   0.6651         C  1 -- C  4          +7.3% ( 35.0%)     12.9%
 EFF. MASS   6.1060

 VIBRATION   30   30A         ATOM PAIR      ENERGY CONTRIBUTION    RADIAL
 FREQ.      1392.90         C  4 -- H 13         +26.6% ( 54.8%)      3.1%
 T-DIPOLE    0.1949         C  4 -- H 11         +25.4% ( 53.5%)      3.4%
 TRAVEL      0.1185         C  1 -- C  4          +9.1% ( 32.0%)     61.4%
 RED. MASS   0.4183         C  3 -- C  7          +6.7% ( 27.4%)     98.9%
 EFF. MASS   3.4483

 VIBRATION   31   31A         ATOM PAIR      ENERGY CONTRIBUTION    RADIAL
 FREQ.      1399.22         C  2 -- H 10         +25.7% ( 57.9%)      5.0%
 T-DIPOLE    0.3940         C  2 -- H  9         +24.1% ( 56.0%)      6.1%
 TRAVEL      0.1054         C  2 -- C  5         +16.0% ( 45.6%)     63.2%
 RED. MASS   0.5963         C  1 -- C  2          +8.7% ( 33.6%)     39.5%
 EFF. MASS   4.3372

 VIBRATION   32   32A         ATOM PAIR      ENERGY CONTRIBUTION    RADIAL
 FREQ.      1403.50         C  4 -- H 12         +17.6% ( 52.6%)      6.4%
 T-DIPOLE    0.2412         C  4 -- H 11         +17.2% ( 51.9%)      2.1%
 TRAVEL      0.0932         C  1 -- C  4         +12.5% ( 44.4%)     99.8%
 RED. MASS   0.7292         C  3 -- C  7         +11.0% ( 41.5%)     98.0%
 EFF. MASS   5.5294

 VIBRATION   33   33A         ATOM PAIR      ENERGY CONTRIBUTION    RADIAL
 FREQ.      1409.17         C  4 -- H 12         +44.0% ( 61.2%)      0.3%
 T-DIPOLE    0.0513         C  4 -- H 13         +22.9% ( 44.1%)     11.0%
 TRAVEL      0.1541         C  4 -- H 11         +13.6% ( 34.0%)      8.6%
 RED. MASS   0.3866         C  1 -- C  4          +7.8% ( 25.7%)     54.7%
 EFF. MASS   2.0155

 VIBRATION   34   34A         ATOM PAIR      ENERGY CONTRIBUTION    RADIAL
 FREQ.      1441.39         C  1 -- C  7         +19.8% ( 67.5%)     79.7%
 T-DIPOLE    1.9119         C  3 -- C  7         +17.7% ( 63.7%)     99.0%
 TRAVEL      0.0655         C  1 -- C  2         +10.3% ( 48.7%)      0.7%
 RED. MASS   2.5065         C  1 -- C  4         +10.0% ( 47.9%)     54.0%
 EFF. MASS  10.8974

 VIBRATION   35   35A         ATOM PAIR      ENERGY CONTRIBUTION    RADIAL
 FREQ.      1913.65         C  5 -- C  6         +44.3% ( 98.9%)    100.0%
 T-DIPOLE    0.2323         C  2 -- C  5         +18.4% ( 63.7%)     40.6%
 TRAVEL      0.0544         C  3 -- C  5         +18.4% ( 63.6%)     40.3%
 RED. MASS   5.7378         C  6 -- H 16          +9.0% ( 44.6%)     11.6%
 EFF. MASS  11.8995

 VIBRATION   36   36A         ATOM PAIR      ENERGY CONTRIBUTION    RADIAL
 FREQ.      2863.38         C  1 -- H  8         +96.9% ( 99.8%)    100.0%
 T-DIPOLE    0.3570         C  1 -- C  2          +0.9% (  9.8%)     10.6%
 TRAVEL      0.1286         C  1 -- C  4          +0.9% (  9.7%)      9.1%
 RED. MASS   0.9243         C  1 -- C  7          +0.9% (  9.7%)      4.8%
 EFF. MASS   1.4246

 VIBRATION   37   37A         ATOM PAIR      ENERGY CONTRIBUTION    RADIAL
 FREQ.      2946.67         C  3 -- H 14         +55.9% ( 77.4%)     97.4%
 T-DIPOLE    0.3556         C  3 -- H 15         +42.2% ( 67.3%)     95.9%
 TRAVEL      0.1231         C  3 -- C  5          +1.0% ( 10.1%)      0.1%
 RED. MASS   0.5229         C  3 -- C  7          +1.0% ( 10.1%)      0.0%
 EFF. MASS   1.5111

 VIBRATION   38   38A         ATOM PAIR      ENERGY CONTRIBUTION    RADIAL
 FREQ.      2975.19         C  2 -- H 10         +58.5% ( 79.3%)     97.6%
 T-DIPOLE    0.1078         C  2 -- H  9         +39.1% ( 64.8%)     95.2%
 TRAVEL      0.1215         C  2 -- C  5          +1.1% ( 10.9%)      0.1%
 RED. MASS   0.5343         C  1 -- C  2          +1.1% ( 10.9%)      0.1%
 EFF. MASS   1.5361

 VIBRATION   39   39A         ATOM PAIR      ENERGY CONTRIBUTION    RADIAL
 FREQ.      3034.41         C  3 -- H 15         +56.7% ( 74.3%)     98.4%
 T-DIPOLE    0.4458         C  3 -- H 14         +41.7% ( 63.7%)     96.7%
 TRAVEL      0.1314         C  3 -- C  5          +0.7% (  8.3%)     38.9%
 RED. MASS   0.4925         C  3 -- C  7          +0.7% (  8.3%)     27.4%
 EFF. MASS   1.2861

 VIBRATION   40   40A         ATOM PAIR      ENERGY CONTRIBUTION    RADIAL
 FREQ.      3055.45         C  2 -- H  9         +59.9% ( 76.4%)     98.6%
 T-DIPOLE    0.1077         C  2 -- H 10         +38.6% ( 61.3%)     95.9%
 TRAVEL      0.1310         C  2 -- C  5          +0.7% (  8.1%)     34.1%
 RED. MASS   0.5017         C  1 -- C  2          +0.7% (  8.1%)     36.5%
 EFF. MASS   1.2851

 VIBRATION   41   41A         ATOM PAIR      ENERGY CONTRIBUTION    RADIAL
 FREQ.      3079.92         C  4 -- H 12         +62.3% ( 81.4%)     98.6%
 T-DIPOLE    0.0240         C  4 -- H 13         +30.6% ( 57.1%)     92.8%
 TRAVEL      0.1206         C  4 -- H 11          +6.0% ( 25.3%)     59.5%
 RED. MASS   0.5142         C  1 -- C  4          +1.0% ( 10.3%)      0.0%
 EFF. MASS   1.5057

 VIBRATION   42   42A         ATOM PAIR      ENERGY CONTRIBUTION    RADIAL
 FREQ.      3088.61         C  4 -- H 11         +57.6% ( 78.3%)     98.3%
 T-DIPOLE    0.0856         C  4 -- H 13         +36.4% ( 62.3%)     94.4%
 TRAVEL      0.1202         C  4 -- H 12          +4.9% ( 22.8%)     52.1%
 RED. MASS   0.4981         C  1 -- C  4          +1.0% ( 10.5%)      0.0%
 EFF. MASS   1.5111

 VIBRATION   43   43A         ATOM PAIR      ENERGY CONTRIBUTION    RADIAL
 FREQ.      3142.78         C  6 -- H 16         +49.5% ( 70.3%)     95.3%
 T-DIPOLE    0.3139         C  6 -- H 17         +48.9% ( 69.9%)     95.2%
 TRAVEL      0.1242         C  5 -- C  6          +1.6% ( 12.5%)    100.0%
 RED. MASS   0.4861
 EFF. MASS   1.3904

 VIBRATION   44   44A         ATOM PAIR      ENERGY CONTRIBUTION    RADIAL
 FREQ.      3145.51         C  6 -- H 17         +49.6% ( 72.2%)     97.1%
 T-DIPOLE    0.2075         C  6 -- H 16         +49.1% ( 71.8%)     97.0%
 TRAVEL      0.1155         C  5 -- C  6          +1.3% ( 11.7%)      0.0%
 RED. MASS   0.5350
 EFF. MASS   1.6065

 VIBRATION   45   45A         ATOM PAIR      ENERGY CONTRIBUTION    RADIAL
 FREQ.      3177.47         C  4 -- H 11         +35.9% ( 57.7%)     97.4%
 T-DIPOLE    0.0707         C  4 -- H 13         +32.0% ( 54.5%)     96.9%
 TRAVEL      0.1368         C  4 -- H 12         +31.8% ( 54.3%)     96.9%
 RED. MASS   0.3279         C  1 -- C  4          +0.3% (  5.0%)     99.7%
 EFF. MASS   1.1335

      SYMMETRY NUMBER FOR POINT-GROUP C1  =  1


          SYSTEM IS A GROUND STATE



 InChI=1S/C7H10/c1-6-3-4-7(2)5-6/h7H,1,3,5H2,2H3/lp4


          MOLECULE IS NOT LINEAR

          THERE ARE 45 GENUINE VIBRATIONS IN THIS SYSTEM
          THIS THERMODYNAMICS CALCULATION IS LIMITED TO
          MOLECULES WHICH HAVE NO INTERNAL ROTATIONS




                    CALCULATED THERMODYNAMIC PROPERTIES
                                          *
   TEMP. (K)   PARTITION FUNCTION   H.O.F.    ENTHALPY  HEAT CAPACITY ENTROPY
                                   KCAL/MOL   CAL/MOLE    CAL/K/MOL  CAL/K/MOL


 298.00  VIB.     0.3755D+02                  2823.3655    21.5763    16.6794
         ROT.     0.1995D+06                   888.2813     2.9808    27.2315
         INT.     0.7490D+07                  3711.6468    24.5571    43.9109
         TRA.     0.8833D+27                  1480.4688     4.9680    39.5363
         TOT.                       79.470    5192.1156    29.5251    83.4472

 200.00  VIB.     0.8418D+01                  1154.4492    12.7130    10.0057
         ROT.     0.1097D+06                   596.1620     2.9808    26.0428
         INT.     0.9232D+06                  1750.6112    15.6938    36.0485
         TRA.     0.4856D+27                   993.6033     4.9680    37.5551
         TOT.                       77.022    2744.2144    20.6619    73.6037

 210.00  VIB.     0.9741D+01                  1285.7006    13.5411    10.6459
         ROT.     0.1180D+06                   625.9700     2.9808    26.1883
         INT.     0.1149D+07                  1911.6707    16.5220    36.8342
         TRA.     0.5225D+27                  1043.2834     4.9680    37.7975
         TOT.                       77.232    2954.9541    21.4900    74.6317

 220.00  VIB.     0.1129D+02                  1425.3479    14.3920    11.2954
         ROT.     0.1265D+06                   655.7781     2.9808    26.3269
         INT.     0.1428D+07                  2081.1261    17.3728    37.6223
         TRA.     0.5603D+27                  1092.9636     4.9680    38.0286
         TOT.                       77.452    3174.0896    22.3408    75.6510

 230.00  VIB.     0.1310D+02                  1573.6109    15.2640    11.9543
         ROT.     0.1353D+06                   685.5862     2.9808    26.4594
         INT.     0.1772D+07                  2259.1971    18.2448    38.4138
         TRA.     0.5989D+27                  1142.6437     4.9680    38.2495
         TOT.                       77.679    3401.8409    23.2128    76.6632

 240.00  VIB.     0.1523D+02                  1730.6913    16.1551    12.6227
         ROT.     0.1442D+06                   715.3943     2.9808    26.5863
         INT.     0.2195D+07                  2446.0856    19.1359    39.2090
         TRA.     0.6384D+27                  1192.3239     4.9680    38.4609
         TOT.                       77.916    3638.4095    24.1039    77.6699

 250.00  VIB.     0.1773D+02                  1896.7696    17.0632    13.3005
         ROT.     0.1533D+06                   745.2024     2.9808    26.7080
         INT.     0.2717D+07                  2641.9720    20.0440    40.0085
         TRA.     0.6787D+27                  1242.0041     4.9680    38.6637
         TOT.                       78.161    3883.9761    25.0120    78.6723

 260.00  VIB.     0.2067D+02                  2072.0024    17.9856    13.9877
         ROT.     0.1626D+06                   775.0105     2.9808    26.8249
         INT.     0.3360D+07                  2847.0129    20.9664    40.8126
         TRA.     0.7198D+27                  1291.6842     4.9680    38.8586
         TOT.                       78.416    4138.6971    25.9344    79.6712

 270.00  VIB.     0.2413D+02                  2256.5209    18.9199    14.6840
         ROT.     0.1720D+06                   804.8186     2.9808    26.9374
         INT.     0.4152D+07                  3061.3395    21.9007    41.6214
         TRA.     0.7618D+27                  1341.3644     4.9680    39.0461
         TOT.                       78.680    4402.7039    26.8687    80.6674

 280.00  VIB.     0.2822D+02                  2450.4301    19.8633    15.3891
         ROT.     0.1817D+06                   834.6267     2.9808    27.0458
         INT.     0.5127D+07                  3285.0568    22.8441    42.4349
         TRA.     0.8045D+27                  1391.0445     4.9680    39.2267
         TOT.                       78.954    4676.1014    27.8121    81.6616

 290.00  VIB.     0.3305D+02                  2653.8086    20.8133    16.1027
         ROT.     0.1915D+06                   864.4348     2.9808    27.1504
         INT.     0.6330D+07                  3518.2434    23.7941    43.2530
         TRA.     0.8479D+27                  1440.7247     4.9680    39.4011
         TOT.                       79.236    4958.9681    28.7621    82.6541

 300.00  VIB.     0.3877D+02                  2866.7090    21.7673    16.8243
         ROT.     0.2015D+06                   894.2429     2.9808    27.2515
         INT.     0.7812D+07                  3760.9519    24.7481    44.0758
         TRA.     0.8922D+27                  1490.4049     4.9680    39.5695
         TOT.                       79.529    5251.3568    29.7161    83.6453

 310.00  VIB.     0.4555D+02                  3089.1592    22.7228    17.5536
         ROT.     0.2116D+06                   924.0510     2.9808    27.3492
         INT.     0.9639D+07                  4013.2102    25.7036    44.9028
         TRA.     0.9372D+27                  1540.0850     4.9680    39.7324
         TOT.                       79.831    5553.2952    30.6717    84.6352

 320.00  VIB.     0.5358D+02                  3321.1631    23.6777    18.2902
         ROT.     0.2220D+06                   953.8591     2.9808    27.4438
         INT.     0.1189D+08                  4275.0222    26.6585    45.7340
         TRA.     0.9829D+27                  1589.7652     4.9680    39.8901
         TOT.                       80.142    5864.7874    31.6265    85.6241

 330.00  VIB.     0.6313D+02                  3562.7028    24.6296    19.0333
         ROT.     0.2324D+06                   983.6672     2.9808    27.5356
         INT.     0.1467D+08                  4546.3700    27.6105    46.5689
         TRA.     0.1029D+28                  1639.4454     4.9680    40.0430
         TOT.                       80.463    6185.8154    32.5785    86.6119

 340.00  VIB.     0.7448D+02                  3813.7399    25.5768    19.7827
         ROT.     0.2431D+06                  1013.4753     2.9808    27.6245
         INT.     0.1810D+08                  4827.2153    28.5576    47.4072
         TRA.     0.1076D+28                  1689.1255     4.9680    40.1913
         TOT.                       80.794    6516.3408    33.5257    87.5985

 350.00  VIB.     0.8799D+02                  4074.2177    26.5175    20.5377
         ROT.     0.2539D+06                  1043.2834     2.9808    27.7109
         INT.     0.2234D+08                  5117.5011    29.4983    48.2486
         TRA.     0.1124D+28                  1738.8057     4.9680    40.3353
         TOT.                       81.134    6856.3068    34.4663    88.5840

 360.00  VIB.     0.1041D+03                  4344.0628    27.4500    21.2978
         ROT.     0.2649D+06                  1073.0915     2.9808    27.7949
         INT.     0.2757D+08                  5417.1543    30.4309    49.0927
         TRA.     0.1173D+28                  1788.4859     4.9680    40.4753
         TOT.                       81.483    7205.6401    35.3989    89.5680

 370.00  VIB.     0.1233D+03                  4623.1871    28.3731    22.0625
         ROT.     0.2760D+06                  1102.8996     2.9808    27.8766
         INT.     0.3402D+08                  5726.0867    31.3539    49.9391
         TRA.     0.1222D+28                  1838.1660     4.9680    40.6114
         TOT.                       81.842    7564.2527    36.3220    90.5505

 380.00  VIB.     0.1462D+03                  4911.4897    29.2855    22.8313
         ROT.     0.2872D+06                  1132.7077     2.9808    27.9561
         INT.     0.4200D+08                  6044.1974    32.2664    50.7874
         TRA.     0.1272D+28                  1887.8462     4.9680    40.7439
         TOT.                       82.210    7932.0436    37.2344    91.5313

 390.00  VIB.     0.1736D+03                  5208.8590    30.1863    23.6037
         ROT.     0.2986D+06                  1162.5158     2.9808    28.0335
         INT.     0.5185D+08                  6371.3748    33.1671    51.6372
         TRA.     0.1322D+28                  1937.5263     4.9680    40.8729
         TOT.                       82.586    8308.9011    38.1351    92.5101

 400.00  VIB.     0.2064D+03                  5515.1737    31.0745    24.3792
         ROT.     0.3102D+06                  1192.3239     2.9808    28.1090
         INT.     0.6402D+08                  6707.4976    34.0553    52.4881
         TRA.     0.1374D+28                  1987.2065     4.9680    40.9987
         TOT.                       82.972    8694.7041    39.0233    93.4869

   *: NOTE: HEATS OF FORMATION ARE RELATIVE TO THE
            ELEMENTS IN THEIR STANDARD STATE AT 298K
              (=  Standard Enthalpy of Formation).

            Hvib:  Zero-point energy is not included.
                   frequencies of less than zero cm-1 are not included.
            Hrot = (3/2)RT
            Htra = (3/2)RT + pV = (5/2)RT

            Heat capacity is Cp, not Cv

          For more information, see: HTTP://OpenMOPAC.net/Manual/thermochemistry.html


           FORCE CONSTANT IN CARTESIAN COORDINATES (Millidynes/A)

    ATOM   CHEMICAL       X               Y               Z
   NUMBER   SYMBOL  FORCE CONSTANT  FORCE CONSTANT  FORCE CONSTANT

      1       C        7.834177        9.370151        7.494453
      2       C        7.856302        9.055639        8.126288
      3       C        8.640662        9.524393        7.074677
      4       C        8.406161        8.312496        8.119063
      5       C       15.728599        9.445450        2.851451
      6       C       14.621393        9.917683        2.098785
      7       C        6.216519        7.344747        1.038851
      8       H        1.124926        0.879821        3.687104
      9       H        1.286241        1.804462        3.328514
     10       H        1.309788        1.340136        3.746222
     11       H        5.376407        0.695591        0.703398
     12       H        1.185596        1.142169        4.438491
     13       H        0.992688        4.980805        0.782844
     14       H        0.548222        1.942613        3.537351
     15       H        0.602787        2.148080        3.346702
     16       H        3.662999        2.426706        0.351501
     17       H        0.867695        5.222055        0.349343

 **********************
 *                    *
 * JOB ENDED NORMALLY *
 *                    *
 **********************



 TOTAL JOB TIME:             5.33 SECONDS

 == MOPAC DONE ==
