 *******************************************************************************
 ** Site#: 14399        For non-commercial use only    Version 18.184L 64BITS **
 *******************************************************************************
 ** Cite this program as: MOPAC2016, Version: 18.184L, James J. P. Stewart,   **
 ** Stewart Computational Chemistry, web: HTTP://OpenMOPAC.net. Days left:  20**
 *******************************************************************************
 **                                                                           **
 **                                MOPAC2016                                  **
 **                                                                           **
 *******************************************************************************

                              PM3 CALCULATION RESULTS

 *******************************************************************************
 *  CALCULATION DONE:                                Thu Jun 13 15:53:13 2019  *
 *  PM3        - The PM3 Hamiltonian to be used
 *  PRECISE    - CRITERIA TO BE INCREASED BY 100 TIMES
 *  NOSYM      - POINT-GROUP SYMMETRY SET TO C1
 *  THREADS=1  - MULTI-THREADING NOT USED
 *  T=         - A TIME OF 172800.0 SECONDS REQUESTED
 *  DUMP=N     - RESTART FILE WRITTEN EVERY  7200.000 SECONDS
 *******************************************************************************
pm3  precise nosym THREADS=1
 InChI=1S/C10H10/c1-3-9-7-5-6-8-10(9)4-2/h3,5-7H,1-2,8H2

   ATOM   CHEMICAL          X               Y               Z
  NUMBER   SYMBOL      (ANGSTROMS)     (ANGSTROMS)     (ANGSTROMS)
 
     1       C          0.94700000  *  -1.76500000  *   0.13690000  *
     2       C         -0.58540000  *   0.33980000  *  -0.09030000  *
     3       C          0.76390000  *  -0.26650000  *   0.09430000  *
     4       C         -0.33720000  *  -2.53310000  *  -0.01580000  *
     5       C         -1.65210000  *  -0.47160000  *  -0.19940000  *
     6       C         -1.52060000  *  -1.93650000  *  -0.16890000  *
     7       C         -0.74460000  *   1.82140000  *  -0.09870000  *
     8       C         -1.72240000  *   2.45890000  *  -0.74470000  *
     9       C          2.89540000  *   1.23230000  *   0.28620000  *
    10       C          1.83220000  *   0.48570000  *   0.19070000  *
    11       H          1.40950000  *  -2.04840000  *   1.10680000  *
    12       H          1.63410000  *  -2.07250000  *  -0.68090000  *
    13       H         -0.29390000  *  -3.61490000  *   0.00240000  *
    14       H         -2.65240000  *  -0.06870000  *  -0.28520000  *
    15       H         -2.41170000  *  -2.54320000  *  -0.26850000  *
    16       H         -0.00280000  *   2.42640000  *   0.40760000  *
    17       H         -2.46670000  *   1.93190000  *  -1.32580000  *
    18       H         -1.76490000  *   3.54020000  *  -0.72130000  *
    19       H          2.82120000  *   2.30010000  *   0.13280000  *
    20       H          3.85140000  *   0.78370000  *   0.51870000  *
 


          CARTESIAN COORDINATES 

    NO.       ATOM           X           Y           Z

     1         C          0.9470     -1.7650      0.1369
     2         C         -0.5854      0.3398     -0.0903
     3         C          0.7639     -0.2665      0.0943
     4         C         -0.3372     -2.5331     -0.0158
     5         C         -1.6521     -0.4716     -0.1994
     6         C         -1.5206     -1.9365     -0.1689
     7         C         -0.7446      1.8214     -0.0987
     8         C         -1.7224      2.4589     -0.7447
     9         C          2.8954      1.2323      0.2862
    10         C          1.8322      0.4857      0.1907
    11         H          1.4095     -2.0484      1.1068
    12         H          1.6341     -2.0725     -0.6809
    13         H         -0.2939     -3.6149      0.0024
    14         H         -2.6524     -0.0687     -0.2852
    15         H         -2.4117     -2.5432     -0.2685
    16         H         -0.0028      2.4264      0.4076
    17         H         -2.4667      1.9319     -1.3258
    18         H         -1.7649      3.5402     -0.7213
    19         H          2.8212      2.3001      0.1328
    20         H          3.8514      0.7837      0.5187

  H: (PM3): J. J. P. STEWART, J. COMP. CHEM. 10, 209 (1989).
  C: (PM3): J. J. P. STEWART, J. COMP. CHEM. 10, 209 (1989).

           Empirical Formula: C10 H10  =    20 atoms



      MOLECULAR POINT GROUP   :   C1  


      RHF CALCULATION, NO. OF DOUBLY OCCUPIED LEVELS = 25


          Geometry optimization using EF

          DIAGONAL MATRIX USED AS START HESSIAN

 CYCLE:     1 TIME:   0.023 TIME LEFT:  2.00D  GRAD.:   112.932 HEAT:  132.9385
 CYCLE:     2 TIME:   0.039 TIME LEFT:  2.00D  GRAD.:   133.453 HEAT:  129.7954
 CYCLE:     3 TIME:   0.027 TIME LEFT:  2.00D  GRAD.:    91.203 HEAT:  124.9974
 CYCLE:     4 TIME:   0.023 TIME LEFT:  2.00D  GRAD.:   116.155 HEAT:  121.3558
 CYCLE:     5 TIME:   0.023 TIME LEFT:  2.00D  GRAD.:   126.353 HEAT:  116.3748
 CYCLE:     6 TIME:   0.020 TIME LEFT:  2.00D  GRAD.:   129.355 HEAT:  110.3870
 CYCLE:     7 TIME:   0.039 TIME LEFT:  2.00D  GRAD.:   144.392 HEAT:  108.7958
 CYCLE:     8 TIME:   0.027 TIME LEFT:  2.00D  GRAD.:    82.921 HEAT:  105.1690
 CYCLE:     9 TIME:   0.020 TIME LEFT:  2.00D  GRAD.:   117.234 HEAT:  103.6784
 CYCLE:    10 TIME:   0.023 TIME LEFT:  2.00D  GRAD.:    71.024 HEAT:  100.0182
 CYCLE:    11 TIME:   0.023 TIME LEFT:  2.00D  GRAD.:    97.922 HEAT:  98.32801
 CYCLE:    12 TIME:   0.023 TIME LEFT:  2.00D  GRAD.:    73.913 HEAT:  94.80597
 CYCLE:    13 TIME:   0.039 TIME LEFT:  2.00D  GRAD.:    61.768 HEAT:  93.72127
 CYCLE:    14 TIME:   0.023 TIME LEFT:  2.00D  GRAD.:    46.270 HEAT:  92.46233
 CYCLE:    15 TIME:   0.031 TIME LEFT:  2.00D  GRAD.:    52.188 HEAT:  92.10659
 CYCLE:    16 TIME:   0.020 TIME LEFT:  2.00D  GRAD.:    26.599 HEAT:  91.17860
 CYCLE:    17 TIME:   0.023 TIME LEFT:  2.00D  GRAD.:    56.664 HEAT:  90.95155
 CYCLE:    18 TIME:   0.023 TIME LEFT:  2.00D  GRAD.:    50.768 HEAT:  90.40486
 CYCLE:    19 TIME:   0.027 TIME LEFT:  2.00D  GRAD.:    48.823 HEAT:  90.15174
 CYCLE:    20 TIME:   0.027 TIME LEFT:  2.00D  GRAD.:    19.517 HEAT:  89.55652
 CYCLE:    21 TIME:   0.039 TIME LEFT:  2.00D  GRAD.:    14.492 HEAT:  89.42164
 CYCLE:    22 TIME:   0.023 TIME LEFT:  2.00D  GRAD.:    12.602 HEAT:  89.34805
 CYCLE:    23 TIME:   0.023 TIME LEFT:  2.00D  GRAD.:    16.280 HEAT:  89.25944
 CYCLE:    24 TIME:   0.031 TIME LEFT:  2.00D  GRAD.:    18.399 HEAT:  89.21940
 CYCLE:    25 TIME:   0.020 TIME LEFT:  2.00D  GRAD.:     6.381 HEAT:  89.10774
 CYCLE:    26 TIME:   0.023 TIME LEFT:  2.00D  GRAD.:     8.324 HEAT:  89.06493
 CYCLE:    27 TIME:   0.023 TIME LEFT:  2.00D  GRAD.:     7.934 HEAT:  89.00927
 CYCLE:    28 TIME:   0.023 TIME LEFT:  2.00D  GRAD.:     8.355 HEAT:  88.96094
 CYCLE:    29 TIME:   0.023 TIME LEFT:  2.00D  GRAD.:     8.034 HEAT:  88.92938
 CYCLE:    30 TIME:   0.023 TIME LEFT:  2.00D  GRAD.:     5.410 HEAT:  88.90221
 CYCLE:    31 TIME:   0.023 TIME LEFT:  2.00D  GRAD.:     4.102 HEAT:  88.88116
 CYCLE:    32 TIME:   0.020 TIME LEFT:  2.00D  GRAD.:     5.378 HEAT:  88.86020
 CYCLE:    33 TIME:   0.023 TIME LEFT:  2.00D  GRAD.:     3.613 HEAT:  88.83361
 CYCLE:    34 TIME:   0.023 TIME LEFT:  2.00D  GRAD.:     2.075 HEAT:  88.82155
 CYCLE:    35 TIME:   0.023 TIME LEFT:  2.00D  GRAD.:     1.598 HEAT:  88.81780
 CYCLE:    36 TIME:   0.023 TIME LEFT:  2.00D  GRAD.:     1.258 HEAT:  88.81524
 CYCLE:    37 TIME:   0.023 TIME LEFT:  2.00D  GRAD.:     0.756 HEAT:  88.81254
 CYCLE:    38 TIME:   0.020 TIME LEFT:  2.00D  GRAD.:     0.583 HEAT:  88.81152
 CYCLE:    39 TIME:   0.023 TIME LEFT:  2.00D  GRAD.:     0.500 HEAT:  88.81083
 CYCLE:    40 TIME:   0.023 TIME LEFT:  2.00D  GRAD.:     0.535 HEAT:  88.81034
 CYCLE:    41 TIME:   0.023 TIME LEFT:  2.00D  GRAD.:     0.552 HEAT:  88.80977
 CYCLE:    42 TIME:   0.023 TIME LEFT:  2.00D  GRAD.:     0.553 HEAT:  88.80895
 CYCLE:    43 TIME:   0.023 TIME LEFT:  2.00D  GRAD.:     0.566 HEAT:  88.80799
 CYCLE:    44 TIME:   0.023 TIME LEFT:  2.00D  GRAD.:     0.643 HEAT:  88.80703
 CYCLE:    45 TIME:   0.020 TIME LEFT:  2.00D  GRAD.:     0.607 HEAT:  88.80620
 CYCLE:    46 TIME:   0.023 TIME LEFT:  2.00D  GRAD.:     0.452 HEAT:  88.80547
 CYCLE:    47 TIME:   0.023 TIME LEFT:  2.00D  GRAD.:     0.326 HEAT:  88.80512
 CYCLE:    48 TIME:   0.023 TIME LEFT:  2.00D  GRAD.:     0.296 HEAT:  88.80492
 CYCLE:    49 TIME:   0.023 TIME LEFT:  2.00D  GRAD.:     0.343 HEAT:  88.80471
 CYCLE:    50 TIME:   0.023 TIME LEFT:  2.00D  GRAD.:     0.412 HEAT:  88.80439
 CYCLE:    51 TIME:   0.023 TIME LEFT:  2.00D  GRAD.:     0.418 HEAT:  88.80400
 CYCLE:    52 TIME:   0.020 TIME LEFT:  2.00D  GRAD.:     0.381 HEAT:  88.80353
 CYCLE:    53 TIME:   0.023 TIME LEFT:  2.00D  GRAD.:     0.388 HEAT:  88.80321
 CYCLE:    54 TIME:   0.023 TIME LEFT:  2.00D  GRAD.:     0.498 HEAT:  88.80253
 CYCLE:    55 TIME:   0.023 TIME LEFT:  2.00D  GRAD.:     0.608 HEAT:  88.80177
 CYCLE:    56 TIME:   0.023 TIME LEFT:  2.00D  GRAD.:     0.811 HEAT:  88.80027
 CYCLE:    57 TIME:   0.023 TIME LEFT:  2.00D  GRAD.:     0.768 HEAT:  88.79914
 CYCLE:    58 TIME:   0.020 TIME LEFT:  2.00D  GRAD.:     1.402 HEAT:  88.79598
 CYCLE:    59 TIME:   0.031 TIME LEFT:  2.00D  GRAD.:     0.951 HEAT:  88.79457
 CYCLE:    60 TIME:   0.023 TIME LEFT:  2.00D  GRAD.:     0.746 HEAT:  88.79170
 CYCLE:    61 TIME:   0.023 TIME LEFT:  2.00D  GRAD.:     1.313 HEAT:  88.78894
 CYCLE:    62 TIME:   0.020 TIME LEFT:  2.00D  GRAD.:     1.273 HEAT:  88.78738
 CYCLE:    63 TIME:   0.023 TIME LEFT:  2.00D  GRAD.:     0.988 HEAT:  88.78166
 CYCLE:    64 TIME:   0.023 TIME LEFT:  2.00D  GRAD.:     4.152 HEAT:  88.77707
 CYCLE:    65 TIME:   0.023 TIME LEFT:  2.00D  GRAD.:     6.150 HEAT:  88.76263
 CYCLE:    66 TIME:   0.035 TIME LEFT:  2.00D  GRAD.:     4.332 HEAT:  88.74944
 CYCLE:    67 TIME:   0.027 TIME LEFT:  2.00D  GRAD.:     2.291 HEAT:  88.73455
 CYCLE:    68 TIME:   0.023 TIME LEFT:  2.00D  GRAD.:     1.514 HEAT:  88.72410
 CYCLE:    69 TIME:   0.023 TIME LEFT:  2.00D  GRAD.:     1.700 HEAT:  88.71058
 CYCLE:    70 TIME:   0.020 TIME LEFT:  2.00D  GRAD.:     2.272 HEAT:  88.69148
 CYCLE:    71 TIME:   0.023 TIME LEFT:  2.00D  GRAD.:     2.398 HEAT:  88.66346
 CYCLE:    72 TIME:   0.031 TIME LEFT:  2.00D  GRAD.:     3.131 HEAT:  88.60295
 CYCLE:    73 TIME:   0.027 TIME LEFT:  2.00D  GRAD.:     6.996 HEAT:  88.57309
 CYCLE:    74 TIME:   0.023 TIME LEFT:  2.00D  GRAD.:     5.968 HEAT:  88.52601
 CYCLE:    75 TIME:   0.023 TIME LEFT:  2.00D  GRAD.:     2.264 HEAT:  88.49879
 CYCLE:    76 TIME:   0.023 TIME LEFT:  2.00D  GRAD.:     3.339 HEAT:  88.48861
 CYCLE:    77 TIME:   0.020 TIME LEFT:  2.00D  GRAD.:     2.246 HEAT:  88.47788
 CYCLE:    78 TIME:   0.023 TIME LEFT:  2.00D  GRAD.:     1.605 HEAT:  88.46966
 CYCLE:    79 TIME:   0.023 TIME LEFT:  2.00D  GRAD.:     0.958 HEAT:  88.46704
 CYCLE:    80 TIME:   0.023 TIME LEFT:  2.00D  GRAD.:     1.016 HEAT:  88.46436
 CYCLE:    81 TIME:   0.023 TIME LEFT:  2.00D  GRAD.:     0.764 HEAT:  88.46280
 CYCLE:    82 TIME:   0.023 TIME LEFT:  2.00D  GRAD.:     0.829 HEAT:  88.46167
 CYCLE:    83 TIME:   0.023 TIME LEFT:  2.00D  GRAD.:     0.664 HEAT:  88.46076
 CYCLE:    84 TIME:   0.020 TIME LEFT:  2.00D  GRAD.:     0.739 HEAT:  88.45980
 CYCLE:    85 TIME:   0.023 TIME LEFT:  2.00D  GRAD.:     0.821 HEAT:  88.45880
 CYCLE:    86 TIME:   0.023 TIME LEFT:  2.00D  GRAD.:     0.760 HEAT:  88.45767
 CYCLE:    87 TIME:   0.023 TIME LEFT:  2.00D  GRAD.:     0.562 HEAT:  88.45656
 CYCLE:    88 TIME:   0.023 TIME LEFT:  2.00D  GRAD.:     0.411 HEAT:  88.45618
 CYCLE:    89 TIME:   0.023 TIME LEFT:  2.00D  GRAD.:     0.590 HEAT:  88.45579
 CYCLE:    90 TIME:   0.023 TIME LEFT:  2.00D  GRAD.:     0.533 HEAT:  88.45554
 CYCLE:    91 TIME:   0.020 TIME LEFT:  2.00D  GRAD.:     0.256 HEAT:  88.45531
 CYCLE:    92 TIME:   0.023 TIME LEFT:  2.00D  GRAD.:     0.123 HEAT:  88.45526
 CYCLE:    93 TIME:   0.023 TIME LEFT:  2.00D  GRAD.:     0.106 HEAT:  88.45522
 CYCLE:    94 TIME:   0.023 TIME LEFT:  2.00D  GRAD.:     0.129 HEAT:  88.45520
 CYCLE:    95 TIME:   0.023 TIME LEFT:  2.00D  GRAD.:     1.109 HEAT:  88.45543
 CYCLE:    96 TIME:   0.023 TIME LEFT:  2.00D  GRAD.:     0.278 HEAT:  88.45503
 CYCLE:    97 TIME:   0.020 TIME LEFT:  2.00D  GRAD.:     0.143 HEAT:  88.45496
 CYCLE:    98 TIME:   0.023 TIME LEFT:  2.00D  GRAD.:     0.307 HEAT:  88.45481
 CYCLE:    99 TIME:   0.023 TIME LEFT:  2.00D  GRAD.:     0.402 HEAT:  88.45467
 CYCLE:   100 TIME:   0.023 TIME LEFT:  2.00D  GRAD.:     0.426 HEAT:  88.45436
 CYCLE:   101 TIME:   0.023 TIME LEFT:  2.00D  GRAD.:     0.314 HEAT:  88.45411
 CYCLE:   102 TIME:   0.023 TIME LEFT:  2.00D  GRAD.:     0.222 HEAT:  88.45397
 CYCLE:   103 TIME:   0.023 TIME LEFT:  2.00D  GRAD.:     0.177 HEAT:  88.45384
 CYCLE:   104 TIME:   0.020 TIME LEFT:  2.00D  GRAD.:     0.153 HEAT:  88.45380
 CYCLE:   105 TIME:   0.023 TIME LEFT:  2.00D  GRAD.:     0.173 HEAT:  88.45373
 CYCLE:   106 TIME:   0.023 TIME LEFT:  2.00D  GRAD.:     0.111 HEAT:  88.45368
 CYCLE:   107 TIME:   0.023 TIME LEFT:  2.00D  GRAD.:     0.110 HEAT:  88.45365
 CYCLE:   108 TIME:   0.023 TIME LEFT:  2.00D  GRAD.:     0.517 HEAT:  88.45351
 CYCLE:   109 TIME:   0.023 TIME LEFT:  2.00D  GRAD.:     0.407 HEAT:  88.45334
 CYCLE:   110 TIME:   0.023 TIME LEFT:  2.00D  GRAD.:     0.512 HEAT:  88.45295
 CYCLE:   111 TIME:   0.020 TIME LEFT:  2.00D  GRAD.:     0.334 HEAT:  88.45263
 CYCLE:   112 TIME:   0.023 TIME LEFT:  2.00D  GRAD.:     0.345 HEAT:  88.45184
 CYCLE:   113 TIME:   0.023 TIME LEFT:  2.00D  GRAD.:     0.436 HEAT:  88.45111
 CYCLE:   114 TIME:   0.023 TIME LEFT:  2.00D  GRAD.:     3.984 HEAT:  88.46038
 CYCLE:   115 TIME:   0.023 TIME LEFT:  2.00D  GRAD.:     0.350 HEAT:  88.45028
 CYCLE:   116 TIME:   0.023 TIME LEFT:  2.00D  GRAD.:     0.263 HEAT:  88.44977
 CYCLE:   117 TIME:   0.023 TIME LEFT:  2.00D  GRAD.:     0.444 HEAT:  88.44927
 CYCLE:   118 TIME:   0.020 TIME LEFT:  2.00D  GRAD.:     0.157 HEAT:  88.44918
 CYCLE:   119 TIME:   0.023 TIME LEFT:  2.00D  GRAD.:     0.074 HEAT:  88.44913
 CYCLE:   120 TIME:   0.023 TIME LEFT:  2.00D  GRAD.:     0.081 HEAT:  88.44909
 CYCLE:   121 TIME:   0.023 TIME LEFT:  2.00D  GRAD.:     0.050 HEAT:  88.44908
 CYCLE:   122 TIME:   0.023 TIME LEFT:  2.00D  GRAD.:     0.114 HEAT:  88.44908
 CYCLE:   123 TIME:   0.023 TIME LEFT:  2.00D  GRAD.:     0.031 HEAT:  88.44907

     GRADIENT =  0.03132  IS LESS THAN CUTOFF =  0.05000



 -------------------------------------------------------------------------------
 pm3  precise nosym THREADS=1
 InChI=1S/C10H10/c1-3-9-7-5-6-8-10(9)4-2/h3,5-7H,1-2,8H2



     GEOMETRY OPTIMISED USING EIGENVECTOR FOLLOWING (EF).     
     SCF FIELD WAS ACHIEVED                                   


                              PM3 CALCULATION
                                                       MOPAC2016 (Version: 18.184L)
                                                       Thu Jun 13 15:53:16 2019
                                                       No. of days remaining =  20




          FINAL HEAT OF FORMATION =         88.44907 KCAL/MOL =     370.07093 KJ/MOL


          TOTAL ENERGY            =      -1335.89542 EV
          ELECTRONIC ENERGY       =      -6862.47816 EV  POINT GROUP:     C1  
          CORE-CORE REPULSION     =       5526.58273 EV
          COSMO AREA              =        182.59 SQUARE ANGSTROMS
          COSMO VOLUME            =        180.34 CUBIC ANGSTROMS

          GRADIENT NORM           =          0.03132 = 0.00700 PER ATOM
          IONIZATION POTENTIAL    =          8.305212 EV
          HOMO LUMO ENERGIES (EV) =         -8.305 -0.481
          NO. OF FILLED LEVELS    =         25
          MOLECULAR WEIGHT        =        130.1890

          MOLECULAR DIMENSIONS (Angstroms)

            Atom       Atom       Distance
            H    18    H    13     7.28888
            H    15    H    19     6.73733
            H    12    H    20     2.15578


          SCF CALCULATIONS        =        136
 
          WALL-CLOCK TIME         =          2.996 SECONDS
          COMPUTATION TIME        =          1.180 SECONDS




   ATOM   CHEMICAL          X               Y               Z
  NUMBER   SYMBOL      (ANGSTROMS)     (ANGSTROMS)     (ANGSTROMS)
 
     1       C          0.91110022  *  -1.74313088  *   0.15543874  *
     2       C         -0.54644202  *   0.33359005  *  -0.17499599  *
     3       C          0.77643815  *  -0.25235888  *   0.06078446  *
     4       C         -0.35501164  *  -2.49898032  *  -0.00415883  *
     5       C         -1.63242143  *  -0.46387949  *  -0.30472966  *
     6       C         -1.53483366  *  -1.90071704  *  -0.21786789  *
     7       C         -0.66278878  *   1.78743934  *  -0.26571462  *
     8       C         -1.82265068  *   2.40824298  *  -0.47781393  *
     9       C          2.91810258  *   1.21457393  *   0.32326319  *
    10       C          1.85179039  *   0.49300566  *   0.19215891  *
    11       H          1.35911536  *  -2.00922535  *   1.13546991  *
    12       H          1.63099548  *  -2.09556335  *  -0.61237958  *
    13       H         -0.27688017  *  -3.58984771  *   0.06243090  *
    14       H         -2.62058021  *  -0.01097946  *  -0.48151186  *
    15       H         -2.45666680  *  -2.48026410  *  -0.33261043  *
    16       H          0.26879017  *   2.35733150  *  -0.14868957  *
    17       H         -2.75676851  *   1.85647946  *  -0.59602955  *
    18       H         -1.91326483  *   3.48687630  *  -0.54582257  *
    19       H          3.53947635  *   1.49376887  *  -0.52399296  *
    20       H          3.25609002  *   1.58326864  *   1.28852981  *

                             CARTESIAN COORDINATES

   1    C        0.911100225    -1.743130884     0.155438735
   2    C       -0.546442016     0.333590051    -0.174995989
   3    C        0.776438153    -0.252358884     0.060784459
   4    C       -0.355011641    -2.498980325    -0.004158835
   5    C       -1.632421430    -0.463879489    -0.304729658
   6    C       -1.534833663    -1.900717042    -0.217867894
   7    C       -0.662788784     1.787439344    -0.265714620
   8    C       -1.822650677     2.408242981    -0.477813931
   9    C        2.918102583     1.214573931     0.323263193
  10    C        1.851790388     0.493005664     0.192158915
  11    H        1.359115356    -2.009225355     1.135469911
  12    H        1.630995484    -2.095563354    -0.612379584
  13    H       -0.276880175    -3.589847714     0.062430896
  14    H       -2.620580213    -0.010979458    -0.481511860
  15    H       -2.456666801    -2.480264103    -0.332610427
  16    H        0.268790165     2.357331499    -0.148689570
  17    H       -2.756768511     1.856479462    -0.596029546
  18    H       -1.913264834     3.486876296    -0.545822571
  19    H        3.539476348     1.493768873    -0.523992963
  20    H        3.256090019     1.583268635     1.288529811


           Empirical Formula: C10 H10  =    20 atoms



      MOLECULAR POINT GROUP   :   C1  


                  EIGENVALUES  
 -40.18993 -34.02083 -33.14518 -28.89169 -27.86682 -23.28981 -22.47185 -19.45717
 -18.80410 -17.21690 -16.76411 -16.04832 -15.54969 -15.32585 -14.74919 -14.56751
 -14.42976 -12.83951 -12.68906 -12.32364 -12.11145 -10.86374 -10.41662 -10.04891
  -8.30521  -0.48055   0.99341   1.05340   1.39201   2.60064   2.82784   3.20016
   3.30289   3.47087   3.55663   3.79328   4.00834   4.08680   4.15660   4.35900
   4.57365   4.64674   4.91823   4.93930   5.00485   5.51781   5.71634   5.97704
   6.30586   6.57628


              NET ATOMIC CHARGES AND DIPOLE CONTRIBUTIONS

  ATOM NO.   TYPE          CHARGE      No. of ELECS.   s-Pop       p-Pop       
    1          C          -0.010418        4.0104     1.13124     2.87918
    2          C          -0.027341        4.0273     1.16597     2.86137
    3          C          -0.000045        4.0000     1.14840     2.85164
    4          C          -0.129746        4.1297     1.19575     2.93399
    5          C          -0.099106        4.0991     1.18125     2.91786
    6          C          -0.110499        4.1105     1.17590     2.93460
    7          C          -0.095609        4.0956     1.18036     2.91525
    8          C          -0.160687        4.1607     1.18502     2.97566
    9          C          -0.076367        4.0764     1.14646     2.92990
   10          C          -0.195596        4.1956     1.21197     2.98363
   11          H           0.065881        0.9341     0.93412
   12          H           0.065885        0.9341     0.93412
   13          H           0.099556        0.9004     0.90044
   14          H           0.110463        0.8895     0.88954
   15          H           0.102695        0.8973     0.89730
   16          H           0.107575        0.8924     0.89243
   17          H           0.084184        0.9158     0.91582
   18          H           0.083563        0.9164     0.91644
   19          H           0.092805        0.9072     0.90720
   20          H           0.092809        0.9072     0.90719
 DIPOLE           X         Y         Z       TOTAL
 POINT-CHG.     0.237    -0.263     0.050     0.357
 HYBRID         0.060     0.017     0.008     0.063
 SUM            0.297    -0.245     0.058     0.389


          ATOMIC ORBITAL ELECTRON POPULATIONS

     Atom    s        px        py        pz   
    1  C   1.13124   0.95919   0.91037   1.00962
    2  C   1.16597   0.92597   0.93401   1.00139
    3  C   1.14840   0.90118   0.93260   1.01786
    4  C   1.19575   0.95346   0.98484   0.99569
    5  C   1.18125   0.97766   0.94084   0.99936
    6  C   1.17590   0.97143   0.94690   1.01627
    7  C   1.18036   0.98447   0.93572   0.99506
    8  C   1.18502   0.97402   0.99767   1.00398
    9  C   1.14646   0.94457   0.98246   1.00287
   10  C   1.21197   0.97305   0.98501   1.02557
   11  H   0.93412
   12  H   0.93412
   13  H   0.90044
   14  H   0.88954
   15  H   0.89730
   16  H   0.89243
   17  H   0.91582
   18  H   0.91644
   19  H   0.90720
   20  H   0.90719
 *******************************************************************************
 ** Site#: 14399        For non-commercial use only    Version 18.184L 64BITS **
 *******************************************************************************
 ** Cite this program as: MOPAC2016, Version: 18.184L, James J. P. Stewart,   **
 ** Stewart Computational Chemistry, web: HTTP://OpenMOPAC.net. Days left:  20**
 *******************************************************************************
 **                                                                           **
 **                                MOPAC2016                                  **
 **                                                                           **
 *******************************************************************************

                              PM3 CALCULATION RESULTS

 *******************************************************************************
 *  CALCULATION DONE:                                Thu Jun 13 15:53:16 2019  *
 *  PM3        - The PM3 Hamiltonian to be used
 *  OLDGEO     - PREVIOUS GEOMETRY TO BE USED
 *  PRECISE    - CRITERIA TO BE INCREASED BY 100 TIMES
 *  NOSYM      - POINT-GROUP SYMMETRY SET TO C1
 *  THREADS=1  - MULTI-THREADING NOT USED
 *  T=         - A TIME OF 172800.0 SECONDS REQUESTED
 *  DUMP=N     - RESTART FILE WRITTEN EVERY  7200.000 SECONDS
 *  THERMO     - THERMODYNAMIC QUANTITIES TO BE CALCULATED
 *******************************************************************************
oldgeo thermo nosym precise THREADS=1  pm3
 InChI=1S/C10H10/c1-3-9-7-5-6-8-10(9)4-2/h3,5-7H,1-2,8H2

   ATOM   CHEMICAL          X               Y               Z
  NUMBER   SYMBOL      (ANGSTROMS)     (ANGSTROMS)     (ANGSTROMS)
 
     1       C          0.91110022  *  -1.74313088  *   0.15543874  *
     2       C         -0.54644202  *   0.33359005  *  -0.17499599  *
     3       C          0.77643815  *  -0.25235888  *   0.06078446  *
     4       C         -0.35501164  *  -2.49898032  *  -0.00415883  *
     5       C         -1.63242143  *  -0.46387949  *  -0.30472966  *
     6       C         -1.53483366  *  -1.90071704  *  -0.21786789  *
     7       C         -0.66278878  *   1.78743934  *  -0.26571462  *
     8       C         -1.82265068  *   2.40824298  *  -0.47781393  *
     9       C          2.91810258  *   1.21457393  *   0.32326319  *
    10       C          1.85179039  *   0.49300566  *   0.19215891  *
    11       H          1.35911536  *  -2.00922535  *   1.13546991  *
    12       H          1.63099548  *  -2.09556335  *  -0.61237958  *
    13       H         -0.27688017  *  -3.58984771  *   0.06243090  *
    14       H         -2.62058021  *  -0.01097946  *  -0.48151186  *
    15       H         -2.45666680  *  -2.48026410  *  -0.33261043  *
    16       H          0.26879017  *   2.35733150  *  -0.14868957  *
    17       H         -2.75676851  *   1.85647946  *  -0.59602955  *
    18       H         -1.91326483  *   3.48687630  *  -0.54582257  *
    19       H          3.53947635  *   1.49376887  *  -0.52399296  *
    20       H          3.25609002  *   1.58326864  *   1.28852981  *
 


          CARTESIAN COORDINATES 

    NO.       ATOM           X           Y           Z

     1         C          0.9111     -1.7431      0.1554
     2         C         -0.5464      0.3336     -0.1750
     3         C          0.7764     -0.2524      0.0608
     4         C         -0.3550     -2.4990     -0.0042
     5         C         -1.6324     -0.4639     -0.3047
     6         C         -1.5348     -1.9007     -0.2179
     7         C         -0.6628      1.7874     -0.2657
     8         C         -1.8227      2.4082     -0.4778
     9         C          2.9181      1.2146      0.3233
    10         C          1.8518      0.4930      0.1922
    11         H          1.3591     -2.0092      1.1355
    12         H          1.6310     -2.0956     -0.6124
    13         H         -0.2769     -3.5898      0.0624
    14         H         -2.6206     -0.0110     -0.4815
    15         H         -2.4567     -2.4803     -0.3326
    16         H          0.2688      2.3573     -0.1487
    17         H         -2.7568      1.8565     -0.5960
    18         H         -1.9133      3.4869     -0.5458
    19         H          3.5395      1.4938     -0.5240
    20         H          3.2561      1.5833      1.2885

  H: (PM3): J. J. P. STEWART, J. COMP. CHEM. 10, 209 (1989).
  C: (PM3): J. J. P. STEWART, J. COMP. CHEM. 10, 209 (1989).

           Empirical Formula: C10 H10  =    20 atoms



      MOLECULAR POINT GROUP   :   C1  


      RHF CALCULATION, NO. OF DOUBLY OCCUPIED LEVELS = 25



          HEAT OF FORMATION =      88.449075 KCALS/MOLE


          CARTESIAN COORDINATE DERIVATIVES

   NUMBER  ATOM         X            Y            Z

     1       C      0.002093    -0.000144    -0.000396
     2       C     -0.001094     0.009055     0.000041
     3       C      0.000027     0.000131     0.001974
     4       C     -0.009389     0.003199    -0.002518
     5       C     -0.015552    -0.012966    -0.000243
     6       C      0.015749    -0.002878     0.004564
     7       C     -0.010805    -0.003761     0.000631
     8       C      0.003041    -0.009543     0.007260
     9       C      0.007175    -0.005476     0.004879
    10       C      0.004385     0.006099    -0.003426
    11       H     -0.001006    -0.002779    -0.001845
    12       H     -0.000745     0.001864     0.003203
    13       H     -0.002708     0.002795    -0.001207
    14       H      0.008034    -0.000490    -0.001027
    15       H      0.005496    -0.005967    -0.000568
    16       H     -0.002469     0.003381    -0.002301
    17       H      0.004320     0.003719    -0.004330
    18       H      0.002385    -0.001153    -0.000640
    19       H     -0.002983     0.005966    -0.001672
    20       H     -0.005952     0.008950    -0.002379
 


          GRADIENT NORM =   0.04203


          TIME FOR SCF CALCULATION =    0.02

          TIME FOR DERIVATIVES     =    0.01

          MOLECULAR WEIGHT =  130.19



          ROTATIONAL CONSTANTS IN CM(-1)

          A =    0.05210572   B =    0.04725966   C =    0.02502363



           PRINCIPAL MOMENTS OF INERTIA IN UNITS OF 10**(-40)*GRAM-CM**2

          A =      537.2303   B =      592.3186   C =     1118.6535


          ORIENTATION OF MOLECULE IN FORCE CALCULATION

    NO.       ATOM         X         Y         Z

     1          C      -1.9253   -0.2193    0.0002
     2          C       0.6333   -0.2193    0.0002
     3          C      -0.6263    0.5306    0.0002
     4          C      -1.7969   -1.6969   -0.0009
     5          C       0.6214   -1.5728   -0.0005
     6          C      -0.6116   -2.3219   -0.0012
     7          C       1.8914    0.5242    0.0009
     8          C       3.0834   -0.0714    0.0010
     9          C      -0.6896    3.1389    0.0001
    10          C      -0.6509    1.8453    0.0001
    11          H      -2.5230    0.0831   -0.8849
    12          H      -2.5223    0.0819    0.8861
    13          H      -2.7354   -2.2623   -0.0014
    14          H       1.5748   -2.1241   -0.0006
    15          H      -0.5420   -3.4146   -0.0020
    16          H       1.8081    1.6194    0.0014
    17          H       3.1829   -1.1582    0.0004
    18          H       4.0193    0.4767    0.0016
    19          H      -0.7075    3.7204    0.9185
    20          H      -0.7075    3.7205   -0.9182


    FIRST DERIVATIVES WILL BE USED IN THE CALCULATION OF SECOND DERIVATIVES

          ESTIMATED TIME TO COMPLETE CALCULATION =        7.50 SECONDS

    FOR POINT-GROUP C1   THERE ARE   1 UNIQUE SYMMETRY FUNCTIONS.

 STEP:   1 TIME =     0.05 SECS, INTEGRAL =      0.05 TIME LEFT: 172799.92
 STEP:   2 TIME =     0.04 SECS, INTEGRAL =      0.09 TIME LEFT: 172799.88
 STEP:   3 TIME =     0.05 SECS, INTEGRAL =      0.14 TIME LEFT: 172799.83
 STEP:   4 TIME =     0.05 SECS, INTEGRAL =      0.19 TIME LEFT: 172799.78
 STEP:   5 TIME =     0.04 SECS, INTEGRAL =      0.23 TIME LEFT: 172799.74
 STEP:   6 TIME =     0.05 SECS, INTEGRAL =      0.28 TIME LEFT: 172799.69
 STEP:   7 TIME =     0.04 SECS, INTEGRAL =      0.32 TIME LEFT: 172799.64
 STEP:   8 TIME =     0.05 SECS, INTEGRAL =      0.37 TIME LEFT: 172799.60
 STEP:   9 TIME =     0.05 SECS, INTEGRAL =      0.42 TIME LEFT: 172799.55
 STEP:  10 TIME =     0.04 SECS, INTEGRAL =      0.46 TIME LEFT: 172799.51
 STEP:  11 TIME =     0.05 SECS, INTEGRAL =      0.51 TIME LEFT: 172799.46
 STEP:  12 TIME =     0.05 SECS, INTEGRAL =      0.55 TIME LEFT: 172799.41
 STEP:  13 TIME =     0.04 SECS, INTEGRAL =      0.60 TIME LEFT: 172799.37
 STEP:  14 TIME =     0.05 SECS, INTEGRAL =      0.64 TIME LEFT: 172799.32
 STEP:  15 TIME =     0.05 SECS, INTEGRAL =      0.69 TIME LEFT: 172799.28
 STEP:  16 TIME =     0.05 SECS, INTEGRAL =      0.74 TIME LEFT: 172799.23
 STEP:  17 TIME =     0.05 SECS, INTEGRAL =      0.79 TIME LEFT: 172799.18
 STEP:  18 TIME =     0.05 SECS, INTEGRAL =      0.84 TIME LEFT: 172799.13
 STEP:  19 TIME =     0.04 SECS, INTEGRAL =      0.88 TIME LEFT: 172799.09
 STEP:  20 TIME =     0.04 SECS, INTEGRAL =      0.92 TIME LEFT: 172799.05
 STEP:  21 TIME =     0.05 SECS, INTEGRAL =      0.97 TIME LEFT: 172799.00
 STEP:  22 TIME =     0.04 SECS, INTEGRAL =      1.01 TIME LEFT: 172798.96
 STEP:  23 TIME =     0.04 SECS, INTEGRAL =      1.05 TIME LEFT: 172798.91
 STEP:  24 TIME =     0.05 SECS, INTEGRAL =      1.10 TIME LEFT: 172798.87
 STEP:  25 TIME =     0.05 SECS, INTEGRAL =      1.15 TIME LEFT: 172798.82
 STEP:  26 TIME =     0.05 SECS, INTEGRAL =      1.20 TIME LEFT: 172798.77
 STEP:  27 TIME =     0.04 SECS, INTEGRAL =      1.24 TIME LEFT: 172798.73
 STEP:  28 TIME =     0.05 SECS, INTEGRAL =      1.29 TIME LEFT: 172798.68
 STEP:  29 TIME =     0.05 SECS, INTEGRAL =      1.33 TIME LEFT: 172798.64
 STEP:  30 TIME =     0.05 SECS, INTEGRAL =      1.38 TIME LEFT: 172798.59
 STEP:  31 TIME =     0.04 SECS, INTEGRAL =      1.42 TIME LEFT: 172798.55
 STEP:  32 TIME =     0.05 SECS, INTEGRAL =      1.47 TIME LEFT: 172798.50
 STEP:  33 TIME =     0.05 SECS, INTEGRAL =      1.52 TIME LEFT: 172798.45
 STEP:  34 TIME =     0.05 SECS, INTEGRAL =      1.56 TIME LEFT: 172798.41
 STEP:  35 TIME =     0.05 SECS, INTEGRAL =      1.61 TIME LEFT: 172798.36
 STEP:  36 TIME =     0.04 SECS, INTEGRAL =      1.65 TIME LEFT: 172798.32
 STEP:  37 TIME =     0.05 SECS, INTEGRAL =      1.70 TIME LEFT: 172798.27
 STEP:  38 TIME =     0.04 SECS, INTEGRAL =      1.74 TIME LEFT: 172798.23
 STEP:  39 TIME =     0.05 SECS, INTEGRAL =      1.79 TIME LEFT: 172798.18
 STEP:  40 TIME =     0.04 SECS, INTEGRAL =      1.83 TIME LEFT: 172798.14
 STEP:  41 TIME =     0.04 SECS, INTEGRAL =      1.88 TIME LEFT: 172798.09
 STEP:  42 TIME =     0.05 SECS, INTEGRAL =      1.92 TIME LEFT: 172798.05
 STEP:  43 TIME =     0.04 SECS, INTEGRAL =      1.96 TIME LEFT: 172798.00
 STEP:  44 TIME =     0.04 SECS, INTEGRAL =      2.01 TIME LEFT: 172797.96
 STEP:  45 TIME =     0.05 SECS, INTEGRAL =      2.06 TIME LEFT: 172797.91
 STEP:  46 TIME =     0.05 SECS, INTEGRAL =      2.11 TIME LEFT: 172797.86
 STEP:  47 TIME =     0.04 SECS, INTEGRAL =      2.15 TIME LEFT: 172797.82
 STEP:  48 TIME =     0.05 SECS, INTEGRAL =      2.20 TIME LEFT: 172797.77
 STEP:  49 TIME =     0.05 SECS, INTEGRAL =      2.24 TIME LEFT: 172797.73
 STEP:  50 TIME =     0.04 SECS, INTEGRAL =      2.29 TIME LEFT: 172797.68
 STEP:  51 TIME =     0.05 SECS, INTEGRAL =      2.34 TIME LEFT: 172797.63
 STEP:  52 TIME =     0.04 SECS, INTEGRAL =      2.38 TIME LEFT: 172797.59
 STEP:  53 TIME =     0.05 SECS, INTEGRAL =      2.43 TIME LEFT: 172797.54
 STEP:  54 TIME =     0.05 SECS, INTEGRAL =      2.47 TIME LEFT: 172797.50
 STEP:  55 TIME =     0.05 SECS, INTEGRAL =      2.52 TIME LEFT: 172797.45
 STEP:  56 TIME =     0.05 SECS, INTEGRAL =      2.57 TIME LEFT: 172797.40
 STEP:  57 TIME =     0.04 SECS, INTEGRAL =      2.61 TIME LEFT: 172797.36
 STEP:  58 TIME =     0.05 SECS, INTEGRAL =      2.66 TIME LEFT: 172797.30
 STEP:  59 TIME =     0.05 SECS, INTEGRAL =      2.71 TIME LEFT: 172797.26
 STEP:  60 TIME =     0.05 SECS, INTEGRAL =      2.76 TIME LEFT: 172797.21

(To convert to Hartree/Bohr^2, multiply by (10^(-21) x N x a0^2)/(4.184 x 627.51) =  0.0642)


           FORCE MATRIX IN MILLIDYNES/ANGSTROM


                  C  1       C  2       C  3       C  4       C  5       C  6
 ------------------------------------------------------------------------------
     C    1  14.917165
     C    2   0.582665  18.653313
     C    3   4.484195   5.032164  18.760686
     C    4   5.054546   0.218266   0.683487  18.021713
     C    5   0.137640   9.262446   1.043134   1.226867  18.148446
     C    6   0.871062   1.156307   0.151962  10.175114   5.804990  18.407207
     C    7   0.044791   5.245005   0.678272   0.031725   1.005725   0.150399
     C    8   0.008060   1.028748   0.057384   0.010332   0.161159   0.027951
     C    9   0.065427   0.102085   0.764862   0.010048   0.029162   0.012226
     C   10   0.936894   1.165642  10.705029   0.061683   0.155392   0.064482
     H   11   4.373413   0.025536   0.416461   0.415858   0.015290   0.041520
     H   12   4.373155   0.025557   0.416365   0.415830   0.015303   0.041536
     H   13   0.421570   0.008007   0.047180   4.831650   0.121401   0.443287
     H   14   0.003329   0.455028   0.104844   0.046755   4.646849   0.430033
     H   15   0.120327   0.047524   0.002403   0.444637   0.433575   4.855425
     H   16   0.002948   0.446592   0.053021   0.001007   0.043955   0.008903
     H   17   0.000894   0.103807   0.003429   0.001227   0.093110   0.005712
     H   18   0.001776   0.136825   0.007642   0.001123   0.012589   0.005107
     H   19   0.064379   0.073580   0.041286   0.001945   0.004751   0.005602
     H   20   0.064307   0.073571   0.041387   0.001945   0.004738   0.005606


                  C  7       C  8       C  9       C 10       H 11       H 12
 ------------------------------------------------------------------------------
     C    7  18.322813
     C    8  10.686558  17.786918
     C    9   0.021446   0.003588  18.110123
     C   10   0.086050   0.009168  11.903241  24.665258
     H   11   0.004853   0.000507   0.007668   0.040739   4.959405
     H   12   0.004841   0.000518   0.007663   0.040721   0.565741   4.959107
     H   13   0.010805   0.000937   0.002351   0.009489   0.030039   0.029992
     H   14   0.078333   0.099354   0.004749   0.007511   0.000826   0.000835
     H   15   0.008661   0.001064   0.000549   0.001068   0.015627   0.015634
     H   16   4.744969   0.448668   0.017862   0.057632   0.000518   0.000522
     H   17   0.493747   4.911435   0.000798   0.001319   0.000294   0.000293
     H   18   0.459903   5.143689   0.000855   0.000873   0.000379   0.000379
     H   19   0.002413   0.001145   4.998128   0.481232   0.007334   0.007517
     H   20   0.002419   0.001150   4.998223   0.481218   0.007500   0.007342


                  H 13       H 14       H 15       H 16       H 17       H 18
 ------------------------------------------------------------------------------
     H   13   5.206595
     H   14   0.007231   5.029524
     H   15   0.064414   0.030709   5.219137
     H   16   0.000587   0.002651   0.001566   5.107029
     H   17   0.000390   0.066058   0.000425   0.117466   5.294366
     H   18   0.000512   0.005989   0.000524   0.077724   0.391717   5.508813
     H   19   0.002327   0.005112   0.000304   0.001979   0.000305   0.000356
     H   20   0.002326   0.005118   0.000310   0.001991   0.000310   0.000356


                  H 19       H 20
 ------------------------------
     H   19   5.379149
     H   20   0.407793   5.379005


          HEAT OF FORMATION =      88.449075 KCALS/MOLE

          ZERO POINT ENERGY     102.814 KCAL/MOL


           NORMAL COORDINATE ANALYSIS (Total motion = 1 Angstrom)


   Root No.       1         2         3         4         5         6         7         8

                 1 A       2 A       3 A       4 A       5 A       6 A       7 A       8 A   

                  42.6      97.9     140.2     174.0     234.6     274.1     380.0     426.8
  
           1    0.0000    0.0000   -0.0203   -0.0000   -0.0000    0.0052   -0.0000   -0.0432
           2   -0.0000   -0.0000   -0.0228   -0.0000    0.0000    0.0219    0.0000   -0.0073
           3    0.0725    0.0126    0.0000    0.0205   -0.0222   -0.0000   -0.0043    0.0000
           4    0.0000    0.0000   -0.0199   -0.0000   -0.0000    0.0142   -0.0000    0.0276
           5   -0.0000   -0.0000    0.0011   -0.0000   -0.0000   -0.0363   -0.0000    0.0334
           6    0.0054   -0.0433   -0.0000    0.0197    0.0221    0.0000    0.0552    0.0001
           7    0.0000    0.0000   -0.0289   -0.0000   -0.0000    0.0258   -0.0000   -0.0202
           8   -0.0000   -0.0000   -0.0121   -0.0000   -0.0000   -0.0179   -0.0000   -0.0300
           9    0.0198   -0.0143   -0.0000    0.0090    0.0578   -0.0000    0.0189    0.0001
          10   -0.0000   -0.0000   -0.0021   -0.0000    0.0000   -0.0261   -0.0000   -0.0407
          11    0.0000   -0.0000   -0.0225    0.0000    0.0000    0.0213   -0.0000    0.0003
          12   -0.0018    0.0278   -0.0000   -0.0586   -0.0033   -0.0000    0.0296   -0.0002
          13   -0.0000   -0.0000   -0.0022   -0.0000    0.0000   -0.0114   -0.0000   -0.0058
          14    0.0000   -0.0000    0.0016   -0.0000    0.0000   -0.0356    0.0000    0.0369
          15   -0.0328   -0.0354   -0.0000    0.0618   -0.0199    0.0000    0.0047   -0.0002
          16   -0.0000   -0.0000    0.0046   -0.0000   -0.0000   -0.0375    0.0000   -0.0167
          17    0.0000   -0.0000   -0.0104    0.0000    0.0000   -0.0019    0.0000    0.0472
          18   -0.0515    0.0019   -0.0000   -0.0044   -0.0081   -0.0000   -0.0425    0.0003
          19    0.0000   -0.0000   -0.0349    0.0000   -0.0000   -0.0064    0.0000    0.0619
          20   -0.0000    0.0000    0.0262    0.0000    0.0000   -0.0023    0.0000   -0.0001
          21    0.0276   -0.0632    0.0001   -0.0442   -0.0203    0.0000   -0.0012    0.0000
          22    0.0000    0.0000   -0.0217    0.0000    0.0000    0.0278    0.0000    0.0669
          23   -0.0000    0.0001    0.0540    0.0000    0.0000    0.0707   -0.0000   -0.0010
          24    0.0235    0.0766   -0.0000   -0.0066    0.0004   -0.0000   -0.0067    0.0000
          25   -0.0000    0.0000    0.1096    0.0000    0.0000   -0.0150    0.0000    0.0090
          26   -0.0000   -0.0000   -0.0083   -0.0000   -0.0000   -0.0207   -0.0000   -0.0393
          27   -0.0516    0.0206   -0.0000    0.0022   -0.0390    0.0000    0.0066   -0.0000
          28   -0.0000    0.0000   -0.0016   -0.0000    0.0000    0.0354   -0.0000   -0.0531
          29   -0.0000   -0.0000   -0.0116   -0.0000   -0.0000   -0.0184   -0.0000   -0.0370
          30   -0.0152   -0.0004   -0.0000    0.0049    0.0725   -0.0000   -0.0465   -0.0002
          31   -0.0617   -0.0118   -0.0232   -0.0423    0.0725    0.0133    0.0477   -0.0399
          32    0.0405   -0.0109   -0.0290    0.0528   -0.0126    0.0387   -0.0402    0.0027
          33    0.1282    0.0168    0.0001    0.0678   -0.0765    0.0001   -0.0515    0.0010
          34    0.0618    0.0119   -0.0231    0.0423   -0.0726    0.0132   -0.0478   -0.0398
          35   -0.0406    0.0109   -0.0291   -0.0529    0.0126    0.0387    0.0403    0.0022
          36    0.1281    0.0168    0.0001    0.0677   -0.0764   -0.0001   -0.0514   -0.0007
          37   -0.0000   -0.0000    0.0044    0.0000    0.0000   -0.0382    0.0000   -0.0256
          38    0.0001   -0.0000   -0.0333    0.0001   -0.0000    0.0411   -0.0001   -0.0244
          39   -0.0099    0.0593   -0.0000   -0.1467    0.0063   -0.0000    0.0729   -0.0004
          40   -0.0000   -0.0000    0.0047   -0.0000    0.0000   -0.0215    0.0000   -0.0178
          41    0.0000   -0.0000    0.0141   -0.0000    0.0000   -0.0496    0.0000    0.0168
          42   -0.0483   -0.0442   -0.0000    0.1057   -0.0636    0.0000   -0.0037   -0.0008
          43   -0.0000   -0.0001    0.0156    0.0000   -0.0000   -0.0665    0.0000    0.0028
          44    0.0001   -0.0000   -0.0097    0.0000   -0.0000   -0.0038    0.0001    0.0480
          45   -0.1043    0.0106   -0.0000   -0.0339   -0.0034   -0.0000   -0.1100    0.0008
          46   -0.0000   -0.0000   -0.0547    0.0000   -0.0000   -0.0507    0.0001    0.0737
          47   -0.0000    0.0001    0.0253    0.0001    0.0000   -0.0043    0.0000    0.0006
          48    0.0484   -0.1903    0.0002   -0.1361   -0.0756    0.0002   -0.0852    0.0000
          49   -0.0000    0.0001    0.0026    0.0000    0.0000    0.0912    0.0000    0.0710
          50   -0.0000    0.0000    0.0565   -0.0000    0.0000    0.0783   -0.0000    0.0000
          51    0.0024    0.1996   -0.0002    0.0842    0.0540   -0.0002    0.0801   -0.0000
          52    0.0000   -0.0001   -0.0347    0.0000    0.0000   -0.0082    0.0001    0.0668
          53   -0.0000    0.0002    0.0762    0.0001    0.0001    0.1332    0.0001    0.0011
          54    0.0400    0.0724    0.0000   -0.0631   -0.0377    0.0000   -0.1045    0.0001
          55    0.0165    0.0218    0.1580   -0.0028   -0.0179   -0.0377   -0.0362    0.0398
          56    0.0264   -0.0150   -0.0070    0.0019    0.0962   -0.0220   -0.0597   -0.0417
          57   -0.0680    0.0306    0.0001    0.0009   -0.1012    0.0003    0.0446    0.0016
          58   -0.0166   -0.0217    0.1580    0.0028    0.0179   -0.0377    0.0362    0.0403
          59   -0.0264    0.0150   -0.0069   -0.0019   -0.0962   -0.0220    0.0596   -0.0412
          60   -0.0680    0.0306   -0.0001    0.0009   -0.1012   -0.0003    0.0446   -0.0013


   Root No.       9        10        11        12        13        14        15        16

                 9 A      10 A      11 A      12 A      13 A      14 A      15 A      16 A   

                 444.1     470.7     526.5     556.7     583.8     615.4     717.1     760.7
  
           1   -0.0001    0.0185   -0.0000    0.0400    0.0000   -0.0557    0.0000   -0.0000
           2   -0.0000   -0.0238    0.0000   -0.0403   -0.0000   -0.0124    0.0000    0.0000
           3   -0.0012   -0.0000    0.0049   -0.0001    0.0122    0.0000   -0.0221   -0.0151
           4    0.0001   -0.0150   -0.0000    0.0244    0.0000   -0.0280   -0.0000   -0.0000
           5    0.0001   -0.0013   -0.0000    0.0293    0.0000    0.0167   -0.0000    0.0000
           6   -0.0294    0.0001   -0.0041    0.0001   -0.0213    0.0000    0.0645   -0.0134
           7   -0.0001   -0.0065   -0.0000    0.0258    0.0000   -0.0391    0.0000   -0.0000
           8   -0.0001    0.0369    0.0000    0.0014    0.0000    0.0029   -0.0000   -0.0000
           9   -0.0328    0.0000    0.0421   -0.0000    0.0455   -0.0001   -0.0258    0.0363
          10   -0.0001   -0.0050    0.0000   -0.0483   -0.0000   -0.0021    0.0000    0.0000
          11   -0.0000   -0.0330    0.0000   -0.0538   -0.0001   -0.0210    0.0000    0.0000
          12    0.0339   -0.0000   -0.0137   -0.0000    0.0015    0.0000    0.0007   -0.0238
          13   -0.0000   -0.0335    0.0000   -0.0517   -0.0001    0.0005    0.0000    0.0000
          14    0.0001   -0.0041   -0.0000    0.0285    0.0000    0.0246    0.0000    0.0000
          15    0.0456   -0.0000    0.0001   -0.0000    0.0165    0.0000    0.0066    0.0001
          16   -0.0000   -0.0118    0.0000   -0.0352   -0.0000    0.0164    0.0000    0.0000
          17    0.0001   -0.0430   -0.0000   -0.0221   -0.0000    0.0116    0.0000    0.0000
          18   -0.0472   -0.0000    0.0068   -0.0000   -0.0024    0.0000   -0.0088   -0.0325
          19    0.0002    0.0184   -0.0000    0.0193    0.0000    0.0012    0.0000   -0.0000
          20   -0.0000   -0.0508   -0.0001    0.0593    0.0001   -0.0297    0.0000   -0.0000
          21   -0.0027    0.0000   -0.0021    0.0001   -0.0342   -0.0000   -0.0316   -0.0009
          22    0.0002    0.0541    0.0000   -0.0094   -0.0000    0.0179   -0.0000   -0.0000
          23   -0.0000    0.0159    0.0000    0.0042   -0.0000   -0.0017   -0.0000   -0.0000
          24   -0.0005    0.0000    0.0015   -0.0000    0.0042    0.0000   -0.0005   -0.0014
          25    0.0000    0.0034   -0.0000   -0.0018   -0.0000   -0.0075    0.0000    0.0000
          26   -0.0001    0.0527    0.0000    0.0010    0.0000    0.0048   -0.0000   -0.0000
          27   -0.0015   -0.0000   -0.0026    0.0000   -0.0032    0.0000    0.0032   -0.0048
          28   -0.0002   -0.0389   -0.0000    0.0453    0.0001    0.1060   -0.0000    0.0000
          29   -0.0001    0.0448    0.0000    0.0022    0.0000    0.0068   -0.0000   -0.0000
          30    0.0350    0.0000   -0.0266    0.0000   -0.0197    0.0000    0.0067   -0.0057
          31    0.0126    0.0132    0.0744    0.0501    0.0617   -0.0669   -0.0712   -0.0274
          32   -0.0457   -0.0373   -0.0046   -0.0303   -0.0141   -0.0306    0.0199    0.0693
          33   -0.0265   -0.0007   -0.0488   -0.0024   -0.0358    0.0020    0.0349    0.0292
          34   -0.0128    0.0134   -0.0746    0.0502   -0.0616   -0.0667    0.0713    0.0274
          35    0.0458   -0.0373    0.0046   -0.0303    0.0141   -0.0307   -0.0199   -0.0694
          36   -0.0265    0.0008   -0.0487    0.0024   -0.0358   -0.0018    0.0348    0.0290
          37   -0.0001   -0.0159    0.0001   -0.0644   -0.0000    0.0245   -0.0000   -0.0001
          38   -0.0001   -0.0153    0.0000   -0.0263   -0.0000   -0.0655   -0.0000   -0.0001
          39    0.0736    0.0000   -0.0490    0.0002   -0.0441   -0.0000    0.0872    0.2627
          40   -0.0001   -0.0246    0.0000   -0.0601   -0.0001    0.0136    0.0000   -0.0000
          41   -0.0000    0.0112    0.0000    0.0129    0.0000    0.0471    0.0001   -0.0000
          42    0.1703   -0.0001   -0.0087   -0.0000    0.0180   -0.0000   -0.1066    0.1622
          43    0.0000    0.0042    0.0000    0.0151    0.0000    0.0499   -0.0000    0.0000
          44    0.0002   -0.0418   -0.0000   -0.0189   -0.0000    0.0134    0.0000   -0.0001
          45   -0.1521    0.0001    0.0128    0.0001   -0.0535   -0.0000    0.0125    0.2065
          46    0.0002    0.0078   -0.0000    0.0327    0.0000    0.0232    0.0000   -0.0000
          47   -0.0000   -0.0503   -0.0001    0.0598    0.0000   -0.0274    0.0000   -0.0000
          48    0.0249    0.0000    0.0103   -0.0001    0.0469    0.0000   -0.0348    0.0070
          49    0.0003    0.1369    0.0002   -0.1001   -0.0001    0.0779    0.0000    0.0000
          50    0.0000    0.0262    0.0000   -0.0059    0.0001    0.0054    0.0001   -0.0000
          51   -0.0251   -0.0000   -0.0151    0.0003   -0.1250   -0.0000   -0.1169    0.0055
          52    0.0002    0.0102   -0.0000    0.0367   -0.0000   -0.0115   -0.0001   -0.0000
          53    0.0000    0.0943    0.0001   -0.0767   -0.0002    0.0511   -0.0001    0.0000
          54    0.0355   -0.0000    0.0237   -0.0004    0.2015    0.0001    0.1898    0.0028
          55    0.0686    0.0250    0.2963   -0.0296   -0.0943   -0.0791    0.0552   -0.0071
          56    0.0486    0.0585   -0.0308    0.0005   -0.0358    0.0035    0.0192   -0.0261
          57   -0.0319   -0.0024    0.0235   -0.0002    0.0184   -0.0005   -0.0084    0.0122
          58   -0.0683    0.0257   -0.2962   -0.0306    0.0941   -0.0790   -0.0551    0.0071
          59   -0.0488    0.0585    0.0309    0.0003    0.0358    0.0034   -0.0192    0.0261
          60   -0.0319    0.0024    0.0235    0.0001    0.0184    0.0004   -0.0084    0.0122


   Root No.      17        18        19        20        21        22        23        24

                17 A      18 A      19 A      20 A      21 A      22 A      23 A      24 A   

                 800.3     815.2     891.1     926.7     937.3     947.6     989.4    1006.3
  
           1    0.0476    0.0364    0.0000   -0.0000   -0.0000   -0.0000   -0.0080    0.0000
           2    0.0092   -0.0328   -0.0000    0.0000   -0.0000    0.0000    0.0053   -0.0000
           3    0.0000   -0.0001    0.0439   -0.0039    0.0230   -0.0149    0.0000    0.0284
           4   -0.0268    0.0043    0.0000    0.0000    0.0000   -0.0000    0.0017   -0.0000
           5    0.0334   -0.0086   -0.0000    0.0000    0.0000   -0.0000    0.0005   -0.0000
           6   -0.0000   -0.0000    0.0194   -0.0090    0.0011    0.0300    0.0000    0.0147
           7    0.0056    0.0227    0.0000   -0.0000    0.0000    0.0000    0.0051   -0.0000
           8   -0.0042    0.0008   -0.0000    0.0000   -0.0000    0.0000    0.0001    0.0000
           9   -0.0000    0.0001   -0.0274    0.0141   -0.0192    0.0034    0.0000   -0.0210
          10    0.0219   -0.0582   -0.0000    0.0000    0.0000   -0.0000   -0.0021    0.0000
          11    0.0173   -0.0320   -0.0000    0.0000    0.0000   -0.0000   -0.0067    0.0000
          12    0.0000   -0.0000   -0.0092   -0.0090   -0.0154    0.0229   -0.0000   -0.0481
          13   -0.0413    0.0440    0.0000   -0.0000   -0.0000    0.0000   -0.0022    0.0000
          14    0.0476    0.0019    0.0000   -0.0000   -0.0000    0.0000    0.0022    0.0000
          15    0.0000    0.0000   -0.0139    0.0172    0.0284   -0.0397   -0.0000   -0.0277
          16    0.0056    0.0012   -0.0000    0.0000    0.0000   -0.0000    0.0018   -0.0000
          17   -0.0061    0.0872    0.0001   -0.0000    0.0000   -0.0000   -0.0041   -0.0000
          18    0.0000    0.0001   -0.0210    0.0034   -0.0157    0.0024    0.0000    0.0485
          19   -0.0188   -0.0290   -0.0000    0.0000    0.0000    0.0000   -0.0004    0.0000
          20   -0.0310   -0.0314   -0.0000    0.0000    0.0000    0.0000    0.0014   -0.0000
          21   -0.0000   -0.0000    0.0031   -0.0132   -0.0239   -0.0314   -0.0000    0.0042
          22   -0.0108   -0.0256   -0.0000    0.0000   -0.0000   -0.0000   -0.0030    0.0000
          23   -0.0094   -0.0126   -0.0000   -0.0000   -0.0000    0.0000   -0.0019    0.0000
          24   -0.0000   -0.0000   -0.0026    0.0007   -0.0012   -0.0164   -0.0000   -0.0168
          25    0.0013    0.0001    0.0000    0.0000   -0.0000    0.0000   -0.0881    0.0000
          26   -0.0425    0.0137    0.0000    0.0000    0.0000    0.0000   -0.0022   -0.0000
          27    0.0000   -0.0000    0.0171    0.0457   -0.0167    0.0007    0.0000   -0.0030
          28    0.0009   -0.0051    0.0000   -0.0000    0.0000   -0.0000    0.0327    0.0000
          29   -0.0259    0.0082    0.0000    0.0000    0.0000    0.0000    0.0011   -0.0000
          30   -0.0000   -0.0000   -0.0088   -0.0427    0.0180   -0.0008   -0.0000    0.0060
          31    0.0609    0.0574    0.0856    0.0023    0.0418   -0.0400   -0.0066    0.0768
          32    0.0218   -0.0139   -0.0718    0.0240   -0.0373   -0.0008    0.0155    0.0093
          33   -0.0046   -0.0057   -0.0414    0.0030   -0.0195    0.0127    0.0025   -0.0216
          34    0.0608    0.0575   -0.0856   -0.0024   -0.0419    0.0400   -0.0067   -0.0769
          35    0.0219   -0.0141    0.0719   -0.0240    0.0374    0.0009    0.0154   -0.0094
          36    0.0045    0.0056   -0.0413    0.0030   -0.0194    0.0127   -0.0025   -0.0215
          37   -0.0011   -0.0376   -0.0000   -0.0000   -0.0000    0.0000    0.0060   -0.0001
          38    0.0579   -0.0654   -0.0000   -0.0000   -0.0000    0.0000   -0.0200    0.0001
          39   -0.0001    0.0001   -0.0523    0.0718    0.0523   -0.1173    0.0001    0.1829
          40   -0.0183    0.0252    0.0000   -0.0000   -0.0000    0.0000    0.0000    0.0000
          41    0.0896   -0.0299   -0.0000    0.0000   -0.0000   -0.0000    0.0061    0.0001
          42    0.0000   -0.0001    0.0710   -0.0832   -0.1447    0.1878    0.0000    0.0861
          43    0.0407    0.0414    0.0000    0.0000    0.0000   -0.0000    0.0253   -0.0001
          44   -0.0026    0.0905   -0.0001    0.0000   -0.0000   -0.0000   -0.0030    0.0001
          45    0.0000   -0.0003    0.1770   -0.0417    0.0707    0.0142   -0.0000   -0.1810
          46    0.0074   -0.0351    0.0000   -0.0000   -0.0000   -0.0000    0.0113    0.0000
          47   -0.0284   -0.0317    0.0000   -0.0000   -0.0001   -0.0001    0.0020   -0.0000
          48    0.0000    0.0001   -0.0634    0.1141    0.1797    0.1951    0.0001   -0.0097
          49    0.0940    0.0784    0.0000   -0.0000   -0.0000   -0.0000    0.0108   -0.0001
          50    0.0036   -0.0001    0.0000   -0.0000   -0.0001   -0.0001   -0.0001   -0.0000
          51    0.0001    0.0001   -0.0378    0.0664    0.1078    0.1541    0.0001    0.0612
          52   -0.0712   -0.0864   -0.0000    0.0000   -0.0000   -0.0000   -0.0115    0.0001
          53    0.0961    0.0919    0.0000    0.0000    0.0000   -0.0000    0.0128   -0.0001
          54   -0.0000   -0.0000    0.0408   -0.0278   -0.0222    0.0661    0.0000    0.0736
          55    0.0017    0.0049   -0.0113   -0.0052   -0.0024    0.0090    0.3583   -0.0052
          56   -0.0596    0.0199    0.0698    0.1796   -0.0654    0.0027    0.0114   -0.0114
          57    0.0087   -0.0030   -0.0291   -0.0726    0.0262   -0.0009    0.0001    0.0043
          58    0.0017    0.0049    0.0113    0.0051    0.0024   -0.0091    0.3584    0.0051
          59   -0.0597    0.0199   -0.0697   -0.1796    0.0654   -0.0027    0.0112    0.0113
          60   -0.0088    0.0030   -0.0291   -0.0726    0.0263   -0.0009   -0.0002    0.0043


   Root No.      25        26        27        28        29        30        31        32

                25 A      26 A      27 A      28 A      29 A      30 A      31 A      32 A   

                1013.7    1036.1    1042.6    1071.7    1099.0    1155.3    1186.9    1213.7
  
           1   -0.0254    0.0000   -0.0202   -0.0000    0.0107   -0.0069   -0.0161    0.0033
           2    0.0095   -0.0000    0.0379    0.0000   -0.0018    0.0022    0.0029    0.0168
           3    0.0000   -0.0066    0.0000    0.0024   -0.0000   -0.0000    0.0000    0.0000
           4    0.0336   -0.0001    0.0018    0.0000   -0.0259    0.0167    0.0249   -0.0112
           5    0.0074   -0.0000   -0.0050   -0.0000    0.0075   -0.0086    0.0017   -0.0108
           6   -0.0000   -0.0219    0.0000    0.0072   -0.0000    0.0000    0.0000   -0.0000
           7    0.0133   -0.0000    0.0182    0.0001   -0.0303    0.0029    0.0397    0.0208
           8   -0.0036    0.0000   -0.0014   -0.0000    0.0006   -0.0037   -0.0043    0.0208
           9   -0.0000    0.0071    0.0000   -0.0336    0.0000    0.0000    0.0000    0.0000
          10    0.0008   -0.0000   -0.0193   -0.0000   -0.0235   -0.0043   -0.0076   -0.0125
          11   -0.0064    0.0000   -0.0365   -0.0000   -0.0146    0.0073    0.0006    0.0034
          12   -0.0000    0.0106   -0.0001    0.0379    0.0000    0.0000   -0.0000   -0.0000
          13    0.0034   -0.0000   -0.0016   -0.0000    0.0498   -0.0003   -0.0001    0.0021
          14   -0.0048    0.0000    0.0037    0.0000   -0.0074    0.0003    0.0157   -0.0138
          15    0.0000    0.0193   -0.0000    0.0027    0.0000   -0.0000    0.0000   -0.0000
          16   -0.0044    0.0000    0.0118    0.0000   -0.0050    0.0002   -0.0065   -0.0103
          17   -0.0266    0.0001   -0.0184    0.0000   -0.0218   -0.0040   -0.0112   -0.0003
          18   -0.0000   -0.0128    0.0000   -0.0116   -0.0000    0.0000   -0.0000   -0.0000
          19    0.0104   -0.0000   -0.0045   -0.0000    0.0048    0.0004   -0.0008   -0.0052
          20    0.0370   -0.0001   -0.0089   -0.0000    0.0109   -0.0012   -0.0083   -0.0009
          21    0.0001    0.0473   -0.0000   -0.0044    0.0000   -0.0000   -0.0000    0.0000
          22   -0.0313    0.0001    0.0008   -0.0000    0.0050   -0.0022   -0.0036   -0.0042
          23   -0.0399    0.0001    0.0048    0.0000   -0.0028   -0.0034   -0.0093    0.0100
          24   -0.0001   -0.0662    0.0000    0.0028    0.0000   -0.0000   -0.0000    0.0000
          25    0.0042   -0.0000    0.0053    0.0000   -0.0018    0.0000    0.0012    0.0015
          26    0.0079   -0.0000    0.0001    0.0000   -0.0027    0.0036    0.0030   -0.0054
          27   -0.0000    0.0008   -0.0000   -0.0011   -0.0000   -0.0000    0.0000   -0.0000
          28   -0.0057    0.0000   -0.0099   -0.0000    0.0048   -0.0003   -0.0036   -0.0055
          29    0.0024   -0.0000   -0.0002    0.0000   -0.0000   -0.0005   -0.0016    0.0070
          30    0.0000   -0.0020   -0.0000    0.0036    0.0000   -0.0000   -0.0000    0.0000
          31   -0.0338   -0.0099    0.0299    0.1849    0.0467   -0.0634   -0.0641   -0.0462
          32    0.0205    0.0120    0.1824    0.3327    0.0661   -0.0878   -0.0542   -0.0814
          33    0.0082    0.0045    0.0143   -0.0086   -0.0021    0.0048    0.0115    0.0006
          34   -0.0339    0.0100    0.0300   -0.1851    0.0466   -0.0633   -0.0640   -0.0461
          35    0.0204   -0.0120    0.1828   -0.3326    0.0659   -0.0875   -0.0540   -0.0813
          36   -0.0082    0.0045   -0.0141   -0.0090    0.0021   -0.0048   -0.0115   -0.0007
          37    0.0050    0.0000    0.0139    0.0001   -0.1377   -0.1498   -0.0016    0.0291
          38   -0.0145   -0.0000   -0.0887   -0.0001    0.1693    0.2455   -0.0132   -0.0670
          39    0.0001   -0.0300    0.0001   -0.0571   -0.0000    0.0000    0.0000   -0.0000
          40   -0.0200    0.0000    0.0272    0.0000    0.1279   -0.0137    0.1344    0.0652
          41   -0.0431    0.0001    0.0496    0.0001    0.1198   -0.0251    0.2425    0.0905
          42   -0.0001   -0.0872    0.0001   -0.0127   -0.0001    0.0000    0.0001    0.0000
          43   -0.0192    0.0001    0.1925    0.0003   -0.0878    0.2921   -0.1053    0.0707
          44   -0.0293    0.0000   -0.0094    0.0000   -0.0272    0.0147   -0.0168    0.0046
          45   -0.0001    0.0393   -0.0001    0.0183    0.0000    0.0000   -0.0000    0.0000
          46    0.1123   -0.0002   -0.0379   -0.0002    0.0878   -0.0650   -0.2042    0.1780
          47    0.0461   -0.0000   -0.0116   -0.0001    0.0168   -0.0057   -0.0224    0.0111
          48   -0.0003   -0.1234   -0.0000    0.0119    0.0000   -0.0000   -0.0001    0.0000
          49    0.1919   -0.0004   -0.0289   -0.0001    0.0336   -0.0017   -0.0060   -0.0121
          50   -0.0115   -0.0001    0.0007    0.0000   -0.0013   -0.0032   -0.0117    0.0090
          51    0.0004    0.2408   -0.0000   -0.0083    0.0000   -0.0000    0.0000    0.0000
          52   -0.1594    0.0002    0.0146    0.0000    0.0131   -0.0108   -0.0182    0.0088
          53    0.1843   -0.0004   -0.0205   -0.0000   -0.0136    0.0101    0.0117   -0.0114
          54    0.0005    0.2448   -0.0000   -0.0073   -0.0000   -0.0000    0.0000   -0.0000
          55   -0.0148   -0.0018   -0.0161   -0.0063    0.0024   -0.0004    0.0001    0.0013
          56    0.0163    0.0029   -0.0006   -0.0044   -0.0077    0.0173    0.0226   -0.0965
          57   -0.0049   -0.0011    0.0001    0.0015    0.0029   -0.0078   -0.0113    0.0526
          58   -0.0148    0.0019   -0.0161    0.0063    0.0024   -0.0004    0.0001    0.0013
          59    0.0164   -0.0030   -0.0006    0.0044   -0.0077    0.0173    0.0226   -0.0965
          60    0.0049   -0.0012   -0.0001    0.0015   -0.0029    0.0078    0.0113   -0.0526


   Root No.      33        34        35        36        37        38        39        40

                33 A      34 A      35 A      36 A      37 A      38 A      39 A      40 A   

                1231.1    1267.3    1322.4    1349.7    1357.4    1439.5    1508.4    1549.2
  
           1    0.0023    0.0161    0.0070    0.0226    0.0533   -0.0139   -0.0490   -0.0027
           2   -0.0071    0.0030    0.0062    0.0584   -0.0171    0.0344   -0.0817   -0.0182
           3   -0.0000    0.0000   -0.0000    0.0000   -0.0000    0.0000   -0.0000   -0.0000
           4   -0.0064   -0.0174   -0.0072   -0.0158   -0.0176   -0.0521   -0.0694    0.1017
           5   -0.0109   -0.0165    0.0053    0.0229   -0.0082   -0.0398    0.0211   -0.0163
           6   -0.0000   -0.0000   -0.0000    0.0000   -0.0000   -0.0000   -0.0000    0.0000
           7    0.0068   -0.0313    0.0226   -0.0085   -0.0211    0.0270    0.0821   -0.0651
           8   -0.0311   -0.0010    0.0027    0.0172    0.0013    0.0238    0.0660    0.1178
           9    0.0000   -0.0000    0.0000   -0.0000    0.0000    0.0000    0.0000   -0.0000
          10    0.0037   -0.0039   -0.0003   -0.0232   -0.0004    0.0131    0.0020    0.0103
          11    0.0173    0.0211   -0.0143   -0.0161    0.0063   -0.0568    0.0428   -0.0098
          12    0.0000    0.0000   -0.0000   -0.0000    0.0000   -0.0000    0.0000   -0.0000
          13   -0.0153   -0.0052    0.0004    0.0372   -0.0048   -0.0523    0.0332   -0.0240
          14   -0.0043   -0.0214    0.0093    0.0093   -0.0142   -0.0262   -0.0051   -0.0273
          15   -0.0000   -0.0000    0.0000    0.0000   -0.0000   -0.0000    0.0000   -0.0000
          16   -0.0051   -0.0164    0.0092   -0.0097   -0.0047    0.0590   -0.0303    0.0006
          17    0.0067    0.0042    0.0013   -0.0242    0.0104    0.0478   -0.0144    0.0151
          18    0.0000    0.0000    0.0000   -0.0000    0.0000    0.0000   -0.0000    0.0000
          19   -0.0063    0.0138   -0.0249    0.0048    0.0178    0.0239    0.0095   -0.0087
          20   -0.0045    0.0389    0.0021   -0.0031    0.0146    0.0372    0.0159   -0.0221
          21   -0.0000    0.0000   -0.0000    0.0000    0.0000    0.0000    0.0000   -0.0000
          22   -0.0041    0.0073   -0.0124    0.0076    0.0122    0.0185    0.0156   -0.0274
          23    0.0109   -0.0206    0.0084   -0.0031   -0.0105   -0.0159   -0.0090    0.0134
          24    0.0000   -0.0000   -0.0000    0.0000    0.0000    0.0000    0.0000   -0.0000
          25    0.0003   -0.0010    0.0009    0.0010   -0.0005    0.0016    0.0029    0.0015
          26    0.0011   -0.0001   -0.0076   -0.0338   -0.0042   -0.0240   -0.0537   -0.0898
          27   -0.0000   -0.0000    0.0000   -0.0000   -0.0000    0.0000    0.0000   -0.0000
          28   -0.0014    0.0036   -0.0024   -0.0003    0.0025   -0.0053   -0.0030    0.0033
          29   -0.0157   -0.0000   -0.0029   -0.0093   -0.0006   -0.0007    0.0068    0.0180
          30   -0.0000    0.0000   -0.0000    0.0000    0.0000    0.0000   -0.0000    0.0000
          31    0.0135    0.0638   -0.0879   -0.0254   -0.1807    0.0091    0.0232    0.0200
          32   -0.0087   -0.0275    0.0104   -0.0941    0.0850   -0.0310    0.0592    0.0421
          33   -0.0071   -0.0367    0.0566   -0.0166    0.1655   -0.0316    0.0013    0.0044
          34    0.0135    0.0638   -0.0879   -0.0254   -0.1808    0.0092    0.0232    0.0200
          35   -0.0087   -0.0276    0.0105   -0.0941    0.0853   -0.0311    0.0592    0.0420
          36    0.0071    0.0366   -0.0565    0.0165   -0.1652    0.0316   -0.0012   -0.0044
          37    0.0294    0.0624   -0.0215    0.0104    0.0237   -0.0776    0.0239   -0.0030
          38   -0.0230   -0.0857    0.0196   -0.0769   -0.0305    0.0928    0.0066    0.0143
          39    0.0000   -0.0000   -0.0000   -0.0000   -0.0000    0.0000    0.0000    0.0000
          40    0.0468    0.0462   -0.0352   -0.0223    0.0168   -0.0197   -0.0023    0.0446
          41    0.1021    0.0660   -0.0467   -0.0970    0.0214    0.0384   -0.0716    0.0843
          42    0.0000    0.0000   -0.0000   -0.0000    0.0000    0.0000   -0.0001    0.0000
          43    0.0510    0.1078   -0.0431   -0.0048    0.0236   -0.0960    0.0715   -0.0022
          44    0.0114    0.0124   -0.0021   -0.0276    0.0135    0.0427   -0.0091    0.0171
          45    0.0000    0.0000    0.0000   -0.0000    0.0000    0.0000   -0.0000    0.0000
          46    0.1739   -0.1238    0.0128   -0.0480   -0.0277   -0.0145   -0.0471    0.0281
          47    0.0070    0.0323    0.0055   -0.0067    0.0124    0.0382    0.0149   -0.0236
          48    0.0001   -0.0000    0.0000   -0.0000   -0.0000    0.0000   -0.0000    0.0000
          49   -0.0205    0.1594    0.2317   -0.0476   -0.0677   -0.0169   -0.0131    0.0216
          50    0.0092   -0.0085    0.0275   -0.0074   -0.0167   -0.0187   -0.0117    0.0181
          51    0.0000    0.0000    0.0001   -0.0000   -0.0000   -0.0000   -0.0000    0.0000
          52    0.0075    0.0303    0.1153   -0.0165   -0.0431   -0.0263   -0.0049    0.0007
          53   -0.0086   -0.0511   -0.1959    0.0358    0.0809    0.0630    0.0283   -0.0402
          54   -0.0000   -0.0000   -0.0000    0.0000    0.0000    0.0000    0.0000   -0.0000
          55   -0.0061    0.0004   -0.0006   -0.0026   -0.0004   -0.0004    0.0007   -0.0022
          56    0.1836    0.0002    0.0231    0.0754    0.0078    0.0234    0.0305    0.0377
          57   -0.1065   -0.0001   -0.0186   -0.0670   -0.0073   -0.0304   -0.0560   -0.0872
          58   -0.0061    0.0004   -0.0006   -0.0026   -0.0004   -0.0004    0.0007   -0.0022
          59    0.1836    0.0002    0.0231    0.0754    0.0078    0.0234    0.0305    0.0377
          60    0.1065    0.0001    0.0186    0.0670    0.0073    0.0304    0.0560    0.0872


   Root No.      41        42        43        44        45        46        47        48

                41 A      42 A      43 A      44 A      45 A      46 A      47 A      48 A   

                1828.8    1838.8    1854.7    2249.1    2926.1    2997.8    3005.9    3025.3
  
           1    0.0029    0.0021    0.0081    0.0019   -0.0000    0.0000   -0.0360   -0.0001
           2   -0.0092   -0.0016   -0.0283    0.0042    0.0000    0.0000    0.0184    0.0001
           3   -0.0000   -0.0000   -0.0000    0.0000   -0.0610    0.0000   -0.0000    0.0000
           4    0.0186   -0.0429    0.0047   -0.0033   -0.0000   -0.0004    0.0003    0.0006
           5    0.1858    0.0178   -0.1093   -0.0022   -0.0000   -0.0038    0.0002   -0.0002
           6    0.0001   -0.0000   -0.0000   -0.0000   -0.0002   -0.0000   -0.0000   -0.0000
           7    0.0099    0.0031   -0.0124    0.0039    0.0000    0.0002   -0.0007   -0.0005
           8   -0.0204   -0.0086    0.0197   -0.1728    0.0000   -0.0009   -0.0008   -0.0002
           9   -0.0000   -0.0000    0.0000   -0.0000   -0.0001   -0.0000   -0.0000    0.0000
          10   -0.0863   -0.0182   -0.1303    0.0039    0.0000   -0.0000    0.0036   -0.0001
          11    0.0575    0.0125    0.1007    0.0001   -0.0000    0.0000    0.0029   -0.0001
          12    0.0000    0.0000    0.0000    0.0000   -0.0001   -0.0000    0.0000   -0.0000
          13   -0.0562   -0.0051   -0.0056   -0.0002   -0.0000   -0.0519   -0.0002    0.0020
          14   -0.1770   -0.0265    0.0902    0.0086    0.0000    0.0330   -0.0002   -0.0002
          15   -0.0001   -0.0000    0.0000    0.0000    0.0001    0.0000   -0.0000    0.0000
          16    0.1266    0.0253    0.1437   -0.0035   -0.0000    0.0014    0.0003   -0.0001
          17   -0.0115   -0.0022   -0.0621   -0.0001   -0.0000   -0.0045   -0.0001    0.0002
          18    0.0000    0.0000   -0.0000    0.0000   -0.0003   -0.0000   -0.0000    0.0000
          19   -0.0445    0.2084   -0.0006    0.0012    0.0000    0.0009   -0.0000    0.0092
          20   -0.0096   -0.0608    0.0137   -0.0004   -0.0000   -0.0014    0.0001   -0.0708
          21   -0.0000    0.0000    0.0000    0.0000   -0.0000   -0.0000    0.0000   -0.0000
          22    0.0238   -0.1651    0.0060   -0.0001    0.0000   -0.0020   -0.0000   -0.0001
          23   -0.0077    0.0788   -0.0049    0.0002   -0.0000    0.0106    0.0000    0.0042
          24   -0.0000   -0.0000   -0.0000    0.0000    0.0000    0.0000    0.0000    0.0000
          25   -0.0003   -0.0001    0.0002    0.0047   -0.0000   -0.0000   -0.0000   -0.0001
          26    0.0030    0.0038   -0.0082   -0.1567   -0.0000   -0.0000   -0.0000   -0.0003
          27    0.0000    0.0000   -0.0000   -0.0000   -0.0001    0.0000   -0.0000   -0.0000
          28    0.0048    0.0000   -0.0012   -0.0083   -0.0000    0.0000   -0.0002   -0.0002
          29   -0.0003   -0.0026    0.0064    0.3316   -0.0000    0.0004    0.0003    0.0004
          30   -0.0000   -0.0000    0.0000   -0.0000   -0.0001    0.0000    0.0000   -0.0000
          31   -0.0016   -0.0005    0.0053   -0.0031    0.2559   -0.0001    0.2173    0.0008
          32   -0.0182   -0.0044   -0.0126   -0.0092   -0.1302    0.0000   -0.1100   -0.0005
          33   -0.0040    0.0001    0.0030   -0.0052    0.3686   -0.0002    0.3744    0.0015
          34   -0.0016   -0.0005    0.0053   -0.0031   -0.2558   -0.0001    0.2168    0.0008
          35   -0.0181   -0.0044   -0.0126   -0.0092    0.1298    0.0000   -0.1093   -0.0005
          36    0.0040   -0.0001   -0.0030    0.0052    0.3694    0.0002   -0.3744   -0.0015
          37   -0.0465   -0.0091   -0.0493    0.0049   -0.0000    0.0051   -0.0447    0.0011
          38   -0.0392   -0.0089   -0.0839    0.0056   -0.0000    0.0024   -0.0233    0.0007
          39   -0.0000   -0.0000   -0.0000   -0.0000   -0.0016    0.0000   -0.0000   -0.0000
          40    0.0699    0.0075   -0.0872   -0.0089    0.0000    0.5998    0.0007   -0.0170
          41   -0.0036   -0.0107   -0.0235    0.0059    0.0000   -0.3589   -0.0004    0.0108
          42    0.0000   -0.0000    0.0000   -0.0000    0.0000   -0.0001   -0.0000    0.0000
          43    0.0116    0.0024   -0.0508   -0.0004   -0.0000   -0.0079    0.0007    0.0003
          44   -0.0345   -0.0062   -0.0983    0.0010    0.0000    0.0589   -0.0031   -0.0028
          45   -0.0000   -0.0000   -0.0001   -0.0000   -0.0007    0.0000   -0.0000   -0.0000
          46   -0.0380   -0.0665    0.0310    0.0032   -0.0000   -0.0000    0.0001   -0.0542
          47   -0.0012   -0.1127    0.0160   -0.0035    0.0000    0.0196   -0.0018    0.8104
          48   -0.0000   -0.0001    0.0000   -0.0000   -0.0000    0.0000   -0.0000    0.0004
          49   -0.0070    0.0641   -0.0005   -0.0001    0.0000    0.0166    0.0000   -0.0043
          50   -0.0139    0.1281   -0.0065    0.0004    0.0000   -0.1235   -0.0003    0.0141
          51   -0.0000    0.0001   -0.0000   -0.0000   -0.0000   -0.0001   -0.0000    0.0000
          52    0.0207   -0.0869   -0.0010    0.0002   -0.0000    0.0024    0.0002   -0.0529
          53    0.0047   -0.1089    0.0095   -0.0001   -0.0000    0.0047    0.0001   -0.0367
          54    0.0000   -0.0001   -0.0000    0.0000    0.0000    0.0000   -0.0000   -0.0000
          55    0.0001   -0.0001   -0.0002    0.0023    0.0004    0.0000    0.0000    0.0002
          56   -0.0004    0.0002   -0.0009   -0.0696    0.0001   -0.0006   -0.0007    0.0002
          57    0.0033    0.0032   -0.0063   -0.1133    0.0001   -0.0009   -0.0012    0.0004
          58    0.0000   -0.0001   -0.0002    0.0023   -0.0004    0.0000    0.0000    0.0002
          59   -0.0004    0.0002   -0.0009   -0.0696   -0.0001   -0.0005   -0.0007    0.0002
          60   -0.0033   -0.0032    0.0063    0.1133    0.0000    0.0009    0.0012   -0.0003


   Root No.      49        50        51        52        53        54

                49 A      50 A      51 A      52 A      53 A      54 A   

                3051.1    3071.1    3085.7    3112.5    3117.1    3152.3
  
           1   -0.0021   -0.0021    0.0001    0.0002   -0.0000    0.0000
           2    0.0009    0.0011   -0.0001    0.0000    0.0000   -0.0000
           3   -0.0000    0.0000    0.0000   -0.0000    0.0000   -0.0000
           4   -0.0001    0.0004    0.0002   -0.0002    0.0000    0.0008
           5   -0.0005    0.0005   -0.0011    0.0003   -0.0000   -0.0000
           6   -0.0000    0.0000   -0.0000   -0.0000   -0.0000    0.0000
           7    0.0001    0.0000    0.0001    0.0001   -0.0000   -0.0001
           8    0.0003    0.0004   -0.0001    0.0007   -0.0000    0.0000
           9    0.0000    0.0000   -0.0000   -0.0000   -0.0002    0.0000
          10   -0.0347   -0.0293    0.0016   -0.0001    0.0000    0.0001
          11   -0.0202   -0.0123    0.0005   -0.0000    0.0000    0.0000
          12   -0.0000   -0.0000    0.0000    0.0000   -0.0000   -0.0000
          13   -0.0018    0.0034   -0.0090    0.0001   -0.0000   -0.0002
          14    0.0011   -0.0013    0.0059   -0.0002    0.0000    0.0003
          15    0.0000   -0.0000    0.0000   -0.0000   -0.0000    0.0000
          16   -0.0007    0.0065   -0.0004    0.0001   -0.0000   -0.0000
          17    0.0298   -0.0412    0.0034   -0.0001   -0.0000    0.0001
          18    0.0000   -0.0000    0.0000   -0.0000    0.0000    0.0000
          19    0.0001   -0.0003   -0.0046    0.0000   -0.0000    0.0052
          20    0.0001    0.0001    0.0027   -0.0001    0.0000   -0.0074
          21   -0.0000   -0.0000   -0.0000    0.0000   -0.0000   -0.0000
          22   -0.0002    0.0007    0.0131   -0.0001    0.0000   -0.0618
          23    0.0010   -0.0032   -0.0552   -0.0001   -0.0000   -0.0355
          24    0.0000   -0.0000   -0.0000   -0.0000    0.0000   -0.0000
          25   -0.0000   -0.0000    0.0000   -0.0014    0.0000   -0.0000
          26   -0.0000   -0.0001   -0.0000    0.0476   -0.0002   -0.0001
          27    0.0000    0.0000    0.0000   -0.0002   -0.0649   -0.0000
          28    0.0000    0.0000    0.0000    0.0002   -0.0000   -0.0000
          29   -0.0001   -0.0001    0.0001   -0.0085    0.0000    0.0000
          30    0.0000   -0.0000    0.0000   -0.0000   -0.0005   -0.0000
          31    0.0122    0.0100   -0.0004   -0.0006   -0.0000   -0.0000
          32   -0.0089   -0.0068    0.0003    0.0004    0.0000    0.0000
          33    0.0222    0.0178   -0.0008   -0.0010   -0.0001   -0.0001
          34    0.0122    0.0099   -0.0004   -0.0006    0.0000   -0.0000
          35   -0.0089   -0.0068    0.0003    0.0004   -0.0000    0.0000
          36   -0.0221   -0.0178    0.0008    0.0010   -0.0001    0.0001
          37    0.4036    0.2924   -0.0133    0.0011    0.0000   -0.0007
          38    0.2487    0.1755   -0.0079    0.0006    0.0000   -0.0004
          39    0.0002    0.0002   -0.0000    0.0000   -0.0000   -0.0000
          40    0.0217   -0.0299    0.1087   -0.0010    0.0000    0.0055
          41   -0.0106    0.0149   -0.0597    0.0005   -0.0000   -0.0014
          42   -0.0000    0.0000   -0.0000    0.0000    0.0000    0.0000
          43    0.0193   -0.0297    0.0016   -0.0001    0.0000    0.0000
          44   -0.3558    0.4535   -0.0364    0.0010    0.0000   -0.0008
          45   -0.0002    0.0003   -0.0000    0.0000    0.0000   -0.0000
          46    0.0002   -0.0002   -0.0022   -0.0002    0.0000   -0.0079
          47   -0.0013   -0.0005   -0.0066    0.0006   -0.0000    0.0561
          48   -0.0000   -0.0000   -0.0000    0.0000   -0.0000    0.0000
          49    0.0014   -0.0040   -0.0652   -0.0001   -0.0000   -0.0202
          50   -0.0125    0.0387    0.6749    0.0004    0.0001    0.0445
          51   -0.0000    0.0000    0.0004   -0.0000    0.0000    0.0000
          52    0.0008   -0.0014   -0.0412    0.0007   -0.0000    0.6918
          53    0.0008   -0.0018   -0.0401    0.0004   -0.0000    0.4091
          54   -0.0000   -0.0000   -0.0000    0.0000    0.0000    0.0004
          55    0.0000   -0.0000    0.0000    0.0073   -0.0078    0.0000
          56    0.0001    0.0005   -0.0000   -0.2371    0.2565    0.0004
          57    0.0002    0.0009   -0.0000   -0.4004    0.3923    0.0007
          58    0.0000   -0.0000    0.0000    0.0073    0.0078    0.0000
          59    0.0001    0.0005    0.0000   -0.2390   -0.2546    0.0004
          60   -0.0002   -0.0009   -0.0001    0.4032    0.3892   -0.0006


           MASS-WEIGHTED COORDINATE ANALYSIS (NORMAL COORDINATES)


   Root No.       1         2         3         4         5         6         7         8

                 1 A       2 A       3 A       4 A       5 A       6 A       7 A       8 A   

                  42.6      97.9     140.2     174.0     234.6     274.1     380.0     426.8
  
           1    0.0002    0.0000   -0.1253   -0.0000   -0.0002    0.0371   -0.0003   -0.2618
           2   -0.0001   -0.0000   -0.1411   -0.0002    0.0001    0.1572    0.0001   -0.0440
           3    0.5168    0.0844    0.0002    0.1574   -0.1639   -0.0001   -0.0364    0.0000
           4    0.0001    0.0000   -0.1231   -0.0001   -0.0000    0.1018   -0.0000    0.1671
           5   -0.0001   -0.0001    0.0066   -0.0000   -0.0001   -0.2601   -0.0000    0.2024
           6    0.0383   -0.2902   -0.0000    0.1510    0.1628    0.0001    0.4640    0.0005
           7    0.0001    0.0000   -0.1785   -0.0001   -0.0001    0.1849   -0.0002   -0.1223
           8   -0.0000   -0.0001   -0.0747   -0.0001   -0.0002   -0.1286   -0.0002   -0.1821
           9    0.1411   -0.0958   -0.0000    0.0692    0.4264   -0.0001    0.1589    0.0009
          10   -0.0000   -0.0002   -0.0130   -0.0001    0.0000   -0.1876   -0.0000   -0.2470
          11    0.0002   -0.0001   -0.1390    0.0002    0.0000    0.1526   -0.0001    0.0018
          12   -0.0125    0.1863   -0.0000   -0.4485   -0.0241   -0.0000    0.2487   -0.0012
          13   -0.0000   -0.0001   -0.0137   -0.0001    0.0000   -0.0819   -0.0000   -0.0352
          14    0.0001   -0.0001    0.0099   -0.0002    0.0000   -0.2558    0.0002    0.2237
          15   -0.2339   -0.2374   -0.0001    0.4734   -0.1467    0.0001    0.0396   -0.0013
          16   -0.0001   -0.0002    0.0285   -0.0001   -0.0000   -0.2688    0.0001   -0.1014
          17    0.0002   -0.0001   -0.0642    0.0001    0.0000   -0.0136    0.0004    0.2859
          18   -0.3671    0.0129   -0.0001   -0.0335   -0.0599   -0.0001   -0.3575    0.0017
          19    0.0000   -0.0001   -0.2153    0.0001   -0.0000   -0.0457    0.0002    0.3755
[...]
 T-DIPOLE    0.0761         C  9 -- H 19         +15.4% ( 42.9%)      0.1%
 TRAVEL      0.1425         C  7 -- H 16         +15.0% ( 42.3%)      0.2%
 RED. MASS   0.2691         C  2 -- C  3          +9.9% ( 34.4%)     80.7%
 EFF. MASS   2.6968

 VIBRATION   34   34A         ATOM PAIR      ENERGY CONTRIBUTION    RADIAL
 FREQ.      1267.29         C  2 -- C  7         +13.7% ( 47.7%)     75.0%
 T-DIPOLE    0.0981         C  7 -- C  8         +11.1% ( 42.9%)     12.0%
 TRAVEL      0.0967         C  7 -- H 16         +10.7% ( 42.1%)     19.8%
 RED. MASS   0.4416         C  8 -- H 17          +9.1% ( 38.9%)     11.4%
 EFF. MASS   5.6875

 VIBRATION   35   35A         ATOM PAIR      ENERGY CONTRIBUTION    RADIAL
 FREQ.      1322.37         C  8 -- H 17         +27.1% ( 52.6%)      0.9%
 T-DIPOLE    0.0193         C  8 -- H 18         +24.8% ( 50.3%)      0.7%
 TRAVEL      0.1477         C  7 -- H 16          +5.6% ( 24.0%)      0.9%
 RED. MASS   0.2846         C  2 -- C  7          +5.3% ( 23.4%)     87.7%
 EFF. MASS   2.3373

 VIBRATION   36   36A         ATOM PAIR      ENERGY CONTRIBUTION    RADIAL
 FREQ.      1349.70         C  1 -- C  4         +13.3% ( 54.3%)     64.5%
 T-DIPOLE    0.1064         C  1 -- H 11         +12.3% ( 52.0%)      0.1%
 TRAVEL      0.0791         C  1 -- H 12         +12.3% ( 52.0%)      0.1%
 RED. MASS   1.1818         C  1 -- C  3          +9.8% ( 46.6%)     84.8%
 EFF. MASS   7.9822

 VIBRATION   37   37A         ATOM PAIR      ENERGY CONTRIBUTION    RADIAL
 FREQ.      1357.42         C  1 -- H 11         +26.0% ( 57.8%)      5.9%
 T-DIPOLE    0.1768         C  1 -- H 12         +26.0% ( 57.8%)      5.9%
 TRAVEL      0.1117         C  1 -- C  3         +12.6% ( 40.3%)     51.9%
 RED. MASS   0.5976         C  1 -- C  4          +9.5% ( 35.0%)     22.9%
 EFF. MASS   3.9793

 VIBRATION   38   38A         ATOM PAIR      ENERGY CONTRIBUTION    RADIAL
 FREQ.      1439.55         C  5 -- C  6         +17.2% ( 63.3%)     99.8%
 T-DIPOLE    0.3204         C  2 -- C  7         +11.2% ( 51.1%)     93.5%
 TRAVEL      0.0661         C  4 -- C  6         +10.3% ( 49.0%)      0.5%
 RED. MASS   1.4571         C  2 -- C  3          +8.7% ( 44.9%)     12.2%
 EFF. MASS  10.7228

 VIBRATION   39   39A         ATOM PAIR      ENERGY CONTRIBUTION    RADIAL
 FREQ.      1508.44         C  1 -- C  3         +20.7% ( 70.9%)     90.0%
 T-DIPOLE    0.1596         C  2 -- C  3         +15.8% ( 62.0%)     46.0%
 TRAVEL      0.0630         C  1 -- C  4          +9.8% ( 48.9%)     79.0%
 RED. MASS   2.3334         C  3 -- C 10          +8.7% ( 46.0%)     30.9%
 EFF. MASS  11.2593

 VIBRATION   40   40A         ATOM PAIR      ENERGY CONTRIBUTION    RADIAL
 FREQ.      1549.16         C  2 -- C  3         +26.5% ( 80.8%)     98.0%
 T-DIPOLE    0.1062         C  1 -- C  3         +15.0% ( 60.9%)      0.9%
 TRAVEL      0.0618         C  3 -- C 10         +12.6% ( 55.8%)     69.8%
 RED. MASS   3.2003         C  9 -- C 10          +9.5% ( 48.5%)     99.8%
 EFF. MASS  11.3875

 VIBRATION   41   41A         ATOM PAIR      ENERGY CONTRIBUTION    RADIAL
 FREQ.      1828.77         C  2 -- C  5         +29.9% ( 82.0%)     96.3%
 T-DIPOLE    0.4587         C  5 -- C  6         +15.6% ( 59.3%)     96.4%
 TRAVEL      0.0555         C  4 -- C  6         +11.7% ( 51.3%)     97.1%
 RED. MASS   3.3021         C  2 -- C  7         +10.9% ( 49.5%)     56.1%
 EFF. MASS  11.9563         C  2 -- C  3         +10.1% ( 47.7%)     22.5%

 VIBRATION   42   42A         ATOM PAIR      ENERGY CONTRIBUTION    RADIAL
 FREQ.      1838.81         C  7 -- C  8         +43.6% ( 97.6%)     98.9%
 T-DIPOLE    0.1037         C  2 -- C  7         +17.0% ( 60.8%)     44.9%
 TRAVEL      0.0557         C  7 -- H 16         +15.4% ( 57.9%)      3.9%
 RED. MASS   5.0142         C  8 -- H 17         +10.5% ( 47.9%)      9.6%
 EFF. MASS  11.8046         C  8 -- H 18         +10.2% ( 47.1%)     13.3%

 VIBRATION   43   43A         ATOM PAIR      ENERGY CONTRIBUTION    RADIAL
 FREQ.      1854.73         C  4 -- C  6         +32.0% ( 82.7%)     99.7%
 T-DIPOLE    0.4348         C  5 -- C  6         +12.0% ( 50.6%)      5.2%
 TRAVEL      0.0555         C  2 -- C  5         +11.9% ( 50.5%)     99.6%
 RED. MASS   3.2009         C  1 -- C  4         +11.1% ( 48.8%)     55.1%
 EFF. MASS  11.7894         C  4 -- H 13         +10.1% ( 46.5%)      4.2%

 VIBRATION   44   44A         ATOM PAIR      ENERGY CONTRIBUTION    RADIAL
 FREQ.      2249.12         C  3 -- C 10         +42.1% ( 85.5%)    100.0%
 T-DIPOLE    0.1527         C  9 -- C 10         +41.4% ( 84.8%)    100.0%
 TRAVEL      0.0502         C  1 -- C  3          +4.6% ( 28.3%)     24.0%
 RED. MASS   5.8151         C  2 -- C  3          +4.6% ( 28.2%)     30.0%
 EFF. MASS  11.9025

 VIBRATION   45   45A         ATOM PAIR      ENERGY CONTRIBUTION    RADIAL
 FREQ.      2926.11         C  1 -- H 12         +49.0% ( 72.6%)     96.5%
 T-DIPOLE    0.0759         C  1 -- H 11         +48.9% ( 72.5%)     96.5%
 TRAVEL      0.1226         C  1 -- C  4          +1.1% ( 10.7%)      0.0%
 RED. MASS   0.5175         C  1 -- C  3          +1.1% ( 10.7%)      0.0%
 EFF. MASS   1.5337

 VIBRATION   46   46A         ATOM PAIR      ENERGY CONTRIBUTION    RADIAL
 FREQ.      2997.80         C  5 -- H 14         +93.1% ( 98.1%)    100.0%
 T-DIPOLE    0.3481         C  8 -- H 17          +3.1% ( 17.9%)     99.7%
 TRAVEL      0.1215         C  2 -- C  5          +1.5% ( 12.5%)     33.1%
 RED. MASS   0.8611         C  5 -- C  6          +1.4% ( 12.2%)     15.9%
 EFF. MASS   1.5246

 VIBRATION   47   47A         ATOM PAIR      ENERGY CONTRIBUTION    RADIAL
 FREQ.      3005.85         C  1 -- H 11         +49.0% ( 69.0%)     97.8%
 T-DIPOLE    0.1259         C  1 -- H 12         +48.9% ( 68.9%)     97.8%
 TRAVEL      0.1325         C  4 -- H 13          +0.7% (  8.3%)    100.0%
 RED. MASS   0.4777         C  1 -- C  4          +0.6% (  7.9%)     19.7%
 EFF. MASS   1.2775

 VIBRATION   48   48A         ATOM PAIR      ENERGY CONTRIBUTION    RADIAL
 FREQ.      3025.30         C  7 -- H 16         +96.4% ( 99.6%)    100.0%
 T-DIPOLE    0.2872         C  7 -- C  8          +1.5% ( 12.5%)     30.6%
 TRAVEL      0.1212         C  2 -- C  7          +1.4% ( 12.2%)     16.1%
 RED. MASS   0.9176         C  8 -- H 18          +0.6% (  7.8%)     94.2%
 EFF. MASS   1.5178

 VIBRATION   49   49A         ATOM PAIR      ENERGY CONTRIBUTION    RADIAL
 FREQ.      3051.08         C  4 -- H 13         +62.0% ( 79.9%)    100.0%
 T-DIPOLE    0.3381         C  6 -- H 15         +35.0% ( 60.1%)    100.0%
 TRAVEL      0.1228         C  4 -- C  6          +1.1% ( 10.8%)      1.3%
 RED. MASS   0.4952         C  1 -- C  4          +0.8% (  9.3%)     22.1%
 EFF. MASS   1.4645

 VIBRATION   50   50A         ATOM PAIR      ENERGY CONTRIBUTION    RADIAL
 FREQ.      3071.12         C  6 -- H 15         +61.0% ( 79.3%)     99.9%
 T-DIPOLE    0.4043         C  4 -- H 13         +34.3% ( 59.5%)     99.9%
 TRAVEL      0.1174         C  4 -- C  6          +2.0% ( 14.4%)     96.3%
 RED. MASS   0.4915         C  5 -- C  6          +1.0% ( 10.4%)     20.4%
 EFF. MASS   1.5923

 VIBRATION   51   51A         ATOM PAIR      ENERGY CONTRIBUTION    RADIAL
 FREQ.      3085.72         C  8 -- H 17         +93.8% ( 97.7%)     99.9%
 T-DIPOLE    0.1485         C  5 -- H 14          +3.0% ( 17.5%)    100.0%
 TRAVEL      0.1216         C  8 -- H 18          +1.4% ( 12.0%)      0.0%
 RED. MASS   0.8531         C  7 -- C  8          +1.4% ( 11.8%)     47.5%
 EFF. MASS   1.4781

 VIBRATION   52   52A         ATOM PAIR      ENERGY CONTRIBUTION    RADIAL
 FREQ.      3112.45         C  9 -- H 20         +49.4% ( 70.4%)     95.2%
 T-DIPOLE    0.3506         C  9 -- H 19         +48.7% ( 69.9%)     95.1%
 TRAVEL      0.1238         C  9 -- C 10          +1.8% ( 13.3%)    100.0%
 RED. MASS   0.4859
 EFF. MASS   1.4131

 VIBRATION   53   53A         ATOM PAIR      ENERGY CONTRIBUTION    RADIAL
 FREQ.      3117.15         C  9 -- H 19         +49.8% ( 72.2%)     97.2%
 T-DIPOLE    0.2192         C  9 -- H 20         +49.1% ( 71.7%)     97.1%
 TRAVEL      0.1165         C  9 -- C 10          +1.2% ( 11.2%)      0.0%
 RED. MASS   0.5332
 EFF. MASS   1.5937

 VIBRATION   54   54A         ATOM PAIR      ENERGY CONTRIBUTION    RADIAL
 FREQ.      3152.26         C  8 -- H 18         +96.1% ( 99.5%)    100.0%
 T-DIPOLE    0.3019         C  8 -- H 17          +1.9% ( 13.9%)     34.0%
 TRAVEL      0.1183         C  7 -- C  8          +1.5% ( 12.4%)     42.5%
 RED. MASS   0.9136         C  7 -- H 16          +0.5% (  7.1%)     94.8%
 EFF. MASS   1.5273

      SYMMETRY NUMBER FOR POINT-GROUP C1  =  1


          SYSTEM IS A GROUND STATE



 InChI=1S/C10H10/c1-3-9-7-5-6-8-10(9)4-2/h3,5-7H,1-2,8H2


          MOLECULE IS NOT LINEAR

          THERE ARE 54 GENUINE VIBRATIONS IN THIS SYSTEM
          THIS THERMODYNAMICS CALCULATION IS LIMITED TO
          MOLECULES WHICH HAVE NO INTERNAL ROTATIONS




                    CALCULATED THERMODYNAMIC PROPERTIES
                                          *
   TEMP. (K)   PARTITION FUNCTION   H.O.F.    ENTHALPY  HEAT CAPACITY ENTROPY
                                   KCAL/MOL   CAL/MOLE    CAL/K/MOL  CAL/K/MOL


 298.00  VIB.     0.2864D+03                  4108.1287    29.9231    25.0280
         ROT.     0.6730D+06                   888.2813     2.9808    29.6483
         INT.     0.1928D+09                  4996.4100    32.9039    54.6763
         TRA.     0.1436D+28                  1480.4688     4.9680    40.5022
         TOT.                       88.449    6476.8788    37.8719    95.1785

 200.00  VIB.     0.3136D+02                  1734.0670    18.6187    15.5175
         ROT.     0.3701D+06                   596.1620     2.9808    28.4596
         INT.     0.1161D+08                  2330.2290    21.5996    43.9771
         TRA.     0.7896D+27                   993.6033     4.9680    38.5210
         TOT.                       85.296    3323.8322    26.5676    82.4981

 210.00  VIB.     0.3904D+02                  1925.8115    19.7329    16.4528
         ROT.     0.3982D+06                   625.9700     2.9808    28.6050
         INT.     0.1554D+08                  2551.7816    22.7137    45.0578
         TRA.     0.8496D+27                  1043.2834     4.9680    38.7634
         TOT.                       85.567    3595.0650    27.6817    83.8212

 220.00  VIB.     0.4867D+02                  2128.7749    20.8622    17.3968
         ROT.     0.4269D+06                   655.7781     2.9808    28.7437
         INT.     0.2078D+08                  2784.5531    23.8430    46.1405
         TRA.     0.9110D+27                  1092.9636     4.9680    38.9945
         TOT.                       85.850    3877.5166    28.8110    85.1350

 230.00  VIB.     0.6078D+02                  2343.0986    22.0045    18.3493
         ROT.     0.4564D+06                   685.5862     2.9808    28.8762
         INT.     0.2774D+08                  3028.6848    24.9853    47.2255
         TRA.     0.9738D+27                  1142.6437     4.9680    39.2154
         TOT.                       86.144    4171.3286    29.9534    86.4408

 240.00  VIB.     0.7601D+02                  2568.9009    23.1575    19.3101
         ROT.     0.4865D+06                   715.3943     2.9808    29.0031
         INT.     0.3698D+08                  3284.2952    26.1383    48.3132
         TRA.     0.1038D+28                  1192.3239     4.9680    39.4268
         TOT.                       86.449    4476.6191    31.1063    87.7400

 250.00  VIB.     0.9521D+02                  2806.2755    24.3186    20.2790
         ROT.     0.5172D+06                   745.2024     2.9808    29.1247
         INT.     0.4924D+08                  3551.4780    27.2994    49.4037
         TRA.     0.1103D+28                  1242.0041     4.9680    39.6296
         TOT.                       86.766    4793.4820    32.2674    89.0333

 260.00  VIB.     0.1194D+03                  3055.2903    25.4851    21.2555
         ROT.     0.5485D+06                   775.0105     2.9808    29.2417
         INT.     0.6551D+08                  3830.3009    28.4659    50.4971
         TRA.     0.1170D+28                  1291.6842     4.9680    39.8245
         TOT.                       87.094    5121.9851    33.4339    90.3216

 270.00  VIB.     0.1500D+03                  3315.9872    26.6545    22.2392
         ROT.     0.5805D+06                   804.8186     2.9808    29.3541
         INT.     0.8709D+08                  4120.8058    29.6353    51.5934
         TRA.     0.1239D+28                  1341.3644     4.9680    40.0120
         TOT.                       87.434    5462.1702    34.6034    91.6053

 280.00  VIB.     0.1888D+03                  3588.3821    27.8243    23.2297
         ROT.     0.6130D+06                   834.6267     2.9808    29.4626
         INT.     0.1157D+09                  4423.0089    30.8051    52.6923
         TRA.     0.1308D+28                  1391.0445     4.9680    40.1926
         TOT.                       87.786    5814.0534    35.7731    92.8849

 290.00  VIB.     0.2378D+03                  3872.4663    28.9920    24.2265
         ROT.     0.6461D+06                   864.4348     2.9808    29.5672
         INT.     0.1537D+09                  4736.9011    31.9728    53.7936
         TRA.     0.1379D+28                  1440.7247     4.9680    40.3670
         TOT.                       88.150    6177.6258    36.9408    94.1606

 300.00  VIB.     0.3001D+03                  4168.2071    30.1553    25.2290
         ROT.     0.6798D+06                   894.2429     2.9808    29.6682
         INT.     0.2040D+09                  5062.4500    33.1361    54.8972
         TRA.     0.1451D+28                  1490.4049     4.9680    40.5354
         TOT.                       88.525    6552.8549    38.1041    95.4326

 310.00  VIB.     0.3791D+03                  4475.5497    31.3120    26.2366
         ROT.     0.7141D+06                   924.0510     2.9808    29.7659
         INT.     0.2707D+09                  5399.6008    34.2928    56.0026
         TRA.     0.1524D+28                  1540.0850     4.9680    40.6983
         TOT.                       88.912    6939.6858    39.2608    96.7009

 320.00  VIB.     0.4795D+03                  4794.4192    32.4603    27.2489
         ROT.     0.7489D+06                   953.8591     2.9808    29.8606
         INT.     0.3591D+09                  5748.2783    35.4411    57.1095
         TRA.     0.1598D+28                  1589.7652     4.9680    40.8560
         TOT.                       89.310    7338.0435    40.4091    97.9655

 330.00  VIB.     0.6072D+03                  5124.7219    33.5984    28.2652
         ROT.     0.7843D+06                   983.6672     2.9808    29.9523
         INT.     0.4762D+09                  6108.3891    36.5792    58.2175
         TRA.     0.1674D+28                  1639.4454     4.9680    41.0089
         TOT.                       89.720    7747.8345    41.5472    99.2264

 340.00  VIB.     0.7699D+03                  5466.3476    34.7247    29.2850
         ROT.     0.8202D+06                  1013.4753     2.9808    30.0413
         INT.     0.6315D+09                  6479.8229    37.7055    59.3263
         TRA.     0.1750D+28                  1689.1255     4.9680    41.1572
         TOT.                       90.141    8168.9484    42.6735   100.4835

 350.00  VIB.     0.9773D+03                  5819.1716    35.8378    30.3077
         ROT.     0.8567D+06                  1043.2834     2.9808    30.1277
         INT.     0.8372D+09                  6862.4550    38.8186    60.4354
         TRA.     0.1828D+28                  1738.8057     4.9680    41.3012
         TOT.                       90.573    8601.2607    43.7867   101.7366

 360.00  VIB.     0.1242D+04                  6183.0564    36.9367    31.3327
         ROT.     0.8937D+06                  1073.0915     2.9808    30.2117
         INT.     0.1110D+10                  7256.1479    39.9175    61.5444
         TRA.     0.1907D+28                  1788.4859     4.9680    41.4412
         TOT.                       91.017    9044.6337    44.8855   102.9855

 370.00  VIB.     0.1580D+04                  6557.8539    38.0202    32.3595
         ROT.     0.9312D+06                  1102.8996     2.9808    30.2933
         INT.     0.1471D+10                  7660.7535    41.0010    62.6529
         TRA.     0.1987D+28                  1838.1660     4.9680    41.5773
         TOT.                       91.471    9498.9195    45.9690   104.2302

 380.00  VIB.     0.2011D+04                  6943.4067    39.0876    33.3877
         ROT.     0.9692D+06                  1132.7077     2.9808    30.3728
         INT.     0.1949D+10                  8076.1144    42.0684    63.7605
         TRA.     0.2068D+28                  1887.8462     4.9680    41.7098
         TOT.                       91.936    9963.9606    47.0364   105.4703

 390.00  VIB.     0.2563D+04                  7339.5501    40.1382    34.4166
         ROT.     0.1008D+07                  1162.5158     2.9808    30.4503
         INT.     0.2582D+10                  8502.0659    43.1190    64.8669
         TRA.     0.2150D+28                  1937.5263     4.9680    41.8388
         TOT.                       92.412   10439.5923    48.0871   106.7057

 400.00  VIB.     0.3268D+04                  7746.1136    41.1715    35.4459
         ROT.     0.1047D+07                  1192.3239     2.9808    30.5257
         INT.     0.3421D+10                  8938.4375    44.1524    65.9716
         TRA.     0.2233D+28                  1987.2065     4.9680    41.9646
         TOT.                       92.898   10925.6440    49.1204   107.9362

   *: NOTE: HEATS OF FORMATION ARE RELATIVE TO THE
            ELEMENTS IN THEIR STANDARD STATE AT 298K
              (=  Standard Enthalpy of Formation).

            Hvib:  Zero-point energy is not included.
                   frequencies of less than zero cm-1 are not included.
            Hrot = (3/2)RT
            Htra = (3/2)RT + pV = (5/2)RT

            Heat capacity is Cp, not Cv

          For more information, see: HTTP://OpenMOPAC.net/Manual/thermochemistry.html


           FORCE CONSTANT IN CARTESIAN COORDINATES (Millidynes/A)

    ATOM   CHEMICAL       X               Y               Z
   NUMBER   SYMBOL  FORCE CONSTANT  FORCE CONSTANT  FORCE CONSTANT

      1       C        8.602954        9.542119        7.577323
      2       C       11.032327       14.837651        2.444606
      3       C        9.576306       15.925031        2.513298
      4       C       14.116847       10.545952        2.370434
      5       C       10.850173       14.371868        2.194365
      6       C       13.874296       11.612590        2.192301
      7       C       14.242207       10.877042        2.236918
      8       C       14.244240       10.019029        1.953022
      9       C        1.873540       15.942009        8.364378
     10       C        2.157688       24.506949        1.585500
     11       H        1.781280        0.957434        3.431638
     12       H        1.777936        0.954838        3.437032
     13       H        3.952285        1.954224        0.347503
     14       H        3.868620        1.904427        0.364912
     15       H        0.775772        5.135200        0.348662
     16       H        0.838768        5.009408        0.355450
     17       H        0.780922        5.184665        0.358597
     18       H        4.223801        1.914458        0.330864
     19       H        0.299235        1.939097        4.005892
     20       H        0.299279        1.939175        4.005706

 **********************
 *                    *
 * JOB ENDED NORMALLY *
 *                    *
 **********************



 TOTAL JOB TIME:             9.56 SECONDS

 == MOPAC DONE ==
