 *******************************************************************************
 ** Site#: 14399        For non-commercial use only    Version 18.184L 64BITS **
 *******************************************************************************
 ** Cite this program as: MOPAC2016, Version: 18.184L, James J. P. Stewart,   **
 ** Stewart Computational Chemistry, web: HTTP://OpenMOPAC.net. Days left:  20**
 *******************************************************************************
 **                                                                           **
 **                                MOPAC2016                                  **
 **                                                                           **
 *******************************************************************************

                              PM3 CALCULATION RESULTS

 *******************************************************************************
 *  CALCULATION DONE:                                Thu Jun 13 19:28:05 2019  *
 *  PM3        - The PM3 Hamiltonian to be used
 *  PRECISE    - CRITERIA TO BE INCREASED BY 100 TIMES
 *  NOSYM      - POINT-GROUP SYMMETRY SET TO C1
 *  THREADS=1  - MULTI-THREADING NOT USED
 *  T=         - A TIME OF 172800.0 SECONDS REQUESTED
 *  DUMP=N     - RESTART FILE WRITTEN EVERY  7200.000 SECONDS
 *******************************************************************************
pm3  precise nosym THREADS=1
 InChI=1S/C7H12/c1-2-3-4-7-5-6-7/h5H,2-4,6H2,1H3

   ATOM   CHEMICAL          X               Y               Z
  NUMBER   SYMBOL      (ANGSTROMS)     (ANGSTROMS)     (ANGSTROMS)
 
     1       C         -0.48160000  *   0.17480000  *  -0.20950000  *
     2       C         -1.88080000  *  -0.35990000  *   0.11560000  *
     3       C          0.59840000  *  -0.82150000  *   0.21750000  *
     4       C          2.89590000  *   0.17550000  *  -1.03020000  *
     5       C         -2.96160000  *   0.63020000  *  -0.30870000  *
     6       C          1.95460000  *  -0.28640000  *  -0.10390000  *
     7       C          3.27700000  *   0.14180000  *   0.31560000  *
     8       H         -0.32270000  *   1.13950000  *   0.32200000  *
     9       H         -0.40180000  *   0.35690000  *  -1.30450000  *
    10       H         -2.04700000  *  -1.32280000  *  -0.41510000  *
    11       H         -1.96840000  *  -0.54080000  *   1.20930000  *
    12       H          0.46050000  *  -1.78550000  *  -0.31700000  *
    13       H          0.53730000  *  -1.00340000  *   1.31170000  *
    14       H          2.68710000  *   1.19220000  *  -1.42190000  *
    15       H          3.34910000  *  -0.62150000  *  -1.65460000  *
    16       H         -2.83330000  *   1.59470000  *   0.22730000  *
    17       H         -2.91230000  *   0.80940000  *  -1.40400000  *
    18       H         -3.96210000  *   0.21690000  *  -0.06130000  *
    19       H          4.01180000  *   0.30990000  *   1.09490000  *
 


          CARTESIAN COORDINATES 

    NO.       ATOM           X           Y           Z

     1         C         -0.4816      0.1748     -0.2095
     2         C         -1.8808     -0.3599      0.1156
     3         C          0.5984     -0.8215      0.2175
     4         C          2.8959      0.1755     -1.0302
     5         C         -2.9616      0.6302     -0.3087
     6         C          1.9546     -0.2864     -0.1039
     7         C          3.2770      0.1418      0.3156
     8         H         -0.3227      1.1395      0.3220
     9         H         -0.4018      0.3569     -1.3045
    10         H         -2.0470     -1.3228     -0.4151
    11         H         -1.9684     -0.5408      1.2093
    12         H          0.4605     -1.7855     -0.3170
    13         H          0.5373     -1.0034      1.3117
    14         H          2.6871      1.1922     -1.4219
    15         H          3.3491     -0.6215     -1.6546
    16         H         -2.8333      1.5947      0.2273
    17         H         -2.9123      0.8094     -1.4040
    18         H         -3.9621      0.2169     -0.0613
    19         H          4.0118      0.3099      1.0949

  H: (PM3): J. J. P. STEWART, J. COMP. CHEM. 10, 209 (1989).
  C: (PM3): J. J. P. STEWART, J. COMP. CHEM. 10, 209 (1989).

           Empirical Formula: C7 H12  =    19 atoms



      MOLECULAR POINT GROUP   :   C1  


      RHF CALCULATION, NO. OF DOUBLY OCCUPIED LEVELS = 20


          Geometry optimization using EF

          DIAGONAL MATRIX USED AS START HESSIAN

 CYCLE:     1 TIME:   0.023 TIME LEFT:  2.00D  GRAD.:   258.132 HEAT:  69.34226
 CYCLE:     2 TIME:   0.031 TIME LEFT:  2.00D  GRAD.:   166.993 HEAT:  54.68863
 CYCLE:     3 TIME:   0.039 TIME LEFT:  2.00D  GRAD.:   203.021 HEAT:  50.52226
 CYCLE:     4 TIME:   0.023 TIME LEFT:  2.00D  GRAD.:   108.102 HEAT:  47.01351
 CYCLE:     5 TIME:   0.023 TIME LEFT:  2.00D  GRAD.:    60.841 HEAT:  44.42277
 CYCLE:     6 TIME:   0.031 TIME LEFT:  2.00D  GRAD.:    48.632 HEAT:  43.59445
 CYCLE:     7 TIME:   0.031 TIME LEFT:  2.00D  GRAD.:    42.265 HEAT:  43.18680
 CYCLE:     8 TIME:   0.016 TIME LEFT:  2.00D  GRAD.:    47.034 HEAT:  43.02188
 CYCLE:     9 TIME:   0.023 TIME LEFT:  2.00D  GRAD.:    38.304 HEAT:  42.83960
 CYCLE:    10 TIME:   0.031 TIME LEFT:  2.00D  GRAD.:    18.250 HEAT:  42.46388
 CYCLE:    11 TIME:   0.031 TIME LEFT:  2.00D  GRAD.:    14.415 HEAT:  42.38194
 CYCLE:    12 TIME:   0.023 TIME LEFT:  2.00D  GRAD.:    15.014 HEAT:  42.32019
 CYCLE:    13 TIME:   0.016 TIME LEFT:  2.00D  GRAD.:    13.223 HEAT:  42.24359
 CYCLE:    14 TIME:   0.023 TIME LEFT:  2.00D  GRAD.:    18.298 HEAT:  42.23222
 CYCLE:    15 TIME:   0.023 TIME LEFT:  2.00D  GRAD.:    16.561 HEAT:  42.15297
 CYCLE:    16 TIME:   0.023 TIME LEFT:  2.00D  GRAD.:    14.997 HEAT:  42.12661
 CYCLE:    17 TIME:   0.023 TIME LEFT:  2.00D  GRAD.:     9.653 HEAT:  42.07234
 CYCLE:    18 TIME:   0.031 TIME LEFT:  2.00D  GRAD.:     6.276 HEAT:  42.04951
 CYCLE:    19 TIME:   0.023 TIME LEFT:  2.00D  GRAD.:     5.846 HEAT:  42.04041
 CYCLE:    20 TIME:   0.023 TIME LEFT:  2.00D  GRAD.:     5.231 HEAT:  42.03275
 CYCLE:    21 TIME:   0.023 TIME LEFT:  2.00D  GRAD.:     4.154 HEAT:  42.02637
 CYCLE:    22 TIME:   0.023 TIME LEFT:  2.00D  GRAD.:     3.460 HEAT:  42.02008
 CYCLE:    23 TIME:   0.023 TIME LEFT:  2.00D  GRAD.:     1.941 HEAT:  42.01427
 CYCLE:    24 TIME:   0.023 TIME LEFT:  2.00D  GRAD.:     2.307 HEAT:  42.01016
 CYCLE:    25 TIME:   0.023 TIME LEFT:  2.00D  GRAD.:     2.211 HEAT:  42.00758
 CYCLE:    26 TIME:   0.023 TIME LEFT:  2.00D  GRAD.:     1.156 HEAT:  42.00502
 CYCLE:    27 TIME:   0.023 TIME LEFT:  2.00D  GRAD.:     0.935 HEAT:  42.00356
 CYCLE:    28 TIME:   0.023 TIME LEFT:  2.00D  GRAD.:     0.809 HEAT:  42.00271
 CYCLE:    29 TIME:   0.023 TIME LEFT:  2.00D  GRAD.:     0.525 HEAT:  42.00231
 CYCLE:    30 TIME:   0.023 TIME LEFT:  2.00D  GRAD.:     0.491 HEAT:  42.00201
 CYCLE:    31 TIME:   0.023 TIME LEFT:  2.00D  GRAD.:     0.591 HEAT:  42.00136
 CYCLE:    32 TIME:   0.023 TIME LEFT:  2.00D  GRAD.:     0.466 HEAT:  42.00089
 CYCLE:    33 TIME:   0.023 TIME LEFT:  2.00D  GRAD.:     0.418 HEAT:  42.00055
 CYCLE:    34 TIME:   0.016 TIME LEFT:  2.00D  GRAD.:     0.482 HEAT:  42.00011
 CYCLE:    35 TIME:   0.023 TIME LEFT:  2.00D  GRAD.:     0.586 HEAT:  41.99962
 CYCLE:    36 TIME:   0.023 TIME LEFT:  2.00D  GRAD.:     0.552 HEAT:  41.99906
 CYCLE:    37 TIME:   0.023 TIME LEFT:  2.00D  GRAD.:     0.547 HEAT:  41.99839
 CYCLE:    38 TIME:   0.023 TIME LEFT:  2.00D  GRAD.:     0.616 HEAT:  41.99760
 CYCLE:    39 TIME:   0.023 TIME LEFT:  2.00D  GRAD.:     0.719 HEAT:  41.99678
 CYCLE:    40 TIME:   0.023 TIME LEFT:  2.00D  GRAD.:     0.699 HEAT:  41.99597
 CYCLE:    41 TIME:   0.023 TIME LEFT:  2.00D  GRAD.:     0.805 HEAT:  41.99480
 CYCLE:    42 TIME:   0.023 TIME LEFT:  2.00D  GRAD.:     0.934 HEAT:  41.99333
 CYCLE:    43 TIME:   0.023 TIME LEFT:  2.00D  GRAD.:     1.025 HEAT:  41.99128
 CYCLE:    44 TIME:   0.023 TIME LEFT:  2.00D  GRAD.:     0.776 HEAT:  41.98964
 CYCLE:    45 TIME:   0.031 TIME LEFT:  2.00D  GRAD.:     0.655 HEAT:  41.98849
 CYCLE:    46 TIME:   0.023 TIME LEFT:  2.00D  GRAD.:     0.693 HEAT:  41.98762
 CYCLE:    47 TIME:   0.023 TIME LEFT:  2.00D  GRAD.:     0.703 HEAT:  41.98663
 CYCLE:    48 TIME:   0.023 TIME LEFT:  2.00D  GRAD.:     0.644 HEAT:  41.98561
 CYCLE:    49 TIME:   0.023 TIME LEFT:  2.00D  GRAD.:     0.519 HEAT:  41.98483
 CYCLE:    50 TIME:   0.023 TIME LEFT:  2.00D  GRAD.:     0.486 HEAT:  41.98418
 CYCLE:    51 TIME:   0.023 TIME LEFT:  2.00D  GRAD.:     0.494 HEAT:  41.98365
 CYCLE:    52 TIME:   0.023 TIME LEFT:  2.00D  GRAD.:     0.459 HEAT:  41.98310
 CYCLE:    53 TIME:   0.016 TIME LEFT:  2.00D  GRAD.:     0.387 HEAT:  41.98260
 CYCLE:    54 TIME:   0.023 TIME LEFT:  2.00D  GRAD.:     0.354 HEAT:  41.98220
 CYCLE:    55 TIME:   0.023 TIME LEFT:  2.00D  GRAD.:     0.349 HEAT:  41.98192
 CYCLE:    56 TIME:   0.023 TIME LEFT:  2.00D  GRAD.:     0.341 HEAT:  41.98164
 CYCLE:    57 TIME:   0.023 TIME LEFT:  2.00D  GRAD.:     0.385 HEAT:  41.98128
 CYCLE:    58 TIME:   0.023 TIME LEFT:  2.00D  GRAD.:     0.492 HEAT:  41.98073
 CYCLE:    59 TIME:   0.023 TIME LEFT:  2.00D  GRAD.:     0.653 HEAT:  41.97981
 CYCLE:    60 TIME:   0.023 TIME LEFT:  2.00D  GRAD.:     0.719 HEAT:  41.97850
 CYCLE:    61 TIME:   0.023 TIME LEFT:  2.00D  GRAD.:     0.605 HEAT:  41.97760
 CYCLE:    62 TIME:   0.023 TIME LEFT:  2.00D  GRAD.:     0.712 HEAT:  41.97657
 CYCLE:    63 TIME:   0.023 TIME LEFT:  2.00D  GRAD.:     0.685 HEAT:  41.97614
 CYCLE:    64 TIME:   0.023 TIME LEFT:  2.00D  GRAD.:     0.388 HEAT:  41.97544
 CYCLE:    65 TIME:   0.023 TIME LEFT:  2.00D  GRAD.:     0.428 HEAT:  41.97459
 CYCLE:    66 TIME:   0.031 TIME LEFT:  2.00D  GRAD.:     0.550 HEAT:  41.97399
 CYCLE:    67 TIME:   0.023 TIME LEFT:  2.00D  GRAD.:     0.582 HEAT:  41.97346
 CYCLE:    68 TIME:   0.031 TIME LEFT:  2.00D  GRAD.:     0.538 HEAT:  41.97273
 CYCLE:    69 TIME:   0.023 TIME LEFT:  2.00D  GRAD.:     0.428 HEAT:  41.97231
 CYCLE:    70 TIME:   0.023 TIME LEFT:  2.00D  GRAD.:     0.499 HEAT:  41.97141
 CYCLE:    71 TIME:   0.016 TIME LEFT:  2.00D  GRAD.:     0.507 HEAT:  41.97102
 CYCLE:    72 TIME:   0.023 TIME LEFT:  2.00D  GRAD.:     0.366 HEAT:  41.97048
 CYCLE:    73 TIME:   0.023 TIME LEFT:  2.00D  GRAD.:     0.275 HEAT:  41.97033
 CYCLE:    74 TIME:   0.023 TIME LEFT:  2.00D  GRAD.:     0.332 HEAT:  41.97015
 CYCLE:    75 TIME:   0.023 TIME LEFT:  2.00D  GRAD.:     0.168 HEAT:  41.97005
 CYCLE:    76 TIME:   0.023 TIME LEFT:  2.00D  GRAD.:     0.141 HEAT:  41.96996
 CYCLE:    77 TIME:   0.023 TIME LEFT:  2.00D  GRAD.:     0.268 HEAT:  41.96973
 CYCLE:    78 TIME:   0.023 TIME LEFT:  2.00D  GRAD.:     0.383 HEAT:  41.96944
 CYCLE:    79 TIME:   0.023 TIME LEFT:  2.00D  GRAD.:     0.518 HEAT:  41.96875
 CYCLE:    80 TIME:   0.023 TIME LEFT:  2.00D  GRAD.:     0.553 HEAT:  41.96822
 CYCLE:    81 TIME:   0.023 TIME LEFT:  2.00D  GRAD.:     0.970 HEAT:  41.96678
 CYCLE:    82 TIME:   0.016 TIME LEFT:  2.00D  GRAD.:     0.855 HEAT:  41.96549
 CYCLE:    83 TIME:   0.023 TIME LEFT:  2.00D  GRAD.:     1.909 HEAT:  41.96132
 CYCLE:    84 TIME:   0.023 TIME LEFT:  2.00D  GRAD.:     0.941 HEAT:  41.95934
 CYCLE:    85 TIME:   0.023 TIME LEFT:  2.00D  GRAD.:     0.456 HEAT:  41.95735
 CYCLE:    86 TIME:   0.031 TIME LEFT:  2.00D  GRAD.:     0.771 HEAT:  41.95661
 CYCLE:    87 TIME:   0.023 TIME LEFT:  2.00D  GRAD.:     0.557 HEAT:  41.95632
 CYCLE:    88 TIME:   0.031 TIME LEFT:  2.00D  GRAD.:     0.460 HEAT:  41.95582
 CYCLE:    89 TIME:   0.031 TIME LEFT:  2.00D  GRAD.:     0.640 HEAT:  41.95522
 CYCLE:    90 TIME:   0.016 TIME LEFT:  2.00D  GRAD.:     0.334 HEAT:  41.95459
 CYCLE:    91 TIME:   0.023 TIME LEFT:  2.00D  GRAD.:     0.579 HEAT:  41.95438
 CYCLE:    92 TIME:   0.023 TIME LEFT:  2.00D  GRAD.:     0.479 HEAT:  41.95420
 CYCLE:    93 TIME:   0.031 TIME LEFT:  2.00D  GRAD.:     0.282 HEAT:  41.95391
 CYCLE:    94 TIME:   0.031 TIME LEFT:  2.00D  GRAD.:     0.284 HEAT:  41.95363
 CYCLE:    95 TIME:   0.023 TIME LEFT:  2.00D  GRAD.:     0.339 HEAT:  41.95337
 CYCLE:    96 TIME:   0.023 TIME LEFT:  2.00D  GRAD.:     0.295 HEAT:  41.95327
 CYCLE:    97 TIME:   0.023 TIME LEFT:  2.00D  GRAD.:     0.175 HEAT:  41.95316
 CYCLE:    98 TIME:   0.023 TIME LEFT:  2.00D  GRAD.:     0.134 HEAT:  41.95309
 CYCLE:    99 TIME:   0.023 TIME LEFT:  2.00D  GRAD.:     0.164 HEAT:  41.95300
 CYCLE:   100 TIME:   0.023 TIME LEFT:  2.00D  GRAD.:     0.202 HEAT:  41.95286
 CYCLE:   101 TIME:   0.023 TIME LEFT:  2.00D  GRAD.:     0.175 HEAT:  41.95267
 CYCLE:   102 TIME:   0.016 TIME LEFT:  2.00D  GRAD.:     0.179 HEAT:  41.95258
 CYCLE:   103 TIME:   0.023 TIME LEFT:  2.00D  GRAD.:     0.164 HEAT:  41.95245
 CYCLE:   104 TIME:   0.023 TIME LEFT:  2.00D  GRAD.:     0.311 HEAT:  41.95238
 CYCLE:   105 TIME:   0.023 TIME LEFT:  2.00D  GRAD.:     0.285 HEAT:  41.95226
 CYCLE:   106 TIME:   0.023 TIME LEFT:  2.00D  GRAD.:     0.185 HEAT:  41.95214
 CYCLE:   107 TIME:   0.023 TIME LEFT:  2.00D  GRAD.:     0.245 HEAT:  41.95209
 CYCLE:   108 TIME:   0.023 TIME LEFT:  2.00D  GRAD.:     0.186 HEAT:  41.95199
 CYCLE:   109 TIME:   0.023 TIME LEFT:  2.00D  GRAD.:     0.217 HEAT:  41.95182
 CYCLE:   110 TIME:   0.031 TIME LEFT:  2.00D  GRAD.:     0.122 HEAT:  41.95177
 CYCLE:   111 TIME:   0.023 TIME LEFT:  2.00D  GRAD.:     0.139 HEAT:  41.95175
 CYCLE:   112 TIME:   0.023 TIME LEFT:  2.00D  GRAD.:     0.058 HEAT:  41.95172
 CYCLE:   113 TIME:   0.016 TIME LEFT:  2.00D  GRAD.:     0.041 HEAT:  41.95171

     GRADIENT =  0.04084  IS LESS THAN CUTOFF =  0.05000



 -------------------------------------------------------------------------------
 pm3  precise nosym THREADS=1
 InChI=1S/C7H12/c1-2-3-4-7-5-6-7/h5H,2-4,6H2,1H3



     GEOMETRY OPTIMISED USING EIGENVECTOR FOLLOWING (EF).     
     SCF FIELD WAS ACHIEVED                                   


                              PM3 CALCULATION
                                                       MOPAC2016 (Version: 18.184L)
                                                       Thu Jun 13 19:28:08 2019
                                                       No. of days remaining =  20




          FINAL HEAT OF FORMATION =         41.95171 KCAL/MOL =     175.52595 KJ/MOL


          TOTAL ENERGY            =      -1012.65586 EV
          ELECTRONIC ENERGY       =      -4671.69473 EV  POINT GROUP:     C1  
          CORE-CORE REPULSION     =       3659.03888 EV
          COSMO AREA              =        161.89 SQUARE ANGSTROMS
          COSMO VOLUME            =        151.70 CUBIC ANGSTROMS

          GRADIENT NORM           =          0.04084 = 0.00937 PER ATOM
          IONIZATION POTENTIAL    =          9.536995 EV
          HOMO LUMO ENERGIES (EV) =         -9.537  0.884
          NO. OF FILLED LEVELS    =         20
          MOLECULAR WEIGHT        =         96.1718

          MOLECULAR DIMENSIONS (Angstroms)

            Atom       Atom       Distance
            H    19    H    18     8.06126
            H    11    H    15     3.88120
            H    16    H    12     3.25034


          SCF CALCULATIONS        =        119
 
          WALL-CLOCK TIME         =          2.766 SECONDS
          COMPUTATION TIME        =          1.112 SECONDS




   ATOM   CHEMICAL          X               Y               Z
  NUMBER   SYMBOL      (ANGSTROMS)     (ANGSTROMS)     (ANGSTROMS)
 
     1       C         -0.45510785  *   0.17837176  *  -0.20176099  *
     2       C         -1.84303610  *  -0.34343678  *   0.13412383  *
     3       C          0.62525486  *  -0.74980877  *   0.33702595  *
     4       C          2.79654269  *   0.32743197  *  -1.07163029  *
     5       C         -2.92114711  *   0.57608072  *  -0.39321492  *
     6       C          1.95634997  *  -0.28228441  *  -0.01066548  *
     7       C          3.22385487  *  -0.09463191  *   0.28622258  *
     8       H         -0.32172862  *   1.19636097  *   0.21503440  *
     9       H         -0.34595433  *   0.29040794  *  -1.29895521  *
    10       H         -1.97464563  *  -1.36097284  *  -0.28501518  *
    11       H         -1.94719273  *  -0.45865099  *   1.23149111  *
    12       H          0.49700991  *  -1.77284323  *  -0.07329978  *
    13       H          0.54195444  *  -0.84784292  *   1.43790278  *
    14       H          2.69799769  *   1.38943117  *  -1.33052660  *
    15       H          3.08963049  *  -0.24461195  *  -1.96128669  *
    16       H         -2.83979436  *   1.58357849  *   0.03616200  *
    17       H         -2.86483403  *   0.68206050  *  -1.48483051  *
    18       H         -3.92196408  *   0.19622693  *  -0.15155598  *
    19       H          4.05396211  *  -0.15997300  *   0.96273822  *

                             CARTESIAN COORDINATES

   1    C       -0.455107855     0.178371761    -0.201760993
   2    C       -1.843036098    -0.343436777     0.134123828
   3    C        0.625254856    -0.749808767     0.337025950
   4    C        2.796542693     0.327431968    -1.071630289
   5    C       -2.921147114     0.576080718    -0.393214916
   6    C        1.956349966    -0.282284407    -0.010665482
   7    C        3.223854873    -0.094631914     0.286222576
   8    H       -0.321728620     1.196360972     0.215034403
   9    H       -0.345954328     0.290407940    -1.298955207
  10    H       -1.974645627    -1.360972840    -0.285015180
  11    H       -1.947192732    -0.458650990     1.231491115
  12    H        0.497009907    -1.772843232    -0.073299784
  13    H        0.541954443    -0.847842916     1.437902777
  14    H        2.697997689     1.389431167    -1.330526600
  15    H        3.089630486    -0.244611953    -1.961286691
  16    H       -2.839794361     1.583578487     0.036162001
  17    H       -2.864834034     0.682060502    -1.484830512
  18    H       -3.921964081     0.196226932    -0.151555977
  19    H        4.053962110    -0.159972997     0.962738221


           Empirical Formula: C7 H12  =    19 atoms



      MOLECULAR POINT GROUP   :   C1  


                  EIGENVALUES  
 -39.55991 -36.16577 -30.23073 -24.07762 -21.89368 -20.84713 -18.72591 -16.73292
 -16.58598 -15.51137 -15.01996 -14.22602 -13.79771 -13.38575 -12.59239 -12.36131
 -12.08431 -11.50914 -11.35179  -9.53699   0.88412   2.67956   3.03290   3.23129
   3.61318   3.74597   3.88564   3.96247   4.03557   4.10287   4.18658   4.43622
   4.54125   4.65682   4.71133   4.90256   5.01078   5.02739   5.15378   5.79813


              NET ATOMIC CHARGES AND DIPOLE CONTRIBUTIONS

  ATOM NO.   TYPE          CHARGE      No. of ELECS.   s-Pop       p-Pop       
    1          C          -0.101398        4.1014     1.16178     2.93962
    2          C          -0.097681        4.0977     1.15862     2.93906
    3          C           0.009216        3.9908     1.12576     2.86502
    4          C          -0.065941        4.0659     1.14383     2.92211
    5          C          -0.109289        4.1093     1.13820     2.97109
    6          C          -0.162467        4.1625     1.21157     2.95089
    7          C          -0.183227        4.1832     1.21316     2.97006
    8          H           0.055019        0.9450     0.94498
    9          H           0.056552        0.9434     0.94345
   10          H           0.048309        0.9517     0.95169
   11          H           0.048267        0.9517     0.95173
   12          H           0.060103        0.9399     0.93990
   13          H           0.056581        0.9434     0.94342
   14          H           0.054346        0.9457     0.94565
   15          H           0.053911        0.9461     0.94609
   16          H           0.038508        0.9615     0.96149
   17          H           0.038597        0.9614     0.96140
   18          H           0.037534        0.9625     0.96247
   19          H           0.163059        0.8369     0.83694
 DIPOLE           X         Y         Z       TOTAL
 POINT-CHG.    -0.484    -0.202     0.248     0.580
 HYBRID         0.109    -0.012     0.064     0.127
 SUM           -0.375    -0.214     0.312     0.533


          ATOMIC ORBITAL ELECTRON POPULATIONS

     Atom    s        px        py        pz   
    1  C   1.16178   0.93913   0.98735   1.01313
    2  C   1.15862   0.94667   0.98658   1.00581
    3  C   1.12576   0.89054   0.97648   0.99799
    4  C   1.14383   1.02994   0.99006   0.90212
    5  C   1.13820   0.97775   0.98965   1.00369
    6  C   1.21157   0.95409   0.98305   1.01375
    7  C   1.21316   0.97432   1.00695   0.98879
    8  H   0.94498
    9  H   0.94345
   10  H   0.95169
   11  H   0.95173
   12  H   0.93990
   13  H   0.94342
   14  H   0.94565
   15  H   0.94609
   16  H   0.96149
   17  H   0.96140
   18  H   0.96247
   19  H   0.83694
 *******************************************************************************
 ** Site#: 14399        For non-commercial use only    Version 18.184L 64BITS **
 *******************************************************************************
 ** Cite this program as: MOPAC2016, Version: 18.184L, James J. P. Stewart,   **
 ** Stewart Computational Chemistry, web: HTTP://OpenMOPAC.net. Days left:  20**
 *******************************************************************************
 **                                                                           **
 **                                MOPAC2016                                  **
 **                                                                           **
 *******************************************************************************

                              PM3 CALCULATION RESULTS

 *******************************************************************************
 *  CALCULATION DONE:                                Thu Jun 13 19:28:08 2019  *
 *  PM3        - The PM3 Hamiltonian to be used
 *  OLDGEO     - PREVIOUS GEOMETRY TO BE USED
 *  PRECISE    - CRITERIA TO BE INCREASED BY 100 TIMES
 *  NOSYM      - POINT-GROUP SYMMETRY SET TO C1
 *  THREADS=1  - MULTI-THREADING NOT USED
 *  T=         - A TIME OF 172800.0 SECONDS REQUESTED
 *  DUMP=N     - RESTART FILE WRITTEN EVERY  7200.000 SECONDS
 *  THERMO     - THERMODYNAMIC QUANTITIES TO BE CALCULATED
 *******************************************************************************
oldgeo thermo nosym precise THREADS=1  pm3
 InChI=1S/C7H12/c1-2-3-4-7-5-6-7/h5H,2-4,6H2,1H3

   ATOM   CHEMICAL          X               Y               Z
  NUMBER   SYMBOL      (ANGSTROMS)     (ANGSTROMS)     (ANGSTROMS)
 
     1       C         -0.45510785  *   0.17837176  *  -0.20176099  *
     2       C         -1.84303610  *  -0.34343678  *   0.13412383  *
     3       C          0.62525486  *  -0.74980877  *   0.33702595  *
     4       C          2.79654269  *   0.32743197  *  -1.07163029  *
     5       C         -2.92114711  *   0.57608072  *  -0.39321492  *
     6       C          1.95634997  *  -0.28228441  *  -0.01066548  *
     7       C          3.22385487  *  -0.09463191  *   0.28622258  *
     8       H         -0.32172862  *   1.19636097  *   0.21503440  *
     9       H         -0.34595433  *   0.29040794  *  -1.29895521  *
    10       H         -1.97464563  *  -1.36097284  *  -0.28501518  *
    11       H         -1.94719273  *  -0.45865099  *   1.23149111  *
    12       H          0.49700991  *  -1.77284323  *  -0.07329978  *
    13       H          0.54195444  *  -0.84784292  *   1.43790278  *
    14       H          2.69799769  *   1.38943117  *  -1.33052660  *
    15       H          3.08963049  *  -0.24461195  *  -1.96128669  *
    16       H         -2.83979436  *   1.58357849  *   0.03616200  *
    17       H         -2.86483403  *   0.68206050  *  -1.48483051  *
    18       H         -3.92196408  *   0.19622693  *  -0.15155598  *
    19       H          4.05396211  *  -0.15997300  *   0.96273822  *
 


          CARTESIAN COORDINATES 

    NO.       ATOM           X           Y           Z

     1         C         -0.4551      0.1784     -0.2018
     2         C         -1.8430     -0.3434      0.1341
     3         C          0.6253     -0.7498      0.3370
     4         C          2.7965      0.3274     -1.0716
     5         C         -2.9211      0.5761     -0.3932
     6         C          1.9563     -0.2823     -0.0107
     7         C          3.2239     -0.0946      0.2862
     8         H         -0.3217      1.1964      0.2150
     9         H         -0.3460      0.2904     -1.2990
    10         H         -1.9746     -1.3610     -0.2850
    11         H         -1.9472     -0.4587      1.2315
    12         H          0.4970     -1.7728     -0.0733
    13         H          0.5420     -0.8478      1.4379
    14         H          2.6980      1.3894     -1.3305
    15         H          3.0896     -0.2446     -1.9613
    16         H         -2.8398      1.5836      0.0362
    17         H         -2.8648      0.6821     -1.4848
    18         H         -3.9220      0.1962     -0.1516
    19         H          4.0540     -0.1600      0.9627

  H: (PM3): J. J. P. STEWART, J. COMP. CHEM. 10, 209 (1989).
  C: (PM3): J. J. P. STEWART, J. COMP. CHEM. 10, 209 (1989).

           Empirical Formula: C7 H12  =    19 atoms



      MOLECULAR POINT GROUP   :   C1  


      RHF CALCULATION, NO. OF DOUBLY OCCUPIED LEVELS = 20



          HEAT OF FORMATION =      41.951708 KCALS/MOLE


          CARTESIAN COORDINATE DERIVATIVES

   NUMBER  ATOM         X            Y            Z

     1       C     -0.000171    -0.004501    -0.002484
     2       C     -0.002227    -0.001852     0.000638
     3       C     -0.002742    -0.004092     0.001310
     4       C     -0.000122     0.002612    -0.000514
     5       C      0.000460    -0.001966    -0.000967
     6       C      0.001679    -0.004723     0.005101
     7       C      0.002234     0.002082     0.001157
     8       H     -0.001140    -0.001216    -0.008353
     9       H      0.012934     0.008499    -0.001306
    10       H     -0.017274     0.011413    -0.000887
    11       H      0.009952    -0.009928     0.004836
    12       H      0.001594    -0.003526     0.000824
    13       H     -0.006272     0.010334    -0.004477
    14       H      0.005749    -0.008419     0.000561
    15       H      0.000335     0.000371    -0.002396
    16       H      0.001538     0.004733     0.000930
    17       H     -0.002812    -0.007400     0.006352
    18       H     -0.006821     0.002581    -0.001298
    19       H      0.003106     0.004999     0.000974
 


          GRADIENT NORM =   0.04013


          TIME FOR SCF CALCULATION =    0.02

          TIME FOR DERIVATIVES     =    0.01

          MOLECULAR WEIGHT =   96.17



          ROTATIONAL CONSTANTS IN CM(-1)

          A =    0.29415190   B =    0.03453500   C =    0.03238210



           PRINCIPAL MOMENTS OF INERTIA IN UNITS OF 10**(-40)*GRAM-CM**2

          A =       95.1644   B =      810.5624   C =      864.4522


          ORIENTATION OF MOLECULE IN FORCE CALCULATION

    NO.       ATOM         X         Y         Z

     1          C       0.6802   -0.5452    0.0519
     2          C       2.2006   -0.5452    0.0519
     3          C       0.1315    0.8754    0.0519
     4          C      -2.5316    0.2600   -0.5713
     5          C       2.7527   -1.9527    0.0572
     6          C      -1.3209    0.8894    0.0130
     7          C      -2.4768    1.3969    0.3821
     8          H       0.3011   -1.0972    0.9347
     9          H       0.2997   -1.0985   -0.8298
    10          H       2.5773    0.0061   -0.8327
    11          H       2.5776    0.0127    0.9321
    12          H       0.5091    1.4365   -0.8279
    13          H       0.4844    1.4299    0.9443
    14          H      -2.8633   -0.7352   -0.2486
    15          H      -2.7994    0.4158   -1.6242
    16          H       2.4275   -2.5119    0.9447
    17          H       2.4237   -2.5202   -0.8235
    18          H       3.8501   -1.9501    0.0549
    19          H      -3.0627    2.1012    0.9404


    FIRST DERIVATIVES WILL BE USED IN THE CALCULATION OF SECOND DERIVATIVES

          ESTIMATED TIME TO COMPLETE CALCULATION =        7.12 SECONDS

    FOR POINT-GROUP C1   THERE ARE   1 UNIQUE SYMMETRY FUNCTIONS.

 STEP:   1 TIME =     0.04 SECS, INTEGRAL =      0.04 TIME LEFT: 172799.93
 STEP:   2 TIME =     0.03 SECS, INTEGRAL =      0.07 TIME LEFT: 172799.90
 STEP:   3 TIME =     0.03 SECS, INTEGRAL =      0.10 TIME LEFT: 172799.87
 STEP:   4 TIME =     0.03 SECS, INTEGRAL =      0.13 TIME LEFT: 172799.84
 STEP:   5 TIME =     0.03 SECS, INTEGRAL =      0.16 TIME LEFT: 172799.80
 STEP:   6 TIME =     0.05 SECS, INTEGRAL =      0.21 TIME LEFT: 172799.76
 STEP:   7 TIME =     0.04 SECS, INTEGRAL =      0.25 TIME LEFT: 172799.72
 STEP:   8 TIME =     0.03 SECS, INTEGRAL =      0.28 TIME LEFT: 172799.69
 STEP:   9 TIME =     0.03 SECS, INTEGRAL =      0.31 TIME LEFT: 172799.66
 STEP:  10 TIME =     0.03 SECS, INTEGRAL =      0.34 TIME LEFT: 172799.62
 STEP:  11 TIME =     0.03 SECS, INTEGRAL =      0.38 TIME LEFT: 172799.59
 STEP:  12 TIME =     0.03 SECS, INTEGRAL =      0.41 TIME LEFT: 172799.56
 STEP:  13 TIME =     0.03 SECS, INTEGRAL =      0.44 TIME LEFT: 172799.53
 STEP:  14 TIME =     0.03 SECS, INTEGRAL =      0.47 TIME LEFT: 172799.50
 STEP:  15 TIME =     0.04 SECS, INTEGRAL =      0.51 TIME LEFT: 172799.46
 STEP:  16 TIME =     0.03 SECS, INTEGRAL =      0.54 TIME LEFT: 172799.43
 STEP:  17 TIME =     0.03 SECS, INTEGRAL =      0.57 TIME LEFT: 172799.40
 STEP:  18 TIME =     0.05 SECS, INTEGRAL =      0.62 TIME LEFT: 172799.35
 STEP:  19 TIME =     0.04 SECS, INTEGRAL =      0.66 TIME LEFT: 172799.31
 STEP:  20 TIME =     0.03 SECS, INTEGRAL =      0.69 TIME LEFT: 172799.28
 STEP:  21 TIME =     0.03 SECS, INTEGRAL =      0.72 TIME LEFT: 172799.25
 STEP:  22 TIME =     0.03 SECS, INTEGRAL =      0.75 TIME LEFT: 172799.22
 STEP:  23 TIME =     0.04 SECS, INTEGRAL =      0.79 TIME LEFT: 172799.18
 STEP:  24 TIME =     0.03 SECS, INTEGRAL =      0.82 TIME LEFT: 172799.15
 STEP:  25 TIME =     0.03 SECS, INTEGRAL =      0.85 TIME LEFT: 172799.12
 STEP:  26 TIME =     0.03 SECS, INTEGRAL =      0.88 TIME LEFT: 172799.09
 STEP:  27 TIME =     0.02 SECS, INTEGRAL =      0.91 TIME LEFT: 172799.06
 STEP:  28 TIME =     0.03 SECS, INTEGRAL =      0.94 TIME LEFT: 172799.03
 STEP:  29 TIME =     0.04 SECS, INTEGRAL =      0.98 TIME LEFT: 172798.99
 STEP:  30 TIME =     0.03 SECS, INTEGRAL =      1.01 TIME LEFT: 172798.96
 STEP:  31 TIME =     0.03 SECS, INTEGRAL =      1.04 TIME LEFT: 172798.93
 STEP:  32 TIME =     0.04 SECS, INTEGRAL =      1.08 TIME LEFT: 172798.89
 STEP:  33 TIME =     0.02 SECS, INTEGRAL =      1.10 TIME LEFT: 172798.87
 STEP:  34 TIME =     0.03 SECS, INTEGRAL =      1.13 TIME LEFT: 172798.84
 STEP:  35 TIME =     0.03 SECS, INTEGRAL =      1.16 TIME LEFT: 172798.80
 STEP:  36 TIME =     0.03 SECS, INTEGRAL =      1.20 TIME LEFT: 172798.77
 STEP:  37 TIME =     0.03 SECS, INTEGRAL =      1.23 TIME LEFT: 172798.74
 STEP:  38 TIME =     0.04 SECS, INTEGRAL =      1.27 TIME LEFT: 172798.70
 STEP:  39 TIME =     0.03 SECS, INTEGRAL =      1.30 TIME LEFT: 172798.67
 STEP:  40 TIME =     0.03 SECS, INTEGRAL =      1.33 TIME LEFT: 172798.64
 STEP:  41 TIME =     0.04 SECS, INTEGRAL =      1.37 TIME LEFT: 172798.60
 STEP:  42 TIME =     0.03 SECS, INTEGRAL =      1.40 TIME LEFT: 172798.57
 STEP:  43 TIME =     0.03 SECS, INTEGRAL =      1.43 TIME LEFT: 172798.54
 STEP:  44 TIME =     0.04 SECS, INTEGRAL =      1.47 TIME LEFT: 172798.50
 STEP:  45 TIME =     0.04 SECS, INTEGRAL =      1.51 TIME LEFT: 172798.46
 STEP:  46 TIME =     0.04 SECS, INTEGRAL =      1.55 TIME LEFT: 172798.42
 STEP:  47 TIME =     0.04 SECS, INTEGRAL =      1.59 TIME LEFT: 172798.38
 STEP:  48 TIME =     0.03 SECS, INTEGRAL =      1.62 TIME LEFT: 172798.35
 STEP:  49 TIME =     0.03 SECS, INTEGRAL =      1.65 TIME LEFT: 172798.32
 STEP:  50 TIME =     0.04 SECS, INTEGRAL =      1.69 TIME LEFT: 172798.28
 STEP:  51 TIME =     0.04 SECS, INTEGRAL =      1.73 TIME LEFT: 172798.24
 STEP:  52 TIME =     0.03 SECS, INTEGRAL =      1.76 TIME LEFT: 172798.21
 STEP:  53 TIME =     0.03 SECS, INTEGRAL =      1.79 TIME LEFT: 172798.18
 STEP:  54 TIME =     0.04 SECS, INTEGRAL =      1.83 TIME LEFT: 172798.14
 STEP:  55 TIME =     0.03 SECS, INTEGRAL =      1.86 TIME LEFT: 172798.11
 STEP:  56 TIME =     0.03 SECS, INTEGRAL =      1.89 TIME LEFT: 172798.08
 STEP:  57 TIME =     0.04 SECS, INTEGRAL =      1.93 TIME LEFT: 172798.04

(To convert to Hartree/Bohr^2, multiply by (10^(-21) x N x a0^2)/(4.184 x 627.51) =  0.0642)


           FORCE MATRIX IN MILLIDYNES/ANGSTROM


                  C  1       C  2       C  3       C  4       C  5       C  6
 ------------------------------------------------------------------------------
     C    1  14.330736
     C    2   4.180585  14.382195
     C    3   4.096298   0.645959  15.008722
     C    4   0.019203   0.002497   0.301606  15.195930
     C    5   0.664174   4.477727   0.053253   0.001054  14.375464
     C    6   0.748595   0.058594   5.995262   5.486797   0.012520  21.450949
     C    7   0.041220   0.008951   0.495185   5.550518   0.003067  12.147581
     H    8   4.464128   0.443210   0.442830   0.003232   0.027621   0.021954
     H    9   4.457922   0.442468   0.445355   0.005278   0.027234   0.031944
     H   10   0.444175   4.447960   0.030141   0.000770   0.437566   0.001596
     H   11   0.444149   4.448341   0.030330   0.000387   0.437408   0.001826
     H   12   0.450744   0.028124   4.384614   0.013800   0.001740   0.415742
     H   13   0.444296   0.026747   4.438672   0.024538   0.001446   0.439252
     H   14   0.002426   0.000663   0.023353   4.693579   0.000366   0.449038
     H   15   0.001195   0.000717   0.024184   4.692563   0.000241   0.443370
     H   16   0.023768   0.463383   0.001757   0.000503   4.724501   0.001069
     H   17   0.024029   0.463333   0.001664   0.000406   4.724814   0.000838
     H   18   0.051312   0.450383   0.009052   0.000439   4.754681   0.002454
     H   19   0.003391   0.001158   0.032739   0.288004   0.000825   0.401022


                  C  7       H  8       H  9       H 10       H 11       H 12
 ------------------------------------------------------------------------------
     C    7  20.416401
     H    8   0.001766   5.082205
     H    9   0.003289   0.572663   5.077737
     H   10   0.000674   0.045778   0.024388   5.067285
     H   11   0.000463   0.024235   0.045525   0.572279   5.067778
     H   12   0.035111   0.045476   0.022962   0.022501   0.001530   4.970967
     H   13   0.011667   0.023971   0.045216   0.001448   0.021260   0.554320
     H   14   0.448968   0.001487   0.001510   0.000140   0.000142   0.001829
     H   15   0.448807   0.000500   0.000531   0.000157   0.000194   0.004617
     H   16   0.000530   0.019046   0.001565   0.047843   0.024603   0.000451
     H   17   0.000657   0.001574   0.018854   0.024412   0.047833   0.000367
     H   18   0.000496   0.001761   0.001789   0.030063   0.029915   0.000462
     H   19   5.564331   0.000727   0.000692   0.000295   0.000127   0.004576


                  H 13       H 14       H 15       H 16       H 17       H 18
 ------------------------------------------------------------------------------
     H   13   5.021522
     H   14   0.001961   5.326823
     H   15   0.004063   0.494641   5.326413
     H   16   0.000328   0.000138   0.000054   5.467735
     H   17   0.000481   0.000140   0.000084   0.575253   5.467916
     H   18   0.000432   0.000185   0.000137   0.573812   0.573676   5.491005
     H   19   0.003972   0.018760   0.019023   0.000157   0.000176   0.000324


                  H 19
 ------------------
     H   19   5.909978


          HEAT OF FORMATION =      41.951708 KCALS/MOLE

          ZERO POINT ENERGY     106.208 KCAL/MOL


           NORMAL COORDINATE ANALYSIS (Total motion = 1 Angstrom)


   Root No.       1         2         3         4         5         6         7         8

                 1 A       2 A       3 A       4 A       5 A       6 A       7 A       8 A   

                  72.2      78.3     103.8     125.5     205.9     293.3     353.7     396.4
  
           1    0.0017   -0.0004    0.0004   -0.0008   -0.0007    0.0493    0.0114    0.0096
           2   -0.0027    0.0006    0.0025   -0.0406   -0.0008    0.0291    0.0017    0.0248
           3   -0.0441    0.0399    0.0404    0.0108    0.0141    0.0039   -0.0141    0.0013
           4    0.0019   -0.0004    0.0004    0.0011   -0.0006    0.0514    0.0131    0.0187
           5    0.0008   -0.0002    0.0005   -0.0004   -0.0003    0.0138   -0.0022   -0.0492
           6    0.0128   -0.0288    0.0459    0.0009   -0.0268   -0.0007    0.0009    0.0003
           7    0.0001    0.0001    0.0018   -0.0147   -0.0002   -0.0110   -0.0095   -0.0144
           8   -0.0033    0.0009    0.0031   -0.0461   -0.0005    0.0016   -0.0047    0.0324
           9   -0.0447   -0.0010   -0.0377    0.0070    0.0049    0.0091   -0.0250    0.0004
          10   -0.0175    0.0045   -0.0065   -0.0409    0.0021   -0.0441    0.0271   -0.0177
          11    0.0249    0.0230   -0.0003    0.0372   -0.0011    0.0061    0.0090    0.0023
          12   -0.0037   -0.0359    0.0005   -0.0042    0.0015   -0.0037   -0.0101    0.0040
          13    0.0055   -0.0009   -0.0020    0.0539    0.0007   -0.0249    0.0029    0.0600
          14    0.0023   -0.0003   -0.0008    0.0212    0.0003   -0.0202   -0.0081   -0.0431
          15    0.0368    0.0066   -0.0375   -0.0040    0.0035   -0.0001    0.0004    0.0002
          16   -0.0009    0.0000    0.0011   -0.0138   -0.0001   -0.0162   -0.0138   -0.0257
          17   -0.0041   -0.0019   -0.0001   -0.0193    0.0001   -0.0373   -0.0123    0.0440
          18   -0.0070    0.0005   -0.0153    0.0004    0.0047   -0.0054    0.0924   -0.0128
          19    0.0096   -0.0031    0.0057    0.0080   -0.0014    0.0000   -0.0365   -0.0444
          20   -0.0210   -0.0245   -0.0050    0.0400    0.0022    0.0027    0.0136    0.0010
          21    0.0495    0.0214    0.0054   -0.0109   -0.0022   -0.0053   -0.0110    0.0015
          22   -0.0290    0.0386   -0.0030    0.0161    0.0224    0.0617    0.0086   -0.0001
          23   -0.0146    0.0412    0.0472   -0.0431    0.0172    0.0188    0.0038    0.0335
          24   -0.0647    0.0819    0.0666    0.0159    0.0356    0.0037   -0.0140    0.0019
          25    0.0347   -0.0397    0.0026    0.0052   -0.0237    0.0574    0.0216   -0.0014
          26    0.0078   -0.0396   -0.0413   -0.0518   -0.0186    0.0233   -0.0059    0.0317
          27   -0.0648    0.0819    0.0666    0.0159    0.0357    0.0033   -0.0140    0.0024
          28    0.0334   -0.0396    0.0048   -0.0220   -0.0189    0.0675    0.0255    0.0268
          29    0.0007   -0.0387    0.0505    0.0124   -0.0253   -0.0018    0.0009   -0.0555
          30    0.0263   -0.0696    0.0787   -0.0012   -0.0500   -0.0025    0.0086   -0.0002
          31   -0.0322    0.0392   -0.0023   -0.0108    0.0169    0.0730    0.0074    0.0285
          32    0.0027    0.0377   -0.0504    0.0115    0.0250    0.0012   -0.0102   -0.0547
          33    0.0263   -0.0699    0.0791   -0.0012   -0.0502   -0.0031    0.0084   -0.0004
          34   -0.0201   -0.0034   -0.0128   -0.0102   -0.0013   -0.0211   -0.1187   -0.0033
          35   -0.0109   -0.0258   -0.0509   -0.0465   -0.0071    0.0267   -0.0574    0.0385
          36   -0.0580   -0.0196   -0.0784    0.0080    0.0002    0.0210   -0.1068    0.0099
          37    0.0201    0.0033    0.0169   -0.0171    0.0014   -0.0458    0.0883   -0.0269
          38    0.0044    0.0275    0.0570   -0.0453    0.0058    0.0067    0.0548    0.0276
          39   -0.0572   -0.0190   -0.0774    0.0079    0.0003    0.0198   -0.1022    0.0078
          40   -0.0100    0.0065    0.0010   -0.0932    0.0000   -0.0856   -0.0250    0.0274
          41    0.0098    0.0056   -0.0027    0.0556    0.0003    0.0200    0.0166   -0.0108
          42   -0.0427   -0.0879    0.0008   -0.0014    0.0033   -0.0038   -0.0430    0.0112
          43   -0.0461    0.0084   -0.0234   -0.0267    0.0071   -0.0429    0.1376   -0.0450
          44    0.0761    0.0757    0.0043    0.0454   -0.0044    0.0182    0.0140   -0.0096
          45    0.0111   -0.0291    0.0055   -0.0067   -0.0003   -0.0025   -0.0380    0.0094
          46   -0.0279    0.0309   -0.0098    0.0823   -0.1914   -0.0628    0.0012    0.0857
          47    0.0028    0.0345   -0.0551    0.0082   -0.0572   -0.0010   -0.0040   -0.0574
          48    0.0249    0.0401   -0.0747   -0.0019   -0.1026   -0.0013    0.0025   -0.0002
          49    0.0418   -0.0331    0.0038    0.0695    0.1934   -0.0590   -0.0055    0.0862
          50    0.0001   -0.0345    0.0542    0.0090    0.0563    0.0002   -0.0069   -0.0571
          51    0.0247    0.0406   -0.0752   -0.0019   -0.1039   -0.0009    0.0027    0.0002
          52    0.0056   -0.0010   -0.0020    0.0539    0.0012   -0.0252    0.0028    0.0611
          53    0.0054   -0.0010   -0.0025    0.0641    0.0026   -0.0911   -0.0184    0.0029
          54    0.0802   -0.0334   -0.0293   -0.0121    0.2439    0.0027   -0.0038    0.0003
          55    0.0258   -0.0077    0.0128    0.0396   -0.0035    0.0288   -0.0796   -0.0720
          56   -0.0468   -0.0536   -0.0093    0.0751    0.0049    0.0298    0.0497   -0.0346
          57    0.0991    0.0533    0.0184   -0.0220   -0.0078   -0.0093   -0.1012    0.0184


   Root No.       9        10        11        12        13        14        15        16

                 9 A      10 A      11 A      12 A      13 A      14 A      15 A      16 A   

                 516.6     765.4     811.9     813.3     834.7     906.0     947.2     958.1
  
           1    0.0215    0.0000   -0.0004    0.0012   -0.0004   -0.0030    0.0119    0.0291
           2   -0.0361    0.0007    0.0092   -0.0108    0.0030   -0.0031    0.0063    0.0128
           3    0.0004   -0.0201   -0.0013   -0.0013    0.0070    0.0185    0.0141   -0.0054
           4    0.0311    0.0001   -0.0007   -0.0015    0.0003    0.0033   -0.0074   -0.0140
           5    0.0235   -0.0001   -0.0006   -0.0003    0.0001    0.0015   -0.0033   -0.0058
           6    0.0002   -0.0134   -0.0092   -0.0138   -0.0191   -0.0076    0.0025   -0.0030
           7   -0.0097   -0.0045   -0.0245    0.0456   -0.0121   -0.0029    0.0023   -0.0019
           8   -0.0448   -0.0010   -0.0060    0.0108   -0.0029    0.0016   -0.0060   -0.0146
           9   -0.0037   -0.0168    0.0096    0.0157    0.0224   -0.0118   -0.0197    0.0091
          10    0.0129    0.0065    0.0156   -0.0336    0.0045    0.0035    0.0026    0.0019
          11    0.0052    0.0001   -0.0024    0.0059   -0.0027   -0.0024    0.0045    0.0022
          12    0.0067    0.0021   -0.0060    0.0025   -0.0038    0.0048    0.0027    0.0017
          13   -0.0160    0.0003    0.0014   -0.0033    0.0008    0.0031   -0.0138   -0.0366
          14    0.0058   -0.0007   -0.0038    0.0069   -0.0019   -0.0007    0.0009    0.0003
          15    0.0001    0.0006   -0.0012   -0.0021   -0.0047   -0.0090   -0.0125    0.0070
          16   -0.0112   -0.0026   -0.0066    0.0154   -0.0023   -0.0030    0.0014    0.0013
          17    0.0617   -0.0024   -0.0067    0.0080   -0.0013    0.0123   -0.0128    0.0096
          18   -0.0145    0.0057   -0.0057    0.0087   -0.0075   -0.0155    0.0145   -0.0133
          19   -0.0334   -0.0013    0.0112   -0.0125    0.0063   -0.0035    0.0021    0.0007
          20    0.0086    0.0004    0.0260   -0.0160    0.0021   -0.0134    0.0127   -0.0078
          21    0.0042    0.0076   -0.0130   -0.0231    0.0027    0.0240   -0.0121    0.0120
          22    0.0493    0.0714    0.0238    0.0197    0.0243   -0.0407   -0.0563    0.1043
          23   -0.0503    0.1079    0.0027   -0.0107   -0.0444   -0.0503    0.0068   -0.0166
          24    0.0032    0.0826    0.0056    0.0071   -0.0127   -0.0295   -0.0158    0.0092
          25    0.0473   -0.0697   -0.0151   -0.0396   -0.0193    0.0384    0.0957    0.0164
          26   -0.0586   -0.1076    0.0103    0.0039    0.0466    0.0409   -0.0014    0.0089
          27    0.0038    0.0828    0.0044    0.0080   -0.0130   -0.0289   -0.0186    0.0025
          28    0.0305    0.0678    0.0251    0.0295    0.0350   -0.0198   -0.0622    0.0560
          29    0.0237    0.0697    0.0337    0.0582    0.0742    0.0482    0.0274   -0.0444
          30    0.0010    0.0629    0.0251    0.0379    0.0450    0.0127   -0.0027    0.0011
          31    0.0299   -0.0672   -0.0211   -0.0400   -0.0322    0.0245    0.0666   -0.0235
          32    0.0237   -0.0698   -0.0388   -0.0524   -0.0752   -0.0432   -0.0476   -0.0085
          33   -0.0002    0.0634    0.0253    0.0388    0.0454    0.0123   -0.0005    0.0047
          34    0.0195    0.0272   -0.0781    0.0477   -0.0592    0.0716    0.0158   -0.0021
          35   -0.0583    0.0823   -0.0182   -0.0383   -0.0678   -0.0199    0.0483   -0.0508
          36   -0.0003    0.0532   -0.0218   -0.0170   -0.0414    0.0061    0.0222   -0.0153
          37    0.0053   -0.0433   -0.0223    0.1210    0.0121   -0.0598   -0.0302   -0.0100
          38   -0.0611   -0.0813    0.0311    0.0263    0.0715    0.0123   -0.0498    0.0212
          39    0.0009    0.0514   -0.0159   -0.0235   -0.0363    0.0035    0.0218   -0.0110
          40    0.0907    0.0056   -0.0573   -0.1164    0.1017   -0.1096    0.0505   -0.0389
          41   -0.0173   -0.0036    0.0446    0.0445   -0.0437    0.0369   -0.0137    0.0202
          42    0.0194   -0.0120    0.0691    0.0382   -0.0298    0.0054   -0.0038    0.0147
          43   -0.0210    0.0247    0.1262   -0.0468   -0.0780    0.1369   -0.0562    0.0366
          44   -0.0188    0.0086   -0.1031   -0.0036    0.0285   -0.0226    0.0242   -0.0114
          45    0.0125   -0.0017   -0.0473    0.0047    0.0218   -0.0333    0.0211   -0.0092
          46   -0.0485   -0.0088   -0.0022   -0.0206   -0.0196   -0.0301   -0.0006    0.0925
          47    0.0227    0.0334    0.0190    0.0487    0.0585    0.0668    0.0543   -0.0947
          48   -0.0003    0.0202    0.0127    0.0196    0.0282    0.0237    0.0273   -0.0092
          49   -0.0488    0.0102    0.0149    0.0059    0.0236    0.0177    0.0569    0.0619
          50    0.0233   -0.0350   -0.0322   -0.0293   -0.0635   -0.0589   -0.0931   -0.0167
          51    0.0001    0.0205    0.0131    0.0193    0.0289    0.0249    0.0249   -0.0176
          52   -0.0170    0.0003    0.0017   -0.0035    0.0010    0.0029   -0.0127   -0.0337
          53   -0.0562   -0.0002    0.0037    0.0028   -0.0006   -0.0188    0.0815    0.2158
          54    0.0002    0.0164    0.0122    0.0189    0.0289    0.0263    0.0276   -0.0153
          55   -0.0788   -0.0017    0.0519   -0.0911    0.0448   -0.0020   -0.0573   -0.0276
          56   -0.0560    0.0309   -0.1393   -0.1047    0.0581    0.0586   -0.0644    0.0172
          57    0.0391   -0.0312    0.2372    0.0073   -0.0282   -0.0648    0.0227   -0.0493


   Root No.      17        18        19        20        21        22        23        24

                17 A      18 A      19 A      20 A      21 A      22 A      23 A      24 A   

                 993.2    1009.4    1027.7    1101.0    1116.9    1117.2    1133.2    1142.0
  
           1    0.0068   -0.0015    0.0015   -0.0219    0.0165    0.0018   -0.0231   -0.0002
           2   -0.0054    0.0022   -0.0025    0.0371   -0.0138   -0.0044    0.0140    0.0002
           3   -0.0028   -0.0050    0.0106   -0.0050   -0.0015   -0.0279   -0.0003    0.0168
           4    0.0004   -0.0008    0.0003    0.0132   -0.0071   -0.0014    0.0018   -0.0001
           5   -0.0018    0.0007   -0.0023   -0.0074   -0.0146    0.0024    0.0623   -0.0000
           6    0.0068    0.0060   -0.0098    0.0038    0.0003    0.0284   -0.0014   -0.0412
           7    0.0177   -0.0076    0.0120   -0.0010    0.0155    0.0001   -0.0001   -0.0002
           8    0.0062   -0.0037    0.0052   -0.0361    0.0156    0.0060   -0.0043    0.0002
           9    0.0043    0.0094   -0.0207    0.0052    0.0064    0.0226    0.0002    0.0131
          10   -0.0182    0.0060   -0.0047   -0.0066   -0.0447   -0.0017   -0.0127   -0.0021
          11   -0.0082    0.0285    0.0171    0.0002    0.0149    0.0015    0.0024    0.0005
          12   -0.0121   -0.0321   -0.0189    0.0004    0.0110    0.0007    0.0004    0.0009
          13   -0.0105    0.0031   -0.0016    0.0006   -0.0006   -0.0001    0.0044    0.0001
          14    0.0032   -0.0016    0.0033    0.0147    0.0108   -0.0030   -0.0575   -0.0001
          15   -0.0054   -0.0037    0.0048   -0.0025    0.0020   -0.0275    0.0026    0.0170
          16   -0.0074    0.0055   -0.0072   -0.0046   -0.0083   -0.0010   -0.0006    0.0002
          17    0.0183   -0.0018   -0.0160   -0.0054   -0.0182   -0.0030   -0.0063   -0.0001
          18    0.0077   -0.0051    0.0266   -0.0053   -0.0194    0.0002   -0.0005   -0.0017
          19   -0.0284    0.0111   -0.0149    0.0051    0.0103   -0.0004    0.0071    0.0009
          20   -0.0137   -0.0204    0.0018    0.0059    0.0167    0.0015    0.0034    0.0000
          21   -0.0049    0.0238    0.0007    0.0065    0.0152    0.0009    0.0024    0.0005
          22   -0.0233   -0.0274    0.0237   -0.0883    0.0291   -0.0187    0.0035   -0.1981
          23    0.0270    0.0378   -0.0531    0.1016   -0.0192    0.0797   -0.0039    0.0972
          24    0.0048    0.0068   -0.0126    0.0068    0.0009    0.0164   -0.0010   -0.0082
          25    0.0485    0.0216   -0.0325   -0.0826    0.0109    0.0418   -0.0045    0.2008
          26   -0.0458   -0.0313    0.0549    0.0721   -0.0160   -0.1026    0.0007   -0.0974
          27    0.0054    0.0067   -0.0118   -0.0006    0.0023    0.0174    0.0009   -0.0088
          28   -0.0332   -0.0392    0.0521    0.0791   -0.0478    0.0199   -0.0443    0.1024
          29    0.0014    0.0087   -0.0098   -0.0617    0.0056   -0.0835    0.1237    0.0224
          30   -0.0065   -0.0053    0.0076   -0.0025   -0.0041   -0.0170    0.0156    0.0156
          31    0.0538    0.0294   -0.0482    0.0920   -0.0157   -0.0400   -0.0207   -0.1028
          32   -0.0176   -0.0022    0.0027   -0.0513   -0.0151    0.1011    0.1017   -0.0217
          33   -0.0058   -0.0055    0.0084   -0.0020    0.0042   -0.0185   -0.0152    0.0156
          34   -0.0070   -0.1134    0.1762    0.0706   -0.0308    0.0689    0.0621    0.0053
          35    0.0287    0.0392   -0.0452   -0.1017    0.0443   -0.0912   -0.0401   -0.0270
          36    0.0081   -0.0073    0.0163   -0.0070    0.0041   -0.0111    0.0022   -0.0007
          37    0.1350    0.0446   -0.0951    0.0812    0.0491   -0.0615    0.0771   -0.0016
          38   -0.0587   -0.0239    0.0342   -0.0813    0.0236    0.1063   -0.0487    0.0260
          39    0.0009    0.0011    0.0038    0.0015   -0.0107   -0.0159   -0.0007   -0.0010
          40    0.0203    0.0266    0.0979    0.0333    0.1769    0.0114    0.0425    0.0059
          41   -0.0237    0.0845    0.0080   -0.0178   -0.0844   -0.0039   -0.0213   -0.0035
          42   -0.0158    0.1866    0.0751   -0.0139   -0.0666   -0.0020   -0.0150   -0.0034
          43    0.0305   -0.0768   -0.0391    0.0337    0.1840    0.0075    0.0357    0.0080
          44   -0.0564   -0.1675   -0.1069   -0.0174   -0.0867   -0.0046   -0.0243   -0.0020
          45   -0.0318   -0.0319   -0.0239   -0.0124   -0.0626   -0.0025   -0.0157   -0.0021
          46    0.0044   -0.0115    0.0080   -0.0076   -0.0182   -0.0319    0.0730    0.0243
          47    0.0195    0.0204   -0.0194    0.0312    0.0183    0.0882   -0.1193   -0.0668
          48    0.0105    0.0055   -0.0068    0.0043    0.0005    0.0198   -0.0105   -0.0191
          49    0.0272    0.0037   -0.0115   -0.0007   -0.0223    0.0364    0.0681   -0.0240
          50   -0.0372   -0.0173    0.0277    0.0131    0.0303   -0.0982   -0.1047    0.0660
          51    0.0080    0.0066   -0.0079    0.0001   -0.0026    0.0214    0.0085   -0.0196
          52   -0.0098    0.0030   -0.0016    0.0018   -0.0019   -0.0001    0.0069   -0.0000
          53    0.0551   -0.0158    0.0063    0.0144   -0.0057   -0.0016   -0.0174   -0.0003
          54    0.0094    0.0062   -0.0076    0.0024   -0.0010    0.0235   -0.0015   -0.0297
          55    0.2243   -0.0488    0.0432   -0.0311   -0.0932   -0.0048   -0.0237   -0.0035
          56    0.1243    0.0197    0.0215   -0.0085   -0.0298   -0.0016   -0.0129   -0.0011
          57    0.0891   -0.0913    0.0390   -0.0129   -0.0323    0.0004   -0.0093   -0.0027


   Root No.      25        26        27        28        29        30        31        32

                25 A      26 A      27 A      28 A      29 A      30 A      31 A      32 A   

                1149.3    1152.0    1202.3    1240.3    1315.3    1335.6    1377.3    1388.5
  
           1   -0.0096   -0.0412   -0.0045   -0.0271   -0.0007   -0.0101   -0.0174   -0.0136
           2   -0.0133   -0.0423    0.0074    0.0219    0.0029    0.0085   -0.0013    0.0035
           3   -0.0309    0.0104    0.0014    0.0001   -0.0001    0.0004    0.0001   -0.0004
           4    0.0109    0.0435   -0.0169   -0.0256   -0.0087    0.0389   -0.0002   -0.0145
           5    0.0018    0.0147   -0.0053    0.0102    0.0053   -0.0286   -0.0108   -0.0100
           6   -0.0040    0.0011   -0.0001    0.0000   -0.0001    0.0000    0.0000    0.0001
           7   -0.0029   -0.0067   -0.0150   -0.0131    0.0118   -0.0361   -0.0155    0.0349
           8    0.0128    0.0355    0.0250   -0.0021   -0.0113    0.0222   -0.0275    0.0042
           9    0.0155   -0.0043    0.0019   -0.0031   -0.0054   -0.0023   -0.0011    0.0017
          10    0.0036   -0.0009    0.0198   -0.0200   -0.0416   -0.0135   -0.0049    0.0101
          11   -0.0007   -0.0018   -0.0206    0.0202   -0.0521    0.0007   -0.0015    0.0038
          12   -0.0013   -0.0026   -0.0175    0.0157   -0.0451   -0.0004   -0.0014    0.0037
          13   -0.0048   -0.0178    0.0059    0.0102    0.0017   -0.0035    0.0040    0.0060
          14    0.0024    0.0020    0.0064    0.0042    0.0014   -0.0094   -0.0139   -0.0187
          15    0.0210   -0.0067   -0.0004    0.0000    0.0001    0.0001    0.0000    0.0001
          16   -0.0022   -0.0029   -0.0249    0.0268    0.0116    0.0129    0.0046   -0.0069
          17   -0.0043   -0.0076   -0.0159    0.0111    0.0564    0.0119    0.0081   -0.0120
          18    0.0014   -0.0015   -0.0082    0.0122    0.0461    0.0142    0.0059   -0.0105
          19    0.0003    0.0090    0.0065    0.0083    0.0520    0.0223    0.0077   -0.0172
          20    0.0027    0.0059    0.0283   -0.0303    0.0258   -0.0138   -0.0045    0.0091
          21    0.0011    0.0035    0.0225   -0.0252    0.0242   -0.0114   -0.0029    0.0068
          22   -0.0024   -0.0548    0.1087    0.1154    0.0085    0.0096    0.0587    0.0388
          23    0.0404   -0.0817   -0.0715   -0.0726    0.0040   -0.0366    0.0479    0.0037
          24    0.0045   -0.0187    0.0007    0.0026    0.0040   -0.0177    0.0551    0.0197
          25   -0.0122   -0.0517    0.1086    0.1122    0.0105    0.0087    0.0579    0.0388
          26   -0.0844   -0.0400   -0.0667   -0.0692    0.0031   -0.0342    0.0491    0.0019
          27    0.0132    0.0133   -0.0002   -0.0030   -0.0049    0.0175   -0.0555   -0.0193
          28   -0.1177    0.1929    0.0185    0.0832    0.0170   -0.0774    0.0303    0.0717
          29    0.0989   -0.0715   -0.0366   -0.0681   -0.0151    0.0629    0.0542    0.0824
          30    0.0004    0.0110   -0.0036   -0.0010   -0.0014    0.0061    0.0463    0.0816
          31    0.1917    0.0911    0.0096    0.0849    0.0196   -0.0771    0.0302    0.0719
          32   -0.1241    0.0010   -0.0316   -0.0692   -0.0171    0.0622    0.0538    0.0819
          33   -0.0029   -0.0097    0.0045    0.0014    0.0013   -0.0065   -0.0467   -0.0823
          34    0.0655   -0.0424    0.1096   -0.0171   -0.0502    0.0315    0.0606   -0.0687
          35   -0.0664    0.0807   -0.0330   -0.0265   -0.0053   -0.0873    0.1258   -0.0494
          36   -0.0074    0.0109    0.0150   -0.0178   -0.0228   -0.0376    0.1118   -0.0668
          37   -0.0620    0.0151    0.1568   -0.0444   -0.1168    0.0174    0.0581   -0.0627
          38    0.0971    0.0187   -0.0536   -0.0244    0.0065   -0.0904    0.1277   -0.0493
          39   -0.0153   -0.0026   -0.0136    0.0206    0.0303    0.0412   -0.1096    0.0636
          40   -0.0035    0.0074   -0.0463    0.0489   -0.0897    0.0144    0.0014   -0.0143
          41    0.0033   -0.0048    0.0048   -0.0015   -0.0819   -0.0034   -0.0027   -0.0010
          42    0.0041   -0.0029   -0.0050    0.0162   -0.1733    0.0114   -0.0000   -0.0297
          43   -0.0098    0.0020   -0.0546    0.0489   -0.0930    0.0139    0.0012   -0.0161
          44    0.0019   -0.0071   -0.0056    0.0123   -0.1792    0.0089   -0.0005   -0.0286
          45    0.0027   -0.0040    0.0034   -0.0019   -0.0550   -0.0048   -0.0025    0.0036
          46    0.0278    0.0337   -0.0131    0.0025    0.0056   -0.0376   -0.0228   -0.0195
          47   -0.0639   -0.0051    0.0142   -0.0053   -0.0099    0.0651    0.0548    0.0679
          48   -0.0095    0.0064   -0.0014   -0.0065   -0.0044    0.0276    0.0275    0.0379
          49   -0.0116    0.0462   -0.0127    0.0023    0.0055   -0.0379   -0.0232   -0.0191
          50    0.0576   -0.0439    0.0127   -0.0050   -0.0091    0.0650    0.0546    0.0675
          51   -0.0121    0.0005    0.0015    0.0066    0.0043   -0.0280   -0.0278   -0.0385
          52   -0.0042   -0.0145    0.0058    0.0123    0.0027   -0.0094    0.0005    0.0026
          53    0.0242    0.0909   -0.0364   -0.0687   -0.0226    0.1128    0.0536    0.0463
          54   -0.0146    0.0042    0.0004    0.0005    0.0000   -0.0004    0.0000   -0.0007
          55   -0.0038   -0.0224   -0.0446    0.0347   -0.0309    0.0122    0.0049   -0.0095
          56   -0.0017   -0.0130    0.0026   -0.0211   -0.0129   -0.0233   -0.0061    0.0155
          57    0.0025   -0.0064    0.0035   -0.0146   -0.0123   -0.0161   -0.0060    0.0120


   Root No.      33        34        35        36        37        38        39        40

                33 A      34 A      35 A      36 A      37 A      38 A      39 A      40 A   

                1404.2    1408.4    1411.6    1419.1    1429.2    1434.9    2083.6    2935.2
  
           1    0.0089   -0.0002    0.0068    0.0376   -0.0067   -0.0332   -0.0013    0.0000
           2   -0.0396    0.0002   -0.0009    0.0038   -0.0041    0.0230    0.0011    0.0001
           3    0.0002   -0.0001    0.0000    0.0001   -0.0002   -0.0003    0.0003    0.0144
           4   -0.0091    0.0000    0.0001   -0.0344   -0.0019    0.0301    0.0013    0.0000
           5   -0.0052    0.0000   -0.0019   -0.0077    0.0266   -0.0323   -0.0011    0.0000
           6    0.0000   -0.0015   -0.0000   -0.0000   -0.0001    0.0002   -0.0000   -0.0078
           7   -0.0191    0.0003   -0.0053   -0.0146    0.0206    0.0285   -0.0679    0.0018
           8    0.0254   -0.0001    0.0015    0.0024   -0.0022   -0.0163    0.0048    0.0022
           9   -0.0007    0.0004   -0.0002   -0.0008    0.0002    0.0005   -0.0011   -0.0388
          10   -0.0073    0.0001   -0.0026   -0.0138   -0.0147   -0.0085   -0.0382    0.0001
          11   -0.0059    0.0001   -0.0025   -0.0170   -0.0269   -0.0189   -0.0457   -0.0000
          12   -0.0054    0.0000   -0.0023   -0.0148   -0.0232   -0.0161   -0.0401   -0.0000
          13   -0.0052    0.0004   -0.0373    0.0054    0.0110   -0.0153    0.0000   -0.0000
          14    0.0152   -0.0002   -0.0051    0.0006   -0.0282    0.0341    0.0002   -0.0000
          15   -0.0001   -0.0411   -0.0003   -0.0000    0.0001   -0.0001   -0.0000    0.0004
          16    0.0010   -0.0000    0.0003   -0.0012   -0.0090   -0.0075    0.2618    0.0004
          17    0.0044   -0.0001    0.0023    0.0109    0.0051    0.0016   -0.0513   -0.0001
          18    0.0054   -0.0001    0.0020    0.0083    0.0035    0.0003   -0.0295   -0.0001
          19    0.0108   -0.0002    0.0033    0.0131    0.0035   -0.0025   -0.1410   -0.0002
          20   -0.0035    0.0001   -0.0009   -0.0005    0.0098    0.0094    0.0820    0.0001
          21   -0.0030    0.0001   -0.0006    0.0002    0.0084    0.0081    0.0617   -0.0001
          22    0.0414   -0.0067   -0.0140   -0.0886    0.0177    0.0508   -0.0043    0.0392
          23    0.1367    0.0042   -0.0024   -0.0593    0.0186   -0.0329    0.0019    0.0537
          24    0.1070   -0.0011   -0.0088   -0.0806    0.0214    0.0006    0.0006   -0.0879
          25    0.0409    0.0068   -0.0138   -0.0879    0.0180    0.0507   -0.0052   -0.0390
          26    0.1376   -0.0052   -0.0022   -0.0590    0.0176   -0.0340    0.0038   -0.0539
          27   -0.1073   -0.0005    0.0087    0.0806   -0.0214   -0.0004   -0.0009   -0.0877
          28    0.0308   -0.0017   -0.0153    0.0850   -0.0193   -0.0324    0.0002   -0.0205
          29    0.0250    0.0012   -0.0065    0.0673   -0.0722    0.0608   -0.0004   -0.0297
          30    0.0307   -0.0024   -0.0078    0.0839   -0.0595    0.0275    0.0005    0.0473
          31    0.0309    0.0020   -0.0152    0.0849   -0.0191   -0.0321    0.0001    0.0201
          32    0.0247   -0.0010   -0.0066    0.0666   -0.0718    0.0606   -0.0004    0.0299
          33   -0.0309   -0.0026    0.0078   -0.0845    0.0600   -0.0280   -0.0005    0.0465
          34    0.0076   -0.0003    0.0083    0.0259   -0.0261   -0.0308   -0.0034   -0.1094
          35   -0.0578   -0.0008   -0.0018    0.0025   -0.0015    0.0204   -0.0096   -0.1655
          36   -0.0359   -0.0002    0.0031    0.0148   -0.0164   -0.0017    0.0101    0.2560
          37    0.0043   -0.0006    0.0070    0.0196   -0.0305   -0.0332    0.0007    0.0860
          38   -0.0605    0.0008   -0.0018    0.0034    0.0001    0.0227   -0.0154    0.1375
          39    0.0375    0.0002   -0.0026   -0.0130    0.0165    0.0010   -0.0166    0.2114
          40    0.0198   -0.0002    0.0059    0.0333    0.0464    0.0293   -0.0126    0.0002
          41    0.0050   -0.0000    0.0014    0.0078    0.0119    0.0074   -0.0446    0.0006
          42    0.0479   -0.0006    0.0158    0.0944    0.1379    0.0903    0.0265   -0.0001
          43    0.0218   -0.0003    0.0068    0.0392    0.0533    0.0335   -0.0089   -0.0000
          44    0.0465   -0.0005    0.0154    0.0929    0.1355    0.0887    0.0187    0.0000
          45   -0.0026    0.0000   -0.0012   -0.0072   -0.0099   -0.0067   -0.0496   -0.0004
          46    0.0210    0.2455    0.2301   -0.0118   -0.0362    0.0404    0.0000    0.0011
          47   -0.0449   -0.0499    0.1369   -0.0053    0.0603   -0.0722    0.0001    0.0014
          48   -0.0229    0.0463    0.1748   -0.0091    0.0304   -0.0371   -0.0001   -0.0028
          49    0.0203   -0.2507    0.2249   -0.0121   -0.0363    0.0407    0.0000   -0.0011
          50   -0.0444    0.0477    0.1362   -0.0050    0.0600   -0.0718    0.0001   -0.0014
          51    0.0234    0.0506   -0.1762    0.0091   -0.0308    0.0376    0.0001   -0.0028
          52   -0.0020    0.0010   -0.0114    0.0042    0.0052   -0.0087    0.0001    0.0000
          53   -0.0496    0.0042   -0.1770   -0.0160    0.0732   -0.0661    0.0000    0.0000
          54    0.0009    0.4146    0.0046    0.0002   -0.0004    0.0003   -0.0000    0.0001
          55    0.0038   -0.0001    0.0011    0.0024   -0.0070   -0.0075   -0.1420   -0.0006
          56   -0.0093    0.0002   -0.0023   -0.0069    0.0060    0.0093    0.1669    0.0006
          57   -0.0060    0.0001   -0.0018   -0.0054    0.0042    0.0062    0.1336    0.0006


   Root No.      41        42        43        44        45        46        47        48

                41 A      42 A      43 A      44 A      45 A      46 A      47 A      48 A   

                2949.0    2962.2    3013.7    3032.6    3037.8    3054.1    3078.6    3084.8
  
           1    0.0001   -0.0002    0.0017   -0.0040    0.0183    0.0000   -0.0000    0.0002
           2    0.0001   -0.0002    0.0015   -0.0065    0.0265    0.0000   -0.0000   -0.0003
           3    0.0164   -0.0323   -0.0007    0.0001   -0.0004   -0.0000    0.0002   -0.0000
           4    0.0000    0.0000   -0.0008    0.0170    0.0052   -0.0000    0.0000   -0.0017
           5   -0.0001   -0.0000   -0.0016    0.0253    0.0070   -0.0000   -0.0000   -0.0024
           6   -0.0310   -0.0202   -0.0000   -0.0000   -0.0000    0.0000   -0.0029    0.0000
           7   -0.0007    0.0005   -0.0215   -0.0008    0.0009   -0.0000    0.0000    0.0000
           8   -0.0008    0.0007   -0.0320   -0.0017    0.0020    0.0000   -0.0000    0.0001
           9    0.0122   -0.0079   -0.0060   -0.0002    0.0002   -0.0002    0.0001    0.0000
          10   -0.0000    0.0000    0.0002    0.0000   -0.0000    0.0021    0.0000   -0.0000
          11    0.0000   -0.0000   -0.0001    0.0000    0.0000    0.0389   -0.0000   -0.0000
          12    0.0000   -0.0000   -0.0000   -0.0000    0.0000   -0.0467    0.0000    0.0000
          13   -0.0000    0.0000    0.0001   -0.0034   -0.0009   -0.0000    0.0001   -0.0442
          14    0.0000    0.0000    0.0000   -0.0009   -0.0002   -0.0000   -0.0002   -0.0184
          15    0.0017    0.0009   -0.0000    0.0000   -0.0000   -0.0000   -0.0546   -0.0001
          16   -0.0001    0.0001   -0.0001   -0.0000   -0.0002    0.0001    0.0000   -0.0000
          17    0.0000   -0.0000    0.0001   -0.0001    0.0002    0.0005    0.0000   -0.0000
          18    0.0001   -0.0000    0.0000   -0.0000    0.0000   -0.0006    0.0000   -0.0000
          19    0.0001   -0.0000    0.0000    0.0000    0.0000    0.0000   -0.0000    0.0000
          20   -0.0000    0.0000   -0.0000   -0.0000   -0.0000    0.0005   -0.0000    0.0000
          21    0.0000   -0.0000    0.0001    0.0000   -0.0000   -0.0006    0.0000   -0.0000
          22    0.0411   -0.0865   -0.0119    0.0271   -0.1123    0.0000   -0.0002    0.0008
          23    0.0638   -0.1243   -0.0164    0.0405   -0.1625   -0.0001    0.0014   -0.0001
          24   -0.0981    0.1917    0.0290   -0.0737    0.3001    0.0002   -0.0016   -0.0007
          25   -0.0420    0.0882   -0.0085    0.0267   -0.1102    0.0000    0.0003    0.0008
          26   -0.0652    0.1271   -0.0103    0.0400   -0.1601   -0.0001   -0.0013   -0.0001
          27   -0.1003    0.1959   -0.0208    0.0725   -0.2951   -0.0002   -0.0015    0.0008
          28   -0.0812   -0.0561    0.0063   -0.1052   -0.0293    0.0001   -0.0064    0.0078
          29   -0.1200   -0.0780    0.0078   -0.1528   -0.0410    0.0001   -0.0142    0.0151
          30    0.1875    0.1215   -0.0156    0.2838    0.0775   -0.0003    0.0166   -0.0255
          31    0.0812    0.0559    0.0067   -0.1056   -0.0292    0.0001    0.0064    0.0079
          32    0.1212    0.0786    0.0080   -0.1554   -0.0415    0.0001    0.0143    0.0153
          33    0.1863    0.1203    0.0158   -0.2833   -0.0770    0.0002    0.0164    0.0254
          34    0.0351   -0.0221    0.1166    0.0064   -0.0050   -0.0002    0.0001   -0.0002
          35    0.0541   -0.0375    0.1769    0.0087   -0.0095   -0.0003    0.0001   -0.0002
          36   -0.0820    0.0541   -0.3231   -0.0163    0.0163    0.0003   -0.0002    0.0004
          37   -0.0265    0.0153    0.1335    0.0068   -0.0052    0.0002   -0.0002   -0.0002
          38   -0.0435    0.0287    0.2173    0.0100   -0.0103    0.0005   -0.0002   -0.0002
          39   -0.0648    0.0393    0.3936    0.0187   -0.0181    0.0007   -0.0003   -0.0005
          40   -0.0001    0.0000    0.0003   -0.0000   -0.0001   -0.1459    0.0000    0.0001
          41   -0.0002    0.0001    0.0005   -0.0001    0.0000   -0.4242    0.0001    0.0002
          42    0.0001   -0.0001   -0.0002    0.0000    0.0000    0.1241   -0.0001   -0.0001
          43    0.0000    0.0000   -0.0001    0.0001   -0.0001    0.1197   -0.0000    0.0000
          44   -0.0000    0.0000   -0.0001   -0.0000    0.0000   -0.0537    0.0000   -0.0000
          45    0.0002   -0.0001    0.0000    0.0003   -0.0002    0.4490   -0.0001    0.0000
          46    0.0049    0.0033   -0.0001    0.0033    0.0010   -0.0001   -0.1402    0.0507
          47    0.0050    0.0021   -0.0002    0.0065    0.0007   -0.0001   -0.2227    0.1070
          48   -0.0111   -0.0061    0.0005   -0.0122   -0.0021    0.0001    0.3436   -0.1948
          49   -0.0049   -0.0033   -0.0001    0.0035    0.0011    0.0001    0.1410    0.0527
          50   -0.0051   -0.0022   -0.0002    0.0067    0.0008    0.0001    0.2247    0.1108
          51   -0.0110   -0.0061   -0.0004    0.0122    0.0022    0.0001    0.3386    0.1965
          52    0.0001    0.0000   -0.0009    0.0311    0.0117    0.0001   -0.0024    0.4242
          53    0.0000    0.0000   -0.0002    0.0033    0.0009   -0.0000   -0.0001    0.0029
          54    0.0003    0.0001   -0.0000   -0.0001   -0.0000    0.0000   -0.0285   -0.0010
          55    0.0002   -0.0001    0.0004   -0.0001    0.0002   -0.0000   -0.0000   -0.0000
          56   -0.0001    0.0001   -0.0005    0.0000   -0.0002    0.0009   -0.0000    0.0000
          57   -0.0002    0.0001   -0.0006    0.0000   -0.0002   -0.0009    0.0000    0.0000


   Root No.      49        50        51

                49 A      50 A      51 A   

                3099.9    3181.5    3289.2
  
           1   -0.0000   -0.0001    0.0001
           2    0.0000   -0.0002   -0.0001
           3   -0.0000    0.0000   -0.0000
           4   -0.0000   -0.0004   -0.0000
           5   -0.0000    0.0003    0.0000
           6    0.0000   -0.0000    0.0000
           7   -0.0001    0.0000    0.0009
           8    0.0001   -0.0000   -0.0000
           9    0.0001    0.0000    0.0003
          10   -0.0207   -0.0000    0.0024
          11   -0.0290   -0.0000    0.0038
          12   -0.0251   -0.0000    0.0034
          13    0.0000   -0.0107   -0.0000
          14    0.0000    0.0222    0.0000
          15    0.0000   -0.0001   -0.0000
          16    0.0020    0.0000   -0.0142
          17   -0.0007   -0.0000    0.0036
          18   -0.0005   -0.0000    0.0023
          19   -0.0014   -0.0000    0.0513
          20    0.0004    0.0000   -0.0559
          21    0.0003    0.0000   -0.0441
          22   -0.0001    0.0005   -0.0001
          23   -0.0001    0.0014   -0.0002
          24    0.0001   -0.0021    0.0004
          25   -0.0001    0.0005   -0.0000
          26   -0.0001    0.0014   -0.0003
          27   -0.0001    0.0021   -0.0003
          28    0.0000    0.0005    0.0000
          29    0.0000    0.0023    0.0000
          30   -0.0000   -0.0025   -0.0001
          31    0.0000    0.0006   -0.0000
          32    0.0000    0.0023   -0.0000
          33    0.0000    0.0025    0.0000
          34   -0.0002    0.0000    0.0005
          35   -0.0000    0.0000    0.0011
          36    0.0000   -0.0000   -0.0016
          37    0.0001    0.0000    0.0003
          38   -0.0003   -0.0000    0.0003
          39   -0.0004    0.0000    0.0002
          40    0.1369    0.0000   -0.0009
          41    0.4249    0.0000   -0.0025
          42   -0.1540   -0.0000    0.0024
          43    0.1078    0.0000   -0.0007
          44   -0.0819    0.0000    0.0020
          45    0.4501    0.0000   -0.0031
          46   -0.0000   -0.1021   -0.0000
          47   -0.0000   -0.1447   -0.0001
          48    0.0000    0.2585    0.0001
          49   -0.0000   -0.1033   -0.0000
          50   -0.0000   -0.1472   -0.0001
          51   -0.0001   -0.2568   -0.0001
          52   -0.0002    0.3352    0.0001
          53   -0.0000    0.0195    0.0001
          54   -0.0000   -0.0008    0.0000
          55   -0.0039    0.0001   -0.4812
          56    0.0062   -0.0001    0.5770
          57    0.0050   -0.0001    0.4574


           MASS-WEIGHTED COORDINATE ANALYSIS (NORMAL COORDINATES)


   Root No.       1         2         3         4         5         6         7         8

                 1 A       2 A       3 A       4 A       5 A       6 A       7 A       8 A   

                  72.2      78.3     103.8     125.5     205.9     293.3     353.7     396.4
  
           1    0.0146   -0.0036    0.0037   -0.0057   -0.0053    0.3987    0.0790    0.0691
           2   -0.0229    0.0054    0.0220   -0.3083   -0.0061    0.2352    0.0117    0.1788
           3   -0.3716    0.3804    0.3584    0.0820    0.1135    0.0313   -0.0977    0.0093
           4    0.0156   -0.0037    0.0035    0.0081   -0.0052    0.4160    0.0914    0.1344
           5    0.0064   -0.0018    0.0044   -0.0028   -0.0027    0.1118   -0.0150   -0.3543
           6    0.1075   -0.2753    0.4074    0.0071   -0.2151   -0.0058    0.0065    0.0023
           7    0.0010    0.0010    0.0162   -0.1119   -0.0019   -0.0893   -0.0661   -0.1037
           8   -0.0279    0.0087    0.0275   -0.3502   -0.0042    0.0128   -0.0327    0.2335
           9   -0.3760   -0.0098   -0.3349    0.0530    0.0390    0.0734   -0.1737    0.0027
          10   -0.1477    0.0431   -0.0575   -0.3109    0.0170   -0.3567    0.1880   -0.1274
          11    0.2097    0.2197   -0.0030    0.2828   -0.0085    0.0493    0.0626    0.0164
          12   -0.0312   -0.3425    0.0048   -0.0318    0.0119   -0.0299   -0.0701    0.0287
          13    0.0463   -0.0090   -0.0176    0.4092    0.0053   -0.2010    0.0198    0.4318
          14    0.0196   -0.0027   -0.0069    0.1607    0.0028   -0.1637   -0.0566   -0.3107
          15    0.3098    0.0630   -0.3334   -0.0302    0.0281   -0.0004    0.0031    0.0015
          16   -0.0080    0.0000    0.0098   -0.1051   -0.0011   -0.1313   -0.0958   -0.1853
          17   -0.0346   -0.0183   -0.0004   -0.1466    0.0011   -0.3017   -0.0858    0.3166
          18   -0.0586    0.0043   -0.1363    0.0029    0.0374   -0.0437    0.6421   -0.0920
          19    0.0810   -0.0297    0.0503    0.0611   -0.0111    0.0002   -0.2537   -0.3200
          20   -0.1768   -0.2342   -0.0443    0.3040    0.0179    0.0217    0.0943    0.0075
          21    0.4164    0.2044    0.0483   -0.0826   -0.0176   -0.0432   -0.0765    0.0108
          22   -0.0707    0.1066   -0.0077    0.0354    0.0520    0.1447    0.0173   -0.0002
          23   -0.0356    0.1139    0.1214   -0.0948    0.0400    0.0441    0.0077    0.0698
          24   -0.1577    0.2265    0.1714    0.0350    0.0829    0.0087   -0.0281    0.0040
          25    0.0846   -0.1098    0.0068    0.0114   -0.0552    0.1345    0.0436   -0.0029
          26    0.0191   -0.1095   -0.1062   -0.1140   -0.0432    0.0545   -0.0119    0.0662
          27   -0.1579    0.2265    0.1714    0.0350    0.0830    0.0076   -0.0281    0.0049
          28    0.0813   -0.1095    0.0124   -0.0484   -0.0441    0.1581    0.0513    0.0559
          29    0.0018   -0.1070    0.1299    0.0273   -0.0590   -0.0042    0.0018   -0.1159
          30    0.0641   -0.1924    0.2025   -0.0027   -0.1163   -0.0058    0.0173   -0.0005
          31   -0.0786    0.1084   -0.0060   -0.0237    0.0394    0.1710    0.0150    0.0594
          32    0.0066    0.1043   -0.1297    0.0252    0.0582    0.0027   -0.0206   -0.1140
          33    0.0641   -0.1932    0.2034   -0.0027   -0.1167   -0.0073    0.0169   -0.0008
          34   -0.0491   -0.0094   -0.0328   -0.0225   -0.0031   -0.0494   -0.2390   -0.0069
          35   -0.0266   -0.0714   -0.1310   -0.1023   -0.0165    0.0626   -0.1155    0.0803
          36   -0.1413   -0.0542   -0.2018    0.0177    0.0004    0.0492   -0.2149    0.0206
          37    0.0489    0.0090    0.0435   -0.0377    0.0032   -0.1072    0.1777   -0.0560
          38    0.0108    0.0759    0.1467   -0.0997    0.0134    0.0158    0.1103    0.0577
          39   -0.1394   -0.0525   -0.1991    0.0175    0.0007    0.0463   -0.2058    0.0163
          40   -0.0244    0.0179    0.0027   -0.2051    0.0000   -0.2005   -0.0502    0.0572
          41    0.0239    0.0155   -0.0071    0.1224    0.0006    0.0468    0.0334   -0.0225
          42   -0.1041   -0.2429    0.0021   -0.0032    0.0077   -0.0088   -0.0866    0.0233
          43   -0.1124    0.0232   -0.0603   -0.0587    0.0166   -0.1004    0.2770   -0.0938
          44    0.1857    0.2093    0.0111    0.0998   -0.0104    0.0427    0.0282   -0.0201
          45    0.0270   -0.0805    0.0142   -0.0148   -0.0007   -0.0058   -0.0765    0.0195
          46   -0.0681    0.0854   -0.0251    0.1811   -0.4456   -0.1472    0.0025    0.1788
          47    0.0068    0.0955   -0.1418    0.0180   -0.1331   -0.0023   -0.0081   -0.1197
          48    0.0607    0.1110   -0.1922   -0.0041   -0.2388   -0.0031    0.0050   -0.0003
          49    0.1020   -0.0916    0.0098    0.1529    0.4501   -0.1382   -0.0111    0.1799
          50    0.0002   -0.0953    0.1395    0.0199    0.1310    0.0004   -0.0139   -0.1191
          51    0.0603    0.1122   -0.1936   -0.0041   -0.2419   -0.0022    0.0054    0.0005
          52    0.0136   -0.0028   -0.0051    0.1186    0.0027   -0.0591    0.0057    0.1275
          53    0.0131   -0.0027   -0.0064    0.1411    0.0059   -0.2134   -0.0370    0.0060
          54    0.1955   -0.0922   -0.0755   -0.0267    0.5677    0.0064   -0.0076    0.0007
          55    0.0630   -0.0212    0.0329    0.0872   -0.0082    0.0674   -0.1603   -0.1503
          56   -0.1142   -0.1481   -0.0241    0.1653    0.0115    0.0699    0.1000   -0.0721
          57    0.2416    0.1474    0.0474   -0.0484   -0.0182   -0.0219   -0.2038    0.0384


   Root No.       9        10        11        12        13        14        15        16

                 9 A      10 A      11 A      12 A      13 A      14 A      15 A      16 A   

                 516.6     765.4     811.9     813.3     834.7     906.0     947.2     958.1
  
           1    0.1720    0.0003   -0.0038    0.0106   -0.0041   -0.0334    0.1346    0.2696
           2   -0.2894    0.0074    0.0789   -0.0992    0.0338   -0.0337    0.0713    0.1186
           3    0.0031   -0.2055   -0.0116   -0.0117    0.0794    0.2030    0.1591   -0.0504
           4    0.2495    0.0009   -0.0062   -0.0135    0.0036    0.0367   -0.0832   -0.1299
           5    0.1882   -0.0015   -0.0052   -0.0023    0.0009    0.0162   -0.0374   -0.0537
           6    0.0018   -0.1367   -0.0789   -0.1273   -0.2178   -0.0829    0.0279   -0.0281
           7   -0.0780   -0.0455   -0.2107    0.4201   -0.1378   -0.0321    0.0256   -0.0172
           8   -0.3591   -0.0107   -0.0518    0.0992   -0.0330    0.0171   -0.0680   -0.1352
           9   -0.0300   -0.1717    0.0829    0.1443    0.2548   -0.1294   -0.2226    0.0845
          10    0.1034    0.0669    0.1345   -0.3096    0.0510    0.0389    0.0299    0.0178
          11    0.0414    0.0014   -0.0203    0.0544   -0.0305   -0.0259    0.0510    0.0199
          12    0.0538    0.0210   -0.0518    0.0229   -0.0433    0.0530    0.0309    0.0155
          13   -0.1286    0.0031    0.0119   -0.0304    0.0092    0.0336   -0.1562   -0.3388
          14    0.0465   -0.0068   -0.0329    0.0639   -0.0212   -0.0079    0.0099    0.0024
          15    0.0006    0.0066   -0.0105   -0.0189   -0.0535   -0.0989   -0.1415    0.0643
          16   -0.0897   -0.0266   -0.0565    0.1419   -0.0262   -0.0332    0.0156    0.0122
          17    0.4942   -0.0241   -0.0574    0.0740   -0.0142    0.1351   -0.1446    0.0890
          18   -0.1160    0.0581   -0.0491    0.0804   -0.0856   -0.1700    0.1638   -0.1231
          19   -0.2681   -0.0132    0.0966   -0.1155    0.0716   -0.0382    0.0241    0.0062
          20    0.0689    0.0038    0.2233   -0.1476    0.0237   -0.1468    0.1438   -0.0722
          21    0.0333    0.0777   -0.1117   -0.2129    0.0308    0.2634   -0.1373    0.1108
          22    0.1145    0.2115    0.0592    0.0527    0.0800   -0.1293   -0.1844    0.2796
[...]

 VIBRATION   30   30A         ATOM PAIR      ENERGY CONTRIBUTION    RADIAL
 FREQ.      1335.57         C  2 -- H 10         +11.3% ( 46.8%)      0.0%
 T-DIPOLE    0.0727         C  2 -- H 11         +11.2% ( 46.7%)      0.0%
 TRAVEL      0.0907         C  3 -- H 13          +9.4% ( 42.9%)      0.0%
 RED. MASS   0.8640         C  3 -- H 12          +9.4% ( 42.8%)      0.1%
 EFF. MASS   6.1416

 VIBRATION   31   31A         ATOM PAIR      ENERGY CONTRIBUTION    RADIAL
 FREQ.      1377.32         C  3 -- H 12         +22.8% ( 48.9%)      4.6%
 T-DIPOLE    0.0659         C  3 -- H 13         +22.5% ( 48.7%)      5.2%
 TRAVEL      0.1375         C  1 -- C  3          +7.2% ( 27.4%)     91.4%
 RED. MASS   0.2668         C  3 -- C  6          +7.1% ( 27.2%)     23.1%
 EFF. MASS   2.5899

 VIBRATION   32   32A         ATOM PAIR      ENERGY CONTRIBUTION    RADIAL
 FREQ.      1388.52         C  3 -- H 12         +12.1% ( 41.1%)      3.4%
 T-DIPOLE    0.0501         C  3 -- H 13         +11.3% ( 39.8%)      4.7%
 TRAVEL      0.1087         C  2 -- H 11          +9.6% ( 36.6%)      3.4%
 RED. MASS   0.3421         C  2 -- H 10          +9.5% ( 36.5%)      3.4%
 EFF. MASS   4.1063

 VIBRATION   33   33A         ATOM PAIR      ENERGY CONTRIBUTION    RADIAL
 FREQ.      1404.22         C  1 -- H  9         +20.0% ( 52.0%)      3.4%
 T-DIPOLE    0.0755         C  1 -- H  8         +19.8% ( 51.8%)      3.6%
 TRAVEL      0.1087         C  1 -- C  3         +15.1% ( 45.2%)     99.8%
 RED. MASS   0.4987         C  1 -- C  2          +7.0% ( 30.8%)     21.5%
 EFF. MASS   4.0627

 VIBRATION   34   34A         ATOM PAIR      ENERGY CONTRIBUTION    RADIAL
 FREQ.      1408.43         C  5 -- H 18         +52.9% ( 62.6%)      0.0%
 T-DIPOLE    0.0437         C  5 -- H 17         +21.5% ( 39.9%)     10.5%
 TRAVEL      0.1768         C  5 -- H 16         +20.7% ( 39.1%)     11.3%
 RED. MASS   0.4125         C  2 -- C  5          +4.8% ( 18.9%)      0.0%
 EFF. MASS   1.5324

 VIBRATION   35   35A         ATOM PAIR      ENERGY CONTRIBUTION    RADIAL
 FREQ.      1411.62         C  5 -- H 16         +40.0% ( 55.4%)      1.0%
 T-DIPOLE    0.0416         C  5 -- H 17         +39.2% ( 54.9%)      1.1%
 TRAVEL      0.1707         C  5 -- H 18         +12.8% ( 31.3%)     34.9%
 RED. MASS   0.3882         C  2 -- C  5          +5.2% ( 20.0%)      8.1%
 EFF. MASS   1.6398

 VIBRATION   36   36A         ATOM PAIR      ENERGY CONTRIBUTION    RADIAL
 FREQ.      1419.10         C  1 -- C  2         +13.2% ( 43.4%)     97.5%
 T-DIPOLE    0.1477         C  1 -- H  8         +11.6% ( 40.7%)      3.6%
 TRAVEL      0.1029         C  1 -- H  9         +11.5% ( 40.5%)      3.7%
 RED. MASS   0.4242         C  2 -- H 10         +11.1% ( 39.8%)      4.2%
 EFF. MASS   4.4842         C  2 -- H 11         +11.1% ( 39.7%)      4.2%

 VIBRATION   37   37A         ATOM PAIR      ENERGY CONTRIBUTION    RADIAL
 FREQ.      1429.19         C  4 -- H 15         +15.0% ( 48.7%)      5.3%
 T-DIPOLE    0.1440         C  4 -- H 14         +15.0% ( 48.7%)      5.4%
 TRAVEL      0.0989         C  4 -- C  7         +10.1% ( 40.1%)     89.9%
 RED. MASS   0.4578         C  2 -- C  5          +8.2% ( 35.9%)     98.0%
 EFF. MASS   4.8281

 VIBRATION   38   38A         ATOM PAIR      ENERGY CONTRIBUTION    RADIAL
 FREQ.      1434.92         C  2 -- C  5         +11.5% ( 48.3%)     95.0%
 T-DIPOLE    0.0906         C  1 -- C  2         +11.0% ( 47.1%)     56.7%
 TRAVEL      0.0816         C  1 -- C  3          +8.7% ( 41.9%)     64.7%
 RED. MASS   0.8552         C  2 -- H 10          +6.7% ( 36.9%)      0.7%
 EFF. MASS   7.0584

 VIBRATION   39   39A         ATOM PAIR      ENERGY CONTRIBUTION    RADIAL
 FREQ.      2083.56         C  6 -- C  7         +39.2% ( 93.1%)     98.6%
 T-DIPOLE    0.3323         C  3 -- C  6         +21.5% ( 68.9%)     96.3%
 TRAVEL      0.0523         C  4 -- C  6         +21.0% ( 68.1%)     67.4%
 RED. MASS   5.2897         C  4 -- C  7          +9.0% ( 44.5%)     68.2%
 EFF. MASS  11.8373

 VIBRATION   40   40A         ATOM PAIR      ENERGY CONTRIBUTION    RADIAL
 FREQ.      2935.17         C  3 -- H 12         +48.7% ( 72.6%)     97.3%
 T-DIPOLE    0.0307         C  3 -- H 13         +34.0% ( 60.7%)     95.3%
 TRAVEL      0.1218         C  1 -- H  8          +5.8% ( 25.0%)     96.0%
 RED. MASS   0.3924         C  1 -- H  9          +5.8% ( 25.0%)     96.1%
 EFF. MASS   1.5482

 VIBRATION   41   41A         ATOM PAIR      ENERGY CONTRIBUTION    RADIAL
 FREQ.      2948.99         C  2 -- H 10         +33.9% ( 60.6%)     96.4%
 T-DIPOLE    0.0372         C  2 -- H 11         +33.9% ( 60.5%)     96.4%
 TRAVEL      0.1216         C  1 -- H  9          +9.7% ( 32.4%)     96.4%
 RED. MASS   0.2755         C  1 -- H  8          +9.4% ( 31.8%)     96.2%
 EFF. MASS   1.5453

 VIBRATION   42   42A         ATOM PAIR      ENERGY CONTRIBUTION    RADIAL
 FREQ.      2962.22         C  1 -- H  9         +34.4% ( 60.7%)     96.7%
 T-DIPOLE    0.0252         C  1 -- H  8         +33.1% ( 59.5%)     96.5%
 TRAVEL      0.1221         C  2 -- H 10         +13.2% ( 37.6%)     96.7%
 RED. MASS   0.2839         C  2 -- H 11         +13.1% ( 37.5%)     96.7%
 EFF. MASS   1.5273

 VIBRATION   43   43A         ATOM PAIR      ENERGY CONTRIBUTION    RADIAL
 FREQ.      3013.66         C  3 -- H 13         +58.9% ( 75.7%)     98.6%
 T-DIPOLE    0.0718         C  3 -- H 12         +39.1% ( 61.7%)     96.2%
 TRAVEL      0.1323         C  1 -- C  3          +0.7% (  8.0%)     31.2%
 RED. MASS   0.4942         C  3 -- C  6          +0.6% (  7.9%)     29.6%
 EFF. MASS   1.2782

 VIBRATION   44   44A         ATOM PAIR      ENERGY CONTRIBUTION    RADIAL
 FREQ.      3032.58         C  2 -- H 11         +45.9% ( 66.8%)     97.8%
 T-DIPOLE    0.0065         C  2 -- H 10         +45.7% ( 66.6%)     97.7%
 TRAVEL      0.1320         C  1 -- H  8          +3.1% ( 17.4%)     97.9%
 RED. MASS   0.4195         C  1 -- H  9          +3.0% ( 17.1%)     97.8%
 EFF. MASS   1.2755

 VIBRATION   45   45A         ATOM PAIR      ENERGY CONTRIBUTION    RADIAL
 FREQ.      3037.84         C  1 -- H  8         +47.0% ( 67.4%)     97.8%
 T-DIPOLE    0.0393         C  1 -- H  9         +45.3% ( 66.3%)     97.6%
 TRAVEL      0.1323         C  2 -- H 10          +3.1% ( 17.3%)     97.6%
 RED. MASS   0.4238         C  2 -- H 11          +3.1% ( 17.3%)     97.5%
 EFF. MASS   1.2684

 VIBRATION   46   46A         ATOM PAIR      ENERGY CONTRIBUTION    RADIAL
 FREQ.      3054.08         C  4 -- H 15         +49.2% ( 72.4%)     97.3%
 T-DIPOLE    0.0391         C  4 -- H 14         +48.8% ( 72.1%)     97.2%
 TRAVEL      0.1202         C  4 -- C  7          +1.0% ( 10.3%)      0.0%
 RED. MASS   0.5172         C  4 -- C  6          +1.0% ( 10.3%)      0.0%
 EFF. MASS   1.5273

 VIBRATION   47   47A         ATOM PAIR      ENERGY CONTRIBUTION    RADIAL
 FREQ.      3078.63         C  5 -- H 16         +49.2% ( 72.4%)     97.1%
 T-DIPOLE    0.0030         C  5 -- H 17         +48.6% ( 71.9%)     97.0%
 TRAVEL      0.1208         C  2 -- C  5          +1.0% ( 10.2%)      0.0%
 RED. MASS   0.5063         C  5 -- H 18          +0.9% ( 10.0%)      0.0%
 EFF. MASS   1.5012

 VIBRATION   48   48A         ATOM PAIR      ENERGY CONTRIBUTION    RADIAL
 FREQ.      3084.81         C  5 -- H 18         +61.7% ( 81.0%)     98.8%
 T-DIPOLE    0.0059         C  5 -- H 17         +18.7% ( 44.6%)     86.0%
 TRAVEL      0.1206         C  5 -- H 16         +18.1% ( 43.9%)     85.5%
 RED. MASS   0.4764         C  2 -- C  5          +1.0% ( 10.3%)      0.0%
 EFF. MASS   1.5032

 VIBRATION   49   49A         ATOM PAIR      ENERGY CONTRIBUTION    RADIAL
 FREQ.      3099.90         C  4 -- H 14         +49.3% ( 69.8%)     96.5%
 T-DIPOLE    0.0062         C  4 -- H 15         +48.8% ( 69.5%)     96.4%
 TRAVEL      0.1291         C  4 -- C  6          +0.9% (  9.6%)     84.2%
 RED. MASS   0.4842         C  4 -- C  7          +0.9% (  9.5%)     83.0%
 EFF. MASS   1.3046

 VIBRATION   50   50A         ATOM PAIR      ENERGY CONTRIBUTION    RADIAL
 FREQ.      3181.51         C  5 -- H 18         +36.7% ( 58.2%)     97.6%
 T-DIPOLE    0.0205         C  5 -- H 17         +31.5% ( 54.0%)     96.8%
 TRAVEL      0.1365         C  5 -- H 16         +31.5% ( 54.0%)     96.8%
 RED. MASS   0.3284         C  2 -- C  5          +0.3% (  5.1%)     99.6%
 EFF. MASS   1.1369

 VIBRATION   51   51A         ATOM PAIR      ENERGY CONTRIBUTION    RADIAL
 FREQ.      3289.25         C  7 -- H 19         +94.1% ( 99.7%)    100.0%
 T-DIPOLE    0.7120         C  6 -- C  7          +3.1% ( 18.1%)     87.7%
 TRAVEL      0.1082         C  4 -- C  7          +2.6% ( 16.6%)     67.4%
 RED. MASS   0.9340
 EFF. MASS   1.7508

      SYMMETRY NUMBER FOR POINT-GROUP C1  =  1


          SYSTEM IS A GROUND STATE



 InChI=1S/C7H12/c1-2-3-4-7-5-6-7/h5H,2-4,6H2,1H3


          MOLECULE IS NOT LINEAR

          THERE ARE 51 GENUINE VIBRATIONS IN THIS SYSTEM
          THIS THERMODYNAMICS CALCULATION IS LIMITED TO
          MOLECULES WHICH HAVE NO INTERNAL ROTATIONS




                    CALCULATED THERMODYNAMIC PROPERTIES
                                          *
   TEMP. (K)   PARTITION FUNCTION   H.O.F.    ENTHALPY  HEAT CAPACITY ENTROPY
                                   KCAL/MOL   CAL/MOLE    CAL/K/MOL  CAL/K/MOL


 298.00  VIB.     0.2378D+03                  3549.6087    23.8635    22.7844
         ROT.     0.2913D+06                   888.2813     2.9808    27.9841
         INT.     0.6927D+08                  4437.8900    26.8443    50.7685
         TRA.     0.9118D+27                  1480.4688     4.9680    39.5994
         TOT.                       41.952    5918.3588    31.8123    90.3679

 200.00  VIB.     0.3254D+02                  1646.0592    15.3982    15.1505
         ROT.     0.1602D+06                   596.1620     2.9808    26.7954
         INT.     0.5211D+07                  2242.2211    18.3790    41.9459
         TRA.     0.5013D+27                   993.6033     4.9680    37.6183
         TOT.                       39.269    3235.8244    23.3470    79.5642

 210.00  VIB.     0.4000D+02                  1803.7062    16.1366    15.9195
         ROT.     0.1723D+06                   625.9700     2.9808    26.9408
         INT.     0.6893D+07                  2429.6762    19.1174    42.8603
         TRA.     0.5394D+27                  1043.2834     4.9680    37.8607
         TOT.                       39.506    3472.9596    24.0854    80.7210

 220.00  VIB.     0.4911D+02                  1968.8983    16.9072    16.6879
         ROT.     0.1848D+06                   655.7781     2.9808    27.0795
         INT.     0.9075D+07                  2624.6765    19.8880    43.7674
         TRA.     0.5784D+27                  1092.9636     4.9680    38.0918
         TOT.                       39.751    3717.6400    24.8561    81.8591

 230.00  VIB.     0.6024D+02                  2141.9577    17.7099    17.4570
         ROT.     0.1975D+06                   685.5862     2.9808    27.2120
         INT.     0.1190D+08                  2827.5439    20.6907    44.6690
         TRA.     0.6182D+27                  1142.6437     4.9680    38.3126
         TOT.                       40.004    3970.1876    25.6587    82.9816

 240.00  VIB.     0.7382D+02                  2323.1994    18.5435    18.2282
         ROT.     0.2105D+06                   715.3943     2.9808    27.3389
         INT.     0.1554D+08                  3038.5937    21.5243    45.5671
         TRA.     0.6590D+27                  1192.3239     4.9680    38.5241
         TOT.                       40.264    4230.9176    26.4923    84.0912

 250.00  VIB.     0.9040D+02                  2512.9234    19.4060    19.0026
         ROT.     0.2238D+06                   745.2024     2.9808    27.4605
         INT.     0.2024D+08                  3258.1258    22.3868    46.4631
         TRA.     0.7006D+27                  1242.0041     4.9680    38.7269
         TOT.                       40.533    4500.1299    27.3548    85.1900

 260.00  VIB.     0.1106D+03                  2711.4079    20.2951    19.7810
         ROT.     0.2374D+06                   775.0105     2.9808    27.5774
         INT.     0.2627D+08                  3486.4184    23.2759    47.3584
         TRA.     0.7431D+27                  1291.6842     4.9680    38.9217
         TOT.                       40.811    4778.1026    28.2439    86.2801

 270.00  VIB.     0.1354D+03                  2918.9045    21.2079    20.5640
         ROT.     0.2512D+06                   804.8186     2.9808    27.6899
         INT.     0.3401D+08                  3723.7232    24.1887    48.2539
         TRA.     0.7864D+27                  1341.3644     4.9680    39.1092
         TOT.                       41.098    5065.0875    29.1568    87.3631

 280.00  VIB.     0.1656D+03                  3135.6354    22.1414    21.3521
         ROT.     0.2653D+06                   834.6267     2.9808    27.7983
         INT.     0.4393D+08                  3970.2621    25.1222    49.1504
         TRA.     0.8304D+27                  1391.0445     4.9680    39.2899
         TOT.                       41.395    5361.3067    30.0902    88.4403

 290.00  VIB.     0.2025D+03                  3361.7910    23.0923    22.1456
         ROT.     0.2796D+06                   864.4348     2.9808    27.9029
         INT.     0.5662D+08                  4226.2259    26.0731    50.0485
         TRA.     0.8753D+27                  1440.7247     4.9680    39.4642
         TOT.                       41.700    5666.9506    31.0412    89.5127

 300.00  VIB.     0.2476D+03                  3597.5295    24.0575    22.9447
         ROT.     0.2942D+06                   894.2429     2.9808    28.0040
         INT.     0.7285D+08                  4491.7725    27.0383    50.9487
         TRA.     0.9210D+27                  1490.4049     4.9680    39.6326
         TOT.                       42.016    5982.1773    32.0063    90.5813

 310.00  VIB.     0.3027D+03                  3842.9768    25.0336    23.7494
         ROT.     0.3091D+06                   924.0510     2.9808    28.1017
         INT.     0.9357D+08                  4767.0278    28.0144    51.8511
         TRA.     0.9674D+27                  1540.0850     4.9680    39.7955
         TOT.                       42.340    6307.1129    32.9824    91.6467

 320.00  VIB.     0.3703D+03                  4098.2274    26.0176    24.5597
         ROT.     0.3241D+06                   953.8591     2.9808    28.1964
         INT.     0.1200D+09                  5052.0865    28.9984    52.7561
         TRA.     0.1015D+28                  1589.7652     4.9680    39.9533
         TOT.                       42.675    6641.8517    33.9664    92.7094

 330.00  VIB.     0.4529D+03                  4363.3459    27.0067    25.3754
         ROT.     0.3395D+06                   983.6672     2.9808    28.2881
         INT.     0.1537D+09                  5347.0131    29.9875    53.6635
         TRA.     0.1063D+28                  1639.4454     4.9680    40.1062
         TOT.                       43.020    6986.4584    34.9555    93.7697

 340.00  VIB.     0.5542D+03                  4638.3685    27.9980    26.1964
         ROT.     0.3550D+06                  1013.4753     2.9808    28.3771
         INT.     0.1967D+09                  5651.8439    30.9788    54.5735
         TRA.     0.1111D+28                  1689.1255     4.9680    40.2545
         TOT.                       43.374    7340.9694    35.9469    94.8279

 350.00  VIB.     0.6783D+03                  4923.3057    28.9892    27.0223
         ROT.     0.3708D+06                  1043.2834     2.9808    28.4635
         INT.     0.2515D+09                  5966.5891    31.9700    55.4858
         TRA.     0.1161D+28                  1738.8057     4.9680    40.3985
         TOT.                       43.739    7705.3948    36.9380    95.8843

 360.00  VIB.     0.8305D+03                  5218.1435    29.9778    27.8528
         ROT.     0.3868D+06                  1073.0915     2.9808    28.5475
         INT.     0.3212D+09                  6291.2350    32.9586    56.4003
         TRA.     0.1211D+28                  1788.4859     4.9680    40.5384
         TOT.                       44.113    8079.7209    37.9266    96.9387

 370.00  VIB.     0.1017D+04                  5522.8468    30.9619    28.6876
         ROT.     0.4030D+06                  1102.8996     2.9808    28.6291
         INT.     0.4099D+09                  6625.7464    33.9427    57.3167
         TRA.     0.1261D+28                  1838.1660     4.9680    40.6745
         TOT.                       44.497    8463.9124    38.9108    97.9913

 380.00  VIB.     0.1246D+04                  5837.3609    31.9397    29.5263
         ROT.     0.4195D+06                  1132.7077     2.9808    28.7086
         INT.     0.5228D+09                  6970.0686    34.9205    58.2349
         TRA.     0.1313D+28                  1887.8462     4.9680    40.8070
         TOT.                       44.891    8857.9147    39.8885    99.0420

 390.00  VIB.     0.1528D+04                  6161.6141    32.9095    30.3685
         ROT.     0.4361D+06                  1162.5158     2.9808    28.7861
         INT.     0.6664D+09                  7324.1299    35.8903    59.1546
         TRA.     0.1365D+28                  1937.5263     4.9680    40.9361
         TOT.                       45.295    9261.6562    40.8583   100.0906

 400.00  VIB.     0.1874D+04                  6495.5200    33.8700    31.2138
         ROT.     0.4530D+06                  1192.3239     2.9808    28.8615
         INT.     0.8488D+09                  7687.8439    36.8508    60.0754
         TRA.     0.1418D+28                  1987.2065     4.9680    41.0619
         TOT.                       45.708    9675.0504    41.8188   101.1372

   *: NOTE: HEATS OF FORMATION ARE RELATIVE TO THE
            ELEMENTS IN THEIR STANDARD STATE AT 298K
              (=  Standard Enthalpy of Formation).

            Hvib:  Zero-point energy is not included.
                   frequencies of less than zero cm-1 are not included.
            Hrot = (3/2)RT
            Htra = (3/2)RT + pV = (5/2)RT

            Heat capacity is Cp, not Cv

          For more information, see: HTTP://OpenMOPAC.net/Manual/thermochemistry.html


           FORCE CONSTANT IN CARTESIAN COORDINATES (Millidynes/A)

    ATOM   CHEMICAL       X               Y               Z
   NUMBER   SYMBOL  FORCE CONSTANT  FORCE CONSTANT  FORCE CONSTANT

      1       C        8.352883        8.301763        8.165753
      2       C        8.176089        8.552378        8.176324
      3       C        9.876988        8.004364        7.972275
      4       C        6.021270        9.267721        8.977953
      5       C        8.453757        8.253369        8.189143
      6       C       20.048913        4.841492        3.733587
      7       C       12.014671        8.672301        6.152374
      8       H        1.197687        1.704092        3.514707
      9       H        1.195721        1.711086        3.504633
     10       H        1.197358        1.696537        3.514227
     11       H        1.197482        1.721831        3.488537
     12       H        1.082554        1.711233        3.411390
     13       H        1.054502        1.707399        3.529229
     14       H        0.958633        4.409786        1.137594
     15       H        0.817356        0.821583        4.868869
     16       H        1.127743        1.848583        3.804167
     17       H        1.137787        1.884110        3.758804
     18       H        5.399122        0.728631        0.666993
     19       H        2.108304        2.739284        1.846473

 **********************
 *                    *
 * JOB ENDED NORMALLY *
 *                    *
 **********************



 TOTAL JOB TIME:             8.12 SECONDS

 == MOPAC DONE ==
