 *******************************************************************************
 ** Site#: 14399        For non-commercial use only    Version 18.184L 64BITS **
 *******************************************************************************
 ** Cite this program as: MOPAC2016, Version: 18.184L, James J. P. Stewart,   **
 ** Stewart Computational Chemistry, web: HTTP://OpenMOPAC.net. Days left:  20**
 *******************************************************************************
 **                                                                           **
 **                                MOPAC2016                                  **
 **                                                                           **
 *******************************************************************************

                              PM3 CALCULATION RESULTS

 *******************************************************************************
 *  CALCULATION DONE:                                Thu Jun 13 15:57:29 2019  *
 *  PM3        - The PM3 Hamiltonian to be used
 *  PRECISE    - CRITERIA TO BE INCREASED BY 100 TIMES
 *  NOSYM      - POINT-GROUP SYMMETRY SET TO C1
 *  THREADS=1  - MULTI-THREADING NOT USED
 *  T=         - A TIME OF 172800.0 SECONDS REQUESTED
 *  DUMP=N     - RESTART FILE WRITTEN EVERY  7200.000 SECONDS
 *******************************************************************************
pm3  precise nosym THREADS=1
 InChI=1S/C10H10/c1-3-6-10-8-5-4-7-9(10)2/h4-5,8H,2,7H2,1H3

   ATOM   CHEMICAL          X               Y               Z
  NUMBER   SYMBOL      (ANGSTROMS)     (ANGSTROMS)     (ANGSTROMS)
 
     1       C          2.37820000  *   0.76580000  *   0.07750000  *
     2       C         -4.05300000  *  -0.21330000  *  -0.40550000  *
     3       C          0.87870000  *   0.85240000  *  -0.11390000  *
     4       C          0.02800000  *  -0.35440000  *   0.09190000  *
     5       C          2.86350000  *  -0.60300000  *   0.47530000  *
     6       C          0.58960000  *  -1.51550000  *   0.44630000  *
     7       C          2.04140000  *  -1.64110000  *   0.64210000  *
     8       C          0.35040000  *   2.03090000  *  -0.46890000  *
     9       C         -2.60200000  *  -0.26450000  *  -0.22840000  *
    10       C         -1.40580000  *  -0.30560000  *  -0.08270000  *
    11       H          2.88270000  *   1.05040000  *  -0.87080000  *
    12       H          2.68600000  *   1.48540000  *   0.86640000  *
    13       H         -4.55180000  *  -0.48870000  *   0.54640000  *
    14       H         -4.35400000  *  -0.92620000  *  -1.20060000  *
    15       H         -4.35380000  *   0.81410000  *  -0.69690000  *
    16       H          3.92550000  *  -0.74560000  *   0.63120000  *
    17       H         -0.02390000  *  -2.39670000  *   0.59740000  *
    18       H          2.44950000  *  -2.60190000  *   0.92890000  *
    19       H          0.98370000  *   2.89770000  *  -0.61420000  *
    20       H         -0.71280000  *   2.15990000  *  -0.62160000  *
 


          CARTESIAN COORDINATES 

    NO.       ATOM           X           Y           Z

     1         C          2.3782      0.7658      0.0775
     2         C         -4.0530     -0.2133     -0.4055
     3         C          0.8787      0.8524     -0.1139
     4         C          0.0280     -0.3544      0.0919
     5         C          2.8635     -0.6030      0.4753
     6         C          0.5896     -1.5155      0.4463
     7         C          2.0414     -1.6411      0.6421
     8         C          0.3504      2.0309     -0.4689
     9         C         -2.6020     -0.2645     -0.2284
    10         C         -1.4058     -0.3056     -0.0827
    11         H          2.8827      1.0504     -0.8708
    12         H          2.6860      1.4854      0.8664
    13         H         -4.5518     -0.4887      0.5464
    14         H         -4.3540     -0.9262     -1.2006
    15         H         -4.3538      0.8141     -0.6969
    16         H          3.9255     -0.7456      0.6312
    17         H         -0.0239     -2.3967      0.5974
    18         H          2.4495     -2.6019      0.9289
    19         H          0.9837      2.8977     -0.6142
    20         H         -0.7128      2.1599     -0.6216

  H: (PM3): J. J. P. STEWART, J. COMP. CHEM. 10, 209 (1989).
  C: (PM3): J. J. P. STEWART, J. COMP. CHEM. 10, 209 (1989).

           Empirical Formula: C10 H10  =    20 atoms



      MOLECULAR POINT GROUP   :   C1  


      RHF CALCULATION, NO. OF DOUBLY OCCUPIED LEVELS = 25


          Geometry optimization using EF

          DIAGONAL MATRIX USED AS START HESSIAN

 CYCLE:     1 TIME:   0.027 TIME LEFT:  2.00D  GRAD.:    80.017 HEAT:  84.56503
 CYCLE:     2 TIME:   0.047 TIME LEFT:  2.00D  GRAD.:    46.528 HEAT:  83.11039
 CYCLE:     3 TIME:   0.055 TIME LEFT:  2.00D  GRAD.:    61.143 HEAT:  82.71841
 CYCLE:     4 TIME:   0.020 TIME LEFT:  2.00D  GRAD.:    47.315 HEAT:  82.28236
 CYCLE:     5 TIME:   0.031 TIME LEFT:  2.00D  GRAD.:    37.221 HEAT:  81.88278
 CYCLE:     6 TIME:   0.023 TIME LEFT:  2.00D  GRAD.:    28.409 HEAT:  81.69488
 CYCLE:     7 TIME:   0.020 TIME LEFT:  2.00D  GRAD.:    28.458 HEAT:  81.59223
 CYCLE:     8 TIME:   0.023 TIME LEFT:  2.00D  GRAD.:    25.640 HEAT:  81.46261
 CYCLE:     9 TIME:   0.023 TIME LEFT:  2.00D  GRAD.:    32.362 HEAT:  81.44861
 CYCLE:    10 TIME:   0.023 TIME LEFT:  2.00D  GRAD.:    36.058 HEAT:  81.38250
 CYCLE:    11 TIME:   0.031 TIME LEFT:  2.00D  GRAD.:    13.259 HEAT:  81.17900
 CYCLE:    12 TIME:   0.027 TIME LEFT:  2.00D  GRAD.:    15.183 HEAT:  81.13637
 CYCLE:    13 TIME:   0.020 TIME LEFT:  2.00D  GRAD.:    15.549 HEAT:  81.11204
 CYCLE:    14 TIME:   0.023 TIME LEFT:  2.00D  GRAD.:     7.081 HEAT:  81.05633
 CYCLE:    15 TIME:   0.023 TIME LEFT:  2.00D  GRAD.:    10.976 HEAT:  81.02324
 CYCLE:    16 TIME:   0.023 TIME LEFT:  2.00D  GRAD.:    16.206 HEAT:  80.98712
 CYCLE:    17 TIME:   0.023 TIME LEFT:  2.00D  GRAD.:     9.797 HEAT:  80.95430
 CYCLE:    18 TIME:   0.023 TIME LEFT:  2.00D  GRAD.:     6.055 HEAT:  80.93085
 CYCLE:    19 TIME:   0.020 TIME LEFT:  2.00D  GRAD.:     4.742 HEAT:  80.92307
 CYCLE:    20 TIME:   0.023 TIME LEFT:  2.00D  GRAD.:     2.781 HEAT:  80.91476
 CYCLE:    21 TIME:   0.023 TIME LEFT:  2.00D  GRAD.:     3.448 HEAT:  80.91142
 CYCLE:    22 TIME:   0.023 TIME LEFT:  2.00D  GRAD.:     2.324 HEAT:  80.90564
 CYCLE:    23 TIME:   0.023 TIME LEFT:  2.00D  GRAD.:     2.397 HEAT:  80.90047
 CYCLE:    24 TIME:   0.023 TIME LEFT:  2.00D  GRAD.:     1.872 HEAT:  80.89670
 CYCLE:    25 TIME:   0.023 TIME LEFT:  2.00D  GRAD.:     1.889 HEAT:  80.89316
 CYCLE:    26 TIME:   0.020 TIME LEFT:  2.00D  GRAD.:     1.796 HEAT:  80.89025
 CYCLE:    27 TIME:   0.031 TIME LEFT:  2.00D  GRAD.:     1.656 HEAT:  80.88797
 CYCLE:    28 TIME:   0.023 TIME LEFT:  2.00D  GRAD.:     1.177 HEAT:  80.88581
 CYCLE:    29 TIME:   0.023 TIME LEFT:  2.00D  GRAD.:     1.382 HEAT:  80.88368
 CYCLE:    30 TIME:   0.023 TIME LEFT:  2.00D  GRAD.:     1.037 HEAT:  80.88186
 CYCLE:    31 TIME:   0.020 TIME LEFT:  2.00D  GRAD.:     0.730 HEAT:  80.88109
 CYCLE:    32 TIME:   0.023 TIME LEFT:  2.00D  GRAD.:     0.791 HEAT:  80.88015
 CYCLE:    33 TIME:   0.023 TIME LEFT:  2.00D  GRAD.:     1.112 HEAT:  80.87851
 CYCLE:    34 TIME:   0.023 TIME LEFT:  2.00D  GRAD.:     1.342 HEAT:  80.87680
 CYCLE:    35 TIME:   0.023 TIME LEFT:  2.00D  GRAD.:     1.188 HEAT:  80.87501
 CYCLE:    36 TIME:   0.023 TIME LEFT:  2.00D  GRAD.:     1.159 HEAT:  80.87266
 CYCLE:    37 TIME:   0.020 TIME LEFT:  2.00D  GRAD.:     1.395 HEAT:  80.86847
 CYCLE:    38 TIME:   0.023 TIME LEFT:  2.00D  GRAD.:     1.482 HEAT:  80.86570
 CYCLE:    39 TIME:   0.023 TIME LEFT:  2.00D  GRAD.:     1.021 HEAT:  80.86209
 CYCLE:    40 TIME:   0.023 TIME LEFT:  2.00D  GRAD.:     0.774 HEAT:  80.85942
 CYCLE:    41 TIME:   0.023 TIME LEFT:  2.00D  GRAD.:     0.613 HEAT:  80.85819
 CYCLE:    42 TIME:   0.023 TIME LEFT:  2.00D  GRAD.:     0.387 HEAT:  80.85768
 CYCLE:    43 TIME:   0.023 TIME LEFT:  2.00D  GRAD.:     0.297 HEAT:  80.85738
 CYCLE:    44 TIME:   0.020 TIME LEFT:  2.00D  GRAD.:     0.231 HEAT:  80.85722
 CYCLE:    45 TIME:   0.023 TIME LEFT:  2.00D  GRAD.:     0.164 HEAT:  80.85712
 CYCLE:    46 TIME:   0.023 TIME LEFT:  2.00D  GRAD.:     0.135 HEAT:  80.85706
 CYCLE:    47 TIME:   0.023 TIME LEFT:  2.00D  GRAD.:     0.125 HEAT:  80.85701
 CYCLE:    48 TIME:   0.023 TIME LEFT:  2.00D  GRAD.:     0.088 HEAT:  80.85699
 CYCLE:    49 TIME:   0.023 TIME LEFT:  2.00D  GRAD.:     0.092 HEAT:  80.85696
 CYCLE:    50 TIME:   0.020 TIME LEFT:  2.00D  GRAD.:     0.089 HEAT:  80.85694
 CYCLE:    51 TIME:   0.023 TIME LEFT:  2.00D  GRAD.:     0.080 HEAT:  80.85690
 CYCLE:    52 TIME:   0.023 TIME LEFT:  2.00D  GRAD.:     0.082 HEAT:  80.85687
 CYCLE:    53 TIME:   0.023 TIME LEFT:  2.00D  GRAD.:     0.237 HEAT:  80.85689
 CYCLE:    54 TIME:   0.023 TIME LEFT:  2.00D  GRAD.:     0.116 HEAT:  80.85681
 CYCLE:    55 TIME:   0.023 TIME LEFT:  2.00D  GRAD.:     0.089 HEAT:  80.85678
 CYCLE:    56 TIME:   0.023 TIME LEFT:  2.00D  GRAD.:     0.203 HEAT:  80.85684
 CYCLE:    57 TIME:   0.020 TIME LEFT:  2.00D  GRAD.:     0.043 HEAT:  80.85674

     GRADIENT =  0.04294  IS LESS THAN CUTOFF =  0.05000



 -------------------------------------------------------------------------------
 pm3  precise nosym THREADS=1
 InChI=1S/C10H10/c1-3-6-10-8-5-4-7-9(10)2/h4-5,8H,2,7H2,1H3



     GEOMETRY OPTIMISED USING EIGENVECTOR FOLLOWING (EF).     
     SCF FIELD WAS ACHIEVED                                   


                              PM3 CALCULATION
                                                       MOPAC2016 (Version: 18.184L)
                                                       Thu Jun 13 15:57:30 2019
                                                       No. of days remaining =  20




          FINAL HEAT OF FORMATION =         80.85674 KCAL/MOL =     338.30462 KJ/MOL


          TOTAL ENERGY            =      -1336.22466 EV
          ELECTRONIC ENERGY       =      -6731.03326 EV  POINT GROUP:     C1  
          CORE-CORE REPULSION     =       5394.80860 EV
          COSMO AREA              =        185.86 SQUARE ANGSTROMS
          COSMO VOLUME            =        180.99 CUBIC ANGSTROMS

          GRADIENT NORM           =          0.04294 = 0.00960 PER ATOM
          IONIZATION POTENTIAL    =          8.421940 EV
          HOMO LUMO ENERGIES (EV) =         -8.422 -0.441
          NO. OF FILLED LEVELS    =         25
          MOLECULAR WEIGHT        =        130.1890

          MOLECULAR DIMENSIONS (Angstroms)

            Atom       Atom       Distance
            H    16    H    15     8.43709
            H    19    H    17     5.55074
            H    14    H    12     1.78192


          SCF CALCULATIONS        =         63
 
          WALL-CLOCK TIME         =          1.438 SECONDS
          COMPUTATION TIME        =          0.541 SECONDS




   ATOM   CHEMICAL          X               Y               Z
  NUMBER   SYMBOL      (ANGSTROMS)     (ANGSTROMS)     (ANGSTROMS)
 
     1       C          2.32440106  *   0.74343373  *   0.07579193  *
     2       C         -3.96833832  *  -0.17495056  *  -0.40678614  *
     3       C          0.84144100  *   0.83835542  *  -0.11437137  *
     4       C          0.03839969  *  -0.37002087  *   0.09819975  *
     5       C          2.83505893  *  -0.59237313  *   0.46843785  *
     6       C          0.60655405  *  -1.54502091  *   0.45705705  *
     7       C          2.03471524  *  -1.65245229  *   0.64461598  *
     8       C          0.29003754  *   2.00495077  *  -0.46863683  *
     9       C         -2.54964157  *  -0.23772620  *  -0.22876593  *
    10       C         -1.36550388  *  -0.29008506  *  -0.08079547  *
    11       H          2.83139904  *   1.05086069  *  -0.86277780  *
    12       H          2.64021460  *   1.47957389  *   0.84445710  *
    13       H         -4.48822628  *  -0.44578728  *   0.52181877  *
    14       H         -4.29089809  *  -0.86795336  *  -1.19522466  *
    15       H         -4.27930809  *   0.83882439  *  -0.69174681  *
    16       H          3.91864783  *  -0.67215108  *   0.61016747  *
    17       H         -0.00041331  *  -2.44312601  *   0.61404142  *
    18       H          2.43635592  *  -2.62889931  *   0.93472939  *
    19       H          0.87956487  *   2.90301171  *  -0.62756057  *
    20       H         -0.77880105  *   2.12928618  *  -0.61983876  *

                             CARTESIAN COORDINATES

   1    C        2.324401061     0.743433727     0.075791926
   2    C       -3.968338319    -0.174950562    -0.406786144
   3    C        0.841441000     0.838355420    -0.114371365
   4    C        0.038399689    -0.370020866     0.098199754
   5    C        2.835058925    -0.592373132     0.468437849
   6    C        0.606554054    -1.545020910     0.457057045
   7    C        2.034715236    -1.652452291     0.644615976
   8    C        0.290037538     2.004950772    -0.468636835
   9    C       -2.549641567    -0.237726204    -0.228765929
  10    C       -1.365503881    -0.290085063    -0.080795473
  11    H        2.831399037     1.050860691    -0.862777800
  12    H        2.640214598     1.479573886     0.844457099
  13    H       -4.488226283    -0.445787280     0.521818775
  14    H       -4.290898088    -0.867953356    -1.195224663
  15    H       -4.279308093     0.838824386    -0.691746809
  16    H        3.918647829    -0.672151076     0.610167472
  17    H       -0.000413314    -2.443126015     0.614041418
  18    H        2.436355915    -2.628899307     0.934729387
  19    H        0.879564866     2.903011708    -0.627560572
  20    H       -0.778801053     2.129286179    -0.619838756


           Empirical Formula: C10 H10  =    20 atoms



      MOLECULAR POINT GROUP   :   C1  


                  EIGENVALUES  
 -39.97505 -34.29485 -32.10932 -30.80019 -26.49679 -25.12329 -21.95586 -20.26943
 -18.20750 -16.79315 -16.49518 -15.95006 -15.13300 -15.10226 -14.71602 -14.64359
 -14.29430 -13.59084 -12.71286 -12.44358 -12.07582 -10.99359 -10.64736 -10.36762
  -8.42194  -0.44108   1.21768   1.61938   1.70881   2.54660   2.88559   3.20090
   3.30219   3.40562   3.70472   3.78527   3.96680   4.11958   4.27748   4.36652
   4.38693   4.40362   4.44207   4.82432   5.17916   5.37249   5.59521   5.99002
   6.24046   6.86524


              NET ATOMIC CHARGES AND DIPOLE CONTRIBUTIONS

  ATOM NO.   TYPE          CHARGE      No. of ELECS.   s-Pop       p-Pop       
    1          C          -0.021447        4.0214     1.13351     2.88794
    2          C           0.040452        3.9595     1.08898     2.87057
    3          C          -0.068537        4.0685     1.18035     2.88819
    4          C           0.072116        3.9279     1.12823     2.79966
    5          C          -0.126655        4.1267     1.19572     2.93094
    6          C          -0.085356        4.0854     1.17938     2.90598
    7          C          -0.116356        4.1164     1.17721     2.93915
    8          C          -0.166560        4.1666     1.18391     2.98265
    9          C          -0.162931        4.1629     1.19748     2.96545
   10          C          -0.130794        4.1308     1.17249     2.95830
   11          H           0.066150        0.9339     0.93385
   12          H           0.066160        0.9338     0.93384
   13          H           0.049056        0.9509     0.95094
   14          H           0.049044        0.9510     0.95096
   15          H           0.048260        0.9517     0.95174
   16          H           0.099199        0.9008     0.90080
   17          H           0.108597        0.8914     0.89140
   18          H           0.103470        0.8965     0.89653
   19          H           0.082242        0.9178     0.91776
   20          H           0.093890        0.9061     0.90611
 DIPOLE           X         Y         Z       TOTAL
 POINT-CHG.    -0.011     0.062    -0.020     0.066
 HYBRID         0.013     0.046    -0.010     0.049
 SUM            0.002     0.108    -0.030     0.112


          ATOMIC ORBITAL ELECTRON POPULATIONS

     Atom    s        px        py        pz   
    1  C   1.13351   0.92808   0.95548   1.00438
    2  C   1.08898   0.86796   1.00230   1.00031
    3  C   1.18035   0.94374   0.94251   1.00195
    4  C   1.12823   0.86317   0.93690   0.99960
    5  C   1.19572   0.98482   0.95496   0.99115
    6  C   1.17938   0.94830   0.96671   0.99096
    7  C   1.17721   0.94259   0.97890   1.01766
    8  C   1.18391   1.01062   0.96002   1.01201
    9  C   1.19748   0.95062   1.01087   1.00396
   10  C   1.17249   0.93012   1.01155   1.01664
   11  H   0.93385
   12  H   0.93384
   13  H   0.95094
   14  H   0.95096
   15  H   0.95174
   16  H   0.90080
   17  H   0.89140
   18  H   0.89653
   19  H   0.91776
   20  H   0.90611
 *******************************************************************************
 ** Site#: 14399        For non-commercial use only    Version 18.184L 64BITS **
 *******************************************************************************
 ** Cite this program as: MOPAC2016, Version: 18.184L, James J. P. Stewart,   **
 ** Stewart Computational Chemistry, web: HTTP://OpenMOPAC.net. Days left:  20**
 *******************************************************************************
 **                                                                           **
 **                                MOPAC2016                                  **
 **                                                                           **
 *******************************************************************************

                              PM3 CALCULATION RESULTS

 *******************************************************************************
 *  CALCULATION DONE:                                Thu Jun 13 15:57:30 2019  *
 *  PM3        - The PM3 Hamiltonian to be used
 *  OLDGEO     - PREVIOUS GEOMETRY TO BE USED
 *  PRECISE    - CRITERIA TO BE INCREASED BY 100 TIMES
 *  NOSYM      - POINT-GROUP SYMMETRY SET TO C1
 *  THREADS=1  - MULTI-THREADING NOT USED
 *  T=         - A TIME OF 172800.0 SECONDS REQUESTED
 *  DUMP=N     - RESTART FILE WRITTEN EVERY  7200.000 SECONDS
 *  THERMO     - THERMODYNAMIC QUANTITIES TO BE CALCULATED
 *******************************************************************************
oldgeo thermo nosym precise THREADS=1  pm3
 InChI=1S/C10H10/c1-3-6-10-8-5-4-7-9(10)2/h4-5,8H,2,7H2,1H3

   ATOM   CHEMICAL          X               Y               Z
  NUMBER   SYMBOL      (ANGSTROMS)     (ANGSTROMS)     (ANGSTROMS)
 
     1       C          2.32440106  *   0.74343373  *   0.07579193  *
     2       C         -3.96833832  *  -0.17495056  *  -0.40678614  *
     3       C          0.84144100  *   0.83835542  *  -0.11437137  *
     4       C          0.03839969  *  -0.37002087  *   0.09819975  *
     5       C          2.83505893  *  -0.59237313  *   0.46843785  *
     6       C          0.60655405  *  -1.54502091  *   0.45705705  *
     7       C          2.03471524  *  -1.65245229  *   0.64461598  *
     8       C          0.29003754  *   2.00495077  *  -0.46863683  *
     9       C         -2.54964157  *  -0.23772620  *  -0.22876593  *
    10       C         -1.36550388  *  -0.29008506  *  -0.08079547  *
    11       H          2.83139904  *   1.05086069  *  -0.86277780  *
    12       H          2.64021460  *   1.47957389  *   0.84445710  *
    13       H         -4.48822628  *  -0.44578728  *   0.52181877  *
    14       H         -4.29089809  *  -0.86795336  *  -1.19522466  *
    15       H         -4.27930809  *   0.83882439  *  -0.69174681  *
    16       H          3.91864783  *  -0.67215108  *   0.61016747  *
    17       H         -0.00041331  *  -2.44312601  *   0.61404142  *
    18       H          2.43635592  *  -2.62889931  *   0.93472939  *
    19       H          0.87956487  *   2.90301171  *  -0.62756057  *
    20       H         -0.77880105  *   2.12928618  *  -0.61983876  *
 


          CARTESIAN COORDINATES 

    NO.       ATOM           X           Y           Z

     1         C          2.3244      0.7434      0.0758
     2         C         -3.9683     -0.1750     -0.4068
     3         C          0.8414      0.8384     -0.1144
     4         C          0.0384     -0.3700      0.0982
     5         C          2.8351     -0.5924      0.4684
     6         C          0.6066     -1.5450      0.4571
     7         C          2.0347     -1.6525      0.6446
     8         C          0.2900      2.0050     -0.4686
     9         C         -2.5496     -0.2377     -0.2288
    10         C         -1.3655     -0.2901     -0.0808
    11         H          2.8314      1.0509     -0.8628
    12         H          2.6402      1.4796      0.8445
    13         H         -4.4882     -0.4458      0.5218
    14         H         -4.2909     -0.8680     -1.1952
    15         H         -4.2793      0.8388     -0.6917
    16         H          3.9186     -0.6722      0.6102
    17         H         -0.0004     -2.4431      0.6140
    18         H          2.4364     -2.6289      0.9347
    19         H          0.8796      2.9030     -0.6276
    20         H         -0.7788      2.1293     -0.6198

  H: (PM3): J. J. P. STEWART, J. COMP. CHEM. 10, 209 (1989).
  C: (PM3): J. J. P. STEWART, J. COMP. CHEM. 10, 209 (1989).

           Empirical Formula: C10 H10  =    20 atoms



      MOLECULAR POINT GROUP   :   C1  


      RHF CALCULATION, NO. OF DOUBLY OCCUPIED LEVELS = 25



          HEAT OF FORMATION =      80.856745 KCALS/MOLE


          CARTESIAN COORDINATE DERIVATIVES

   NUMBER  ATOM         X            Y            Z

     1       C     -0.000516    -0.004404    -0.003541
     2       C     -0.006762    -0.004649     0.000456
     3       C     -0.004545     0.001807    -0.003146
     4       C     -0.006471     0.007978     0.000708
     5       C     -0.005055     0.001869     0.003615
     6       C     -0.015617    -0.004399    -0.005021
     7       C      0.006120    -0.003904     0.001319
     8       C      0.005143     0.006499    -0.001912
     9       C     -0.005326    -0.006917     0.001747
    10       C     -0.008850     0.004489    -0.006631
    11       H      0.016542     0.000341    -0.000856
    12       H     -0.004896    -0.001958    -0.001685
    13       H      0.021103     0.007342     0.000378
    14       H     -0.010935     0.002018     0.000908
    15       H      0.008681    -0.001793     0.000216
    16       H      0.002006    -0.002927    -0.000623
    17       H      0.001932     0.001403    -0.000550
    18       H      0.001766    -0.002667     0.006741
    19       H     -0.004731    -0.005066     0.006412
    20       H      0.010410     0.004938     0.001465
 


          GRADIENT NORM =   0.04717


          TIME FOR SCF CALCULATION =    0.02

          TIME FOR DERIVATIVES     =    0.01

          MOLECULAR WEIGHT =  130.19



          ROTATIONAL CONSTANTS IN CM(-1)

          A =    0.09630024   B =    0.02712462   C =    0.02133363



           PRINCIPAL MOMENTS OF INERTIA IN UNITS OF 10**(-40)*GRAM-CM**2

          A =      290.6823   B =     1032.0060   C =     1312.1432


          ORIENTATION OF MOLECULE IN FORCE CALCULATION

    NO.       ATOM         X         Y         Z

     1          C      -2.3285    0.5374    0.0038
     2          C       4.0491    0.5374    0.0038
     3          C      -0.8646    0.8556    0.0038
     4          C       0.0857   -0.2611   -0.0022
     5          C      -2.6697   -0.9058   -0.0032
     6          C      -0.3329   -1.5484   -0.0085
     7          C      -1.7407   -1.8713   -0.0089
     8          C      -0.4617    2.1316    0.0094
     9          C       2.6449    0.2609    0.0009
    10          C       1.4729    0.0303   -0.0009
    11          H      -2.8020    1.0056    0.8921
    12          H      -2.8043    1.0147   -0.8784
    13          H       4.5308    0.1085   -0.8849
    14          H       4.5269    0.1074    0.8942
    15          H       4.2316    1.6202    0.0049
    16          H      -3.7381   -1.1490   -0.0034
    17          H       0.3834   -2.3769   -0.0131
    18          H      -2.0184   -2.9305   -0.0140
    19          H      -1.1607    2.9627    0.0141
    20          H       0.5864    2.4182    0.0098


    FIRST DERIVATIVES WILL BE USED IN THE CALCULATION OF SECOND DERIVATIVES

          ESTIMATED TIME TO COMPLETE CALCULATION =        8.44 SECONDS

    FOR POINT-GROUP C1   THERE ARE   1 UNIQUE SYMMETRY FUNCTIONS.

 STEP:   1 TIME =     0.05 SECS, INTEGRAL =      0.05 TIME LEFT: 172799.91
 STEP:   2 TIME =     0.04 SECS, INTEGRAL =      0.09 TIME LEFT: 172799.87
 STEP:   3 TIME =     0.05 SECS, INTEGRAL =      0.14 TIME LEFT: 172799.82
 STEP:   4 TIME =     0.05 SECS, INTEGRAL =      0.19 TIME LEFT: 172799.78
 STEP:   5 TIME =     0.05 SECS, INTEGRAL =      0.23 TIME LEFT: 172799.73
 STEP:   6 TIME =     0.05 SECS, INTEGRAL =      0.28 TIME LEFT: 172799.68
 STEP:   7 TIME =     0.05 SECS, INTEGRAL =      0.33 TIME LEFT: 172799.64
 STEP:   8 TIME =     0.05 SECS, INTEGRAL =      0.38 TIME LEFT: 172799.59
 STEP:   9 TIME =     0.05 SECS, INTEGRAL =      0.42 TIME LEFT: 172799.54
 STEP:  10 TIME =     0.05 SECS, INTEGRAL =      0.47 TIME LEFT: 172799.50
 STEP:  11 TIME =     0.05 SECS, INTEGRAL =      0.52 TIME LEFT: 172799.45
 STEP:  12 TIME =     0.05 SECS, INTEGRAL =      0.56 TIME LEFT: 172799.40
 STEP:  13 TIME =     0.05 SECS, INTEGRAL =      0.61 TIME LEFT: 172799.36
 STEP:  14 TIME =     0.05 SECS, INTEGRAL =      0.66 TIME LEFT: 172799.31
 STEP:  15 TIME =     0.05 SECS, INTEGRAL =      0.70 TIME LEFT: 172799.26
 STEP:  16 TIME =     0.05 SECS, INTEGRAL =      0.75 TIME LEFT: 172799.21
 STEP:  17 TIME =     0.05 SECS, INTEGRAL =      0.80 TIME LEFT: 172799.17
 STEP:  18 TIME =     0.05 SECS, INTEGRAL =      0.85 TIME LEFT: 172799.12
 STEP:  19 TIME =     0.05 SECS, INTEGRAL =      0.89 TIME LEFT: 172799.07
 STEP:  20 TIME =     0.04 SECS, INTEGRAL =      0.94 TIME LEFT: 172799.03
 STEP:  21 TIME =     0.05 SECS, INTEGRAL =      0.98 TIME LEFT: 172798.98
 STEP:  22 TIME =     0.05 SECS, INTEGRAL =      1.03 TIME LEFT: 172798.93
 STEP:  23 TIME =     0.05 SECS, INTEGRAL =      1.08 TIME LEFT: 172798.89
 STEP:  24 TIME =     0.05 SECS, INTEGRAL =      1.12 TIME LEFT: 172798.84
 STEP:  25 TIME =     0.05 SECS, INTEGRAL =      1.17 TIME LEFT: 172798.79
 STEP:  26 TIME =     0.05 SECS, INTEGRAL =      1.22 TIME LEFT: 172798.75
 STEP:  27 TIME =     0.05 SECS, INTEGRAL =      1.27 TIME LEFT: 172798.70
 STEP:  28 TIME =     0.05 SECS, INTEGRAL =      1.31 TIME LEFT: 172798.65
 STEP:  29 TIME =     0.05 SECS, INTEGRAL =      1.36 TIME LEFT: 172798.61
 STEP:  30 TIME =     0.05 SECS, INTEGRAL =      1.41 TIME LEFT: 172798.55
 STEP:  31 TIME =     0.05 SECS, INTEGRAL =      1.46 TIME LEFT: 172798.51
 STEP:  32 TIME =     0.05 SECS, INTEGRAL =      1.50 TIME LEFT: 172798.46
 STEP:  33 TIME =     0.05 SECS, INTEGRAL =      1.55 TIME LEFT: 172798.41
 STEP:  34 TIME =     0.05 SECS, INTEGRAL =      1.60 TIME LEFT: 172798.37
 STEP:  35 TIME =     0.04 SECS, INTEGRAL =      1.64 TIME LEFT: 172798.32
 STEP:  36 TIME =     0.05 SECS, INTEGRAL =      1.69 TIME LEFT: 172798.28
 STEP:  37 TIME =     0.05 SECS, INTEGRAL =      1.73 TIME LEFT: 172798.23
 STEP:  38 TIME =     0.04 SECS, INTEGRAL =      1.78 TIME LEFT: 172798.19
 STEP:  39 TIME =     0.05 SECS, INTEGRAL =      1.82 TIME LEFT: 172798.14
 STEP:  40 TIME =     0.05 SECS, INTEGRAL =      1.87 TIME LEFT: 172798.09
 STEP:  41 TIME =     0.05 SECS, INTEGRAL =      1.92 TIME LEFT: 172798.05
 STEP:  42 TIME =     0.05 SECS, INTEGRAL =      1.96 TIME LEFT: 172798.00
 STEP:  43 TIME =     0.05 SECS, INTEGRAL =      2.01 TIME LEFT: 172797.95
 STEP:  44 TIME =     0.04 SECS, INTEGRAL =      2.05 TIME LEFT: 172797.91
 STEP:  45 TIME =     0.05 SECS, INTEGRAL =      2.10 TIME LEFT: 172797.86
 STEP:  46 TIME =     0.04 SECS, INTEGRAL =      2.14 TIME LEFT: 172797.82
 STEP:  47 TIME =     0.04 SECS, INTEGRAL =      2.19 TIME LEFT: 172797.78
 STEP:  48 TIME =     0.05 SECS, INTEGRAL =      2.23 TIME LEFT: 172797.73
 STEP:  49 TIME =     0.05 SECS, INTEGRAL =      2.28 TIME LEFT: 172797.68
 STEP:  50 TIME =     0.04 SECS, INTEGRAL =      2.32 TIME LEFT: 172797.64
 STEP:  51 TIME =     0.06 SECS, INTEGRAL =      2.38 TIME LEFT: 172797.58
 STEP:  52 TIME =     0.05 SECS, INTEGRAL =      2.43 TIME LEFT: 172797.54
 STEP:  53 TIME =     0.04 SECS, INTEGRAL =      2.47 TIME LEFT: 172797.49
 STEP:  54 TIME =     0.05 SECS, INTEGRAL =      2.52 TIME LEFT: 172797.45
 STEP:  55 TIME =     0.05 SECS, INTEGRAL =      2.57 TIME LEFT: 172797.40
 STEP:  56 TIME =     0.05 SECS, INTEGRAL =      2.61 TIME LEFT: 172797.35
 STEP:  57 TIME =     0.05 SECS, INTEGRAL =      2.66 TIME LEFT: 172797.30
 STEP:  58 TIME =     0.05 SECS, INTEGRAL =      2.71 TIME LEFT: 172797.25
 STEP:  59 TIME =     0.05 SECS, INTEGRAL =      2.76 TIME LEFT: 172797.21
 STEP:  60 TIME =     0.05 SECS, INTEGRAL =      2.81 TIME LEFT: 172797.16

(To convert to Hartree/Bohr^2, multiply by (10^(-21) x N x a0^2)/(4.184 x 627.51) =  0.0642)


           FORCE MATRIX IN MILLIDYNES/ANGSTROM


                  C  1       C  2       C  3       C  4       C  5       C  6
 ------------------------------------------------------------------------------
     C    1  15.016186
     C    2   0.001921  15.168399
     C    3   4.608051   0.010082  18.577241
     C    4   0.589149   0.099519   5.075723  19.242430
     C    5   5.063920   0.002330   0.672687   0.217941  18.024426
     C    6   0.137420   0.018579   0.997877   9.307244   1.218433  18.215870
     C    7   0.869235   0.007440   0.151565   1.167908  10.177041   5.759340
     C    8   0.850437   0.001476  10.336147   1.034409   0.062737   0.131459
     C    9   0.006004   6.686050   0.048130   0.777322   0.013456   0.126143
     C   10   0.049931   0.588878   0.753261   6.684514   0.035704   1.172994
     H   11   4.367050   0.000274   0.418516   0.025957   0.415395   0.015034
     H   12   4.367049   0.000309   0.418311   0.026015   0.415059   0.015012
     H   13   0.000487   4.704036   0.001060   0.011217   0.000440   0.001758
     H   14   0.000479   4.704174   0.001056   0.011219   0.000485   0.001737
     H   15   0.000544   4.712584   0.002175   0.009203   0.000076   0.001105
     H   16   0.422376   0.000935   0.048316   0.007072   4.831362   0.121605
     H   17   0.003041   0.001737   0.108550   0.457188   0.047655   4.860607
     H   18   0.119596   0.000394   0.002260   0.046085   0.443929   0.435051
     H   19   0.081455   0.000468   0.474361   0.127291   0.002629   0.010122
     H   20   0.111785   0.002113   0.477041   0.089353   0.007463   0.007141


                  C  7       C  8       C  9       C 10       H 11       H 12
 ------------------------------------------------------------------------------
     C    7  18.376778
     C    8   0.053837  17.858565
     C    9   0.036800   0.022120  24.685639
     C   10   0.167982   0.076592  16.733532  25.198459
     H   11   0.041317   0.039259   0.001038   0.006081   4.953031
     H   12   0.041235   0.039132   0.001035   0.006064   0.566805   4.952981
     H   13   0.001065   0.000513   0.454081   0.031401   0.000112   0.000086
     H   14   0.001156   0.000458   0.453768   0.031352   0.000082   0.000121
     H   15   0.000454   0.000380   0.455682   0.029216   0.000086   0.000093
     H   16   0.443167   0.009412   0.000981   0.011971   0.030222   0.030230
     H   17   0.430641   0.008759   0.008678   0.078824   0.000799   0.000791
     H   18   4.855296   0.001048   0.001519   0.010542   0.015448   0.015450
     H   19   0.007238   5.096161   0.000753   0.005381   0.013333   0.013351
     H   20   0.006636   5.081378   0.014277   0.037857   0.012018   0.011994


                  H 13       H 14       H 15       H 16       H 17       H 18
 ------------------------------------------------------------------------------
     H   13   5.384177
     H   14   0.550203   5.384066
     H   15   0.549031   0.548790   5.389507
     H   16   0.000111   0.000109   0.000137   5.206260
     H   17   0.000510   0.000506   0.000505   0.007253   5.222032
     H   18   0.000147   0.000122   0.000186   0.064570   0.032230   5.218924
     H   19   0.000109   0.000129   0.000258   0.002142   0.008694   0.000310
     H   20   0.000372   0.000367   0.000477   0.003683   0.005585   0.000573


                  H 19       H 20
 ------------------------------
     H   19   5.481412
     H   20   0.403666   5.463761


          HEAT OF FORMATION =      80.856745 KCALS/MOLE

          ZERO POINT ENERGY     103.377 KCAL/MOL


           NORMAL COORDINATE ANALYSIS (Total motion = 1 Angstrom)


   Root No.       1         2         3         4         5         6         7         8

                 1 A       2 A       3 A       4 A       5 A       6 A       7 A       8 A   

                  43.6      83.6      97.0     105.3     213.6     313.7     348.4     379.0
  
           1    0.0002   -0.0002    0.0159   -0.0017    0.0000    0.0038    0.0001   -0.0055
           2   -0.0002   -0.0001    0.0139   -0.0014   -0.0002    0.0003   -0.0001   -0.0012
           3    0.0705   -0.0113   -0.0021   -0.0122    0.0207    0.0002    0.0087   -0.0001
           4   -0.0002    0.0002   -0.0197    0.0021   -0.0000   -0.0146    0.0008    0.0540
           5    0.0005   -0.0007    0.0720   -0.0082   -0.0002   -0.0318    0.0003    0.0023
           6    0.0294    0.0034    0.0061    0.0507    0.0296   -0.0002   -0.0156    0.0003
           7    0.0002   -0.0002    0.0217   -0.0024   -0.0000    0.0019    0.0002    0.0068
           8   -0.0001    0.0001   -0.0150    0.0017    0.0001   -0.0125   -0.0001   -0.0382
           9   -0.0060   -0.0056   -0.0017   -0.0137   -0.0040   -0.0006   -0.0611    0.0009
          10   -0.0000   -0.0000    0.0012   -0.0001    0.0000   -0.0098    0.0005    0.0319
          11   -0.0002    0.0003   -0.0332    0.0039    0.0002   -0.0177    0.0001   -0.0224
          12   -0.0106   -0.0013   -0.0056   -0.0464   -0.0093   -0.0009   -0.0645    0.0010
          13   -0.0001    0.0001   -0.0108    0.0013   -0.0000    0.0052   -0.0006   -0.0436
          14    0.0001   -0.0002    0.0203   -0.0025    0.0002   -0.0025    0.0003    0.0150
          15    0.0192    0.0044    0.0061    0.0525   -0.0455   -0.0003   -0.0089    0.0003
          16   -0.0002    0.0002   -0.0219    0.0024    0.0001    0.0022   -0.0004   -0.0236
          17   -0.0001    0.0002   -0.0251    0.0029   -0.0001   -0.0202   -0.0000   -0.0064
          18   -0.0264    0.0070   -0.0043   -0.0385    0.0575    0.0002    0.0066    0.0000
          19   -0.0003    0.0002   -0.0289    0.0032    0.0001   -0.0015   -0.0005   -0.0385
          20    0.0002   -0.0001    0.0027   -0.0004   -0.0001   -0.0102    0.0002    0.0211
          21   -0.0271    0.0122    0.0038    0.0295    0.0144    0.0004    0.0229   -0.0005
          22    0.0004   -0.0004    0.0469   -0.0052   -0.0002    0.0642   -0.0013   -0.0478
          23    0.0001    0.0002   -0.0229    0.0025    0.0001   -0.0320    0.0000   -0.0229
          24   -0.0685   -0.0046    0.0025    0.0163    0.0149    0.0002    0.0233   -0.0005
          25   -0.0001    0.0001   -0.0058    0.0006    0.0001   -0.0394    0.0007    0.0355
          26   -0.0000    0.0000    0.0021   -0.0002   -0.0001    0.1049   -0.0003    0.0529
          27    0.0125   -0.0015   -0.0018   -0.0136   -0.0501    0.0013    0.0673   -0.0008
          28   -0.0000   -0.0000    0.0022   -0.0002    0.0001   -0.0274    0.0007    0.0397
          29   -0.0003    0.0004   -0.0383    0.0044    0.0002    0.0509   -0.0005    0.0033
          30   -0.0007   -0.0032   -0.0062   -0.0493   -0.0570   -0.0002    0.0026   -0.0003
          31    0.0592   -0.0065    0.0231   -0.0143    0.0326    0.0067    0.0670    0.0080
          32   -0.0476    0.0114    0.0290    0.0441   -0.0610    0.0013   -0.0458    0.0153
          33    0.1271   -0.0208   -0.0062   -0.0432    0.0709    0.0009    0.0699   -0.0012
          34   -0.0585    0.0060    0.0269    0.0087   -0.0325    0.0053   -0.0662    0.0103
          35    0.0468   -0.0116    0.0171   -0.0487    0.0601    0.0027    0.0454    0.0134
          36    0.1278   -0.0209   -0.0063   -0.0437    0.0716    0.0010    0.0705   -0.0012
          37    0.0069   -0.0435    0.0078    0.0439    0.0574   -0.0716   -0.0711    0.0344
          38    0.0196    0.2393    0.0981   -0.0195    0.0089   -0.0957   -0.0125   -0.0240
          39    0.0240   -0.1360    0.0085    0.0789    0.0567   -0.0008   -0.0493    0.0018
          40   -0.0070    0.0439   -0.0024   -0.0450   -0.0576   -0.0689    0.0734    0.0324
          41   -0.0183   -0.2410    0.0963   -0.0027   -0.0093   -0.0949    0.0136   -0.0241
          42    0.0240   -0.1361    0.0086    0.0787    0.0565   -0.0011   -0.0490   -0.0002
          43   -0.0007    0.0003   -0.0764    0.0085   -0.0001    0.1238    0.0005    0.1173
          44    0.0006   -0.0009    0.0816   -0.0093   -0.0002   -0.0561    0.0004   -0.0086
          45    0.0538    0.2870    0.0082    0.0497    0.0532   -0.0007   -0.0480    0.0007
          46   -0.0001    0.0001   -0.0154    0.0018   -0.0001    0.0043   -0.0006   -0.0463
          47    0.0002   -0.0004    0.0403   -0.0050    0.0005    0.0010    0.0006    0.0276
          48    0.0255    0.0082    0.0132    0.1128   -0.1253   -0.0009   -0.0241    0.0007
          49   -0.0003    0.0003   -0.0377    0.0041    0.0001    0.0029   -0.0008   -0.0580
          50   -0.0002    0.0003   -0.0385    0.0046   -0.0004   -0.0188   -0.0007   -0.0359
          51   -0.0367    0.0107   -0.0076   -0.0675    0.1073    0.0010    0.0677   -0.0010
          52   -0.0005    0.0004   -0.0496    0.0055    0.0002   -0.0105   -0.0006   -0.0468
          53    0.0004   -0.0002    0.0081   -0.0012   -0.0000   -0.0079    0.0001    0.0229
          54   -0.0629    0.0229    0.0088    0.0682    0.0033    0.0008    0.0539   -0.0014
          55    0.0006   -0.0006    0.0630   -0.0071   -0.0002    0.1108   -0.0026   -0.0939
          56    0.0003    0.0001   -0.0094    0.0008   -0.0001    0.0060   -0.0014   -0.0605
          57   -0.0730   -0.0066    0.0062    0.0466    0.0353    0.0014    0.1066   -0.0021
          58    0.0005   -0.0005    0.0523   -0.0059   -0.0002    0.0801   -0.0018   -0.0640
          59    0.0000    0.0004   -0.0422    0.0047    0.0002   -0.0850    0.0015    0.0316
          60   -0.1183   -0.0015    0.0024    0.0123    0.0121   -0.0002    0.0270   -0.0003


   Root No.       9        10        11        12        13        14        15        16

                 9 A      10 A      11 A      12 A      13 A      14 A      15 A      16 A   

                 424.7     447.1     511.9     526.8     590.8     626.2     715.3     731.7
  
           1   -0.0002    0.0524   -0.0000   -0.0361   -0.0004    0.0457    0.0002    0.0311
           2   -0.0000    0.0085    0.0004    0.0549    0.0002   -0.0152   -0.0000   -0.0394
           3    0.0009    0.0000   -0.0095    0.0005   -0.0071   -0.0001   -0.0230   -0.0001
           4    0.0002   -0.0285   -0.0002   -0.0197   -0.0000   -0.0045   -0.0002   -0.0497
           5    0.0001   -0.0091   -0.0001   -0.0041    0.0000   -0.0064   -0.0001   -0.0083
           6   -0.0013   -0.0000    0.0013   -0.0001    0.0016   -0.0000    0.0036   -0.0001
           7   -0.0001    0.0432   -0.0000   -0.0236   -0.0003    0.0303    0.0001    0.0263
           8   -0.0002    0.0108   -0.0002   -0.0461    0.0001   -0.0211    0.0000   -0.0249
           9    0.0384    0.0004   -0.0619    0.0005   -0.0126    0.0003   -0.0370    0.0000
          10    0.0001   -0.0025    0.0001    0.0051   -0.0000    0.0073    0.0001    0.0298
          11   -0.0000   -0.0250   -0.0005   -0.0259    0.0000   -0.0138   -0.0003    0.0226
          12    0.0074    0.0002    0.0172   -0.0004    0.0260   -0.0002    0.0813   -0.0002
          13   -0.0002    0.0336    0.0002    0.0357    0.0001   -0.0126   -0.0002   -0.0524
          14    0.0002    0.0164    0.0005    0.0524   -0.0000    0.0025   -0.0000   -0.0110
          15   -0.0501   -0.0000    0.0020    0.0001    0.0121    0.0001   -0.0010    0.0000
          16   -0.0000   -0.0001    0.0004    0.0600    0.0002   -0.0141    0.0000    0.0169
          17    0.0003   -0.0292   -0.0004   -0.0388    0.0001   -0.0122    0.0001    0.0453
          18   -0.0477   -0.0002   -0.0222    0.0001    0.0063    0.0001    0.0044    0.0002
          19    0.0000   -0.0005    0.0002    0.0437    0.0003   -0.0274    0.0000    0.0191
          20   -0.0002   -0.0162    0.0004    0.0553    0.0002   -0.0113    0.0002    0.0635
          21    0.0665   -0.0001    0.0101    0.0001   -0.0086   -0.0001   -0.0084    0.0003
          22   -0.0001   -0.0406   -0.0002   -0.0307    0.0000    0.0018    0.0000    0.0046
          23   -0.0000    0.0393   -0.0005   -0.0501   -0.0001   -0.0127   -0.0001   -0.0232
          24   -0.0106    0.0001    0.0124   -0.0003    0.0038   -0.0001    0.0017   -0.0001
          25    0.0001   -0.0286   -0.0001   -0.0106   -0.0001    0.0081   -0.0001   -0.0202
          26   -0.0001    0.0253    0.0002   -0.0181    0.0001   -0.0571   -0.0002    0.0014
          27    0.0122    0.0000   -0.0606    0.0006    0.0249    0.0004    0.0152   -0.0000
          28    0.0001   -0.0142   -0.0002   -0.0133    0.0002   -0.0289   -0.0000    0.0004
          29   -0.0001   -0.0261    0.0003    0.0145   -0.0006    0.1379    0.0004   -0.0196
          30   -0.0051   -0.0003    0.0751   -0.0007   -0.0471   -0.0002   -0.0436    0.0002
          31   -0.0038    0.0546    0.0868   -0.0322    0.0490    0.0634    0.0626    0.0589
          32   -0.0652    0.0104   -0.0494    0.0672   -0.0192   -0.0021   -0.0376   -0.0223
          33    0.0345    0.0007    0.0656   -0.0029    0.0307    0.0023    0.0320    0.0042
          34    0.0036    0.0551   -0.0863   -0.0300   -0.0497    0.0637   -0.0619    0.0595
          35    0.0648    0.0104    0.0499    0.0659    0.0190   -0.0022    0.0371   -0.0227
          36    0.0352   -0.0010    0.0663    0.0020    0.0310   -0.0026    0.0325   -0.0050
          37   -0.0128   -0.0482    0.0735   -0.0138   -0.0347    0.0382   -0.0278   -0.0702
          38   -0.0023   -0.0302    0.0140    0.0056   -0.0067    0.0458   -0.0052   -0.0206
          39   -0.0073   -0.0006    0.0357   -0.0012   -0.0145   -0.0010   -0.0094   -0.0040
          40    0.0132   -0.0480   -0.0743   -0.0123    0.0344    0.0393    0.0279   -0.0705
          41    0.0025   -0.0302   -0.0145    0.0059    0.0065    0.0459    0.0055   -0.0206
          42   -0.0072    0.0003    0.0353    0.0004   -0.0143    0.0007   -0.0092    0.0038
          43    0.0001    0.0128   -0.0000   -0.0456    0.0003   -0.1189   -0.0006   -0.0510
          44    0.0001   -0.0167   -0.0001    0.0003   -0.0000    0.0142    0.0000   -0.0094
          45   -0.0070    0.0000    0.0360   -0.0005   -0.0147   -0.0005   -0.0097   -0.0001
          46   -0.0002    0.0262    0.0003    0.0458    0.0002   -0.0232   -0.0001   -0.0482
          47    0.0005    0.0484    0.0002    0.0073   -0.0005    0.0499   -0.0003   -0.0244
          48   -0.1143   -0.0001    0.0432   -0.0008    0.0360    0.0001    0.0854   -0.0004
          49   -0.0002   -0.0004    0.0001    0.0470    0.0003   -0.0292   -0.0001    0.0063
          50    0.0009   -0.0296   -0.0005   -0.0489    0.0004   -0.0244    0.0007    0.0366
          51   -0.1842   -0.0006   -0.0349    0.0006   -0.0364   -0.0001   -0.1342    0.0004
          52    0.0001   -0.0294   -0.0003   -0.0022    0.0003   -0.0406    0.0001    0.0846
          53   -0.0008   -0.0082    0.0002    0.0670    0.0004   -0.0077    0.0001    0.0472
          54    0.2005   -0.0000    0.0674   -0.0003   -0.0371   -0.0006    0.0177    0.0001
          55   -0.0000   -0.1224   -0.0006   -0.0467    0.0001   -0.0457    0.0000   -0.0333
          56    0.0003   -0.0267   -0.0007   -0.0631    0.0013   -0.0516   -0.0012   -0.0555
          57   -0.0674   -0.0008   -0.0126    0.0006   -0.2498   -0.0037    0.1955   -0.0007
          58   -0.0000   -0.0695   -0.0003   -0.0363    0.0003   -0.0153   -0.0001   -0.0066
          59   -0.0001    0.1365   -0.0006   -0.0346   -0.0016    0.0457    0.0005    0.0144
          60   -0.0084    0.0006    0.1278   -0.0022    0.2774    0.0030   -0.1198    0.0001


   Root No.      17        18        19        20        21        22        23        24

                17 A      18 A      19 A      20 A      21 A      22 A      23 A      24 A   

                 756.2     860.4     891.5     933.8     934.5     973.5     976.6     995.8
  
           1   -0.0000    0.0279    0.0001    0.0027   -0.0411   -0.0001    0.0022    0.0001
           2    0.0001    0.0164   -0.0003   -0.0016    0.0272    0.0001   -0.0015   -0.0001
           3   -0.0185    0.0001    0.0525   -0.0300   -0.0018   -0.0028   -0.0001    0.0129
           4   -0.0000   -0.0090   -0.0000    0.0002   -0.0034    0.0005   -0.0108    0.0000
           5    0.0000    0.0004   -0.0000    0.0000   -0.0004   -0.0025    0.0695    0.0000
           6    0.0004   -0.0000    0.0025    0.0055    0.0004   -0.0669   -0.0026   -0.0021
           7    0.0000   -0.0150   -0.0000   -0.0013    0.0192    0.0000   -0.0009   -0.0000
           8   -0.0001   -0.0390    0.0001    0.0001   -0.0030   -0.0000    0.0002   -0.0000
           9    0.0318   -0.0001   -0.0320    0.0096    0.0006    0.0001    0.0000    0.0026
          10    0.0000    0.0010   -0.0000   -0.0002    0.0029    0.0002   -0.0034   -0.0001
          11    0.0000    0.0412   -0.0001   -0.0003    0.0037   -0.0000    0.0002   -0.0000
          12   -0.0076    0.0001    0.0283    0.0319    0.0021    0.0064    0.0003    0.0080
          13   -0.0000    0.0657   -0.0000    0.0001   -0.0011    0.0001   -0.0016   -0.0001
          14    0.0001    0.0234    0.0000    0.0008   -0.0138   -0.0000    0.0002    0.0002
          15   -0.0226   -0.0000   -0.0101    0.0333    0.0021    0.0060    0.0003   -0.0305
          16    0.0000   -0.0482   -0.0000    0.0006   -0.0110   -0.0001    0.0024    0.0000
          17   -0.0000    0.0710    0.0001   -0.0005    0.0138    0.0001   -0.0033    0.0001
          18   -0.0026    0.0004   -0.0194   -0.0646   -0.0041   -0.0048   -0.0002   -0.0212
          19   -0.0000   -0.0104   -0.0000   -0.0000    0.0005    0.0000   -0.0009    0.0000
          20    0.0002   -0.0463    0.0001    0.0011   -0.0185   -0.0000    0.0004   -0.0002
          21   -0.0320   -0.0002   -0.0247    0.0176    0.0011   -0.0036   -0.0002    0.0378
          22   -0.0000   -0.0209    0.0000   -0.0035    0.0535   -0.0000    0.0013   -0.0001
          23    0.0000   -0.0615    0.0000    0.0007   -0.0124    0.0000   -0.0002    0.0001
          24    0.0013   -0.0003   -0.0091    0.0049    0.0002    0.0010    0.0000   -0.0358
          25    0.0000   -0.0016   -0.0000   -0.0000    0.0002   -0.0005    0.0118   -0.0000
          26   -0.0000    0.0022   -0.0000   -0.0000   -0.0002    0.0022   -0.0619   -0.0000
          27    0.0008    0.0000    0.0011   -0.0013   -0.0001    0.0598    0.0023    0.0025
          28    0.0000    0.0048    0.0000   -0.0001    0.0018    0.0002   -0.0050   -0.0000
          29   -0.0000   -0.0111    0.0001    0.0000    0.0005   -0.0005    0.0163    0.0000
          30   -0.0037    0.0000   -0.0110   -0.0119   -0.0008   -0.0162   -0.0007   -0.0028
          31    0.0140    0.0414   -0.0692    0.0642   -0.0555    0.0105    0.0045   -0.0727
          32   -0.0789    0.0300    0.1123   -0.0411    0.0249    0.0015   -0.0009   -0.0306
          33    0.0328    0.0017   -0.0471    0.0252   -0.0073    0.0023    0.0007   -0.0102
          34   -0.0140    0.0415    0.0692   -0.0560   -0.0633   -0.0111    0.0035    0.0729
          35    0.0784    0.0301   -0.1118    0.0373    0.0301   -0.0015   -0.0009    0.0307
          36    0.0337   -0.0015   -0.0484    0.0245    0.0110    0.0023   -0.0005   -0.0101
          37   -0.0024   -0.0188   -0.0125   -0.0258   -0.0081    0.3136   -0.1524    0.0096
          38   -0.0004   -0.0077   -0.0023   -0.0048   -0.0023    0.0601   -0.1170    0.0017
          39   -0.0007   -0.0012   -0.0034   -0.0068   -0.0011    0.0775    0.0078    0.0024
          40    0.0024   -0.0189    0.0126    0.0268   -0.0046   -0.3027   -0.1763   -0.0096
          41    0.0004   -0.0077    0.0024    0.0051   -0.0016   -0.0519   -0.1212   -0.0018
          42   -0.0007    0.0011   -0.0034   -0.0067    0.0002    0.0765   -0.0026    0.0024
          43    0.0000   -0.0003   -0.0001    0.0003   -0.0046   -0.0144    0.3914    0.0003
          44   -0.0000   -0.0016    0.0000    0.0000   -0.0004    0.0001   -0.0025   -0.0000
          45   -0.0007    0.0000   -0.0036   -0.0073   -0.0005    0.0846    0.0040    0.0026
          46    0.0002    0.0514   -0.0001   -0.0010    0.0124    0.0001   -0.0031    0.0000
          47   -0.0013    0.0933    0.0003    0.0058   -0.0736   -0.0001    0.0062   -0.0004
          48    0.2646    0.0008   -0.0669   -0.1628   -0.0107   -0.0287   -0.0013    0.1381
          49    0.0001    0.0054    0.0001   -0.0001    0.0079   -0.0001    0.0023    0.0002
          50   -0.0008    0.1202   -0.0004   -0.0032    0.0302   -0.0000   -0.0035   -0.0003
          51    0.1612    0.0000    0.0918    0.2946    0.0193    0.0245    0.0008    0.0727
          52    0.0000    0.0047    0.0000   -0.0029    0.0440    0.0002   -0.0069    0.0000
          53   -0.0009   -0.0492   -0.0010    0.0022   -0.0311   -0.0002    0.0019    0.0007
          54    0.2054    0.0002    0.2103   -0.0489   -0.0034    0.0190    0.0010   -0.1538
          55   -0.0000   -0.0255    0.0000    0.0105   -0.1615    0.0001   -0.0031    0.0002
          56    0.0002   -0.0688   -0.0003    0.0121   -0.1873    0.0002   -0.0037   -0.0007
          57   -0.0375   -0.0003    0.0463   -0.0041   -0.0007   -0.0004   -0.0001    0.1419
          58   -0.0000   -0.0133    0.0001    0.0014   -0.0230    0.0000   -0.0004    0.0001
          59    0.0001   -0.0975   -0.0003   -0.0162    0.2501   -0.0001    0.0051   -0.0008
          60   -0.0312   -0.0003    0.0839   -0.0478   -0.0018   -0.0065   -0.0003    0.1553


   Root No.      25        26        27        28        29        30        31        32

                25 A      26 A      27 A      28 A      29 A      30 A      31 A      32 A   

                1021.7    1032.0    1048.2    1075.9    1107.1    1157.4    1197.9    1284.9
  
           1    0.0001   -0.0258    0.0029    0.0000   -0.0088   -0.0011    0.0045   -0.0083
           2   -0.0001    0.0227    0.0347    0.0000   -0.0046    0.0040    0.0120    0.0044
           3   -0.0268    0.0000    0.0001    0.0059   -0.0000    0.0000    0.0000    0.0000
           4    0.0002   -0.0415    0.0075    0.0000   -0.0130    0.0008    0.0020   -0.0146
           5    0.0000   -0.0066    0.0014    0.0000   -0.0028    0.0002    0.0007   -0.0028
           6    0.0010   -0.0000    0.0000   -0.0001   -0.0000    0.0000    0.0000   -0.0001
           7   -0.0001    0.0162    0.0036   -0.0000   -0.0065   -0.0059    0.0333    0.0320
           8   -0.0001   -0.0006   -0.0046    0.0002    0.0028    0.0032   -0.0094   -0.0124
           9    0.0319    0.0001    0.0001   -0.0391    0.0000    0.0000   -0.0000   -0.0001
          10   -0.0002    0.0570   -0.0109   -0.0001    0.0106    0.0025    0.0026    0.0223
          11    0.0001   -0.0099   -0.0022   -0.0000    0.0098   -0.0115   -0.0230    0.0042
          12   -0.0147   -0.0001   -0.0001    0.0079   -0.0000   -0.0001   -0.0001    0.0000
          13    0.0001    0.0031   -0.0357   -0.0000   -0.0186   -0.0028   -0.0027   -0.0034
          14   -0.0001   -0.0092   -0.0257   -0.0002    0.0009    0.0061    0.0186   -0.0168
          15    0.0400    0.0001   -0.0000    0.0314    0.0000    0.0001    0.0001   -0.0001
          16    0.0000   -0.0080    0.0124    0.0000    0.0394    0.0007   -0.0203    0.0074
          17   -0.0001    0.0056   -0.0064   -0.0000   -0.0102   -0.0047   -0.0029    0.0188
          18    0.0182    0.0000    0.0000    0.0015   -0.0000   -0.0000   -0.0000    0.0001
          19    0.0000   -0.0089    0.0007   -0.0000   -0.0201    0.0023   -0.0127    0.0102
          20    0.0003   -0.0238   -0.0221    0.0000   -0.0233   -0.0020    0.0087   -0.0075
          21   -0.0311   -0.0002   -0.0002   -0.0089   -0.0001   -0.0001    0.0000   -0.0000
          22    0.0000   -0.0144   -0.0118    0.0000    0.0062    0.0019   -0.0123   -0.0079
          23    0.0001    0.0156    0.0016   -0.0001    0.0002    0.0010    0.0040    0.0010
          24   -0.0468   -0.0001   -0.0001    0.0190   -0.0000    0.0000   -0.0000   -0.0000
          25   -0.0001    0.0177   -0.0037   -0.0000    0.0107   -0.0011   -0.0047   -0.0263
          26    0.0000    0.0004   -0.0005    0.0000    0.0031   -0.0006   -0.0024   -0.0053
          27   -0.0018    0.0000   -0.0000    0.0006    0.0000   -0.0000   -0.0000   -0.0000
          28   -0.0001    0.0334   -0.0067   -0.0000    0.0174   -0.0017   -0.0067   -0.0194
          29   -0.0001    0.0142   -0.0024   -0.0000   -0.0017    0.0009    0.0045   -0.0033
          30    0.0036    0.0001   -0.0000   -0.0021    0.0000   -0.0000    0.0000   -0.0000
          31    0.0116   -0.0391    0.1131   -0.2555   -0.0240   -0.0723   -0.0905   -0.0711
          32   -0.0711    0.0338    0.1673   -0.2271   -0.0120   -0.0571   -0.0825    0.0380
          33    0.0181   -0.0113   -0.0098   -0.0108   -0.0025   -0.0032   -0.0014   -0.0440
          34   -0.0118   -0.0388    0.1126    0.2555   -0.0242   -0.0724   -0.0907   -0.0711
          35    0.0697    0.0347    0.1673    0.2275   -0.0122   -0.0572   -0.0826    0.0376
          36    0.0187    0.0119    0.0113   -0.0091    0.0025    0.0028    0.0008    0.0446
          37   -0.0038   -0.0968    0.0182    0.0009   -0.0411    0.0040    0.0160    0.1120
          38   -0.0007   -0.0294    0.0054    0.0002   -0.0125    0.0013    0.0052    0.0425
          39   -0.0009   -0.0145    0.0029    0.0002   -0.0081    0.0009    0.0042    0.0365
          40    0.0047   -0.0963    0.0180   -0.0006   -0.0410    0.0040    0.0160    0.1120
          41    0.0009   -0.0294    0.0054   -0.0002   -0.0125    0.0013    0.0052    0.0426
          42   -0.0010    0.0139   -0.0028    0.0001    0.0079   -0.0009   -0.0041   -0.0359
          43    0.0002   -0.0903    0.0186    0.0001   -0.0454    0.0042    0.0192    0.1238
          44    0.0000   -0.0023    0.0003    0.0000    0.0006   -0.0002   -0.0013   -0.0178
          45   -0.0012   -0.0002    0.0000    0.0001   -0.0001    0.0000    0.0000    0.0003
          46   -0.0000    0.0130   -0.0342   -0.0001   -0.0699   -0.0712    0.0269   -0.0233
          47    0.0008   -0.0529   -0.0288    0.0003    0.2080    0.3002   -0.1109    0.0640
          48   -0.1243   -0.0007   -0.0004   -0.0443    0.0010    0.0014   -0.0005    0.0003
          49   -0.0001   -0.0744    0.0933    0.0004    0.1990   -0.0695    0.1736   -0.0367
          50    0.0002   -0.0525    0.0616    0.0004    0.1256   -0.0677    0.1652   -0.0182
          51   -0.0479   -0.0002    0.0000   -0.0112    0.0003   -0.0003    0.0007   -0.0000
          52   -0.0005    0.0135    0.1390    0.0001   -0.1497    0.3287    0.0990   -0.0829
          53   -0.0001   -0.0319   -0.0605   -0.0001    0.0110   -0.0875   -0.0197    0.0166
          54    0.1027    0.0001    0.0001    0.0131    0.0001   -0.0004   -0.0001    0.0001
          55   -0.0001    0.0618    0.0197   -0.0001   -0.0088   -0.0024    0.0302    0.0357
          56   -0.0012    0.0792    0.0282    0.0003   -0.0119   -0.0023    0.0383    0.0374
          57    0.1801    0.0011    0.0006   -0.0740   -0.0000   -0.0000    0.0002    0.0002
          58    0.0001    0.0055   -0.0018   -0.0000   -0.0004   -0.0006    0.0020   -0.0035
          59   -0.0005   -0.0481   -0.0342    0.0002    0.0238    0.0103   -0.0439   -0.0091
          60    0.1715    0.0006    0.0003   -0.0549    0.0001    0.0000   -0.0001    0.0000


   Root No.      33        34        35        36        37        38        39        40

                33 A      34 A      35 A      36 A      37 A      38 A      39 A      40 A   

                1315.4    1346.4    1375.4    1375.6    1378.7    1397.9    1481.6    1571.4
  
           1   -0.0240    0.0217    0.0003    0.0028    0.0541   -0.0167    0.0509    0.0399
           2   -0.0258   -0.0338    0.0003    0.0035    0.0375    0.0381    0.0537    0.0194
           3   -0.0001   -0.0002    0.0000    0.0000    0.0001    0.0002    0.0002    0.0001
           4   -0.0018    0.0260    0.0015    0.0091    0.0076    0.0456   -0.0493    0.0738
           5   -0.0003    0.0049   -0.0070   -0.0407    0.0032    0.0094   -0.0098    0.0144
           6   -0.0000    0.0001   -0.0437    0.0068   -0.0001    0.0000   -0.0001    0.0001
           7   -0.0132    0.0054   -0.0000    0.0001   -0.0149    0.0422   -0.0494   -0.1019
           8   -0.0235   -0.0032   -0.0001   -0.0011   -0.0114   -0.0153    0.0149    0.0306
           9   -0.0001   -0.0000   -0.0000   -0.0000   -0.0000   -0.0001    0.0001    0.0002
          10    0.0077   -0.0200   -0.0001   -0.0009   -0.0129   -0.0183   -0.0114    0.1420
          11   -0.0149   -0.0073    0.0002    0.0021    0.0311   -0.0017   -0.0322   -0.0635
          12   -0.0001   -0.0000   -0.0001    0.0000    0.0001    0.0000   -0.0002   -0.0003
          13    0.0182    0.0064   -0.0002   -0.0017   -0.0235   -0.0081   -0.0133   -0.0032
          14    0.0097   -0.0062    0.0000   -0.0004    0.0021   -0.0335   -0.0554   -0.0131
          15    0.0000   -0.0000    0.0000    0.0000    0.0000   -0.0001   -0.0003   -0.0001
          16   -0.0214   -0.0203    0.0003    0.0028    0.0410   -0.0106   -0.0565   -0.0039
          17    0.0036   -0.0016    0.0000    0.0005    0.0017    0.0144   -0.0124    0.0293
          18    0.0000    0.0000    0.0000   -0.0000   -0.0000    0.0001   -0.0000    0.0001
          19    0.0064    0.0174   -0.0002   -0.0011   -0.0235    0.0341    0.0589   -0.0039
          20    0.0107    0.0159   -0.0002   -0.0015   -0.0203    0.0016    0.0212   -0.0032
          21    0.0001    0.0001   -0.0000   -0.0000   -0.0001   -0.0000    0.0001   -0.0000
          22   -0.0002   -0.0006   -0.0001   -0.0007   -0.0075   -0.0108    0.0014    0.0165
          23   -0.0097    0.0006   -0.0002   -0.0019   -0.0280   -0.0037   -0.0090    0.0147
          24   -0.0000   -0.0000    0.0000   -0.0000   -0.0001   -0.0000   -0.0000    0.0001
          25   -0.0011    0.0067    0.0000   -0.0003   -0.0006   -0.0094    0.0335   -0.0790
          26   -0.0007    0.0011   -0.0002   -0.0009    0.0011   -0.0019    0.0059   -0.0169
          27   -0.0000    0.0000   -0.0010    0.0002   -0.0000   -0.0000    0.0001   -0.0002
          28   -0.0005   -0.0025   -0.0000   -0.0005   -0.0012   -0.0209    0.0360   -0.0668
          29    0.0010    0.0012   -0.0001   -0.0006   -0.0064   -0.0026    0.0104   -0.0112
          30    0.0000   -0.0000   -0.0000    0.0000   -0.0000   -0.0000    0.0000   -0.0000
          31    0.0706   -0.1278   -0.0006   -0.0045   -0.0882    0.0170   -0.0298   -0.0006
          32    0.0197    0.1419   -0.0005   -0.0055   -0.0454   -0.0663   -0.0358   -0.0047
          33    0.0226   -0.1479    0.0000    0.0007   -0.0277    0.0621    0.0041   -0.0057
          34    0.0706   -0.1274   -0.0004   -0.0045   -0.0882    0.0168   -0.0299   -0.0006
          35    0.0200    0.1403   -0.0004   -0.0055   -0.0458   -0.0657   -0.0358   -0.0048
          36   -0.0226    0.1497    0.0000   -0.0007    0.0275   -0.0628   -0.0044    0.0056
          37    0.0072   -0.0732   -0.1059   -0.1129   -0.0113   -0.0757    0.0444   -0.0372
          38    0.0027   -0.0291   -0.1901    0.3056   -0.0186   -0.0391    0.0253   -0.0265
          39    0.0027   -0.0296    0.0185   -0.2146    0.0015   -0.0332    0.0269   -0.0328
          40    0.0072   -0.0733    0.0629   -0.1402   -0.0108   -0.0756    0.0445   -0.0374
          41    0.0028   -0.0292    0.2820    0.2318   -0.0174   -0.0384    0.0252   -0.0265
          42   -0.0026    0.0292    0.0894    0.1976   -0.0013    0.0329   -0.0267    0.0326
          43    0.0082   -0.0811    0.0250    0.1500   -0.0248   -0.0906    0.0542   -0.0485
          44   -0.0015    0.0168   -0.0069   -0.0382    0.0061    0.0245   -0.0216    0.0288
          45    0.0000   -0.0003    0.4266   -0.0661    0.0010    0.0004    0.0000   -0.0000
          46    0.0135   -0.0003   -0.0000   -0.0009   -0.0039   -0.0347   -0.0369   -0.0011
          47    0.0383    0.0294   -0.0006   -0.0048   -0.0925    0.0752    0.0479   -0.0197
          48    0.0002    0.0001    0.0001   -0.0001   -0.0004    0.0004    0.0003   -0.0001
          49    0.0334    0.0088   -0.0004   -0.0040   -0.0451   -0.0326    0.0254    0.0350
          50    0.0531    0.0257   -0.0006   -0.0055   -0.0758   -0.0013    0.0627    0.0647
          51    0.0002    0.0001   -0.0001    0.0000   -0.0004    0.0000    0.0003    0.0003
          52    0.0175   -0.0122   -0.0000   -0.0014    0.0005   -0.0750   -0.0656   -0.0312
          53    0.0098    0.0262   -0.0002   -0.0017   -0.0304    0.0311    0.0577    0.0037
          54    0.0000    0.0001   -0.0001    0.0000   -0.0001    0.0002    0.0003    0.0000
          55    0.2009    0.0104    0.0007    0.0074    0.0998    0.0344   -0.0027   -0.0540
          56    0.1710    0.0103    0.0005    0.0053    0.0662    0.0337   -0.0104   -0.0405
          57    0.0006    0.0000    0.0001    0.0000    0.0002    0.0002   -0.0001   -0.0002
          58   -0.0712   -0.0022   -0.0003   -0.0033   -0.0482   -0.0075   -0.0129    0.0136
          59    0.2781    0.0081    0.0008    0.0080    0.1273   -0.0120    0.0361    0.0197
          60    0.0013    0.0000    0.0000    0.0000    0.0006   -0.0000    0.0001    0.0000


   Root No.      41        42        43        44        45        46        47        48

                41 A      42 A      43 A      44 A      45 A      46 A      47 A      48 A   

                1829.6    1838.7    1868.1    2454.2    2924.1    3004.3    3050.3    3061.2
  
           1   -0.0050   -0.0123   -0.0114    0.0009   -0.0001    0.0287   -0.0014    0.0011
           2   -0.0119    0.0085   -0.0281   -0.0006    0.0003   -0.0288    0.0013   -0.0011
           3   -0.0000    0.0001   -0.0001   -0.0000   -0.0611   -0.0002    0.0000   -0.0000
           4    0.0166    0.0047   -0.0047    0.0661    0.0000    0.0000   -0.0000   -0.0000
           5    0.0035    0.0009   -0.0011    0.0131   -0.0000   -0.0000    0.0000    0.0000
           6    0.0000    0.0000   -0.0000    0.0001    0.0000   -0.0000    0.0000    0.0000
           7    0.0157    0.0407    0.0306   -0.0009    0.0000    0.0008    0.0002   -0.0001
           8    0.0316    0.1225    0.1321   -0.0000   -0.0000    0.0004    0.0004    0.0003
           9    0.0001    0.0005    0.0005   -0.0000   -0.0000    0.0000    0.0000    0.0000
          10    0.0873    0.0232   -0.0182   -0.0749   -0.0000   -0.0004    0.0000    0.0010
          11    0.1675    0.0262   -0.0869   -0.0167    0.0000   -0.0001    0.0004    0.0027
          12    0.0007    0.0001   -0.0004   -0.0001   -0.0002    0.0000    0.0000    0.0000
          13   -0.0548    0.0659   -0.0576   -0.0009   -0.0000   -0.0043   -0.0340    0.0224
          14    0.0682   -0.0975    0.0844    0.0013   -0.0000   -0.0016   -0.0074    0.0030
          15    0.0004   -0.0005    0.0005    0.0000   -0.0001   -0.0000   -0.0000   -0.0000
          16   -0.1053   -0.0002    0.0193   -0.0031    0.0000    0.0002    0.0062    0.0261
          17   -0.1569   -0.0386    0.0600   -0.0015    0.0000    0.0001   -0.0079   -0.0334
          18   -0.0006   -0.0002    0.0003   -0.0000    0.0001    0.0000   -0.0000   -0.0002
          19    0.1015   -0.0898    0.0703    0.0040   -0.0000   -0.0003    0.0082    0.0008
          20   -0.0404    0.0738   -0.0637    0.0003   -0.0000    0.0001    0.0284    0.0135
          21   -0.0003    0.0004   -0.0003   -0.0000   -0.0003    0.0000    0.0001    0.0001
          22   -0.0086   -0.0326   -0.0300   -0.0003    0.0000   -0.0000   -0.0000   -0.0000
          23   -0.0409   -0.1041   -0.0946    0.0003    0.0000   -0.0001   -0.0000   -0.0001
          24   -0.0002   -0.0004   -0.0004    0.0000   -0.0001    0.0000    0.0000   -0.0000
          25   -0.0347   -0.0101    0.0109   -0.3743   -0.0000   -0.0000   -0.0000    0.0000
          26   -0.0055   -0.0019    0.0011   -0.0738   -0.0000   -0.0000   -0.0000    0.0000
          27   -0.0001   -0.0000    0.0000   -0.0006    0.0000   -0.0000    0.0000    0.0000
          28   -0.0152   -0.0039    0.0027    0.3815   -0.0000    0.0000    0.0000   -0.0003
          29   -0.0057   -0.0004    0.0047    0.0768   -0.0000    0.0000   -0.0001   -0.0003
          30   -0.0000    0.0000    0.0000    0.0005   -0.0000    0.0000    0.0000   -0.0000
          31   -0.0020    0.0117    0.0104    0.0008   -0.2025   -0.1725    0.0073   -0.0052
          32   -0.0087    0.0252    0.0037   -0.0004    0.2009    0.1701   -0.0102    0.0068
          33    0.0029   -0.0005   -0.0040   -0.0009    0.3704    0.3771   -0.0186    0.0128
          34   -0.0020    0.0117    0.0105    0.0008    0.2035   -0.1734    0.0073   -0.0052
          35   -0.0086    0.0251    0.0036   -0.0004   -0.2047    0.1739   -0.0104    0.0070
          36   -0.0029    0.0007    0.0040    0.0009    0.3679   -0.3748    0.0185   -0.0127
          37   -0.0014   -0.0003    0.0002    0.0124   -0.0000   -0.0001    0.0001    0.0002
          38   -0.0032   -0.0009    0.0009   -0.0049   -0.0000    0.0000   -0.0001   -0.0001
          39   -0.0058   -0.0015    0.0015   -0.0106   -0.0000    0.0001   -0.0002   -0.0003
          40   -0.0014   -0.0003    0.0002    0.0123    0.0000   -0.0001    0.0001    0.0001
          41   -0.0032   -0.0009    0.0009   -0.0049    0.0000    0.0000   -0.0001   -0.0001
          42    0.0057    0.0015   -0.0015    0.0106   -0.0000   -0.0001    0.0002    0.0002
          43   -0.0023   -0.0007    0.0002    0.0089    0.0000    0.0000   -0.0000    0.0000
          44    0.0060    0.0016   -0.0017    0.0164    0.0000    0.0001   -0.0001    0.0002
          45    0.0000   -0.0000   -0.0000    0.0000    0.0000   -0.0000    0.0000    0.0000
          46   -0.0495    0.0511   -0.0469   -0.0010    0.0000    0.0492    0.3992   -0.2502
          47   -0.0174    0.0438   -0.0407   -0.0001    0.0000    0.0079    0.0954   -0.0574
          48   -0.0000    0.0002   -0.0001    0.0000   -0.0016   -0.0000    0.0001   -0.0001
          49    0.0763    0.0541   -0.0548   -0.0100    0.0000   -0.0000   -0.0729   -0.3153
          50   -0.0328   -0.0013    0.0071    0.0020   -0.0000    0.0000    0.0877    0.3666
          51   -0.0002   -0.0000    0.0001   -0.0000   -0.0000   -0.0000    0.0005    0.0020
          52    0.0086    0.0519   -0.0494    0.0011    0.0000    0.0004   -0.0914   -0.0325
          53   -0.0302    0.0543   -0.0476    0.0031    0.0000    0.0038   -0.3400   -0.1401
          54   -0.0002    0.0002   -0.0002    0.0000   -0.0007    0.0000   -0.0016   -0.0006
          55    0.0295    0.0739    0.0646   -0.0004   -0.0000    0.0020    0.0003    0.0002
          56   -0.0197   -0.0346   -0.0336    0.0016   -0.0000   -0.0006   -0.0004   -0.0002
          57   -0.0001   -0.0002   -0.0002    0.0000    0.0000   -0.0000   -0.0000   -0.0000
          58   -0.0258   -0.0805   -0.0761   -0.0024   -0.0000    0.0003   -0.0004   -0.0002
          59    0.0045    0.0124    0.0138   -0.0002   -0.0000    0.0003   -0.0001   -0.0001
          60    0.0000    0.0001    0.0001    0.0000   -0.0006   -0.0000   -0.0000    0.0000


   Root No.      49        50        51        52        53        54

                49 A      50 A      51 A      52 A      53 A      54 A   

                3065.0    3066.6    3073.5    3134.8    3142.1    3151.9
  
           1   -0.0000   -0.0000   -0.0013    0.0003   -0.0002    0.0000
           2    0.0000    0.0000    0.0013    0.0002   -0.0006   -0.0000
           3   -0.0000    0.0000    0.0000   -0.0000   -0.0000    0.0000
           4    0.0005    0.0102   -0.0000   -0.0000   -0.0000   -0.0242
           5   -0.0019   -0.0512    0.0001    0.0001   -0.0000   -0.0051
           6   -0.0581    0.0017   -0.0000    0.0000   -0.0000   -0.0000
           7    0.0000    0.0000    0.0001    0.0016    0.0015    0.0000
           8    0.0000    0.0000    0.0005    0.0058    0.0028   -0.0000
           9   -0.0000    0.0000    0.0000    0.0000    0.0000    0.0000
          10    0.0000    0.0000    0.0010   -0.0000    0.0001   -0.0002
          11   -0.0000   -0.0000    0.0016    0.0000    0.0009   -0.0001
          12   -0.0000    0.0000    0.0000    0.0000    0.0000   -0.0000
          13    0.0000   -0.0000   -0.0239   -0.0001   -0.0001    0.0000
          14    0.0000   -0.0000   -0.0016    0.0000    0.0001    0.0000
          15    0.0000   -0.0000    0.0000    0.0000    0.0000   -0.0000
          16    0.0000    0.0000    0.0144   -0.0001   -0.0001   -0.0000
          17   -0.0000   -0.0000   -0.0172   -0.0002   -0.0002    0.0001
          18    0.0000   -0.0000   -0.0001   -0.0000   -0.0000    0.0000
          19    0.0000   -0.0000   -0.0061    0.0001    0.0000   -0.0000
          20    0.0000   -0.0000   -0.0342    0.0000   -0.0000    0.0000
          21   -0.0000   -0.0000   -0.0002    0.0000   -0.0000   -0.0000
          22   -0.0000   -0.0000   -0.0001   -0.0444    0.0545   -0.0000
          23   -0.0000   -0.0000   -0.0001   -0.0352   -0.0417    0.0000
          24    0.0000    0.0000   -0.0000   -0.0001   -0.0002    0.0000
          25   -0.0000    0.0001    0.0000   -0.0001    0.0000   -0.0001
          26   -0.0000   -0.0000    0.0000   -0.0001    0.0001   -0.0000
          27   -0.0000    0.0000   -0.0000   -0.0000   -0.0000    0.0000
          28    0.0000   -0.0001   -0.0002    0.0002   -0.0002    0.0007
          29   -0.0000   -0.0002   -0.0002   -0.0001    0.0001    0.0001
          30   -0.0002    0.0000   -0.0000   -0.0000    0.0000    0.0000
          31    0.0000    0.0001    0.0055    0.0002   -0.0010   -0.0000
          32    0.0000   -0.0001   -0.0070    0.0003   -0.0002    0.0000
          33    0.0000   -0.0001   -0.0133    0.0000    0.0011    0.0001
          34    0.0000    0.0001    0.0055    0.0002   -0.0010   -0.0000
          35   -0.0000   -0.0001   -0.0072    0.0003   -0.0002    0.0000
          36    0.0000    0.0001    0.0132   -0.0000   -0.0011   -0.0001
          37   -0.2007   -0.0922    0.0002    0.0001    0.0001    0.1247
          38    0.1937    0.0692   -0.0002   -0.0001   -0.0001   -0.1325
          39    0.3689    0.1933   -0.0005   -0.0004   -0.0002   -0.2666
          40    0.1920   -0.1031    0.0003    0.0001    0.0001    0.1234
          41   -0.1887    0.0810   -0.0002   -0.0001   -0.0001   -0.1326
          42    0.3546   -0.2154    0.0006    0.0003    0.0002    0.2666
          43    0.0028    0.0728   -0.0000   -0.0001    0.0000    0.0356
          44    0.0175    0.4621   -0.0002   -0.0004    0.0004    0.3253
          45   -0.0286    0.0013   -0.0000   -0.0000    0.0000    0.0003
          46   -0.0000    0.0005    0.2465    0.0001    0.0003   -0.0002
          47   -0.0000    0.0001    0.0555    0.0000    0.0001   -0.0000
          48    0.0000   -0.0000    0.0000    0.0000    0.0000    0.0000
          49   -0.0000   -0.0004   -0.1645   -0.0001   -0.0001    0.0004
          50    0.0000    0.0004    0.1870    0.0001    0.0001   -0.0005
          51   -0.0000    0.0000    0.0010   -0.0000   -0.0000   -0.0000
          52   -0.0000    0.0001    0.0966   -0.0002   -0.0000   -0.0000
          53   -0.0001    0.0003    0.3659   -0.0006   -0.0001   -0.0002
          54    0.0000    0.0000    0.0017   -0.0000   -0.0000   -0.0000
          55   -0.0000   -0.0001    0.0001   -0.1652   -0.4474    0.0003
          56    0.0000    0.0001   -0.0002    0.1734    0.5342   -0.0003
          57   -0.0000    0.0000   -0.0000    0.0010    0.0029   -0.0000
          58    0.0000    0.0005    0.0001    0.6709   -0.2124   -0.0000
          59    0.0000    0.0002    0.0000    0.1768   -0.0730    0.0000
          60   -0.0000    0.0000   -0.0000    0.0002   -0.0002    0.0000


           MASS-WEIGHTED COORDINATE ANALYSIS (NORMAL COORDINATES)


   Root No.       1         2         3         4         5         6         7         8

                 1 A       2 A       3 A       4 A       5 A       6 A       7 A       8 A   

                  43.6      83.6      97.0     105.3     213.6     313.7     348.4     379.0
  
           1    0.0015   -0.0011    0.1157   -0.0130    0.0000    0.0221    0.0007   -0.0361
           2   -0.0015   -0.0004    0.1009   -0.0109   -0.0011    0.0016   -0.0005   -0.0078
           3    0.5136   -0.0786   -0.0150   -0.0920    0.1527    0.0009    0.0629   -0.0006
           4   -0.0016    0.0014   -0.1429    0.0157   -0.0003   -0.0851    0.0061    0.3567
           5    0.0036   -0.0046    0.5230   -0.0617   -0.0013   -0.1851    0.0023    0.0153
           6    0.2141    0.0237    0.0447    0.3818    0.2187   -0.0013   -0.1132    0.0023
           7    0.0012   -0.0013    0.1574   -0.0177   -0.0002    0.0108    0.0015    0.0450
           8   -0.0007    0.0010   -0.1089    0.0129    0.0006   -0.0727   -0.0009   -0.2522
           9   -0.0438   -0.0392   -0.0120   -0.1031   -0.0296   -0.0036   -0.4427    0.0057
          10   -0.0001   -0.0000    0.0089   -0.0010    0.0002   -0.0568    0.0037    0.2110
          11   -0.0017    0.0020   -0.2410    0.0291    0.0013   -0.1028    0.0004   -0.1479
          12   -0.0775   -0.0092   -0.0408   -0.3495   -0.0686   -0.0055   -0.4674    0.0065
          13   -0.0004    0.0005   -0.0784    0.0095   -0.0003    0.0302   -0.0042   -0.2881
          14    0.0007   -0.0013    0.1472   -0.0185    0.0012   -0.0148    0.0022    0.0989
          15    0.1398    0.0305    0.0444    0.3959   -0.3360   -0.0020   -0.0646    0.0021
          16   -0.0014    0.0013   -0.1594    0.0183    0.0004    0.0127   -0.0027   -0.1562
          17   -0.0007    0.0013   -0.1823    0.0220   -0.0009   -0.1176   -0.0001   -0.0421
          18   -0.1921    0.0485   -0.0314   -0.2898    0.4243    0.0011    0.0479    0.0001
          19   -0.0019    0.0017   -0.2101    0.0244    0.0005   -0.0085   -0.0038   -0.2541
          20    0.0011   -0.0005    0.0198   -0.0032   -0.0005   -0.0595    0.0016    0.1396
          21   -0.1971    0.0853    0.0279    0.2226    0.1066    0.0022    0.1657   -0.0030
          22    0.0031   -0.0029    0.3407   -0.0394   -0.0012    0.3735   -0.0097   -0.3156
          23    0.0006    0.0014   -0.1662    0.0188    0.0004   -0.1861    0.0000   -0.1516
          24   -0.4991   -0.0320    0.0179    0.1225    0.1100    0.0010    0.1687   -0.0033
          25   -0.0006    0.0004   -0.0424    0.0048    0.0007   -0.2290    0.0049    0.2344
          26   -0.0001    0.0002    0.0150   -0.0014   -0.0004    0.6105   -0.0021    0.3494
          27    0.0913   -0.0107   -0.0127   -0.1022   -0.3695    0.0077    0.4871   -0.0056
          28   -0.0000   -0.0001    0.0156   -0.0017    0.0004   -0.1592    0.0053    0.2621
          29   -0.0023    0.0026   -0.2783    0.0332    0.0016    0.2959   -0.0038    0.0219
          30   -0.0049   -0.0222   -0.0449   -0.3713   -0.4204   -0.0013    0.0187   -0.0019
          31    0.1250   -0.0131    0.0487   -0.0311    0.0698    0.0113    0.1405    0.0152
          32   -0.1005    0.0231    0.0610    0.0963   -0.1303    0.0022   -0.0960    0.0292
          33    0.2683   -0.0419   -0.0131   -0.0942    0.1516    0.0016    0.1465   -0.0023
          34   -0.1235    0.0122    0.0567    0.0190   -0.0696    0.0089   -0.1389    0.0197
          35    0.0987   -0.0234    0.0361   -0.1063    0.1284    0.0046    0.0953    0.0257
          36    0.2696   -0.0422   -0.0132   -0.0953    0.1531    0.0016    0.1479   -0.0022
          37    0.0146   -0.0877    0.0165    0.0959    0.1226   -0.1207   -0.1492    0.0658
          38    0.0414    0.4828    0.2064   -0.0425    0.0190   -0.1613   -0.0261   -0.0459
          39    0.0507   -0.2745    0.0180    0.1722    0.1213   -0.0014   -0.1035    0.0034
          40   -0.0148    0.0887   -0.0050   -0.0982   -0.1231   -0.1161    0.1540    0.0621
          41   -0.0385   -0.4864    0.2027   -0.0058   -0.0199   -0.1599    0.0285   -0.0461
          42    0.0506   -0.2747    0.0180    0.1718    0.1207   -0.0018   -0.1028   -0.0003
          43   -0.0015    0.0006   -0.1608    0.0186   -0.0002    0.2086    0.0010    0.2245
          44    0.0012   -0.0019    0.1717   -0.0202   -0.0004   -0.0945    0.0009   -0.0165
          45    0.1136    0.5792    0.0172    0.1084    0.1137   -0.0012   -0.1007    0.0014
          46   -0.0002    0.0002   -0.0323    0.0040   -0.0002    0.0072   -0.0014   -0.0886
          47    0.0005   -0.0008    0.0848   -0.0108    0.0011    0.0017    0.0013    0.0528
          48    0.0537    0.0166    0.0278    0.2463   -0.2678   -0.0015   -0.0505    0.0012
          49   -0.0007    0.0006   -0.0794    0.0090    0.0002    0.0049   -0.0017   -0.1110
          50   -0.0003    0.0005   -0.0811    0.0099   -0.0008   -0.0318   -0.0015   -0.0687
          51   -0.0775    0.0216   -0.0160   -0.1473    0.2294    0.0017    0.1420   -0.0019
          52   -0.0010    0.0009   -0.1045    0.0120    0.0004   -0.0177   -0.0013   -0.0896
          53    0.0008   -0.0003    0.0171   -0.0026   -0.0001   -0.0133    0.0002    0.0438
          54   -0.1327    0.0462    0.0186    0.1489    0.0071    0.0014    0.1131   -0.0026
          55    0.0014   -0.0011    0.1326   -0.0154   -0.0005    0.1867   -0.0054   -0.1796
          56    0.0006    0.0002   -0.0197    0.0017   -0.0003    0.0101   -0.0030   -0.1158
          57   -0.1540   -0.0134    0.0131    0.1017    0.0756    0.0024    0.2237   -0.0040
          58    0.0010   -0.0009    0.1101   -0.0128   -0.0004    0.1351   -0.0037   -0.1224
          59    0.0001    0.0007   -0.0889    0.0104    0.0004   -0.1433    0.0031    0.0605
          60   -0.2496   -0.0030    0.0049    0.0269    0.0260   -0.0003    0.0567   -0.0006


   Root No.       9        10        11        12        13        14        15        16

                 9 A      10 A      11 A      12 A      13 A      14 A      15 A      16 A   

                 424.7     447.1     511.9     526.8     590.8     626.2     715.3     731.7
  
           1   -0.0011    0.3783   -0.0002   -0.2108   -0.0027    0.2543    0.0012    0.2095
           2   -0.0001    0.0614    0.0030    0.3210    0.0013   -0.0846   -0.0002   -0.2654
           3    0.0065    0.0001   -0.0669    0.0028   -0.0550   -0.0004   -0.1693   -0.0010
           4    0.0012   -0.2057   -0.0012   -0.1152   -0.0003   -0.0248   -0.0011   -0.3348
           5    0.0004   -0.0659   -0.0006   -0.0240    0.0001   -0.0356   -0.0004   -0.0556
           6   -0.0089   -0.0003    0.0095   -0.0005    0.0124   -0.0001    0.0265   -0.0008
           7   -0.0005    0.3118   -0.0002   -0.1381   -0.0020    0.1686    0.0006    0.1768
           8   -0.0015    0.0780   -0.0017   -0.2696    0.0008   -0.1174    0.0003   -0.1679
           9    0.2735    0.0027   -0.4381    0.0029   -0.0965    0.0017   -0.2717    0.0002
          10    0.0004   -0.0179    0.0006    0.0301   -0.0002    0.0405    0.0008    0.2007
          11   -0.0001   -0.1807   -0.0033   -0.1513    0.0001   -0.0770   -0.0022    0.1523
          12    0.0529    0.0016    0.1217   -0.0024    0.1997   -0.0013    0.5974   -0.0012
[...]
 EFF. MASS   4.7356

 VIBRATION   33   33A         ATOM PAIR      ENERGY CONTRIBUTION    RADIAL
 FREQ.      1315.42         C  8 -- H 20         +25.5% ( 54.5%)      0.2%
 T-DIPOLE    0.1005         C  8 -- H 19         +20.6% ( 48.9%)      0.9%
 TRAVEL      0.1317         C  1 -- C  5          +8.4% ( 31.2%)     64.4%
 RED. MASS   0.3663         C  1 -- H 12          +7.4% ( 29.2%)      0.0%
 EFF. MASS   2.9534

 VIBRATION   34   34A         ATOM PAIR      ENERGY CONTRIBUTION    RADIAL
 FREQ.      1346.44         C  1 -- H 11         +23.1% ( 53.3%)      4.7%
 T-DIPOLE    0.1380         C  1 -- H 12         +23.1% ( 53.3%)      4.7%
 TRAVEL      0.1196         C  6 -- C  7          +6.2% ( 27.5%)     95.7%
 RED. MASS   0.3855         C  1 -- C  5          +5.6% ( 26.2%)     54.7%
 EFF. MASS   3.5025

 VIBRATION   35   35A         ATOM PAIR      ENERGY CONTRIBUTION    RADIAL
 FREQ.      1375.43         C  2 -- H 15         +53.1% ( 63.1%)      0.1%
 T-DIPOLE    0.0633         C  2 -- H 14         +27.0% ( 45.0%)      6.5%
 TRAVEL      0.1758         C  2 -- H 13         +14.5% ( 32.9%)     21.3%
 RED. MASS   0.4272         C  2 -- C  9          +5.4% ( 20.0%)      0.0%
 EFF. MASS   1.5858

 VIBRATION   36   36A         ATOM PAIR      ENERGY CONTRIBUTION    RADIAL
 FREQ.      1375.59         C  2 -- H 13         +48.3% ( 60.3%)      0.7%
 T-DIPOLE    0.0642         C  2 -- H 14         +35.9% ( 52.0%)      3.2%
 TRAVEL      0.1748         C  2 -- H 15          +9.7% ( 27.0%)     44.6%
 RED. MASS   0.4264         C  2 -- C  9          +5.3% ( 20.1%)      0.2%
 EFF. MASS   1.6045

 VIBRATION   37   37A         ATOM PAIR      ENERGY CONTRIBUTION    RADIAL
 FREQ.      1378.71         C  1 -- H 12         +12.3% ( 50.7%)      0.4%
 T-DIPOLE    0.1384         C  1 -- H 11         +12.3% ( 50.7%)      0.4%
 TRAVEL      0.0799         C  1 -- C  3         +12.2% ( 50.3%)     84.7%
 RED. MASS   1.1815         C  1 -- C  5         +11.6% ( 49.1%)     37.6%
 EFF. MASS   7.6533

 VIBRATION   38   38A         ATOM PAIR      ENERGY CONTRIBUTION    RADIAL
 FREQ.      1397.88         C  1 -- C  3          +9.7% ( 45.0%)     33.8%
 T-DIPOLE    0.1431         C  1 -- C  5          +9.4% ( 44.1%)     88.1%
 TRAVEL      0.0776         C  2 -- H 15          +7.5% ( 39.4%)      3.9%
 RED. MASS   0.8599         C  2 -- H 13          +7.4% ( 39.2%)      3.7%
 EFF. MASS   8.0179

 VIBRATION   39   39A         ATOM PAIR      ENERGY CONTRIBUTION    RADIAL
 FREQ.      1481.58         C  1 -- C  5         +11.9% ( 53.6%)     91.3%
 T-DIPOLE    0.1953         C  6 -- C  7         +11.9% ( 53.5%)     99.7%
 TRAVEL      0.0644         C  1 -- C  3          +9.7% ( 48.4%)     97.6%
 RED. MASS   1.3388         C  2 -- C  9          +7.4% ( 42.1%)    100.0%
 EFF. MASS  10.9624

 VIBRATION   40   40A         ATOM PAIR      ENERGY CONTRIBUTION    RADIAL
 FREQ.      1571.39         C  3 -- C  4         +22.9% ( 72.4%)     77.2%
 T-DIPOLE    0.7364         C  4 -- C 10         +22.0% ( 71.0%)     80.9%
 TRAVEL      0.0607         C  4 -- C  6         +13.2% ( 55.1%)      6.2%
 RED. MASS   2.9439         C  2 -- C  9         +12.9% ( 54.3%)    100.0%
 EFF. MASS  11.6605

 VIBRATION   41   41A         ATOM PAIR      ENERGY CONTRIBUTION    RADIAL
 FREQ.      1829.59         C  4 -- C  6         +32.4% ( 85.2%)     95.2%
 T-DIPOLE    0.1242         C  6 -- C  7         +15.1% ( 58.2%)     92.0%
 TRAVEL      0.0555         C  4 -- C 10         +11.2% ( 50.0%)     45.6%
 RED. MASS   3.5177         C  3 -- C  4         +10.6% ( 48.6%)     13.8%
 EFF. MASS  11.9750

 VIBRATION   42   42A         ATOM PAIR      ENERGY CONTRIBUTION    RADIAL
 FREQ.      1838.75         C  3 -- C  8         +22.5% ( 70.2%)    100.0%
 T-DIPOLE    0.5535         C  5 -- C  7         +20.9% ( 67.6%)     99.9%
 TRAVEL      0.0557         C  3 -- C  4          +8.3% ( 42.6%)     40.1%
 RED. MASS   2.5452         C  1 -- C  3          +8.1% ( 42.2%)     36.6%
 EFF. MASS  11.8407

 VIBRATION   43   43A         ATOM PAIR      ENERGY CONTRIBUTION    RADIAL
 FREQ.      1868.07         C  3 -- C  8         +21.0% ( 67.6%)     99.8%
 T-DIPOLE    0.3894         C  5 -- C  7         +14.2% ( 55.6%)     99.7%
 TRAVEL      0.0551         C  3 -- C  4         +13.5% ( 54.2%)     36.3%
 RED. MASS   2.1601         C  1 -- C  3          +9.2% ( 44.7%)     20.6%
 EFF. MASS  11.8750

 VIBRATION   44   44A         ATOM PAIR      ENERGY CONTRIBUTION    RADIAL
 FREQ.      2454.24         C  9 -- C 10         +59.2% ( 97.0%)    100.0%
 T-DIPOLE    0.8578         C  4 -- C 10         +20.5% ( 57.0%)    100.0%
 TRAVEL      0.0478         C  2 -- C  9         +19.0% ( 54.9%)    100.0%
 RED. MASS   5.6101         C  3 -- C  4          +0.4% (  7.7%)     21.6%
 EFF. MASS  12.0084

 VIBRATION   45   45A         ATOM PAIR      ENERGY CONTRIBUTION    RADIAL
 FREQ.      2924.11         C  1 -- H 12         +48.9% ( 72.6%)     96.5%
 T-DIPOLE    0.0700         C  1 -- H 11         +48.9% ( 72.6%)     96.5%
 TRAVEL      0.1226         C  1 -- C  3          +1.1% ( 10.8%)      0.0%
 RED. MASS   0.5175         C  1 -- C  5          +1.1% ( 10.8%)      0.0%
 EFF. MASS   1.5343

 VIBRATION   46   46A         ATOM PAIR      ENERGY CONTRIBUTION    RADIAL
 FREQ.      3004.33         C  1 -- H 11         +49.0% ( 69.0%)     97.8%
 T-DIPOLE    0.1337         C  1 -- H 12         +49.0% ( 69.0%)     97.8%
 TRAVEL      0.1325         C  5 -- H 16          +0.7% (  8.1%)    100.0%
 RED. MASS   0.4779         C  1 -- C  5          +0.7% (  8.0%)     19.5%
 EFF. MASS   1.2782

 VIBRATION   47   47A         ATOM PAIR      ENERGY CONTRIBUTION    RADIAL
 FREQ.      3050.32         C  5 -- H 16         +53.6% ( 74.3%)    100.0%
 T-DIPOLE    0.2541         C  7 -- H 18         +39.5% ( 63.8%)    100.0%
 TRAVEL      0.1227         C  6 -- H 17          +4.2% ( 20.7%)     99.9%
 RED. MASS   0.4349         C  5 -- C  7          +1.1% ( 10.5%)      0.4%
 EFF. MASS   1.4679

 VIBRATION   48   48A         ATOM PAIR      ENERGY CONTRIBUTION    RADIAL
 FREQ.      3061.24         C  6 -- H 17         +70.6% ( 85.4%)    100.0%
 T-DIPOLE    0.3209         C  5 -- H 16         +19.8% ( 45.3%)    100.0%
 TRAVEL      0.1201         C  7 -- H 18          +6.3% ( 25.5%)     99.5%
 RED. MASS   0.5359         C  6 -- C  7          +1.2% ( 11.1%)      7.1%
 EFF. MASS   1.5265

 VIBRATION   49   49A         ATOM PAIR      ENERGY CONTRIBUTION    RADIAL
 FREQ.      3065.01         C  2 -- H 13         +50.8% ( 73.5%)     97.3%
 T-DIPOLE    0.0636         C  2 -- H 14         +47.2% ( 70.8%)     96.7%
 TRAVEL      0.1207         C  2 -- H 15          +1.0% ( 10.4%)      1.9%
 RED. MASS   0.5113         C  2 -- C  9          +1.0% ( 10.3%)      0.0%
 EFF. MASS   1.5108

 VIBRATION   50   50A         ATOM PAIR      ENERGY CONTRIBUTION    RADIAL
 FREQ.      3066.63         C  2 -- H 15         +64.4% ( 82.7%)     98.8%
 T-DIPOLE    0.0626         C  2 -- H 14         +19.2% ( 45.2%)     86.2%
 TRAVEL      0.1206         C  2 -- H 13         +15.4% ( 40.5%)     82.4%
 RED. MASS   0.5059         C  2 -- C  9          +1.0% ( 10.3%)      0.0%
 EFF. MASS   1.5119

 VIBRATION   51   51A         ATOM PAIR      ENERGY CONTRIBUTION    RADIAL
 FREQ.      3073.48         C  7 -- H 18         +51.2% ( 72.6%)    100.0%
 T-DIPOLE    0.4801         C  5 -- H 16         +22.9% ( 48.5%)     99.8%
 TRAVEL      0.1175         C  6 -- H 17         +22.1% ( 47.7%)    100.0%
 RED. MASS   0.3645         C  5 -- C  7          +1.6% ( 12.7%)     93.1%
 EFF. MASS   1.5886

 VIBRATION   52   52A         ATOM PAIR      ENERGY CONTRIBUTION    RADIAL
 FREQ.      3134.82         C  8 -- H 20         +88.3% ( 94.4%)     99.4%
 T-DIPOLE    0.3323         C  8 -- H 19         +10.2% ( 32.1%)     62.6%
 TRAVEL      0.1228         C  3 -- C  8          +1.4% ( 12.0%)     73.9%
 RED. MASS   0.7632
 EFF. MASS   1.4265

 VIBRATION   53   53A         ATOM PAIR      ENERGY CONTRIBUTION    RADIAL
 FREQ.      3142.07         C  8 -- H 19         +87.3% ( 95.3%)     99.7%
 T-DIPOLE    0.2304         C  8 -- H 20         +11.4% ( 34.4%)     81.7%
 TRAVEL      0.1172         C  3 -- C  8          +1.3% ( 11.8%)     14.6%
 RED. MASS   0.7926
 EFF. MASS   1.5619

 VIBRATION   54   54A         ATOM PAIR      ENERGY CONTRIBUTION    RADIAL
 FREQ.      3151.93         C  2 -- H 15         +33.9% ( 56.2%)     97.2%
 T-DIPOLE    0.1194         C  2 -- H 13         +32.9% ( 55.3%)     97.1%
 TRAVEL      0.1370         C  2 -- H 14         +32.8% ( 55.3%)     97.0%
 RED. MASS   0.3271         C  2 -- C  9          +0.3% (  5.7%)    100.0%
 EFF. MASS   1.1395

      SYMMETRY NUMBER FOR POINT-GROUP C1  =  1


          SYSTEM IS A GROUND STATE



 InChI=1S/C10H10/c1-3-6-10-8-5-4-7-9(10)2/h4-5,8H,2,7H2,1H3


          MOLECULE IS NOT LINEAR

          THERE ARE 54 GENUINE VIBRATIONS IN THIS SYSTEM
          THIS THERMODYNAMICS CALCULATION IS LIMITED TO
          MOLECULES WHICH HAVE NO INTERNAL ROTATIONS




                    CALCULATED THERMODYNAMIC PROPERTIES
                                          *
   TEMP. (K)   PARTITION FUNCTION   H.O.F.    ENTHALPY  HEAT CAPACITY ENTROPY
                                   KCAL/MOL   CAL/MOLE    CAL/K/MOL  CAL/K/MOL


 298.00  VIB.     0.6604D+03                  4320.8653    30.1939    27.4021
         ROT.     0.7078D+06                   888.2813     2.9808    29.7482
         INT.     0.4674D+09                  5209.1466    33.1747    57.1502
         TRA.     0.1436D+28                  1480.4688     4.9680    40.5022
         TOT.                       80.857    6689.6155    38.1427    97.6524

 200.00  VIB.     0.6177D+02                  1901.9243    19.2648    17.7039
         ROT.     0.3891D+06                   596.1620     2.9808    28.5595
         INT.     0.2404D+08                  2498.0863    22.2456    46.2634
         TRA.     0.7896D+27                   993.6033     4.9680    38.5210
         TOT.                       77.659    3491.6895    27.2136    84.7844

 210.00  VIB.     0.7849D+02                  2099.9460    20.3420    18.6698
         ROT.     0.4187D+06                   625.9700     2.9808    28.7049
         INT.     0.3286D+08                  2725.9160    23.3228    47.3747
         TRA.     0.8496D+27                  1043.2834     4.9680    38.7634
         TOT.                       77.936    3769.1994    28.2908    86.1381

 220.00  VIB.     0.9976D+02                  2308.8116    21.4333    19.6412
         ROT.     0.4489D+06                   655.7781     2.9808    28.8436
         INT.     0.4479D+08                  2964.5897    24.4141    48.4848
         TRA.     0.9110D+27                  1092.9636     4.9680    38.9945
         TOT.                       78.225    4057.5533    29.3821    87.4794

 230.00  VIB.     0.1269D+03                  2528.6530    22.5369    20.6183
         ROT.     0.4799D+06                   685.5862     2.9808    28.9761
         INT.     0.6088D+08                  3214.2393    25.5177    49.5944
         TRA.     0.9738D+27                  1142.6437     4.9680    39.2154
         TOT.                       78.524    4356.8830    30.4857    88.8098

 240.00  VIB.     0.1614D+03                  2759.5826    23.6506    21.6009
         ROT.     0.5115D+06                   715.3943     2.9808    29.1030
         INT.     0.8256D+08                  3474.9769    26.6314    50.7039
         TRA.     0.1038D+28                  1192.3239     4.9680    39.4268
         TOT.                       78.834    4667.3008    31.5994    90.1307

 250.00  VIB.     0.2055D+03                  3001.6908    24.7722    22.5891
         ROT.     0.5438D+06                   745.2024     2.9808    29.2247
         INT.     0.1117D+09                  3746.8932    27.7530    51.8138
         TRA.     0.1103D+28                  1242.0041     4.9680    39.6296
         TOT.                       79.156    4988.8973    32.7210    91.4434

 260.00  VIB.     0.2617D+03                  3255.0456    25.8995    23.5827
         ROT.     0.5768D+06                   775.0105     2.9808    29.3416
         INT.     0.1510D+09                  4030.0561    28.8803    52.9242
         TRA.     0.1170D+28                  1291.6842     4.9680    39.8245
         TOT.                       79.489    5321.7403    33.8483    92.7487

 270.00  VIB.     0.3336D+03                  3519.6916    27.0301    24.5813
         ROT.     0.6104D+06                   804.8186     2.9808    29.4541
         INT.     0.2036D+09                  4324.5102    30.0109    54.0354
         TRA.     0.1239D+28                  1341.3644     4.9680    40.0120
         TOT.                       79.833    5665.8746    34.9789    94.0473

 280.00  VIB.     0.4255D+03                  3795.6502    28.1616    25.5848
         ROT.     0.6446D+06                   834.6267     2.9808    29.5625
         INT.     0.2743D+09                  4630.2770    31.1424    55.1472
         TRA.     0.1308D+28                  1391.0445     4.9680    40.1926
         TOT.                       80.188    6021.3215    36.1105    95.3399

 290.00  VIB.     0.5430D+03                  4082.9202    29.2920    26.5927
         ROT.     0.6794D+06                   864.4348     2.9808    29.6671
         INT.     0.3689D+09                  4947.3550    32.2728    56.2598
         TRA.     0.1379D+28                  1440.7247     4.9680    40.3670
         TOT.                       80.555    6388.0797    37.2408    96.6268

 300.00  VIB.     0.6935D+03                  4381.4781    30.4189    27.6048
         ROT.     0.7149D+06                   894.2429     2.9808    29.7681
         INT.     0.4958D+09                  5275.7211    33.3997    57.3729
         TRA.     0.1451D+28                  1490.4049     4.9680    40.5354
         TOT.                       80.933    6766.1259    38.3677    97.9083

 310.00  VIB.     0.8863D+03                  4691.2803    31.5405    28.6205
         ROT.     0.7509D+06                   924.0510     2.9808    29.8659
         INT.     0.6656D+09                  5615.3313    34.5213    58.4864
         TRA.     0.1524D+28                  1540.0850     4.9680    40.6983
         TOT.                       81.323    7155.4164    39.4893    99.1847

 320.00  VIB.     0.1134D+04                  5012.2636    32.6548    29.6395
         ROT.     0.7876D+06                   953.8591     2.9808    29.9605
         INT.     0.8927D+09                  5966.1227    35.6356    59.6000
         TRA.     0.1598D+28                  1589.7652     4.9680    40.8560
         TOT.                       81.723    7555.8879    40.6037   100.4560

 330.00  VIB.     0.1451D+04                  5344.3474    33.7603    30.6613
         ROT.     0.8248D+06                   983.6672     2.9808    30.0522
         INT.     0.1196D+10                  6328.0146    36.7411    60.7135
         TRA.     0.1674D+28                  1639.4454     4.9680    41.0089
         TOT.                       82.135    7967.4600    41.7091   101.7224

 340.00  VIB.     0.1857D+04                  5687.4350    34.8554    31.6854
         ROT.     0.8625D+06                  1013.4753     2.9808    30.1412
         INT.     0.1602D+10                  6700.9103    37.8362    61.8266
         TRA.     0.1750D+28                  1689.1255     4.9680    41.1572
         TOT.                       82.557    8390.0359    42.8042   102.9838

 350.00  VIB.     0.2380D+04                  6041.4157    35.9387    32.7115
         ROT.     0.9009D+06                  1043.2834     2.9808    30.2276
         INT.     0.2144D+10                  7084.6991    38.9195    62.9391
         TRA.     0.1828D+28                  1738.8057     4.9680    41.3012
         TOT.                       82.991    8823.5048    43.8875   104.2403

 360.00  VIB.     0.3051D+04                  6406.1661    37.0091    33.7389
         ROT.     0.9397D+06                  1073.0915     2.9808    30.3116
         INT.     0.2867D+10                  7479.2576    39.9900    64.0505
         TRA.     0.1907D+28                  1788.4859     4.9680    41.4412
         TOT.                       83.435    9267.7435    44.9580   105.4917

 370.00  VIB.     0.3914D+04                  6781.5522    38.0657    34.7674
         ROT.     0.9792D+06                  1102.8996     2.9808    30.3933
         INT.     0.3833D+10                  7884.4518    41.0465    65.1606
         TRA.     0.1987D+28                  1838.1660     4.9680    41.5773
         TOT.                       83.890    9722.6178    46.0145   106.7379

 380.00  VIB.     0.5023D+04                  7167.4307    39.1075    35.7964
         ROT.     0.1019D+07                  1132.7077     2.9808    30.4728
         INT.     0.5120D+10                  8300.1384    42.0883    66.2691
         TRA.     0.2068D+28                  1887.8462     4.9680    41.7098
         TOT.                       84.355   10187.9846    47.0563   107.9789

 390.00  VIB.     0.6450D+04                  7563.6506    40.1339    36.8255
         ROT.     0.1060D+07                  1162.5158     2.9808    30.5502
         INT.     0.6835D+10                  8726.1664    43.1147    67.3757
         TRA.     0.2150D+28                  1937.5263     4.9680    41.8388
         TOT.                       84.831   10663.6927    48.0827   109.2145

 400.00  VIB.     0.8286D+04                  7970.0547    41.1443    37.8544
         ROT.     0.1101D+07                  1192.3239     2.9808    30.6256
         INT.     0.9120D+10                  9162.3786    44.1251    68.4800
         TRA.     0.2233D+28                  1987.2065     4.9680    41.9646
         TOT.                       85.317   11149.5851    49.0931   110.4446

   *: NOTE: HEATS OF FORMATION ARE RELATIVE TO THE
            ELEMENTS IN THEIR STANDARD STATE AT 298K
              (=  Standard Enthalpy of Formation).

            Hvib:  Zero-point energy is not included.
                   frequencies of less than zero cm-1 are not included.
            Hrot = (3/2)RT
            Htra = (3/2)RT + pV = (5/2)RT

            Heat capacity is Cp, not Cv

          For more information, see: HTTP://OpenMOPAC.net/Manual/thermochemistry.html


           FORCE CONSTANT IN CARTESIAN COORDINATES (Millidynes/A)

    ATOM   CHEMICAL       X               Y               Z
   NUMBER   SYMBOL  FORCE CONSTANT  FORCE CONSTANT  FORCE CONSTANT

      1       C        8.872704        9.417404        7.596859
      2       C       10.028890        8.093165        7.979631
      3       C       10.331794       15.096019        2.601860
      4       C       12.576548       14.147540        2.444489
      5       C       12.520425       12.146971        2.375472
      6       C       11.213617       14.085270        2.189667
      7       C       12.514396       12.925105        2.197324
      8       C        9.847175       14.579169        1.953668
      9       C       23.716553        2.544720        1.639912
     10       C       24.157734        3.026609        1.462853
     11       H        1.372938        1.338770        3.449019
     12       H        1.380356        1.368187        3.412387
     13       H        1.445176        1.380193        3.753449
     14       H        1.430976        1.383737        3.763755
     15       H        0.729180        5.220922        0.634612
     16       H        4.911568        0.995143        0.348466
     17       H        2.641837        3.281683        0.343950
     18       H        1.047663        4.865182        0.348731
     19       H        2.664900        3.459210        0.328790
     20       H        5.078721        1.048680        0.332063

 **********************
 *                    *
 * JOB ENDED NORMALLY *
 *                    *
 **********************



 TOTAL JOB TIME:             6.36 SECONDS

 == MOPAC DONE ==
