 *******************************************************************************
 ** Site#: 14399        For non-commercial use only    Version 18.184L 64BITS **
 *******************************************************************************
 ** Cite this program as: MOPAC2016, Version: 18.184L, James J. P. Stewart,   **
 ** Stewart Computational Chemistry, web: HTTP://OpenMOPAC.net. Days left:  20**
 *******************************************************************************
 **                                                                           **
 **                                MOPAC2016                                  **
 **                                                                           **
 *******************************************************************************

                              PM3 CALCULATION RESULTS

 *******************************************************************************
 *  CALCULATION DONE:                                Thu Jun 13 19:48:40 2019  *
 *  PM3        - The PM3 Hamiltonian to be used
 *  PRECISE    - CRITERIA TO BE INCREASED BY 100 TIMES
 *  NOSYM      - POINT-GROUP SYMMETRY SET TO C1
 *  THREADS=1  - MULTI-THREADING NOT USED
 *  T=         - A TIME OF 172800.0 SECONDS REQUESTED
 *  DUMP=N     - RESTART FILE WRITTEN EVERY  7200.000 SECONDS
 *******************************************************************************
pm3  precise nosym THREADS=1
 InChI=1S/C7H12/c1-3-4-7-5-6(7)2/h3-5H2,1-2H3

   ATOM   CHEMICAL          X               Y               Z
  NUMBER   SYMBOL      (ANGSTROMS)     (ANGSTROMS)     (ANGSTROMS)
 
     1       C          1.31590000  *  -0.72500000  *  -0.08410000  *
     2       C          0.87530000  *   0.37760000  *   0.88100000  *
     3       C         -1.67850000  *   1.52050000  *   0.92530000  *
     4       C          2.76900000  *  -1.12100000  *   0.15950000  *
     5       C         -2.57580000  *  -0.08350000  *  -1.18010000  *
     6       C         -0.54760000  *   0.75200000  *   0.62810000  *
     7       C         -1.78610000  *   0.58690000  *  -0.11120000  *
     8       H          1.21000000  *  -0.36960000  *  -1.13270000  *
     9       H          0.67070000  *  -1.62090000  *   0.05070000  *
    10       H          1.50990000  *   1.27910000  *   0.74440000  *
    11       H          0.96930000  *   0.02520000  *   1.93030000  *
    12       H         -2.19710000  *   1.22620000  *   1.86060000  *
    13       H         -1.61570000  *   2.57460000  *   0.58560000  *
    14       H          2.89630000  *  -1.50380000  *   1.19460000  *
    15       H          3.43790000  *  -0.24740000  *   0.00620000  *
    16       H          3.06070000  *  -1.92090000  *  -0.55330000  *
    17       H         -2.91560000  *   0.67220000  *  -1.91780000  *
    18       H         -1.94150000  *  -0.83830000  *  -1.68910000  *
    19       H         -3.45730000  *  -0.58420000  *  -0.72970000  *
 


          CARTESIAN COORDINATES 

    NO.       ATOM           X           Y           Z

     1         C          1.3159     -0.7250     -0.0841
     2         C          0.8753      0.3776      0.8810
     3         C         -1.6785      1.5205      0.9253
     4         C          2.7690     -1.1210      0.1595
     5         C         -2.5758     -0.0835     -1.1801
     6         C         -0.5476      0.7520      0.6281
     7         C         -1.7861      0.5869     -0.1112
     8         H          1.2100     -0.3696     -1.1327
     9         H          0.6707     -1.6209      0.0507
    10         H          1.5099      1.2791      0.7444
    11         H          0.9693      0.0252      1.9303
    12         H         -2.1971      1.2262      1.8606
    13         H         -1.6157      2.5746      0.5856
    14         H          2.8963     -1.5038      1.1946
    15         H          3.4379     -0.2474      0.0062
    16         H          3.0607     -1.9209     -0.5533
    17         H         -2.9156      0.6722     -1.9178
    18         H         -1.9415     -0.8383     -1.6891
    19         H         -3.4573     -0.5842     -0.7297

  H: (PM3): J. J. P. STEWART, J. COMP. CHEM. 10, 209 (1989).
  C: (PM3): J. J. P. STEWART, J. COMP. CHEM. 10, 209 (1989).

           Empirical Formula: C7 H12  =    19 atoms



      MOLECULAR POINT GROUP   :   C1  


      RHF CALCULATION, NO. OF DOUBLY OCCUPIED LEVELS = 20


          Geometry optimization using EF

          DIAGONAL MATRIX USED AS START HESSIAN

 CYCLE:     1 TIME:   0.023 TIME LEFT:  2.00D  GRAD.:   254.146 HEAT:  64.42474
 CYCLE:     2 TIME:   0.031 TIME LEFT:  2.00D  GRAD.:   161.440 HEAT:  48.75990
 CYCLE:     3 TIME:   0.023 TIME LEFT:  2.00D  GRAD.:   188.575 HEAT:  44.79782
 CYCLE:     4 TIME:   0.023 TIME LEFT:  2.00D  GRAD.:   120.109 HEAT:  42.13625
 CYCLE:     5 TIME:   0.023 TIME LEFT:  2.00D  GRAD.:    86.647 HEAT:  40.27870
 CYCLE:     6 TIME:   0.023 TIME LEFT:  2.00D  GRAD.:   108.866 HEAT:  39.83439
 CYCLE:     7 TIME:   0.031 TIME LEFT:  2.00D  GRAD.:    71.729 HEAT:  38.81026
 CYCLE:     8 TIME:   0.031 TIME LEFT:  2.00D  GRAD.:    50.331 HEAT:  37.71286
 CYCLE:     9 TIME:   0.023 TIME LEFT:  2.00D  GRAD.:    46.349 HEAT:  37.61085
 CYCLE:    10 TIME:   0.023 TIME LEFT:  2.00D  GRAD.:    42.131 HEAT:  37.34394
 CYCLE:    11 TIME:   0.023 TIME LEFT:  2.00D  GRAD.:    36.031 HEAT:  37.17401
 CYCLE:    12 TIME:   0.039 TIME LEFT:  2.00D  GRAD.:    14.708 HEAT:  36.81081
 CYCLE:    13 TIME:   0.031 TIME LEFT:  2.00D  GRAD.:    11.906 HEAT:  36.74365
 CYCLE:    14 TIME:   0.031 TIME LEFT:  2.00D  GRAD.:    12.043 HEAT:  36.69388
 CYCLE:    15 TIME:   0.016 TIME LEFT:  2.00D  GRAD.:    13.738 HEAT:  36.63527
 CYCLE:    16 TIME:   0.023 TIME LEFT:  2.00D  GRAD.:    15.338 HEAT:  36.60740
 CYCLE:    17 TIME:   0.031 TIME LEFT:  2.00D  GRAD.:     9.959 HEAT:  36.54205
 CYCLE:    18 TIME:   0.031 TIME LEFT:  2.00D  GRAD.:    10.190 HEAT:  36.52966
 CYCLE:    19 TIME:   0.023 TIME LEFT:  2.00D  GRAD.:     6.512 HEAT:  36.50201
 CYCLE:    20 TIME:   0.023 TIME LEFT:  2.00D  GRAD.:     5.840 HEAT:  36.48975
 CYCLE:    21 TIME:   0.023 TIME LEFT:  2.00D  GRAD.:     4.773 HEAT:  36.47635
 CYCLE:    22 TIME:   0.023 TIME LEFT:  2.00D  GRAD.:     3.153 HEAT:  36.46114
 CYCLE:    23 TIME:   0.023 TIME LEFT:  2.00D  GRAD.:     2.556 HEAT:  36.44883
 CYCLE:    24 TIME:   0.023 TIME LEFT:  2.00D  GRAD.:     4.627 HEAT:  36.44560
 CYCLE:    25 TIME:   0.023 TIME LEFT:  2.00D  GRAD.:     2.638 HEAT:  36.44006
 CYCLE:    26 TIME:   0.023 TIME LEFT:  2.00D  GRAD.:     1.867 HEAT:  36.43713
 CYCLE:    27 TIME:   0.023 TIME LEFT:  2.00D  GRAD.:     0.942 HEAT:  36.43513
 CYCLE:    28 TIME:   0.023 TIME LEFT:  2.00D  GRAD.:     0.861 HEAT:  36.43388
 CYCLE:    29 TIME:   0.023 TIME LEFT:  2.00D  GRAD.:     0.769 HEAT:  36.43311
 CYCLE:    30 TIME:   0.023 TIME LEFT:  2.00D  GRAD.:     0.661 HEAT:  36.43237
 CYCLE:    31 TIME:   0.023 TIME LEFT:  2.00D  GRAD.:     0.517 HEAT:  36.43155
 CYCLE:    32 TIME:   0.023 TIME LEFT:  2.00D  GRAD.:     0.454 HEAT:  36.43094
 CYCLE:    33 TIME:   0.023 TIME LEFT:  2.00D  GRAD.:     0.406 HEAT:  36.43071
 CYCLE:    34 TIME:   0.023 TIME LEFT:  2.00D  GRAD.:     0.293 HEAT:  36.43046
 CYCLE:    35 TIME:   0.023 TIME LEFT:  2.00D  GRAD.:     0.176 HEAT:  36.43035
 CYCLE:    36 TIME:   0.023 TIME LEFT:  2.00D  GRAD.:     0.144 HEAT:  36.43032
 CYCLE:    37 TIME:   0.023 TIME LEFT:  2.00D  GRAD.:     0.101 HEAT:  36.43029
 CYCLE:    38 TIME:   0.023 TIME LEFT:  2.00D  GRAD.:     0.143 HEAT:  36.43025
 CYCLE:    39 TIME:   0.016 TIME LEFT:  2.00D  GRAD.:     0.172 HEAT:  36.43020
 CYCLE:    40 TIME:   0.023 TIME LEFT:  2.00D  GRAD.:     0.197 HEAT:  36.43014
 CYCLE:    41 TIME:   0.023 TIME LEFT:  2.00D  GRAD.:     0.189 HEAT:  36.43008
 CYCLE:    42 TIME:   0.023 TIME LEFT:  2.00D  GRAD.:     0.250 HEAT:  36.42992
 CYCLE:    43 TIME:   0.023 TIME LEFT:  2.00D  GRAD.:     0.284 HEAT:  36.42978
 CYCLE:    44 TIME:   0.023 TIME LEFT:  2.00D  GRAD.:     0.239 HEAT:  36.42967
 CYCLE:    45 TIME:   0.023 TIME LEFT:  2.00D  GRAD.:     0.181 HEAT:  36.42958
 CYCLE:    46 TIME:   0.023 TIME LEFT:  2.00D  GRAD.:     0.149 HEAT:  36.42954
 CYCLE:    47 TIME:   0.117 TIME LEFT:  2.00D  GRAD.:     0.139 HEAT:  36.42947
 CYCLE:    48 TIME:   0.031 TIME LEFT:  2.00D  GRAD.:     0.112 HEAT:  36.42943
 CYCLE:    49 TIME:   0.023 TIME LEFT:  2.00D  GRAD.:     0.090 HEAT:  36.42940
 CYCLE:    50 TIME:   0.031 TIME LEFT:  2.00D  GRAD.:     0.086 HEAT:  36.42938
 CYCLE:    51 TIME:   0.023 TIME LEFT:  2.00D  GRAD.:     0.100 HEAT:  36.42936
 CYCLE:    52 TIME:   0.016 TIME LEFT:  2.00D  GRAD.:     0.102 HEAT:  36.42933
 CYCLE:    53 TIME:   0.023 TIME LEFT:  2.00D  GRAD.:     0.110 HEAT:  36.42928
 CYCLE:    54 TIME:   0.023 TIME LEFT:  2.00D  GRAD.:     0.116 HEAT:  36.42926
 CYCLE:    55 TIME:   0.023 TIME LEFT:  2.00D  GRAD.:     0.111 HEAT:  36.42923
 CYCLE:    56 TIME:   0.023 TIME LEFT:  2.00D  GRAD.:     0.102 HEAT:  36.42920
 CYCLE:    57 TIME:   0.023 TIME LEFT:  2.00D  GRAD.:     0.108 HEAT:  36.42917
 CYCLE:    58 TIME:   0.023 TIME LEFT:  2.00D  GRAD.:     0.103 HEAT:  36.42915
 CYCLE:    59 TIME:   0.023 TIME LEFT:  2.00D  GRAD.:     0.125 HEAT:  36.42912
 CYCLE:    60 TIME:   0.023 TIME LEFT:  2.00D  GRAD.:     0.108 HEAT:  36.42909
 CYCLE:    61 TIME:   0.023 TIME LEFT:  2.00D  GRAD.:     0.074 HEAT:  36.42906
 CYCLE:    62 TIME:   0.016 TIME LEFT:  2.00D  GRAD.:     0.128 HEAT:  36.42904
 CYCLE:    63 TIME:   0.023 TIME LEFT:  2.00D  GRAD.:     0.105 HEAT:  36.42902
 CYCLE:    64 TIME:   0.023 TIME LEFT:  2.00D  GRAD.:     0.114 HEAT:  36.42897
 CYCLE:    65 TIME:   0.023 TIME LEFT:  2.00D  GRAD.:     0.087 HEAT:  36.42896
 CYCLE:    66 TIME:   0.023 TIME LEFT:  2.00D  GRAD.:     0.084 HEAT:  36.42892
 CYCLE:    67 TIME:   0.023 TIME LEFT:  2.00D  GRAD.:     0.057 HEAT:  36.42891
 CYCLE:    68 TIME:   0.023 TIME LEFT:  2.00D  GRAD.:     0.082 HEAT:  36.42892
 CYCLE:    69 TIME:   0.023 TIME LEFT:  2.00D  GRAD.:     0.040 HEAT:  36.42890

     GRADIENT =  0.04030  IS LESS THAN CUTOFF =  0.05000



 -------------------------------------------------------------------------------
 pm3  precise nosym THREADS=1
 InChI=1S/C7H12/c1-3-4-7-5-6(7)2/h3-5H2,1-2H3



     GEOMETRY OPTIMISED USING EIGENVECTOR FOLLOWING (EF).     
     SCF FIELD WAS ACHIEVED                                   


                              PM3 CALCULATION
                                                       MOPAC2016 (Version: 18.184L)
                                                       Thu Jun 13 19:48:42 2019
                                                       No. of days remaining =  20




          FINAL HEAT OF FORMATION =         36.42890 KCAL/MOL =     152.41853 KJ/MOL


          TOTAL ENERGY            =      -1012.89535 EV
          ELECTRONIC ENERGY       =      -4698.12054 EV  POINT GROUP:     C1  
          CORE-CORE REPULSION     =       3685.22519 EV
          COSMO AREA              =        161.05 SQUARE ANGSTROMS
          COSMO VOLUME            =        151.52 CUBIC ANGSTROMS

          GRADIENT NORM           =          0.04030 = 0.00925 PER ATOM
          IONIZATION POTENTIAL    =          9.188288 EV
          HOMO LUMO ENERGIES (EV) =         -9.188  0.892
          NO. OF FILLED LEVELS    =         20
          MOLECULAR WEIGHT        =         96.1718

          MOLECULAR DIMENSIONS (Angstroms)

            Atom       Atom       Distance
            H    17    H    14     6.85975
            H    16    H    12     5.05298
            H    10    H    19     3.39292


          SCF CALCULATIONS        =         74
 
          WALL-CLOCK TIME         =          1.828 SECONDS
          COMPUTATION TIME        =          0.707 SECONDS




   ATOM   CHEMICAL          X               Y               Z
  NUMBER   SYMBOL      (ANGSTROMS)     (ANGSTROMS)     (ANGSTROMS)
 
     1       C          1.31598624  *  -0.75386076  *  -0.11542620  *
     2       C          0.80961247  *   0.34189220  *   0.81245051  *
     3       C         -1.69526593  *   1.56931908  *   0.97083477  *
     4       C          2.75820686  *  -1.09793112  *   0.18033879  *
     5       C         -2.51000995  *  -0.07069457  *  -1.13770741  *
     6       C         -0.57484084  *   0.68991829  *   0.54954894  *
     7       C         -1.70563905  *   0.55247381  *  -0.11146122  *
     8       H          1.20949569  *  -0.43309265  *  -1.17037407  *
     9       H          0.68081550  *  -1.65586144  *  -0.01482369  *
    10       H          1.43034021  *   1.25594827  *   0.71180539  *
    11       H          0.90078575  *   0.02817486  *   1.87273210  *
    12       H         -2.22623833  *   1.39568168  *   1.91576722  *
    13       H         -1.68985891  *   2.64235063  *   0.73949926  *
    14       H          2.88631309  *  -1.45561820  *   1.21073744  *
    15       H          3.41660391  *  -0.22821603  *   0.05314165  *
    16       H          3.12422135  *  -1.88702747  *  -0.48872002  *
    17       H         -2.86594111  *   0.67939347  *  -1.85674877  *
    18       H         -1.93811977  *  -0.82933215  *  -1.68670622  *
    19       H         -3.39005296  *  -0.55652051  *  -0.69513456  *

                             CARTESIAN COORDINATES

   1    C        1.315986243    -0.753860763    -0.115426198
   2    C        0.809612475     0.341892204     0.812450508
   3    C       -1.695265933     1.569319078     0.970834768
   4    C        2.758206859    -1.097931119     0.180338789
   5    C       -2.510009954    -0.070694565    -1.137707412
   6    C       -0.574840838     0.689918290     0.549548943
   7    C       -1.705639053     0.552473808    -0.111461220
   8    H        1.209495694    -0.433092652    -1.170374073
   9    H        0.680815496    -1.655861445    -0.014823691
  10    H        1.430340206     1.255948273     0.711805389
  11    H        0.900785750     0.028174864     1.872732104
  12    H       -2.226238326     1.395681678     1.915767223
  13    H       -1.689858910     2.642350631     0.739499257
  14    H        2.886313092    -1.455618196     1.210737444
  15    H        3.416603914    -0.228216028     0.053141653
  16    H        3.124221346    -1.887027470    -0.488720020
  17    H       -2.865941110     0.679393473    -1.856748772
  18    H       -1.938119767    -0.829332154    -1.686706223
  19    H       -3.390052963    -0.556520507    -0.695134562


           Empirical Formula: C7 H12  =    19 atoms



      MOLECULAR POINT GROUP   :   C1  


                  EIGENVALUES  
 -39.53816 -35.34448 -29.77817 -27.18529 -21.54079 -21.16031 -17.31331 -16.49758
 -16.36273 -15.28996 -15.01682 -14.37876 -13.71626 -13.51219 -13.19437 -12.75089
 -11.80497 -11.64045 -11.33656  -9.18829   0.89237   2.68058   2.94630   3.27512
   3.75121   3.78363   3.89857   3.95825   4.12959   4.33199   4.36570   4.37416
   4.50307   4.62417   4.74426   4.86586   4.98113   5.00995   5.19885   5.95798


              NET ATOMIC CHARGES AND DIPOLE CONTRIBUTIONS

  ATOM NO.   TYPE          CHARGE      No. of ELECS.   s-Pop       p-Pop       
    1          C          -0.098311        4.0983     1.15757     2.94074
    2          C           0.011858        3.9881     1.12573     2.86241
    3          C          -0.051269        4.0513     1.14448     2.90679
    4          C          -0.109724        4.1097     1.13835     2.97138
    5          C           0.003445        3.9966     1.09973     2.89683
    6          C          -0.169540        4.1695     1.21018     2.95936
    7          C          -0.169360        4.1694     1.20612     2.96324
    8          H           0.052509        0.9475     0.94749
    9          H           0.052517        0.9475     0.94748
   10          H           0.059468        0.9405     0.94053
   11          H           0.059445        0.9406     0.94055
   12          H           0.052198        0.9478     0.94780
   13          H           0.052207        0.9478     0.94779
   14          H           0.037985        0.9620     0.96202
   15          H           0.037988        0.9620     0.96201
   16          H           0.038378        0.9616     0.96162
   17          H           0.048120        0.9519     0.95188
   18          H           0.043963        0.9560     0.95604
   19          H           0.048122        0.9519     0.95188
 DIPOLE           X         Y         Z       TOTAL
 POINT-CHG.     0.234    -0.394    -0.310     0.553
 HYBRID        -0.004     0.012     0.011     0.017
 SUM            0.230    -0.382    -0.298     0.537


          ATOMIC ORBITAL ELECTRON POPULATIONS

     Atom    s        px        py        pz   
    1  C   1.15757   0.96254   0.98531   0.99289
    2  C   1.12573   0.89763   0.97824   0.98654
    3  C   1.14448   0.99754   0.93936   0.96989
    4  C   1.13835   0.95759   1.00608   1.00770
    5  C   1.09973   0.97001   0.98164   0.94518
    6  C   1.21018   0.94343   1.00633   1.00961
    7  C   1.20612   0.98912   0.99906   0.97507
    8  H   0.94749
    9  H   0.94748
   10  H   0.94053
   11  H   0.94055
   12  H   0.94780
   13  H   0.94779
   14  H   0.96202
   15  H   0.96201
   16  H   0.96162
   17  H   0.95188
   18  H   0.95604
   19  H   0.95188
 *******************************************************************************
 ** Site#: 14399        For non-commercial use only    Version 18.184L 64BITS **
 *******************************************************************************
 ** Cite this program as: MOPAC2016, Version: 18.184L, James J. P. Stewart,   **
 ** Stewart Computational Chemistry, web: HTTP://OpenMOPAC.net. Days left:  20**
 *******************************************************************************
 **                                                                           **
 **                                MOPAC2016                                  **
 **                                                                           **
 *******************************************************************************

                              PM3 CALCULATION RESULTS

 *******************************************************************************
 *  CALCULATION DONE:                                Thu Jun 13 19:48:42 2019  *
 *  PM3        - The PM3 Hamiltonian to be used
 *  OLDGEO     - PREVIOUS GEOMETRY TO BE USED
 *  PRECISE    - CRITERIA TO BE INCREASED BY 100 TIMES
 *  NOSYM      - POINT-GROUP SYMMETRY SET TO C1
 *  THREADS=1  - MULTI-THREADING NOT USED
 *  T=         - A TIME OF 172800.0 SECONDS REQUESTED
 *  DUMP=N     - RESTART FILE WRITTEN EVERY  7200.000 SECONDS
 *  THERMO     - THERMODYNAMIC QUANTITIES TO BE CALCULATED
 *******************************************************************************
oldgeo thermo nosym precise THREADS=1  pm3
 InChI=1S/C7H12/c1-3-4-7-5-6(7)2/h3-5H2,1-2H3

   ATOM   CHEMICAL          X               Y               Z
  NUMBER   SYMBOL      (ANGSTROMS)     (ANGSTROMS)     (ANGSTROMS)
 
     1       C          1.31598624  *  -0.75386076  *  -0.11542620  *
     2       C          0.80961247  *   0.34189220  *   0.81245051  *
     3       C         -1.69526593  *   1.56931908  *   0.97083477  *
     4       C          2.75820686  *  -1.09793112  *   0.18033879  *
     5       C         -2.51000995  *  -0.07069457  *  -1.13770741  *
     6       C         -0.57484084  *   0.68991829  *   0.54954894  *
     7       C         -1.70563905  *   0.55247381  *  -0.11146122  *
     8       H          1.20949569  *  -0.43309265  *  -1.17037407  *
     9       H          0.68081550  *  -1.65586144  *  -0.01482369  *
    10       H          1.43034021  *   1.25594827  *   0.71180539  *
    11       H          0.90078575  *   0.02817486  *   1.87273210  *
    12       H         -2.22623833  *   1.39568168  *   1.91576722  *
    13       H         -1.68985891  *   2.64235063  *   0.73949926  *
    14       H          2.88631309  *  -1.45561820  *   1.21073744  *
    15       H          3.41660391  *  -0.22821603  *   0.05314165  *
    16       H          3.12422135  *  -1.88702747  *  -0.48872002  *
    17       H         -2.86594111  *   0.67939347  *  -1.85674877  *
    18       H         -1.93811977  *  -0.82933215  *  -1.68670622  *
    19       H         -3.39005296  *  -0.55652051  *  -0.69513456  *
 


          CARTESIAN COORDINATES 

    NO.       ATOM           X           Y           Z

     1         C          1.3160     -0.7539     -0.1154
     2         C          0.8096      0.3419      0.8125
     3         C         -1.6953      1.5693      0.9708
     4         C          2.7582     -1.0979      0.1803
     5         C         -2.5100     -0.0707     -1.1377
     6         C         -0.5748      0.6899      0.5495
     7         C         -1.7056      0.5525     -0.1115
     8         H          1.2095     -0.4331     -1.1704
     9         H          0.6808     -1.6559     -0.0148
    10         H          1.4303      1.2559      0.7118
    11         H          0.9008      0.0282      1.8727
    12         H         -2.2262      1.3957      1.9158
    13         H         -1.6899      2.6424      0.7395
    14         H          2.8863     -1.4556      1.2107
    15         H          3.4166     -0.2282      0.0531
    16         H          3.1242     -1.8870     -0.4887
    17         H         -2.8659      0.6794     -1.8567
    18         H         -1.9381     -0.8293     -1.6867
    19         H         -3.3901     -0.5565     -0.6951

  H: (PM3): J. J. P. STEWART, J. COMP. CHEM. 10, 209 (1989).
  C: (PM3): J. J. P. STEWART, J. COMP. CHEM. 10, 209 (1989).

           Empirical Formula: C7 H12  =    19 atoms



      MOLECULAR POINT GROUP   :   C1  


      RHF CALCULATION, NO. OF DOUBLY OCCUPIED LEVELS = 20



          HEAT OF FORMATION =      36.428903 KCALS/MOLE


          CARTESIAN COORDINATE DERIVATIVES

   NUMBER  ATOM         X            Y            Z

     1       C      0.002987     0.000125    -0.001759
     2       C      0.000254    -0.008431    -0.011764
     3       C     -0.007490     0.001441     0.003221
     4       C      0.001095     0.002486    -0.001009
     5       C     -0.001203    -0.007036    -0.001192
     6       C      0.002162    -0.001287    -0.008870
     7       C      0.002580    -0.003958    -0.000681
     8       H     -0.002078     0.002781     0.002816
     9       H      0.004120     0.007596     0.002740
    10       H     -0.007122    -0.016854    -0.001144
    11       H      0.000603     0.005836     0.001837
    12       H      0.002966     0.014303     0.006716
    13       H     -0.002465    -0.003504     0.001950
    14       H      0.002727     0.011960     0.000687
    15       H      0.000540     0.006659     0.003991
    16       H     -0.001113    -0.008945    -0.004694
    17       H      0.000842     0.000942     0.005293
    18       H      0.003362     0.003384     0.003816
    19       H     -0.002766    -0.007500    -0.001956
 


          GRADIENT NORM =   0.04080


          TIME FOR SCF CALCULATION =    0.02

          TIME FOR DERIVATIVES     =    0.02

          MOLECULAR WEIGHT =   96.17



          ROTATIONAL CONSTANTS IN CM(-1)

          A =    0.17627005   B =    0.04432721   C =    0.03664222



           PRINCIPAL MOMENTS OF INERTIA IN UNITS OF 10**(-40)*GRAM-CM**2

          A =      158.8062   B =      631.5032   C =      763.9486


          ORIENTATION OF MOLECULE IN FORCE CALCULATION

    NO.       ATOM         X         Y         Z

     1          C      -1.3057   -1.1913    0.0004
     2          C       0.2168   -1.1913    0.0004
     3          C       2.0298    0.9345    0.0004
     4          C      -1.8528   -2.6007    0.0028
     5          C      -0.1646    2.6620   -0.0027
     6          C       0.7675    0.1517   -0.0004
     7          C       0.6418    1.4627   -0.0014
     8          H      -1.6824   -0.6380   -0.8822
     9          H      -1.6824   -0.6350    0.8813
    10          H       0.6068   -1.7351   -0.8845
    11          H       0.6068   -1.7335    0.8863
    12          H       2.6573    0.9952    0.8991
    13          H       2.6593    0.9936   -0.8969
    14          H      -1.5249   -3.1611    0.8886
    15          H      -1.5234   -3.1648   -0.8800
    16          H      -2.9502   -2.6016    0.0019
    17          H       0.0554    3.2733   -0.8883
    18          H      -1.2354    2.4224   -0.0074
    19          H       0.0482    3.2700    0.8870


    FIRST DERIVATIVES WILL BE USED IN THE CALCULATION OF SECOND DERIVATIVES

          ESTIMATED TIME TO COMPLETE CALCULATION =        8.91 SECONDS

    FOR POINT-GROUP C1   THERE ARE   1 UNIQUE SYMMETRY FUNCTIONS.

 STEP:   1 TIME =     0.04 SECS, INTEGRAL =      0.04 TIME LEFT: 172799.92
 STEP:   2 TIME =     0.04 SECS, INTEGRAL =      0.08 TIME LEFT: 172799.88
 STEP:   3 TIME =     0.04 SECS, INTEGRAL =      0.12 TIME LEFT: 172799.84
 STEP:   4 TIME =     0.03 SECS, INTEGRAL =      0.15 TIME LEFT: 172799.81
 STEP:   5 TIME =     0.03 SECS, INTEGRAL =      0.18 TIME LEFT: 172799.78
 STEP:   6 TIME =     0.02 SECS, INTEGRAL =      0.20 TIME LEFT: 172799.76
 STEP:   7 TIME =     0.03 SECS, INTEGRAL =      0.23 TIME LEFT: 172799.73
 STEP:   8 TIME =     0.03 SECS, INTEGRAL =      0.27 TIME LEFT: 172799.70
 STEP:   9 TIME =     0.04 SECS, INTEGRAL =      0.30 TIME LEFT: 172799.66
 STEP:  10 TIME =     0.03 SECS, INTEGRAL =      0.34 TIME LEFT: 172799.62
 STEP:  11 TIME =     0.03 SECS, INTEGRAL =      0.37 TIME LEFT: 172799.59
 STEP:  12 TIME =     0.04 SECS, INTEGRAL =      0.41 TIME LEFT: 172799.55
 STEP:  13 TIME =     0.04 SECS, INTEGRAL =      0.45 TIME LEFT: 172799.52
 STEP:  14 TIME =     0.04 SECS, INTEGRAL =      0.48 TIME LEFT: 172799.48
 STEP:  15 TIME =     0.03 SECS, INTEGRAL =      0.52 TIME LEFT: 172799.45
 STEP:  16 TIME =     0.03 SECS, INTEGRAL =      0.55 TIME LEFT: 172799.41
 STEP:  17 TIME =     0.03 SECS, INTEGRAL =      0.58 TIME LEFT: 172799.38
 STEP:  18 TIME =     0.04 SECS, INTEGRAL =      0.62 TIME LEFT: 172799.34
 STEP:  19 TIME =     0.04 SECS, INTEGRAL =      0.66 TIME LEFT: 172799.30
 STEP:  20 TIME =     0.03 SECS, INTEGRAL =      0.69 TIME LEFT: 172799.27
 STEP:  21 TIME =     0.04 SECS, INTEGRAL =      0.73 TIME LEFT: 172799.23
 STEP:  22 TIME =     0.03 SECS, INTEGRAL =      0.76 TIME LEFT: 172799.20
 STEP:  23 TIME =     0.04 SECS, INTEGRAL =      0.80 TIME LEFT: 172799.16
 STEP:  24 TIME =     0.03 SECS, INTEGRAL =      0.83 TIME LEFT: 172799.13
 STEP:  25 TIME =     0.03 SECS, INTEGRAL =      0.86 TIME LEFT: 172799.10
 STEP:  26 TIME =     0.04 SECS, INTEGRAL =      0.90 TIME LEFT: 172799.06
 STEP:  27 TIME =     0.02 SECS, INTEGRAL =      0.92 TIME LEFT: 172799.04
 STEP:  28 TIME =     0.03 SECS, INTEGRAL =      0.95 TIME LEFT: 172799.01
 STEP:  29 TIME =     0.03 SECS, INTEGRAL =      0.98 TIME LEFT: 172798.98
 STEP:  30 TIME =     0.03 SECS, INTEGRAL =      1.02 TIME LEFT: 172798.95
 STEP:  31 TIME =     0.03 SECS, INTEGRAL =      1.05 TIME LEFT: 172798.91
 STEP:  32 TIME =     0.04 SECS, INTEGRAL =      1.09 TIME LEFT: 172798.88
 STEP:  33 TIME =     0.05 SECS, INTEGRAL =      1.13 TIME LEFT: 172798.83
 STEP:  34 TIME =     0.03 SECS, INTEGRAL =      1.16 TIME LEFT: 172798.80
 STEP:  35 TIME =     0.04 SECS, INTEGRAL =      1.20 TIME LEFT: 172798.76
 STEP:  36 TIME =     0.02 SECS, INTEGRAL =      1.23 TIME LEFT: 172798.73
 STEP:  37 TIME =     0.03 SECS, INTEGRAL =      1.26 TIME LEFT: 172798.70
 STEP:  38 TIME =     0.03 SECS, INTEGRAL =      1.29 TIME LEFT: 172798.67
 STEP:  39 TIME =     0.03 SECS, INTEGRAL =      1.32 TIME LEFT: 172798.64
 STEP:  40 TIME =     0.03 SECS, INTEGRAL =      1.35 TIME LEFT: 172798.61
 STEP:  41 TIME =     0.03 SECS, INTEGRAL =      1.38 TIME LEFT: 172798.58
 STEP:  42 TIME =     0.03 SECS, INTEGRAL =      1.41 TIME LEFT: 172798.55
 STEP:  43 TIME =     0.03 SECS, INTEGRAL =      1.45 TIME LEFT: 172798.52
 STEP:  44 TIME =     0.03 SECS, INTEGRAL =      1.48 TIME LEFT: 172798.48
 STEP:  45 TIME =     0.03 SECS, INTEGRAL =      1.51 TIME LEFT: 172798.45
 STEP:  46 TIME =     0.03 SECS, INTEGRAL =      1.54 TIME LEFT: 172798.42
 STEP:  47 TIME =     0.03 SECS, INTEGRAL =      1.57 TIME LEFT: 172798.39
 STEP:  48 TIME =     0.03 SECS, INTEGRAL =      1.60 TIME LEFT: 172798.36
 STEP:  49 TIME =     0.03 SECS, INTEGRAL =      1.63 TIME LEFT: 172798.33
 STEP:  50 TIME =     0.03 SECS, INTEGRAL =      1.66 TIME LEFT: 172798.30
 STEP:  51 TIME =     0.03 SECS, INTEGRAL =      1.70 TIME LEFT: 172798.27
 STEP:  52 TIME =     0.02 SECS, INTEGRAL =      1.72 TIME LEFT: 172798.24
 STEP:  53 TIME =     0.03 SECS, INTEGRAL =      1.75 TIME LEFT: 172798.21
 STEP:  54 TIME =     0.03 SECS, INTEGRAL =      1.78 TIME LEFT: 172798.18
 STEP:  55 TIME =     0.03 SECS, INTEGRAL =      1.81 TIME LEFT: 172798.15
 STEP:  56 TIME =     0.04 SECS, INTEGRAL =      1.85 TIME LEFT: 172798.11
 STEP:  57 TIME =     0.03 SECS, INTEGRAL =      1.88 TIME LEFT: 172798.08

(To convert to Hartree/Bohr^2, multiply by (10^(-21) x N x a0^2)/(4.184 x 627.51) =  0.0642)


           FORCE MATRIX IN MILLIDYNES/ANGSTROM


                  C  1       C  2       C  3       C  4       C  5       C  6
 ------------------------------------------------------------------------------
     C    1  14.389072
     C    2   4.121298  15.015976
     C    3   0.030192   0.308888  15.098122
     C    4   4.475649   0.661911   0.005910  14.373406
     C    5   0.003977   0.033071   0.308958   0.000776  15.066145
     C    6   0.736150   6.026925   5.446892   0.060227   0.513419  21.299795
     C    7   0.016128   0.499515   5.445713   0.002124   6.296761  11.867572
     H    8   4.473038   0.444980   0.001397   0.437115   0.001567   0.025608
     H    9   4.472959   0.444962   0.001435   0.437054   0.001521   0.025725
     H   10   0.445480   4.393541   0.010430   0.025571   0.002917   0.425443
     H   11   0.445593   4.393575   0.010454   0.025673   0.002895   0.425432
     H   12   0.002750   0.024586   4.684164   0.000714   0.024399   0.446891
     H   13   0.002730   0.024413   4.684837   0.000741   0.024450   0.446896
     H   14   0.463401   0.024485   0.000644   4.723075   0.000308   0.002151
     H   15   0.463310   0.024602   0.000646   4.723160   0.000318   0.002113
     H   16   0.450146   0.050582   0.001303   4.756462   0.000338   0.010164
     H   17   0.000735   0.002537   0.009919   0.000448   4.697932   0.033075
     H   18   0.001116   0.002461   0.027149   0.000522   4.748435   0.006904
     H   19   0.000713   0.002524   0.009956   0.000441   4.696846   0.033147


                  C  7       H  8       H  9       H 10       H 11       H 12
 ------------------------------------------------------------------------------
     C    7  21.345820
     H    8   0.004466   5.090178
     H    9   0.004475   0.575097   5.089979
     H   10   0.032519   0.023539   0.045551   4.982946
     H   11   0.032496   0.045524   0.023468   0.562000   4.982869
     H   12   0.446729   0.000313   0.000379   0.001500   0.004460   5.316908
     H   13   0.446676   0.000395   0.000276   0.004467   0.001522   0.492501
     H   14   0.000594   0.047745   0.024380   0.001566   0.017903   0.000099
     H   15   0.000689   0.024302   0.047709   0.017913   0.001560   0.000111
     H   16   0.001089   0.029950   0.029865   0.001763   0.001771   0.000179
     H   17   0.451308   0.000207   0.000180   0.000898   0.000814   0.001492
     H   18   0.464559   0.003433   0.003404   0.000431   0.000440   0.002721
     H   19   0.451162   0.000197   0.000221   0.000802   0.000910   0.004607


                  H 13       H 14       H 15       H 16       H 17       H 18
 ------------------------------------------------------------------------------
     H   13   5.317367
     H   14   0.000105   5.466231
     H   15   0.000078   0.574693   5.466341
     H   16   0.000198   0.573968   0.574034   5.492171
     H   17   0.004612   0.000137   0.000104   0.000096   5.389483
     H   18   0.002719   0.000188   0.000187   0.000169   0.548673   5.423738
     H   19   0.001509   0.000081   0.000123   0.000091   0.563662   0.549071


                  H 19
 ------------------
     H   19   5.388607


          HEAT OF FORMATION =      36.428903 KCALS/MOLE

          ZERO POINT ENERGY     106.024 KCAL/MOL


           NORMAL COORDINATE ANALYSIS (Total motion = 1 Angstrom)


   Root No.       1         2         3         4         5         6         7         8

                 1 A       2 A       3 A       4 A       5 A       6 A       7 A       8 A   

                  61.0      78.7     105.4     112.8     204.6     261.1     289.3     396.3
  
           1   -0.0000   -0.0000   -0.0224    0.0019   -0.0000   -0.0001    0.0374    0.0011
           2   -0.0001   -0.0001   -0.0293    0.0024   -0.0000    0.0001   -0.0232    0.0517
           3   -0.0314   -0.0557    0.0002    0.0013   -0.0244   -0.0129   -0.0000   -0.0001
           4   -0.0000    0.0000   -0.0235    0.0020   -0.0000   -0.0001    0.0370   -0.0047
           5    0.0000   -0.0000    0.0120   -0.0010    0.0000    0.0001   -0.0312   -0.0208
           6    0.0456   -0.0396   -0.0009   -0.0098    0.0158   -0.0244   -0.0001    0.0001
           7    0.0000   -0.0000   -0.0132    0.0010   -0.0000    0.0001   -0.0259   -0.0330
           8   -0.0000   -0.0000   -0.0151    0.0013    0.0000   -0.0001    0.0220   -0.0162
           9   -0.0414    0.0225    0.0015    0.0178    0.0014   -0.0299   -0.0001   -0.0000
          10    0.0000    0.0000    0.0251   -0.0021    0.0000    0.0001   -0.0343    0.0600
          11   -0.0001    0.0001   -0.0490    0.0040    0.0000   -0.0000    0.0068    0.0371
          12   -0.0083    0.0566   -0.0003   -0.0052    0.0020    0.0026    0.0000   -0.0000
          13    0.0001   -0.0000    0.0513   -0.0042    0.0000   -0.0001    0.0201    0.0110
          14    0.0001   -0.0000    0.0535   -0.0044    0.0000   -0.0001    0.0288   -0.0011
          15    0.0216    0.0169   -0.0006   -0.0059   -0.0021   -0.0292   -0.0001    0.0000
          16   -0.0000    0.0000   -0.0328    0.0027   -0.0000    0.0000   -0.0060   -0.0137
          17    0.0000   -0.0000    0.0156   -0.0013    0.0000    0.0001   -0.0088   -0.0296
          18    0.0120   -0.0157    0.0000    0.0013    0.0057    0.0683    0.0002    0.0001
          19   -0.0000    0.0000   -0.0001   -0.0001   -0.0000    0.0001   -0.0364   -0.0424
          20    0.0000    0.0000    0.0188   -0.0016    0.0000    0.0001   -0.0101   -0.0345
          21    0.0035    0.0064    0.0002    0.0028    0.0008    0.0683    0.0002   -0.0000
          22    0.0446    0.0087   -0.0403   -0.0032    0.0174   -0.0077    0.0545    0.0068
          23   -0.0324   -0.0722   -0.0414    0.0097   -0.0226   -0.0050   -0.0106    0.0552
          24   -0.0706   -0.1044    0.0006    0.0080   -0.0458   -0.0128   -0.0003    0.0001
          25   -0.0446   -0.0088   -0.0392    0.0099   -0.0174    0.0073    0.0546    0.0068
          26    0.0320    0.0719   -0.0424   -0.0028    0.0225    0.0050   -0.0106    0.0551
          27   -0.0707   -0.1046    0.0009    0.0080   -0.0458   -0.0128    0.0002   -0.0001
          28    0.0442    0.0099   -0.0128   -0.0054    0.0234   -0.0092    0.0443   -0.0192
          29   -0.0409    0.0072    0.0202    0.0088   -0.0207    0.0775   -0.0253   -0.0311
          30    0.0903   -0.0394   -0.0016   -0.0191    0.0394   -0.0766    0.0002   -0.0004
          31   -0.0442   -0.0099   -0.0116    0.0075   -0.0234    0.0089    0.0445   -0.0193
          32    0.0411   -0.0073    0.0185   -0.0121    0.0208   -0.0775   -0.0257   -0.0312
          33    0.0903   -0.0394   -0.0017   -0.0191    0.0393   -0.0764   -0.0007    0.0005
          34    0.0328   -0.0173   -0.0128   -0.0101    0.0009    0.0747   -0.0278   -0.0352
          35    0.0090   -0.0166   -0.0310    0.0014    0.0037    0.0070    0.0398   -0.0060
          36   -0.0650    0.0358    0.0023    0.0256    0.0005   -0.0834   -0.0001    0.0006
          37   -0.0327    0.0173   -0.0110    0.0119   -0.0009   -0.0743   -0.0281   -0.0352
          38   -0.0091    0.0165   -0.0307    0.0039   -0.0036   -0.0073    0.0398   -0.0062
          39   -0.0650    0.0358    0.0021    0.0256    0.0006   -0.0836   -0.0004   -0.0007
          40   -0.0371   -0.0026    0.0449    0.0019    0.1994    0.0063   -0.0685    0.0952
          41    0.0287    0.0710   -0.0384   -0.0032   -0.0612    0.0078   -0.0121    0.0563
          42    0.0236    0.1025   -0.0009   -0.0113   -0.1099    0.0054    0.0002    0.0001
          43    0.0371    0.0027    0.0441   -0.0094   -0.1991   -0.0058   -0.0685    0.0954
          44   -0.0287   -0.0705   -0.0373    0.0094    0.0608   -0.0076   -0.0122    0.0563
          45    0.0237    0.1028   -0.0008   -0.0113   -0.1105    0.0054   -0.0000   -0.0001
          46    0.0000    0.0000    0.0252   -0.0021   -0.0002    0.0001   -0.0350    0.0615
          47   -0.0002    0.0000   -0.0872    0.0072    0.0005   -0.0002    0.0733   -0.0273
          48   -0.0545    0.0535    0.0003    0.0018    0.2506    0.0107   -0.0001    0.0000
          49   -0.0328   -0.0026    0.0657   -0.1889    0.0017    0.0438    0.0609    0.0525
          50   -0.0082    0.0058    0.0331   -0.1355   -0.0008   -0.0595    0.0156   -0.0151
          51    0.0078    0.0202   -0.0112   -0.1426   -0.0023   -0.0598    0.0004    0.0003
          52   -0.0001   -0.0000    0.0402   -0.0043    0.0000    0.0002    0.0053   -0.0037
          53    0.0002   -0.0000    0.1041   -0.0088    0.0000   -0.0006    0.0987    0.0679
          54    0.0637    0.0183    0.0194    0.2485   -0.0038   -0.0667   -0.0005   -0.0001
          55    0.0332    0.0025    0.0942    0.1772   -0.0016   -0.0444    0.0600    0.0521
          56    0.0083   -0.0058    0.0543    0.1291    0.0008    0.0596    0.0160   -0.0149
          57    0.0081    0.0202   -0.0113   -0.1409   -0.0023   -0.0600   -0.0003   -0.0000


   Root No.       9        10        11        12        13        14        15        16

                 9 A      10 A      11 A      12 A      13 A      14 A      15 A      16 A   

                 451.7     461.5     777.6     850.3     855.9     861.3     898.3     959.6
  
           1    0.0009   -0.0386    0.0000    0.0166   -0.0024    0.0000    0.0000    0.0167
           2    0.0000    0.0014   -0.0000   -0.0081    0.0018    0.0000   -0.0000   -0.0061
           3    0.0075    0.0001   -0.0255    0.0000    0.0000    0.0129   -0.0106    0.0000
           4    0.0006   -0.0272   -0.0000   -0.0051    0.0042    0.0000   -0.0000   -0.0344
           5   -0.0000    0.0007   -0.0000    0.0636    0.0315   -0.0000    0.0001    0.0011
           6    0.0024    0.0000   -0.0256   -0.0001   -0.0001   -0.0177    0.0277   -0.0000
           7   -0.0003    0.0143    0.0000   -0.0161    0.0346   -0.0000   -0.0000    0.0006
           8   -0.0017    0.0711    0.0000   -0.0024   -0.0407    0.0001    0.0000   -0.0015
           9   -0.0005   -0.0000    0.0023   -0.0000    0.0001    0.0001   -0.0074    0.0000
          10    0.0002   -0.0073   -0.0000    0.0071   -0.0049   -0.0000    0.0000    0.0417
          11    0.0005   -0.0186   -0.0000    0.0004   -0.0106    0.0000   -0.0000    0.0001
          12   -0.0003    0.0000   -0.0007    0.0000    0.0000    0.0055   -0.0118   -0.0000
          13   -0.0005    0.0227    0.0000    0.0153   -0.0577    0.0001    0.0000    0.0028
          14    0.0003   -0.0137    0.0000   -0.0538    0.0316   -0.0001   -0.0001    0.0154
          15   -0.0093   -0.0001   -0.0001    0.0000    0.0000    0.0117    0.0142   -0.0000
          16   -0.0011    0.0509   -0.0000   -0.0147    0.0702   -0.0001   -0.0000    0.0068
          17    0.0004   -0.0228    0.0000    0.0129   -0.0075   -0.0000    0.0000   -0.0102
          18   -0.0774   -0.0016    0.0147    0.0000    0.0000   -0.0120   -0.0194    0.0000
          19    0.0002   -0.0110    0.0000   -0.0152   -0.0409    0.0000    0.0000   -0.0009
          20    0.0007   -0.0294    0.0000   -0.0169   -0.0145    0.0000   -0.0000   -0.0035
          21    0.0783    0.0016    0.0005    0.0000   -0.0001    0.0122    0.0025    0.0000
          22   -0.0028   -0.0499   -0.0990   -0.0052   -0.0199    0.0033    0.0381   -0.0126
          23    0.0057   -0.0070    0.1096   -0.0235   -0.0107   -0.0607    0.0716   -0.0262
          24    0.0128    0.0007    0.0910   -0.0015    0.0001   -0.0287    0.0194   -0.0020
          25    0.0051   -0.0497    0.0990   -0.0053   -0.0198   -0.0033   -0.0381   -0.0130
          26   -0.0052   -0.0072   -0.1093   -0.0233   -0.0104    0.0606   -0.0715   -0.0262
          27    0.0129   -0.0002    0.0914    0.0015   -0.0002   -0.0289    0.0197    0.0020
          28    0.0086   -0.0516    0.0877    0.0412   -0.0108   -0.0064   -0.0473   -0.0868
          29   -0.1007   -0.0192   -0.0834    0.1126    0.0249   -0.0568    0.0641   -0.0369
          30    0.0696    0.0015    0.0687   -0.0081   -0.0021    0.0148   -0.0349   -0.0011
          31   -0.0063   -0.0519   -0.0877    0.0411   -0.0109    0.0065    0.0473   -0.0865
          32    0.1015   -0.0151    0.0835    0.1128    0.0252    0.0568   -0.0641   -0.0365
          33    0.0694    0.0014    0.0686    0.0080    0.0021    0.0147   -0.0347    0.0012
          34    0.0127    0.0092    0.0087   -0.0235    0.0449   -0.0172   -0.0413    0.0007
          35   -0.1298    0.1316    0.0550   -0.0034   -0.0891    0.1895    0.0626    0.0166
          36   -0.0010   -0.0005   -0.0080    0.0043   -0.0032   -0.0007    0.0188   -0.0011
          37   -0.0131    0.0088   -0.0087   -0.0237    0.0451    0.0171    0.0412    0.0005
          38    0.1236    0.1369   -0.0550   -0.0032   -0.0903   -0.1892   -0.0625    0.0164
          39   -0.0012    0.0004   -0.0080   -0.0044    0.0035   -0.0004    0.0190    0.0009
          40   -0.0042    0.0098    0.0189   -0.0374   -0.0170   -0.0206    0.0334   -0.0842
          41   -0.0036   -0.0097    0.0627   -0.0215   -0.0179   -0.0566    0.0886   -0.0621
          42   -0.0014   -0.0004    0.0345    0.0012   -0.0005   -0.0249    0.0350    0.0046
          43    0.0038    0.0100   -0.0189   -0.0374   -0.0170    0.0207   -0.0334   -0.0843
          44    0.0041   -0.0095   -0.0626   -0.0215   -0.0178    0.0565   -0.0884   -0.0626
          45   -0.0014    0.0003    0.0348   -0.0012    0.0005   -0.0251    0.0354   -0.0043
          46    0.0002   -0.0071   -0.0000    0.0053   -0.0058    0.0000   -0.0000    0.0378
          47    0.0012   -0.0547   -0.0000    0.0860    0.0050   -0.0000    0.0001    0.2387
          48   -0.0059   -0.0000    0.0301   -0.0002   -0.0000   -0.0263    0.0377   -0.0004
          49    0.0523    0.0584   -0.0032    0.0943    0.0411    0.0330    0.0402   -0.0401
          50   -0.0792   -0.0272    0.0044   -0.0930    0.0125   -0.0487   -0.0604    0.0344
          51   -0.0528   -0.0010    0.0023   -0.0059    0.0078   -0.0145   -0.0187    0.0020
          52   -0.0000    0.0120   -0.0000    0.0015   -0.1073    0.0003    0.0002    0.0126
          53   -0.0012    0.0395    0.0000    0.0220    0.2543   -0.0005   -0.0003   -0.0347
          54   -0.0557   -0.0012    0.0028   -0.0000   -0.0003   -0.0170   -0.0217    0.0001
          55   -0.0551    0.0559    0.0032    0.0940    0.0399   -0.0332   -0.0403   -0.0397
          56    0.0808   -0.0237   -0.0044   -0.0927    0.0144    0.0489    0.0606    0.0337
          57   -0.0530   -0.0009    0.0023    0.0062   -0.0080   -0.0146   -0.0188   -0.0020


   Root No.      17        18        19        20        21        22        23        24

                17 A      18 A      19 A      20 A      21 A      22 A      23 A      24 A   

                 963.8    1015.1    1023.2    1029.0    1109.3    1121.9    1128.8    1129.6
  
           1    0.0000    0.0000    0.0019    0.0000   -0.0025   -0.0272   -0.0000    0.0001
           2   -0.0000    0.0000   -0.0044    0.0000   -0.0239   -0.0297    0.0001    0.0000
           3   -0.0048   -0.0088   -0.0000   -0.0133    0.0000    0.0000    0.0547    0.0037
           4   -0.0000    0.0000   -0.0114    0.0000   -0.0083    0.0165    0.0000   -0.0001
           5    0.0000    0.0001   -0.0343    0.0001   -0.0010   -0.0156   -0.0000    0.0001
           6   -0.0005    0.0146    0.0001    0.0226    0.0000    0.0001   -0.0257    0.0244
           7   -0.0000   -0.0000    0.0183   -0.0001    0.0143    0.0014   -0.0000   -0.0000
           8   -0.0000   -0.0001    0.0193    0.0000   -0.0461    0.0250   -0.0000   -0.0000
           9   -0.0186   -0.0245    0.0000    0.0354    0.0001   -0.0000    0.0010    0.0002
          10    0.0001   -0.0000    0.0108    0.0000    0.0025    0.0133   -0.0000   -0.0000
          11    0.0000   -0.0000    0.0054   -0.0000    0.0247    0.0404   -0.0000   -0.0001
          12    0.0094    0.0075    0.0000    0.0102   -0.0000   -0.0001   -0.0331   -0.0314
          13    0.0000    0.0000   -0.0325    0.0001   -0.0103    0.0016   -0.0000    0.0000
          14   -0.0000    0.0000   -0.0277    0.0000    0.0075    0.0006    0.0000    0.0000
          15    0.0256   -0.0234   -0.0000    0.0039   -0.0000   -0.0000   -0.0000   -0.0003
          16   -0.0000    0.0001   -0.0377    0.0001   -0.0109    0.0022   -0.0000    0.0000
          17    0.0000   -0.0000    0.0189   -0.0001   -0.0068   -0.0028   -0.0000    0.0000
          18    0.0135   -0.0161   -0.0001   -0.0347   -0.0000   -0.0000   -0.0048    0.0000
          19    0.0000   -0.0001    0.0400   -0.0001    0.0116   -0.0019    0.0000   -0.0000
          20   -0.0000   -0.0000    0.0284   -0.0001   -0.0042   -0.0022    0.0000   -0.0000
          21   -0.0218    0.0375    0.0000   -0.0085    0.0000    0.0000    0.0003    0.0005
          22   -0.0539   -0.0434    0.0144   -0.0574   -0.0224   -0.1339    0.0662   -0.2202
          23   -0.0197   -0.0009    0.0028    0.0027   -0.0459   -0.1080   -0.0810   -0.1582
          24    0.0065    0.0101   -0.0011    0.0141   -0.0052   -0.0035   -0.0238   -0.0010
          25    0.0540    0.0434    0.0150    0.0574   -0.0221   -0.1332   -0.0664    0.2210
          26    0.0196    0.0009    0.0029   -0.0026   -0.0459   -0.1077    0.0807    0.1584
          27    0.0064    0.0101    0.0012    0.0141    0.0054    0.0039   -0.0240   -0.0015
          28    0.0746    0.0660   -0.0479    0.0828    0.0449    0.0620    0.1661   -0.0883
          29    0.0399    0.0808   -0.0765    0.1142    0.0449    0.0105    0.0485   -0.0099
          30    0.0093   -0.0052    0.0078   -0.0107   -0.0039    0.0038    0.0202   -0.0076
          31   -0.0748   -0.0660   -0.0485   -0.0828    0.0450    0.0622   -0.1661    0.0878
          32   -0.0398   -0.0807   -0.0774   -0.1140    0.0449    0.0105   -0.0486    0.0098
          33    0.0094   -0.0051   -0.0077   -0.0105    0.0038   -0.0038    0.0203   -0.0076
          34   -0.0744   -0.1024    0.0268    0.1367   -0.0044    0.0144    0.0036    0.0004
          35   -0.0555    0.0402    0.0022    0.0349    0.1984   -0.0897    0.0035   -0.0003
          36    0.0411    0.0497   -0.0042   -0.0705   -0.0031   -0.0012   -0.0021    0.0000
          37    0.0743    0.1022    0.0265   -0.1367   -0.0043    0.0144   -0.0036   -0.0004
          38    0.0557   -0.0403    0.0020   -0.0350    0.1983   -0.0897   -0.0033    0.0004
          39    0.0412    0.0500    0.0041   -0.0707    0.0027    0.0014   -0.0021    0.0000
          40   -0.0201   -0.0136   -0.0045   -0.0178    0.0266    0.0172    0.0438    0.0309
          41   -0.0513   -0.0343   -0.0013   -0.0450    0.0456    0.0576    0.1210    0.0925
          42   -0.0171   -0.0098    0.0013   -0.0125    0.0038    0.0078    0.0307    0.0159
          43    0.0198    0.0135   -0.0043    0.0177    0.0267    0.0172   -0.0437   -0.0308
          44    0.0510    0.0341   -0.0009    0.0448    0.0457    0.0574   -0.1206   -0.0923
          45   -0.0172   -0.0100   -0.0015   -0.0127   -0.0039   -0.0080    0.0311    0.0162
          46    0.0001    0.0000    0.0108    0.0000    0.0033    0.0123   -0.0001   -0.0001
          47    0.0003    0.0001    0.0401    0.0001    0.0130    0.0730   -0.0001   -0.0003
          48   -0.0179   -0.0097   -0.0001   -0.0122   -0.0000   -0.0001    0.0417    0.0178
          49    0.0667   -0.0568    0.1082    0.0093   -0.0154   -0.0033   -0.0000   -0.0001
          50   -0.1008    0.0870   -0.0761   -0.0149    0.0211    0.0027    0.0002    0.0008
          51   -0.0295    0.0243    0.0006   -0.0047    0.0061    0.0002    0.0001    0.0003
          52    0.0004   -0.0002   -0.0778    0.0002   -0.0219    0.0031   -0.0000    0.0000
          53   -0.0006    0.0002    0.1904   -0.0005    0.0524   -0.0057    0.0000   -0.0001
          54   -0.0342    0.0286   -0.0001   -0.0059   -0.0000    0.0000    0.0000    0.0004
          55   -0.0672    0.0569    0.1076   -0.0097   -0.0153   -0.0033    0.0000    0.0001
          56    0.1014   -0.0874   -0.0752    0.0153    0.0211    0.0026   -0.0002   -0.0009
          57   -0.0297    0.0246   -0.0002   -0.0047   -0.0062   -0.0002    0.0001    0.0003


   Root No.      25        26        27        28        29        30        31        32

                25 A      26 A      27 A      28 A      29 A      30 A      31 A      32 A   

                1143.9    1208.1    1308.1    1318.1    1362.5    1373.2    1379.8    1382.1
  
           1   -0.0387   -0.0175    0.0264    0.0333    0.0203    0.0049   -0.0000    0.0015
           2    0.0487   -0.0046    0.0169    0.0241    0.0123    0.0169   -0.0000    0.0016
           3   -0.0001    0.0000   -0.0000   -0.0000   -0.0000   -0.0000   -0.0001   -0.0000
           4    0.0456   -0.0322   -0.0009    0.0012   -0.0148   -0.0322    0.0000   -0.0034
           5   -0.0155   -0.0207    0.0038   -0.0010   -0.0315    0.0104    0.0001   -0.0043
           6    0.0000    0.0000    0.0000    0.0000    0.0000   -0.0000    0.0001    0.0000
           7   -0.0030    0.0166   -0.0237    0.0531   -0.0104   -0.0042    0.0000   -0.0012
           8   -0.0146    0.0233    0.0113    0.0103   -0.0001    0.0003    0.0000   -0.0017
           9    0.0000   -0.0000   -0.0000    0.0000   -0.0000   -0.0000    0.0003   -0.0000
          10    0.0125    0.0092   -0.0053   -0.0048    0.0013    0.0039   -0.0000    0.0010
          11   -0.0317   -0.0065    0.0020    0.0038    0.0104    0.0181   -0.0001    0.0035
          12    0.0000    0.0000   -0.0000   -0.0000   -0.0000   -0.0001    0.0000   -0.0000
          13   -0.0025   -0.0025    0.0068    0.0094   -0.0186   -0.0033    0.0007   -0.0340
          14   -0.0021    0.0041   -0.0206   -0.0006    0.0292    0.0061    0.0003   -0.0177
          15    0.0000   -0.0000   -0.0000    0.0000   -0.0000    0.0000   -0.0444   -0.0007
          16   -0.0061   -0.0141   -0.0001   -0.0523    0.0134    0.0075   -0.0000    0.0017
          17    0.0032   -0.0173   -0.0200    0.0100   -0.0126   -0.0039   -0.0000   -0.0000
          18    0.0000   -0.0000    0.0000   -0.0000    0.0000    0.0000   -0.0004    0.0000
          19    0.0066    0.0070    0.0352   -0.0355    0.0120    0.0035    0.0001   -0.0030
          20    0.0055   -0.0158   -0.0063   -0.0297    0.0124    0.0027   -0.0001    0.0030
          21   -0.0000    0.0000    0.0000   -0.0000   -0.0000    0.0000   -0.0010   -0.0000
          22   -0.0962    0.0866   -0.0499   -0.0676   -0.0333    0.0363    0.0003   -0.0001
          23    0.0402    0.0694   -0.0384   -0.0428   -0.0288   -0.0830    0.0006   -0.0075
          24    0.0174    0.0007   -0.0015    0.0011   -0.0026   -0.0658    0.0003   -0.0044
          25   -0.0957    0.0866   -0.0498   -0.0676   -0.0333    0.0363   -0.0003   -0.0001
          26    0.0405    0.0695   -0.0384   -0.0427   -0.0288   -0.0828   -0.0004   -0.0075
          27   -0.0175   -0.0009    0.0017   -0.0009    0.0027    0.0661    0.0002    0.0044
          28    0.0879    0.1129   -0.0201   -0.0266   -0.0178    0.1147    0.0002    0.0033
          29    0.0002    0.1069    0.0376    0.0075    0.1097   -0.0803   -0.0001    0.0092
          30    0.0096   -0.0110   -0.0258   -0.0152   -0.0761    0.1041    0.0002   -0.0046
          31    0.0881    0.1129   -0.0201   -0.0266   -0.0178    0.1148   -0.0000    0.0033
          32    0.0002    0.1069    0.0377    0.0075    0.1099   -0.0805   -0.0005    0.0092
          33   -0.0096    0.0108    0.0258    0.0152    0.0759   -0.1040   -0.0002    0.0046
          34   -0.0115    0.0366   -0.0546    0.1296   -0.0069   -0.0103    0.0005    0.0179
          35    0.0495   -0.0360   -0.0164    0.0081   -0.0016   -0.0025   -0.0007    0.0027
          36    0.0014   -0.0091    0.0220   -0.0505   -0.0015    0.0044   -0.0001   -0.0125
          37   -0.0114    0.0366   -0.0546    0.1296   -0.0069   -0.0103   -0.0012    0.0179
          38    0.0495   -0.0360   -0.0164    0.0082   -0.0016   -0.0025    0.0006    0.0027
          39   -0.0015    0.0093   -0.0221    0.0507    0.0015   -0.0044   -0.0006    0.0125
          40   -0.0752   -0.0033   -0.0154   -0.0266   -0.0248   -0.0307    0.0001   -0.0057
          41   -0.0860   -0.0054   -0.0279   -0.0455   -0.0467   -0.0729    0.0002   -0.0124
          42   -0.0029    0.0037   -0.0122   -0.0184   -0.0213   -0.0367    0.0002   -0.0062
          43   -0.0754   -0.0034   -0.0153   -0.0266   -0.0247   -0.0306    0.0000   -0.0056
          44   -0.0864   -0.0055   -0.0279   -0.0454   -0.0466   -0.0727    0.0002   -0.0124
          45    0.0033   -0.0037    0.0123    0.0185    0.0215    0.0370   -0.0001    0.0062
          46    0.0080    0.0107   -0.0078   -0.0087   -0.0022   -0.0008   -0.0000    0.0001
          47    0.0697    0.0553   -0.0638   -0.0878   -0.0671   -0.0784    0.0001   -0.0137
          48   -0.0001   -0.0001    0.0001    0.0002    0.0002    0.0003   -0.0000    0.0001
          49    0.0082   -0.0322   -0.0668   -0.0344    0.0586    0.0082    0.2486    0.1978
          50   -0.0064    0.0365    0.0845    0.0179   -0.0791   -0.0176    0.0081    0.1879
          51   -0.0003    0.0117    0.0430    0.0012   -0.0455   -0.0114    0.0523    0.1846
          52   -0.0052   -0.0150   -0.0359    0.0076    0.0118    0.0017   -0.0021    0.0229
          53    0.0113    0.0480    0.1386   -0.0053   -0.0796   -0.0123    0.0020   -0.1603
          54   -0.0000    0.0000   -0.0000    0.0001    0.0000   -0.0001    0.4325    0.0050
          55    0.0081   -0.0320   -0.0664   -0.0342    0.0580    0.0083   -0.2555    0.1930
          56   -0.0063    0.0364    0.0846    0.0177   -0.0791   -0.0176   -0.0141    0.1879
          57    0.0003   -0.0118   -0.0432   -0.0014    0.0456    0.0113    0.0560   -0.1807


   Root No.      33        34        35        36        37        38        39        40

                33 A      34 A      35 A      36 A      37 A      38 A      39 A      40 A   

                1405.0    1408.6    1411.3    1422.2    1429.7    1546.2    2188.2    2931.5
  
           1    0.0465   -0.0000    0.0115   -0.0009   -0.0150    0.0203   -0.0003   -0.0000
           2   -0.0056   -0.0001    0.0009   -0.0166   -0.0413    0.0131    0.0005    0.0000
           3    0.0000   -0.0014   -0.0000    0.0000    0.0001   -0.0000    0.0000    0.0117
           4   -0.0332   -0.0000   -0.0047   -0.0013    0.0076   -0.0581   -0.0252   -0.0000
           5    0.0050    0.0000    0.0005   -0.0048    0.0071   -0.0877   -0.0569   -0.0000
           6   -0.0000    0.0000    0.0000    0.0000   -0.0000    0.0001    0.0000   -0.0488
           7   -0.0055    0.0000   -0.0016    0.0616   -0.0212    0.0017   -0.0802    0.0000
           8    0.0025    0.0000    0.0004    0.0047   -0.0044   -0.0329   -0.0074    0.0000
           9   -0.0000   -0.0000   -0.0000    0.0001   -0.0000    0.0000   -0.0001   -0.0000
          10   -0.0059    0.0006   -0.0375    0.0077    0.0183   -0.0004    0.0010   -0.0000
          11   -0.0180   -0.0001    0.0026    0.0205    0.0452   -0.0043    0.0004   -0.0000
          12    0.0001   -0.0415   -0.0004   -0.0000   -0.0000    0.0000   -0.0000   -0.0008
          13   -0.0075    0.0000   -0.0011   -0.0018    0.0064    0.0556   -0.0342   -0.0000
          14    0.0094   -0.0000    0.0014    0.0037   -0.0087   -0.0779    0.0530   -0.0000
          15   -0.0000    0.0000   -0.0000   -0.0000    0.0000    0.0001   -0.0000    0.0000
          16    0.0037    0.0000    0.0002   -0.0129    0.0089    0.0654    0.0460    0.0000
          17   -0.0092    0.0000   -0.0017    0.0134    0.0022    0.0906    0.2786    0.0000
          18    0.0000    0.0003    0.0000   -0.0000    0.0000   -0.0000   -0.0001   -0.0000
          19    0.0074   -0.0000    0.0014   -0.0154    0.0002   -0.0779    0.0992   -0.0000
          20    0.0006   -0.0000    0.0001   -0.0124    0.0062    0.0786   -0.2669   -0.0000
          21    0.0000   -0.0000    0.0000   -0.0000    0.0000   -0.0001    0.0002   -0.0002
          22   -0.1227    0.0018   -0.0418   -0.0169   -0.0080   -0.0308   -0.0033   -0.0281
          23    0.0928    0.0012    0.0250    0.0492    0.0993   -0.0197   -0.0020    0.0458
          24    0.1152   -0.0023    0.0321    0.0414    0.0736    0.0008    0.0001   -0.0719
          25   -0.1227   -0.0016   -0.0418   -0.0169   -0.0080   -0.0308   -0.0033    0.0281
          26    0.0924   -0.0005    0.0249    0.0491    0.0991   -0.0197   -0.0020   -0.0461
          27   -0.1155   -0.0027   -0.0323   -0.0416   -0.0739   -0.0007   -0.0001   -0.0717
          28    0.0764   -0.0056    0.0111   -0.0042   -0.0131    0.0522    0.0043   -0.1347
          29   -0.0419   -0.0036   -0.0070   -0.0023   -0.0109    0.0501   -0.0131    0.1845
          30    0.0660   -0.0010    0.0096   -0.0021    0.0020   -0.0309   -0.0071    0.2942
          31    0.0763    0.0056    0.0112   -0.0042   -0.0132    0.0522    0.0042    0.1347
          32   -0.0420    0.0036   -0.0069   -0.0023   -0.0109    0.0502   -0.0131   -0.1840
          33   -0.0659   -0.0011   -0.0096    0.0021   -0.0020    0.0308    0.0071    0.2946
          34    0.0041   -0.0003    0.0043   -0.1862    0.0575   -0.0020   -0.0298    0.0002
          35   -0.0021   -0.0001   -0.0000   -0.0171    0.0066    0.0093   -0.0032    0.0003
          36   -0.0056    0.0002   -0.0037    0.1614   -0.0516   -0.0001   -0.0540    0.0000
          37    0.0040   -0.0001    0.0042   -0.1858    0.0574   -0.0020   -0.0300   -0.0002
          38   -0.0021    0.0000   -0.0000   -0.0173    0.0066    0.0093   -0.0031   -0.0003
          39    0.0056   -0.0001    0.0037   -0.1617    0.0517    0.0001    0.0539    0.0000
          40   -0.0065   -0.2527    0.2176   -0.0243   -0.0553    0.0026    0.0002    0.0017
          41    0.0693   -0.0476   -0.1248   -0.0487   -0.0977    0.0053   -0.0002   -0.0030
          42    0.0483    0.0512   -0.1638   -0.0256   -0.0502    0.0042    0.0003    0.0052
          43   -0.0073    0.2465    0.2222   -0.0248   -0.0557    0.0026    0.0002   -0.0017
          44    0.0690    0.0515   -0.1232   -0.0487   -0.0976    0.0053   -0.0002    0.0030
          45   -0.0488    0.0466    0.1657    0.0257    0.0504   -0.0042   -0.0003    0.0051
          46   -0.0059   -0.0002   -0.0129    0.0039    0.0098    0.0007    0.0017    0.0000
          47   -0.0063   -0.0015    0.1662   -0.0526   -0.1065    0.0018    0.0013   -0.0000
          48   -0.0008    0.4178    0.0037   -0.0002   -0.0000   -0.0000   -0.0000   -0.0002
          49    0.0192   -0.0000    0.0025    0.0070   -0.0158   -0.0674    0.0011   -0.0000
          50   -0.0135    0.0000   -0.0022    0.0052    0.0064    0.0376    0.0157   -0.0002
          51   -0.0070    0.0000   -0.0013    0.0037    0.0032    0.0379   -0.0091    0.0002
          52    0.0013    0.0000    0.0000    0.0050   -0.0029    0.0116   -0.0207    0.0000
          53   -0.0206    0.0000   -0.0023   -0.0220    0.0238    0.0766   -0.0117    0.0000
          54   -0.0001    0.0001    0.0001   -0.0001    0.0000    0.0002   -0.0001    0.0000
          55    0.0192   -0.0001    0.0024    0.0071   -0.0158   -0.0671    0.0010    0.0000
          56   -0.0135   -0.0000   -0.0022    0.0051    0.0064    0.0377    0.0155    0.0002
          57    0.0071    0.0000    0.0013   -0.0036   -0.0033   -0.0383    0.0092    0.0002


   Root No.      41        42        43        44        45        46        47        48

                41 A      42 A      43 A      44 A      45 A      46 A      47 A      48 A   

                2960.8    3010.8    3041.3    3052.0    3063.3    3074.3    3078.4    3084.9
  
           1    0.0000    0.0005   -0.0207   -0.0000    0.0000    0.0002    0.0000   -0.0019
           2   -0.0001   -0.0017    0.0306    0.0000   -0.0000   -0.0002   -0.0000    0.0028
           3   -0.0473    0.0000   -0.0001   -0.0000    0.0000    0.0000   -0.0031   -0.0000
           4   -0.0000   -0.0234   -0.0017   -0.0000   -0.0000    0.0000    0.0000    0.0002
           5   -0.0000    0.0331    0.0016    0.0000   -0.0000   -0.0001   -0.0000    0.0003
           6   -0.0114   -0.0000   -0.0000   -0.0001    0.0001    0.0000    0.0001   -0.0000
           7    0.0000   -0.0001    0.0000   -0.0000   -0.0000   -0.0002    0.0000    0.0000
           8    0.0000    0.0000   -0.0000   -0.0001   -0.0000   -0.0002    0.0000   -0.0000
           9    0.0000    0.0000    0.0000   -0.0609    0.0002   -0.0000   -0.0000    0.0000
          10   -0.0000   -0.0003    0.0047   -0.0000    0.0000   -0.0002    0.0000   -0.0436
          11    0.0000    0.0001   -0.0013    0.0000    0.0000    0.0001   -0.0001    0.0181
          12    0.0025   -0.0000    0.0000    0.0000   -0.0000   -0.0000   -0.0545   -0.0001
          13   -0.0000   -0.0000   -0.0004    0.0000   -0.0002   -0.0421    0.0000    0.0001
          14   -0.0000    0.0000   -0.0002    0.0000   -0.0002   -0.0285    0.0000    0.0001
          15   -0.0000   -0.0000   -0.0000   -0.0002   -0.0579    0.0002    0.0000   -0.0000
          16    0.0000    0.0001   -0.0003   -0.0000   -0.0000   -0.0001   -0.0000   -0.0000
          17    0.0000    0.0005   -0.0000    0.0000    0.0000    0.0005   -0.0000   -0.0001
          18   -0.0000   -0.0000    0.0000   -0.0008   -0.0002    0.0000    0.0000    0.0000
          19    0.0000   -0.0001   -0.0000   -0.0000    0.0000    0.0001    0.0000   -0.0000
          20   -0.0000   -0.0006   -0.0001   -0.0000   -0.0000   -0.0005    0.0000    0.0000
          21   -0.0001    0.0000   -0.0000   -0.0008   -0.0001    0.0000    0.0000   -0.0000
          22    0.1261   -0.0068    0.1270    0.0001   -0.0000   -0.0010    0.0068    0.0095
          23   -0.1834    0.0115   -0.1852   -0.0002    0.0000    0.0017   -0.0149   -0.0175
          24    0.2845   -0.0198    0.3423    0.0003   -0.0001   -0.0027    0.0175    0.0298
          25   -0.1262   -0.0067    0.1268   -0.0000   -0.0000   -0.0010   -0.0068    0.0095
          26    0.1844    0.0115   -0.1862   -0.0000    0.0000    0.0017    0.0149   -0.0176
          27    0.2841    0.0196   -0.3414   -0.0000   -0.0000    0.0027    0.0175   -0.0297
          28   -0.0346    0.1459    0.0075    0.0002    0.0001   -0.0001   -0.0003    0.0008
          29    0.0430   -0.1983   -0.0089    0.0000   -0.0001    0.0001   -0.0012    0.0001
          30    0.0677   -0.3765   -0.0179   -0.0002   -0.0002    0.0003   -0.0013   -0.0007
          31    0.0347    0.1459    0.0075   -0.0001   -0.0001   -0.0001    0.0003    0.0008
          32   -0.0429   -0.1976   -0.0088   -0.0001    0.0001    0.0002    0.0012    0.0001
          33    0.0679    0.3767    0.0179   -0.0002   -0.0002   -0.0003   -0.0013    0.0007
          34   -0.0001    0.0006   -0.0000    0.2785   -0.0006    0.0019    0.0000   -0.0001
          35    0.0001    0.0002    0.0000    0.0269   -0.0003    0.0001    0.0000    0.0000
          36   -0.0001    0.0008   -0.0001    0.3745   -0.0011    0.0029    0.0000   -0.0001
          37    0.0000    0.0006    0.0002   -0.2785    0.0006    0.0019   -0.0001   -0.0000
          38   -0.0000    0.0002    0.0001   -0.0262    0.0003    0.0001   -0.0000    0.0000
          39   -0.0001   -0.0008   -0.0002    0.3726   -0.0011   -0.0028    0.0001    0.0001
          40   -0.0080   -0.0000   -0.0050   -0.0000    0.0001    0.0002    0.1407    0.0515
          41    0.0073   -0.0016    0.0092    0.0000   -0.0002   -0.0004   -0.2222   -0.1073
          42   -0.0168    0.0021   -0.0174   -0.0001    0.0003    0.0008    0.3412    0.1941
          43    0.0080   -0.0000   -0.0050    0.0000   -0.0001    0.0002   -0.1413    0.0519
          44   -0.0073   -0.0016    0.0093   -0.0000    0.0001   -0.0004    0.2235   -0.1082
          45   -0.0168   -0.0021    0.0174   -0.0001    0.0002   -0.0008    0.3399   -0.1937
          46   -0.0000   -0.0009   -0.0451    0.0000   -0.0000    0.0019    0.0001    0.4162
          47    0.0000   -0.0002    0.0039    0.0000    0.0000   -0.0000   -0.0001   -0.0014
          48    0.0005   -0.0000   -0.0000    0.0000   -0.0000    0.0000   -0.0286    0.0004
          49   -0.0000    0.0001    0.0001   -0.0002   -0.1038    0.0356    0.0001   -0.0001
          50   -0.0001    0.0002    0.0007   -0.0008   -0.2556    0.1235    0.0001   -0.0005
          51    0.0001   -0.0003   -0.0013    0.0010    0.3581   -0.2095   -0.0002    0.0008
          52    0.0000   -0.0001    0.0044   -0.0001    0.0040    0.4327   -0.0000   -0.0012
          53    0.0000   -0.0000    0.0008   -0.0000    0.0009    0.1003   -0.0000   -0.0003
          54   -0.0001    0.0000    0.0000   -0.0002   -0.0284    0.0021    0.0000   -0.0000
          55    0.0000    0.0001    0.0001    0.0002    0.1016    0.0325   -0.0001   -0.0001
          56    0.0001    0.0002    0.0008    0.0008    0.2568    0.1191   -0.0002   -0.0005
          57    0.0001    0.0003    0.0013    0.0009    0.3641    0.2050   -0.0002   -0.0008


   Root No.      49        50        51

                49 A      50 A      51 A   

                3096.4    3157.1    3181.3
  
           1    0.0000    0.0000   -0.0004
           2   -0.0000   -0.0001   -0.0002
           3    0.0000    0.0000    0.0000
           4   -0.0001    0.0000   -0.0000
           5    0.0003    0.0001    0.0002
           6    0.0000    0.0000   -0.0000
           7    0.0432   -0.0000   -0.0000
           8    0.0041   -0.0001    0.0000
           9   -0.0001   -0.0000   -0.0000
          10    0.0000    0.0000   -0.0108
          11   -0.0000    0.0000   -0.0222
          12    0.0000    0.0000    0.0000
          13   -0.0004   -0.0152   -0.0000
          14   -0.0005    0.0196    0.0000
          15    0.0000   -0.0001   -0.0000
          16    0.0001    0.0001    0.0000
          17   -0.0024   -0.0002   -0.0000
          18    0.0000    0.0000   -0.0000
          19   -0.0004    0.0000    0.0000
          20    0.0024    0.0000   -0.0000
          21   -0.0000   -0.0000    0.0000
          22   -0.0000   -0.0002    0.0006
          23    0.0000    0.0005   -0.0024
          24   -0.0000   -0.0006    0.0026
          25   -0.0000   -0.0002    0.0006
          26    0.0000    0.0005   -0.0024
          27    0.0000    0.0006   -0.0026
          28    0.0005    0.0000    0.0004
          29   -0.0003   -0.0001   -0.0012
          30   -0.0008   -0.0002   -0.0018
          31    0.0005    0.0000    0.0004
          32   -0.0003   -0.0001   -0.0012
          33    0.0008    0.0001    0.0018
          34   -0.2547    0.0001    0.0000
          35   -0.0246    0.0001    0.0000
          36   -0.3932    0.0003    0.0000
          37   -0.2565    0.0001    0.0000
          38   -0.0241    0.0001    0.0000
          39    0.3939   -0.0003   -0.0000
          40   -0.0000    0.0001   -0.1026
          41    0.0001   -0.0001    0.1445
          42   -0.0001    0.0001   -0.2571
          43   -0.0000    0.0001   -0.1031
          44    0.0000   -0.0001    0.1457
          45    0.0000   -0.0001    0.2564
          46   -0.0001   -0.0004    0.3373
          47   -0.0000   -0.0000   -0.0185
          48    0.0000    0.0000    0.0003
          49    0.0005   -0.0754   -0.0001
          50    0.0009   -0.1623   -0.0001
          51   -0.0018    0.2598    0.0002
          52    0.0045    0.3281    0.0002
          53    0.0013    0.0923    0.0001
          54    0.0000    0.0014   -0.0000
          55    0.0004   -0.0732   -0.0001
          56    0.0009   -0.1611   -0.0001
          57    0.0017   -0.2606   -0.0002


           MASS-WEIGHTED COORDINATE ANALYSIS (NORMAL COORDINATES)


   Root No.       1         2         3         4         5         6         7         8

                 1 A       2 A       3 A       4 A       5 A       6 A       7 A       8 A   

                  61.0      78.7     105.4     112.8     204.6     261.1     289.3     396.3
  
           1   -0.0003   -0.0000   -0.1702    0.0141   -0.0000   -0.0010    0.3204    0.0082
           2   -0.0008   -0.0004   -0.2229    0.0179   -0.0003    0.0004   -0.1989    0.3865
           3   -0.3000   -0.4512    0.0013    0.0097   -0.1907   -0.0961   -0.0001   -0.0005
           4   -0.0003    0.0000   -0.1790    0.0148   -0.0000   -0.0010    0.3172   -0.0351
           5    0.0004   -0.0002    0.0915   -0.0078    0.0000    0.0005   -0.2670   -0.1555
           6    0.4354   -0.3211   -0.0067   -0.0733    0.1236   -0.1825   -0.0005    0.0004
           7    0.0002   -0.0001   -0.1006    0.0076   -0.0001    0.0011   -0.2218   -0.2467
           8   -0.0003   -0.0001   -0.1146    0.0097    0.0001   -0.0005    0.1885   -0.1208
           9   -0.3958    0.1828    0.0115    0.1328    0.0111   -0.2231   -0.0010   -0.0001
          10    0.0000    0.0002    0.1910   -0.0156    0.0001    0.0009   -0.2941    0.4485
          11   -0.0006    0.0009   -0.3725    0.0301    0.0000   -0.0001    0.0584    0.2771
          12   -0.0796    0.4586   -0.0025   -0.0388    0.0156    0.0196    0.0003   -0.0004
          13    0.0005   -0.0002    0.3898   -0.0312    0.0002   -0.0005    0.1722    0.0822
          14    0.0008   -0.0002    0.4065   -0.0327    0.0002   -0.0009    0.2468   -0.0082
          15    0.2067    0.1371   -0.0043   -0.0441   -0.0165   -0.2180   -0.0005    0.0002
          16   -0.0004    0.0000   -0.2496    0.0201   -0.0001    0.0000   -0.0514   -0.1021
          17    0.0002   -0.0001    0.1189   -0.0098    0.0000    0.0005   -0.0756   -0.2209
          18    0.1143   -0.1271    0.0003    0.0095    0.0442    0.5101    0.0013    0.0007
          19   -0.0001    0.0001   -0.0004   -0.0005   -0.0001    0.0005   -0.3117   -0.3167
          20    0.0002    0.0000    0.1428   -0.0118    0.0000    0.0005   -0.0862   -0.2579
          21    0.0337    0.0520    0.0017    0.0210    0.0061    0.5101    0.0014   -0.0003
          22    0.1233    0.0205   -0.0888   -0.0069    0.0393   -0.0167    0.1353    0.0147
          23   -0.0896   -0.1695   -0.0911    0.0209   -0.0512   -0.0108   -0.0264    0.1195
          24   -0.1954   -0.2452    0.0013    0.0174   -0.1035   -0.0277   -0.0006    0.0002
          25   -0.1235   -0.0206   -0.0863    0.0213   -0.0393    0.0158    0.1355    0.0148
          26    0.0887    0.1688   -0.0933   -0.0060    0.0508    0.0109   -0.0263    0.1193
          27   -0.1957   -0.2457    0.0020    0.0174   -0.1037   -0.0278    0.0005   -0.0003
          28    0.1223    0.0233   -0.0282   -0.0116    0.0529   -0.0200    0.1100   -0.0415
          29   -0.1132    0.0170    0.0446    0.0190   -0.0468    0.1677   -0.0627   -0.0674
          30    0.2500   -0.0925   -0.0036   -0.0413    0.0890   -0.1657    0.0005   -0.0008
          31   -0.1223   -0.0233   -0.0256    0.0162   -0.0528    0.0194    0.1103   -0.0417
          32    0.1137   -0.0170    0.0407   -0.0262    0.0469   -0.1676   -0.0637   -0.0675
          33    0.2498   -0.0925   -0.0038   -0.0413    0.0889   -0.1654   -0.0016    0.0011
          34    0.0908   -0.0407   -0.0283   -0.0218    0.0020    0.1617   -0.0689   -0.0762
          35    0.0250   -0.0389   -0.0683    0.0030    0.0084    0.0152    0.0987   -0.0131
          36   -0.1798    0.0841    0.0050    0.0553    0.0012   -0.1805   -0.0002    0.0014
          37   -0.0905    0.0406   -0.0242    0.0256   -0.0021   -0.1608   -0.0698   -0.0762
          38   -0.0252    0.0388   -0.0677    0.0084   -0.0082   -0.0157    0.0988   -0.0135
          39   -0.1799    0.0841    0.0047    0.0553    0.0013   -0.1808   -0.0011   -0.0015
          40   -0.1027   -0.0062    0.0990    0.0042    0.4509    0.0137   -0.1698    0.2062
          41    0.0794    0.1668   -0.0845   -0.0070   -0.1384    0.0168   -0.0299    0.1219
          42    0.0652    0.2407   -0.0019   -0.0244   -0.2486    0.0116    0.0006    0.0001
          43    0.1027    0.0064    0.0971   -0.0202   -0.4504   -0.0126   -0.1699    0.2064
          44   -0.0793   -0.1657   -0.0821    0.0203    0.1374   -0.0165   -0.0304    0.1219
          45    0.0657    0.2414   -0.0018   -0.0245   -0.2500    0.0117   -0.0001   -0.0003
          46    0.0001    0.0001    0.0555   -0.0045   -0.0004    0.0002   -0.0868    0.1331
          47   -0.0005    0.0000   -0.1920    0.0157    0.0011   -0.0005    0.1820   -0.0591
          48   -0.1508    0.1256    0.0006    0.0040    0.5669    0.0231   -0.0002    0.0000
          49   -0.0908   -0.0061    0.1447   -0.4079    0.0038    0.0949    0.1512    0.1136
          50   -0.0226    0.0136    0.0728   -0.2927   -0.0018   -0.1286    0.0387   -0.0327
          51    0.0216    0.0475   -0.0247   -0.3080   -0.0051   -0.1294    0.0011    0.0006
          52   -0.0004   -0.0001    0.0884   -0.0093    0.0001    0.0004    0.0131   -0.0080
          53    0.0004   -0.0001    0.2293   -0.0191    0.0001   -0.0013    0.2448    0.1469
          54    0.1763    0.0430    0.0427    0.5365   -0.0086   -0.1443   -0.0012   -0.0003
          55    0.0919    0.0058    0.2075    0.3827   -0.0037   -0.0961    0.1489    0.1128
          56    0.0231   -0.0137    0.1196    0.2788    0.0019    0.1290    0.0397   -0.0322
          57    0.0224    0.0475   -0.0249   -0.3044   -0.0051   -0.1298   -0.0009   -0.0000


   Root No.       9        10        11        12        13        14        15        16

                 9 A      10 A      11 A      12 A      13 A      14 A      15 A      16 A   

                 451.7     461.5     777.6     850.3     855.9     861.3     898.3     959.6
  
           1    0.0063   -0.2899    0.0000    0.1339   -0.0152    0.0000    0.0001    0.1482
           2    0.0002    0.0104   -0.0004   -0.0653    0.0118    0.0002   -0.0004   -0.0546
           3    0.0530    0.0010   -0.2390    0.0003    0.0001    0.1308   -0.1194    0.0003
           4    0.0045   -0.2040   -0.0000   -0.0413    0.0270    0.0000   -0.0003   -0.3059
           5   -0.0002    0.0051   -0.0003    0.5141    0.2036   -0.0005    0.0006    0.0101
           6    0.0167    0.0001   -0.2405   -0.0007   -0.0004   -0.1794    0.3117   -0.0004
           7   -0.0024    0.1073    0.0001   -0.1302    0.2240   -0.0004   -0.0001    0.0050
           8   -0.0117    0.5338    0.0002   -0.0196   -0.2632    0.0006    0.0002   -0.0136
           9   -0.0034   -0.0003    0.0213   -0.0000    0.0004    0.0010   -0.0829    0.0003
          10    0.0014   -0.0548   -0.0001    0.0576   -0.0318   -0.0000    0.0002    0.3707
          11    0.0033   -0.1398   -0.0002    0.0031   -0.0687    0.0003   -0.0002    0.0013
          12   -0.0022    0.0002   -0.0061    0.0000    0.0002    0.0558   -0.1321   -0.0001
          13   -0.0038    0.1707    0.0001    0.1237   -0.3729    0.0006    0.0002    0.0246
          14    0.0020   -0.1029    0.0001   -0.4350    0.2042   -0.0005   -0.0006    0.1371
          15   -0.0661   -0.0011   -0.0013    0.0001    0.0003    0.1182    0.1601   -0.0004
          16   -0.0080    0.3819   -0.0001   -0.1190    0.4537   -0.0009   -0.0003    0.0607
          17    0.0032   -0.1712    0.0002    0.1042   -0.0483   -0.0001    0.0000   -0.0903
          18   -0.5489   -0.0118    0.1374    0.0003    0.0001   -0.1211   -0.2182    0.0001
          19    0.0013   -0.0822    0.0001   -0.1231   -0.2644    0.0004    0.0002   -0.0081
          20    0.0049   -0.2204    0.0001   -0.1363   -0.0938    0.0001   -0.0000   -0.0309
          21    0.5555    0.0119    0.0049    0.0001   -0.0004    0.1236    0.0278    0.0003
          22   -0.0057   -0.1085   -0.2690   -0.0122   -0.0372    0.0098    0.1243   -0.0325
          23    0.0118   -0.0153    0.2978   -0.0550   -0.0200   -0.1781    0.2331   -0.0675
          24    0.0264    0.0015    0.2474   -0.0034    0.0003   -0.0841    0.0634   -0.0051
          25    0.0105   -0.1080    0.2691   -0.0123   -0.0372   -0.0096   -0.1242   -0.0334
          26   -0.0108   -0.0156   -0.2969   -0.0547   -0.0195    0.1778   -0.2329   -0.0675
          27    0.0265   -0.0004    0.2484    0.0035   -0.0004   -0.0846    0.0641    0.0051
          28    0.0176   -0.1123    0.2383    0.0966   -0.0202   -0.0188   -0.1540   -0.2236
          29   -0.2069   -0.0419   -0.2266    0.2638    0.0467   -0.1664    0.2089   -0.0950
          30    0.1431    0.0032    0.1868   -0.0189   -0.0039    0.0433   -0.1135   -0.0029
          31   -0.0129   -0.1129   -0.2383    0.0964   -0.0204    0.0190    0.1539   -0.2228
          32    0.2087   -0.0328    0.2270    0.2644    0.0472    0.1664   -0.2088   -0.0939
          33    0.1427    0.0030    0.1864    0.0187    0.0040    0.0430   -0.1132    0.0031
          34    0.0261    0.0201    0.0237   -0.0550    0.0841   -0.0505   -0.1344    0.0018
          35   -0.2667    0.2861    0.1495   -0.0080   -0.1670    0.5555    0.2039    0.0426
          36   -0.0020   -0.0010   -0.0218    0.0100   -0.0061   -0.0021    0.0613   -0.0028
          37   -0.0270    0.0192   -0.0236   -0.0555    0.0845    0.0501    0.1341    0.0013
          38    0.2541    0.2978   -0.1495   -0.0075   -0.1691   -0.5547   -0.2035    0.0422
          39   -0.0025    0.0008   -0.0216   -0.0104    0.0066   -0.0012    0.0619    0.0024
          40   -0.0086    0.0214    0.0513   -0.0877   -0.0319   -0.0605    0.1088   -0.2169
          41   -0.0073   -0.0210    0.1703   -0.0503   -0.0336   -0.1659    0.2885   -0.1599
          42   -0.0028   -0.0008    0.0938    0.0029   -0.0009   -0.0729    0.1141    0.0118
          43    0.0079    0.0218   -0.0513   -0.0877   -0.0318    0.0607   -0.1089   -0.2173
          44    0.0084   -0.0206   -0.1701   -0.0503   -0.0333    0.1657   -0.2879   -0.1612
          45   -0.0029    0.0008    0.0945   -0.0028    0.0008   -0.0734    0.1152   -0.0111
          46    0.0004   -0.0154   -0.0001    0.0123   -0.0109    0.0001   -0.0001    0.0974
          47    0.0026   -0.1189   -0.0001    0.2015    0.0093   -0.0001    0.0003    0.6147
          48   -0.0121   -0.0001    0.0819   -0.0004   -0.0001   -0.0770    0.1230   -0.0010
          49    0.1075    0.1269   -0.0086    0.2209    0.0770    0.0967    0.1310   -0.1033
          50   -0.1629   -0.0591    0.0119   -0.2179    0.0234   -0.1427   -0.1968    0.0885
          51   -0.1085   -0.0022    0.0063   -0.0138    0.0145   -0.0426   -0.0609    0.0051
          52   -0.0001    0.0261   -0.0000    0.0035   -0.2009    0.0008    0.0007    0.0323
          53   -0.0025    0.0860    0.0000    0.0515    0.4764   -0.0015   -0.0009   -0.0893
          54   -0.1145   -0.0026    0.0076   -0.0000   -0.0006   -0.0499   -0.0706    0.0003
          55   -0.1132    0.1215    0.0086    0.2202    0.0748   -0.0972   -0.1311   -0.1022
          56    0.1660   -0.0515   -0.0119   -0.2172    0.0269    0.1433    0.1974    0.0869
          57   -0.1090   -0.0019    0.0063    0.0146   -0.0149   -0.0429   -0.0614   -0.0051


   Root No.      17        18        19        20        21        22        23        24

                17 A      18 A      19 A      20 A      21 A      22 A      23 A      24 A   

[...]
 RED. MASS   0.2843         C  1 -- H  8          +8.3% ( 29.5%)      2.5%
 EFF. MASS   2.5013

 VIBRATION   31   31A         ATOM PAIR      ENERGY CONTRIBUTION    RADIAL
 FREQ.      1379.81         C  5 -- H 18         +54.8% ( 64.2%)      0.0%
 T-DIPOLE    0.0504         C  5 -- H 19         +20.5% ( 39.2%)     11.1%
 TRAVEL      0.1754         C  5 -- H 17         +19.4% ( 38.2%)     12.3%
 RED. MASS   0.4302         C  5 -- C  7          +5.3% ( 20.0%)      0.0%
 EFF. MASS   1.5877

 VIBRATION   32   32A         ATOM PAIR      ENERGY CONTRIBUTION    RADIAL
 FREQ.      1382.08         C  5 -- H 17         +41.7% ( 56.3%)      1.3%
 T-DIPOLE    0.0733         C  5 -- H 19         +40.5% ( 55.4%)      1.5%
 TRAVEL      0.1737         C  5 -- H 18         +10.4% ( 28.1%)     44.8%
 RED. MASS   0.4042         C  5 -- C  7          +5.4% ( 20.3%)      0.0%
 EFF. MASS   1.6166

 VIBRATION   33   33A         ATOM PAIR      ENERGY CONTRIBUTION    RADIAL
 FREQ.      1404.95         C  1 -- H  8         +20.3% ( 51.7%)      3.4%
 T-DIPOLE    0.0229         C  1 -- H  9         +20.3% ( 51.7%)      3.4%
 TRAVEL      0.1096         C  1 -- C  2         +15.6% ( 45.4%)     98.3%
 RED. MASS   0.5268         C  1 -- C  4          +9.0% ( 34.4%)     32.2%
 EFF. MASS   3.9923

 VIBRATION   34   34A         ATOM PAIR      ENERGY CONTRIBUTION    RADIAL
 FREQ.      1408.58         C  4 -- H 16         +53.0% ( 62.7%)      0.0%
 T-DIPOLE    0.0443         C  4 -- H 14         +21.5% ( 39.9%)     10.5%
 TRAVEL      0.1767         C  4 -- H 15         +20.6% ( 39.1%)     11.4%
 RED. MASS   0.4131         C  1 -- C  4          +4.9% ( 19.0%)      0.0%
 EFF. MASS   1.5340

 VIBRATION   35   35A         ATOM PAIR      ENERGY CONTRIBUTION    RADIAL
 FREQ.      1411.27         C  4 -- H 15         +38.4% ( 55.1%)      0.9%
 T-DIPOLE    0.0473         C  4 -- H 14         +37.6% ( 54.4%)      1.0%
 TRAVEL      0.1663         C  4 -- H 16         +12.3% ( 31.2%)     35.5%
 RED. MASS   0.3756         C  1 -- C  4          +6.5% ( 22.6%)     10.9%
 EFF. MASS   1.7273

 VIBRATION   36   36A         ATOM PAIR      ENERGY CONTRIBUTION    RADIAL
 FREQ.      1422.21         C  3 -- H 12         +27.0% ( 64.0%)      5.1%
 T-DIPOLE    0.2297         C  3 -- H 13         +27.0% ( 64.0%)      5.1%
 TRAVEL      0.1046         C  3 -- C  7         +14.7% ( 47.2%)     69.8%
 RED. MASS   0.7915         C  3 -- C  6         +13.9% ( 45.9%)     61.3%
 EFF. MASS   4.3354

 VIBRATION   37   37A         ATOM PAIR      ENERGY CONTRIBUTION    RADIAL
 FREQ.      1429.67         C  1 -- C  4         +18.6% ( 55.0%)    100.0%
 T-DIPOLE    0.0982         C  4 -- H 15         +12.6% ( 45.3%)      3.6%
 TRAVEL      0.0944         C  4 -- H 14         +12.6% ( 45.3%)      3.6%
 RED. MASS   0.8092         C  4 -- H 16         +11.3% ( 42.8%)      4.0%
 EFF. MASS   5.2972         C  1 -- H  9         +10.8% ( 42.0%)      3.4%
                            C  1 -- H  8         +10.8% ( 42.0%)      3.4%

 VIBRATION   38   38A         ATOM PAIR      ENERGY CONTRIBUTION    RADIAL
 FREQ.      1546.18         C  2 -- C  6         +19.7% ( 74.8%)     95.4%
 T-DIPOLE    0.0947         C  5 -- C  7         +18.7% ( 72.9%)     98.7%
 TRAVEL      0.0621         C  6 -- C  7         +11.7% ( 57.5%)      0.0%
 RED. MASS   2.5010         C  3 -- C  6         +10.5% ( 54.5%)     73.6%
 EFF. MASS  11.3090         C  3 -- C  7         +10.4% ( 54.2%)     69.3%

 VIBRATION   39   39A         ATOM PAIR      ENERGY CONTRIBUTION    RADIAL
 FREQ.      2188.18         C  6 -- C  7         +39.2% ( 92.3%)    100.0%
 T-DIPOLE    0.5866         C  5 -- C  7         +14.7% ( 56.5%)     96.2%
 TRAVEL      0.0507         C  3 -- C  7         +14.6% ( 56.4%)     67.9%
 RED. MASS   5.0465         C  3 -- C  6         +14.3% ( 55.8%)     68.1%
 EFF. MASS  11.9851         C  2 -- C  6         +14.3% ( 55.7%)     96.8%

 VIBRATION   40   40A         ATOM PAIR      ENERGY CONTRIBUTION    RADIAL
 FREQ.      2931.50         C  2 -- H 11         +46.1% ( 70.6%)     96.5%
 T-DIPOLE    0.0271         C  2 -- H 10         +46.1% ( 70.6%)     96.5%
 TRAVEL      0.1221         C  1 -- H  9          +2.7% ( 17.2%)     95.9%
 RED. MASS   0.4642         C  1 -- H  8          +2.7% ( 17.2%)     95.9%
 EFF. MASS   1.5438

 VIBRATION   41   41A         ATOM PAIR      ENERGY CONTRIBUTION    RADIAL
 FREQ.      2960.81         C  1 -- H  9         +46.1% ( 70.5%)     96.5%
 T-DIPOLE    0.0256         C  1 -- H  8         +46.1% ( 70.4%)     96.5%
 TRAVEL      0.1218         C  2 -- H 11          +2.6% ( 16.9%)     97.0%
 RED. MASS   0.4614         C  2 -- H 10          +2.6% ( 16.8%)     97.0%
 EFF. MASS   1.5363

 VIBRATION   42   42A         ATOM PAIR      ENERGY CONTRIBUTION    RADIAL
 FREQ.      3010.85         C  2 -- H 10         +49.2% ( 69.1%)     97.7%
 T-DIPOLE    0.0880         C  2 -- H 11         +49.2% ( 69.1%)     97.7%
 TRAVEL      0.1326         C  1 -- C  2          +0.6% (  7.9%)     32.0%
 RED. MASS   0.4814         C  2 -- C  6          +0.6% (  7.8%)     28.0%
 EFF. MASS   1.2743

 VIBRATION   43   43A         ATOM PAIR      ENERGY CONTRIBUTION    RADIAL
 FREQ.      3041.31         C  1 -- H  8         +48.8% ( 68.8%)     97.8%
 T-DIPOLE    0.0297         C  1 -- H  9         +48.7% ( 68.8%)     97.7%
 TRAVEL      0.1319         C  4 -- H 16          +0.7% (  8.2%)     98.2%
 RED. MASS   0.4728         C  1 -- C  4          +0.6% (  7.8%)     25.4%
 EFF. MASS   1.2749

 VIBRATION   44   44A         ATOM PAIR      ENERGY CONTRIBUTION    RADIAL
 FREQ.      3051.96         C  3 -- H 12         +49.2% ( 72.3%)     97.3%
 T-DIPOLE    0.0466         C  3 -- H 13         +48.8% ( 72.1%)     97.3%
 TRAVEL      0.1203         C  3 -- C  7          +1.0% ( 10.3%)      0.0%
 RED. MASS   0.5172         C  3 -- C  6          +1.0% ( 10.3%)      0.0%
 EFF. MASS   1.5277

 VIBRATION   45   45A         ATOM PAIR      ENERGY CONTRIBUTION    RADIAL
 FREQ.      3063.35         C  5 -- H 19         +49.6% ( 72.6%)     97.1%
 T-DIPOLE    0.0465         C  5 -- H 17         +48.5% ( 71.8%)     96.9%
 TRAVEL      0.1209         C  5 -- C  7          +1.0% ( 10.2%)      0.0%
 RED. MASS   0.5106         C  5 -- H 18          +0.9% ( 10.0%)      0.1%
 EFF. MASS   1.5068

 VIBRATION   46   46A         ATOM PAIR      ENERGY CONTRIBUTION    RADIAL
 FREQ.      3074.33         C  5 -- H 18         +61.7% ( 81.0%)     98.8%
 T-DIPOLE    0.0541         C  5 -- H 17         +19.1% ( 45.1%)     85.9%
 TRAVEL      0.1204         C  5 -- H 19         +18.2% ( 43.9%)     85.1%
 RED. MASS   0.4815         C  5 -- C  7          +1.0% ( 10.5%)      0.0%
 EFF. MASS   1.5142

 VIBRATION   47   47A         ATOM PAIR      ENERGY CONTRIBUTION    RADIAL
 FREQ.      3078.37         C  4 -- H 14         +48.9% ( 72.2%)     97.0%
 T-DIPOLE    0.0058         C  4 -- H 15         +48.9% ( 72.1%)     97.0%
 TRAVEL      0.1208         C  1 -- C  4          +1.0% ( 10.2%)      0.0%
 RED. MASS   0.5059         C  4 -- H 16          +0.9% ( 10.0%)      0.0%
 EFF. MASS   1.5011

 VIBRATION   48   48A         ATOM PAIR      ENERGY CONTRIBUTION    RADIAL
 FREQ.      3084.85         C  4 -- H 16         +61.1% ( 80.6%)     98.7%
 T-DIPOLE    0.0122         C  4 -- H 15         +18.6% ( 44.4%)     85.9%
 TRAVEL      0.1206         C  4 -- H 14         +18.5% ( 44.4%)     85.9%
 RED. MASS   0.4704         C  1 -- C  4          +1.0% ( 10.3%)      0.0%
 EFF. MASS   1.5023

 VIBRATION   49   49A         ATOM PAIR      ENERGY CONTRIBUTION    RADIAL
 FREQ.      3096.43         C  3 -- H 13         +49.2% ( 69.8%)     96.5%
 T-DIPOLE    0.0184         C  3 -- H 12         +48.9% ( 69.5%)     96.4%
 TRAVEL      0.1292         C  3 -- C  6          +0.9% (  9.5%)     84.5%
 RED. MASS   0.4841         C  3 -- C  7          +0.9% (  9.5%)     84.6%
 EFF. MASS   1.3054

 VIBRATION   50   50A         ATOM PAIR      ENERGY CONTRIBUTION    RADIAL
 FREQ.      3157.05         C  5 -- H 18         +37.1% ( 58.8%)     97.6%
 T-DIPOLE    0.0837         C  5 -- H 17         +31.3% ( 54.0%)     96.8%
 TRAVEL      0.1369         C  5 -- H 19         +31.2% ( 53.9%)     96.7%
 RED. MASS   0.3289         C  5 -- C  7          +0.3% (  5.6%)     99.5%
 EFF. MASS   1.1401

 VIBRATION   51   51A         ATOM PAIR      ENERGY CONTRIBUTION    RADIAL
 FREQ.      3181.34         C  4 -- H 16         +37.1% ( 58.6%)     97.7%
 T-DIPOLE    0.0242         C  4 -- H 15         +31.3% ( 53.8%)     96.8%
 TRAVEL      0.1365         C  4 -- H 14         +31.3% ( 53.8%)     96.8%
 RED. MASS   0.3288         C  1 -- C  4          +0.3% (  5.1%)     99.4%
 EFF. MASS   1.1370

      SYMMETRY NUMBER FOR POINT-GROUP C1  =  1


          SYSTEM IS A GROUND STATE



 InChI=1S/C7H12/c1-3-4-7-5-6(7)2/h3-5H2,1-2H3


          MOLECULE IS NOT LINEAR

          THERE ARE 51 GENUINE VIBRATIONS IN THIS SYSTEM
          THIS THERMODYNAMICS CALCULATION IS LIMITED TO
          MOLECULES WHICH HAVE NO INTERNAL ROTATIONS




                    CALCULATED THERMODYNAMIC PROPERTIES
                                          *
   TEMP. (K)   PARTITION FUNCTION   H.O.F.    ENTHALPY  HEAT CAPACITY ENTROPY
                                   KCAL/MOL   CAL/MOLE    CAL/K/MOL  CAL/K/MOL


 298.00  VIB.     0.3829D+03                  3793.0520    24.8392    24.5480
         ROT.     0.3122D+06                   888.2813     2.9808    28.1220
         INT.     0.1196D+09                  4681.3333    27.8200    52.6701
         TRA.     0.9118D+27                  1480.4688     4.9680    39.5994
         TOT.                       36.429    6161.8021    32.7880    92.2695

 200.00  VIB.     0.4502D+02                  1780.1886    16.5837    16.4665
         ROT.     0.1717D+06                   596.1620     2.9808    26.9334
         INT.     0.7729D+07                  2376.3505    19.5645    43.3998
         TRA.     0.5013D+27                   993.6033     4.9680    37.6183
         TOT.                       33.637    3369.9538    24.5326    81.0181

 210.00  VIB.     0.5628D+02                  1949.7073    17.3241    17.2934
         ROT.     0.1847D+06                   625.9700     2.9808    27.0788
         INT.     0.1040D+08                  2575.6773    20.3049    44.3722
         TRA.     0.5394D+27                  1043.2834     4.9680    37.8607
         TOT.                       33.886    3618.9607    25.2729    82.2329

 220.00  VIB.     0.7025D+02                  2126.7532    18.0894    18.1169
         ROT.     0.1981D+06                   655.7781     2.9808    27.2175
         INT.     0.1391D+08                  2782.5314    21.0702    45.3344
         TRA.     0.5784D+27                  1092.9636     4.9680    38.0918
         TOT.                       34.143    3875.4950    26.0382    83.4261

 230.00  VIB.     0.8759D+02                  2311.5797    18.8802    18.9384
         ROT.     0.2117D+06                   685.5862     2.9808    27.3500
         INT.     0.1854D+08                  2997.1660    21.8610    46.2883
         TRA.     0.6182D+27                  1142.6437     4.9680    38.3126
         TOT.                       34.407    4139.8097    26.8290    84.6009

 240.00  VIB.     0.1091D+03                  2504.4408    19.6962    19.7590
         ROT.     0.2257D+06                   715.3943     2.9808    27.4768
         INT.     0.2461D+08                  3219.8352    22.6770    47.2359
         TRA.     0.6590D+27                  1192.3239     4.9680    38.5241
         TOT.                       34.679    4412.1591    27.6450    85.7599

 250.00  VIB.     0.1357D+03                  2705.5833    20.5362    20.5800
         ROT.     0.2399D+06                   745.2024     2.9808    27.5985
         INT.     0.3255D+08                  3450.7857    23.5170    48.1785
         TRA.     0.7006D+27                  1242.0041     4.9680    38.7269
         TOT.                       34.960    4692.7898    28.4850    86.9054

 260.00  VIB.     0.1686D+03                  2915.2397    21.3986    21.4022
         ROT.     0.2545D+06                   775.0105     2.9808    27.7154
         INT.     0.4291D+08                  3690.2502    24.3794    49.1176
         TRA.     0.7431D+27                  1291.6842     4.9680    38.9217
         TOT.                       35.249    4981.9344    29.3475    88.0393

 270.00  VIB.     0.2094D+03                  3133.6234    22.2813    22.2263
         ROT.     0.2693D+06                   804.8186     2.9808    27.8279
         INT.     0.5639D+08                  3938.4421    25.2621    50.0542
         TRA.     0.7864D+27                  1341.3644     4.9680    39.1092
         TOT.                       35.547    5279.8065    30.2301    89.1634

 280.00  VIB.     0.2599D+03                  3360.9251    23.1818    23.0528
         ROT.     0.2844D+06                   834.6267     2.9808    27.9363
         INT.     0.7391D+08                  4195.5519    26.1626    50.9892
         TRA.     0.8304D+27                  1391.0445     4.9680    39.2899
         TOT.                       35.854    5586.5964    31.1306    90.2790

 290.00  VIB.     0.3224D+03                  3597.3101    24.0975    23.8822
         ROT.     0.2998D+06                   864.4348     2.9808    28.0409
         INT.     0.9664D+08                  4461.7449    27.0783    51.9232
         TRA.     0.8753D+27                  1440.7247     4.9680    39.4642
         TOT.                       36.170    5902.4696    32.0463    91.3874

 300.00  VIB.     0.3998D+03                  3842.9168    25.0257    24.7148
         ROT.     0.3154D+06                   894.2429     2.9808    28.1420
         INT.     0.1261D+09                  4737.1598    28.0065    52.8568
         TRA.     0.9210D+27                  1490.4049     4.9680    39.6326
         TOT.                       36.495    6227.5646    32.9745    92.4894

 310.00  VIB.     0.4955D+03                  4097.8570    25.9637    25.5507
         ROT.     0.3313D+06                   924.0510     2.9808    28.2397
         INT.     0.1642D+09                  5021.9080    28.9445    53.7904
         TRA.     0.9674D+27                  1540.0850     4.9680    39.7955
         TOT.                       36.829    6561.9931    33.9126    93.5859

 320.00  VIB.     0.6140D+03                  4362.2153    26.9089    26.3899
         ROT.     0.3475D+06                   953.8591     2.9808    28.3343
         INT.     0.2133D+09                  5316.0744    29.8897    54.7242
         TRA.     0.1015D+28                  1589.7652     4.9680    39.9533
         TOT.                       37.173    6905.8396    34.8577    94.6775

 330.00  VIB.     0.7608D+03                  4636.0504    27.8587    27.2324
         ROT.     0.3639D+06                   983.6672     2.9808    28.4261
         INT.     0.2768D+09                  5619.7177    30.8395    55.6585
         TRA.     0.1063D+28                  1639.4454     4.9680    40.1062
         TOT.                       37.526    7259.1630    35.8075    95.7647

 340.00  VIB.     0.9425D+03                  4919.3965    28.8107    28.0783
         ROT.     0.3805D+06                  1013.4753     2.9808    28.5151
         INT.     0.3586D+09                  5932.8718    31.7915    56.5933
         TRA.     0.1111D+28                  1689.1255     4.9680    40.2545
         TOT.                       37.889    7621.9973    36.7595    96.8478

 350.00  VIB.     0.1168D+04                  5212.2644    29.7627    28.9271
         ROT.     0.3974D+06                  1043.2834     2.9808    28.6015
         INT.     0.4640D+09                  6255.5478    32.7435    57.5286
         TRA.     0.1161D+28                  1738.8057     4.9680    40.3985
         TOT.                       38.261    7994.3535    37.7115    97.9271

 360.00  VIB.     0.1446D+04                  5514.6435    30.7126    29.7789
         ROT.     0.4146D+06                  1073.0915     2.9808    28.6854
         INT.     0.5996D+09                  6587.7350    33.6934    58.4643
         TRA.     0.1211D+28                  1788.4859     4.9680    40.5384
         TOT.                       38.643    8376.2209    38.6615    99.0028

 370.00  VIB.     0.1792D+04                  5826.5039    31.6587    30.6333
         ROT.     0.4320D+06                  1102.8996     2.9808    28.7671
         INT.     0.7740D+09                  6929.4035    34.6395    59.4004
         TRA.     0.1261D+28                  1838.1660     4.9680    40.6745
         TOT.                       39.035    8767.5695    39.6075   100.0750

 380.00  VIB.     0.2220D+04                  6147.7981    32.5991    31.4901
         ROT.     0.4496D+06                  1132.7077     2.9808    28.8466
         INT.     0.9980D+09                  7280.5058    35.5799    60.3367
         TRA.     0.1313D+28                  1887.8462     4.9680    40.8070
         TOT.                       39.435    9168.3520    40.5479   101.1437

 390.00  VIB.     0.2750D+04                  6478.4629    33.5326    32.3490
         ROT.     0.4675D+06                  1162.5158     2.9808    28.9240
         INT.     0.1286D+10                  7640.9787    36.5134    61.2730
         TRA.     0.1365D+28                  1937.5263     4.9680    40.9361
         TOT.                       39.846    9578.5051    41.4814   102.2091

 400.00  VIB.     0.3408D+04                  6818.4215    34.4577    33.2096
         ROT.     0.4856D+06                  1192.3239     2.9808    28.9995
         INT.     0.1655D+10                  8010.7454    37.4385    62.2091
         TRA.     0.1418D+28                  1987.2065     4.9680    41.0619
         TOT.                       40.265    9997.9519    42.4065   103.2710

   *: NOTE: HEATS OF FORMATION ARE RELATIVE TO THE
            ELEMENTS IN THEIR STANDARD STATE AT 298K
              (=  Standard Enthalpy of Formation).

            Hvib:  Zero-point energy is not included.
                   frequencies of less than zero cm-1 are not included.
            Hrot = (3/2)RT
            Htra = (3/2)RT + pV = (5/2)RT

            Heat capacity is Cp, not Cv

          For more information, see: HTTP://OpenMOPAC.net/Manual/thermochemistry.html


           FORCE CONSTANT IN CARTESIAN COORDINATES (Millidynes/A)

    ATOM   CHEMICAL       X               Y               Z
   NUMBER   SYMBOL  FORCE CONSTANT  FORCE CONSTANT  FORCE CONSTANT

      1       C        8.149567        8.572986        8.193376
      2       C        8.404393        9.614296        7.839872
      3       C       12.263697        4.237635        7.641790
      4       C        8.450800        8.254149        8.187781
      5       C        8.793863        9.256727        7.924037
      6       C        6.887861       19.487067        2.087241
      7       C        8.398813       17.885134        2.091239
      8       H        1.186940        1.705780        3.523802
      9       H        1.186801        1.717260        3.512375
     10       H        1.201204        1.567943        3.453122
     11       H        1.201208        1.562227        3.458702
     12       H        2.237921        0.497895        3.758384
     13       H        2.247280        0.497176        3.750155
     14       H        1.133859        1.853310        3.790750
     15       H        1.137976        1.869009        3.771059
     16       H        5.400972        0.727605        0.667264
     17       H        0.857544        1.993873        3.737405
     18       H        5.073490        0.930623        0.644119
     19       H        0.844138        1.978231        3.763894

 **********************
 *                    *
 * JOB ENDED NORMALLY *
 *                    *
 **********************



 TOTAL JOB TIME:             6.26 SECONDS

 == MOPAC DONE ==
