 *******************************************************************************
 ** Site#: 14399        For non-commercial use only    Version 18.184L 64BITS **
 *******************************************************************************
 ** Cite this program as: MOPAC2016, Version: 18.184L, James J. P. Stewart,   **
 ** Stewart Computational Chemistry, web: HTTP://OpenMOPAC.net. Days left:  20**
 *******************************************************************************
 **                                                                           **
 **                                MOPAC2016                                  **
 **                                                                           **
 *******************************************************************************

                              PM3 CALCULATION RESULTS

 *******************************************************************************
 *  CALCULATION DONE:                                Thu Jun 13 15:56:27 2019  *
 *  PM3        - The PM3 Hamiltonian to be used
 *  PRECISE    - CRITERIA TO BE INCREASED BY 100 TIMES
 *  NOSYM      - POINT-GROUP SYMMETRY SET TO C1
 *  THREADS=1  - MULTI-THREADING NOT USED
 *  T=         - A TIME OF 172800.0 SECONDS REQUESTED
 *  DUMP=N     - RESTART FILE WRITTEN EVERY  7200.000 SECONDS
 *******************************************************************************
pm3  precise nosym THREADS=1
 InChI=1S/C7H8/c1-2-7-5-3-4-6-7/h3,5H,1,4,6H2

   ATOM   CHEMICAL          X               Y               Z
  NUMBER   SYMBOL      (ANGSTROMS)     (ANGSTROMS)     (ANGSTROMS)
 
     1       C         -0.44710000  *  -1.05050000  *  -0.34580000  *
     2       C         -1.86320000  *  -0.53900000  *  -0.03780000  *
     3       C          0.41220000  *   0.11060000  *   0.00520000  *
     4       C         -1.66520000  *   0.86060000  *   0.45700000  *
     5       C         -0.39430000  *   1.21260000  *   0.47700000  *
     6       C          3.01140000  *   0.15880000  *  -0.19940000  *
     7       C          1.71320000  *   0.13500000  *  -0.09710000  *
     8       H         -0.19320000  *  -1.92850000  *   0.28710000  *
     9       H         -0.33940000  *  -1.30320000  *  -1.42310000  *
    10       H         -2.49170000  *  -0.53220000  *  -0.95400000  *
    11       H         -2.34600000  *  -1.15540000  *   0.75060000  *
    12       H         -2.46990000  *   1.51510000  *   0.76510000  *
    13       H         -0.02690000  *   2.17870000  *   0.79880000  *
    14       H          3.55920000  *   1.04860000  *   0.07920000  *
    15       H          3.54090000  *  -0.71120000  *  -0.56280000  *
 


          CARTESIAN COORDINATES 

    NO.       ATOM           X           Y           Z

     1         C         -0.4471     -1.0505     -0.3458
     2         C         -1.8632     -0.5390     -0.0378
     3         C          0.4122      0.1106      0.0052
     4         C         -1.6652      0.8606      0.4570
     5         C         -0.3943      1.2126      0.4770
     6         C          3.0114      0.1588     -0.1994
     7         C          1.7132      0.1350     -0.0971
     8         H         -0.1932     -1.9285      0.2871
     9         H         -0.3394     -1.3032     -1.4231
    10         H         -2.4917     -0.5322     -0.9540
    11         H         -2.3460     -1.1554      0.7506
    12         H         -2.4699      1.5151      0.7651
    13         H         -0.0269      2.1787      0.7988
    14         H          3.5592      1.0486      0.0792
    15         H          3.5409     -0.7112     -0.5628

  H: (PM3): J. J. P. STEWART, J. COMP. CHEM. 10, 209 (1989).
  C: (PM3): J. J. P. STEWART, J. COMP. CHEM. 10, 209 (1989).

           Empirical Formula: C7 H8  =    15 atoms



      MOLECULAR POINT GROUP   :   C1  


      RHF CALCULATION, NO. OF DOUBLY OCCUPIED LEVELS = 18


          Geometry optimization using EF


 ALL CONVERGERS ARE NOW FORCED ON
 SHIFT=10, PULAY ON, CAMP-KING ON
 AND ITERATION COUNTER RESET



          DIAGONAL MATRIX USED AS START HESSIAN

 CYCLE:     1 TIME:   0.141 TIME LEFT:  2.00D  GRAD.:    94.584 HEAT:  107.2330
 CYCLE:     2 TIME:   0.020 TIME LEFT:  2.00D  GRAD.:   192.552 HEAT:  104.1118
 CYCLE:     3 TIME:   0.023 TIME LEFT:  2.00D  GRAD.:   129.084 HEAT:  95.48946
 CYCLE:     4 TIME:   0.027 TIME LEFT:  2.00D  GRAD.:   212.401 HEAT:  94.00300
 CYCLE:     5 TIME:   0.020 TIME LEFT:  2.00D  GRAD.:    88.572 HEAT:  85.81411
 CYCLE:     6 TIME:   0.020 TIME LEFT:  2.00D  GRAD.:   167.277 HEAT:  84.22288
 CYCLE:     7 TIME:   0.023 TIME LEFT:  2.00D  GRAD.:    94.383 HEAT:  77.08507
 CYCLE:     8 TIME:   0.023 TIME LEFT:  2.00D  GRAD.:   189.644 HEAT:  76.02220
 CYCLE:     9 TIME:   0.023 TIME LEFT:  2.00D  GRAD.:   151.259 HEAT:  71.90620
 CYCLE:    10 TIME:   0.023 TIME LEFT:  2.00D  GRAD.:   125.854 HEAT:  67.46842
 CYCLE:    11 TIME:   0.023 TIME LEFT:  2.00D  GRAD.:   116.647 HEAT:  65.64595
 CYCLE:    12 TIME:   0.027 TIME LEFT:  2.00D  GRAD.:    82.686 HEAT:  62.84947
 CYCLE:    13 TIME:   0.020 TIME LEFT:  2.00D  GRAD.:    49.804 HEAT:  61.07172
 CYCLE:    14 TIME:   0.020 TIME LEFT:  2.00D  GRAD.:    72.555 HEAT:  60.87109
 CYCLE:    15 TIME:   0.023 TIME LEFT:  2.00D  GRAD.:    44.814 HEAT:  59.27514
 CYCLE:    16 TIME:   0.027 TIME LEFT:  2.00D  GRAD.:    53.059 HEAT:  59.00383
 CYCLE:    17 TIME:   0.020 TIME LEFT:  2.00D  GRAD.:    28.822 HEAT:  58.11493
 CYCLE:    18 TIME:   0.023 TIME LEFT:  2.00D  GRAD.:    47.094 HEAT:  57.85018
 CYCLE:    19 TIME:   0.020 TIME LEFT:  2.00D  GRAD.:    35.782 HEAT:  57.22243
 CYCLE:    20 TIME:   0.031 TIME LEFT:  2.00D  GRAD.:    21.619 HEAT:  56.97337
 CYCLE:    21 TIME:   0.023 TIME LEFT:  2.00D  GRAD.:    13.380 HEAT:  56.82748
 CYCLE:    22 TIME:   0.023 TIME LEFT:  2.00D  GRAD.:    15.075 HEAT:  56.74533
 CYCLE:    23 TIME:   0.023 TIME LEFT:  2.00D  GRAD.:     9.615 HEAT:  56.63413
 CYCLE:    24 TIME:   0.020 TIME LEFT:  2.00D  GRAD.:     9.264 HEAT:  56.59397
 CYCLE:    25 TIME:   0.023 TIME LEFT:  2.00D  GRAD.:     6.234 HEAT:  56.55887
 CYCLE:    26 TIME:   0.023 TIME LEFT:  2.00D  GRAD.:     4.300 HEAT:  56.54010
 CYCLE:    27 TIME:   0.023 TIME LEFT:  2.00D  GRAD.:     2.711 HEAT:  56.52329
 CYCLE:    28 TIME:   0.023 TIME LEFT:  2.00D  GRAD.:     2.765 HEAT:  56.50158
 CYCLE:    29 TIME:   0.020 TIME LEFT:  2.00D  GRAD.:     1.445 HEAT:  56.49671
 CYCLE:    30 TIME:   0.023 TIME LEFT:  2.00D  GRAD.:     1.108 HEAT:  56.49332
 CYCLE:    31 TIME:   0.023 TIME LEFT:  2.00D  GRAD.:     0.975 HEAT:  56.48906
 CYCLE:    32 TIME:   0.023 TIME LEFT:  2.00D  GRAD.:     0.724 HEAT:  56.48811
 CYCLE:    33 TIME:   0.023 TIME LEFT:  2.00D  GRAD.:     0.573 HEAT:  56.48738
 CYCLE:    34 TIME:   0.023 TIME LEFT:  2.00D  GRAD.:     0.590 HEAT:  56.48667
 CYCLE:    35 TIME:   0.023 TIME LEFT:  2.00D  GRAD.:     0.547 HEAT:  56.48582
 CYCLE:    36 TIME:   0.023 TIME LEFT:  2.00D  GRAD.:     0.475 HEAT:  56.48527
 CYCLE:    37 TIME:   0.020 TIME LEFT:  2.00D  GRAD.:     0.445 HEAT:  56.48477
 CYCLE:    38 TIME:   0.023 TIME LEFT:  2.00D  GRAD.:     0.421 HEAT:  56.48441
 CYCLE:    39 TIME:   0.023 TIME LEFT:  2.00D  GRAD.:     0.314 HEAT:  56.48415
 CYCLE:    40 TIME:   0.023 TIME LEFT:  2.00D  GRAD.:     0.245 HEAT:  56.48398
 CYCLE:    41 TIME:   0.035 TIME LEFT:  2.00D  GRAD.:     0.211 HEAT:  56.48385
 CYCLE:    42 TIME:   0.020 TIME LEFT:  2.00D  GRAD.:     0.141 HEAT:  56.48378
 CYCLE:    43 TIME:   0.023 TIME LEFT:  2.00D  GRAD.:     0.095 HEAT:  56.48375
 CYCLE:    44 TIME:   0.023 TIME LEFT:  2.00D  GRAD.:     0.083 HEAT:  56.48372
 CYCLE:    45 TIME:   0.023 TIME LEFT:  2.00D  GRAD.:     0.060 HEAT:  56.48371
 CYCLE:    46 TIME:   0.023 TIME LEFT:  2.00D  GRAD.:     0.039 HEAT:  56.48371

     GRADIENT =  0.03864  IS LESS THAN CUTOFF =  0.05000



 -------------------------------------------------------------------------------
 pm3  precise nosym THREADS=1
 InChI=1S/C7H8/c1-2-7-5-3-4-6-7/h3,5H,1,4,6H2



     GEOMETRY OPTIMISED USING EIGENVECTOR FOLLOWING (EF).     
     SCF FIELD WAS ACHIEVED                                   


                              PM3 CALCULATION
                                                       MOPAC2016 (Version: 18.184L)
                                                       Thu Jun 13 15:56:28 2019
                                                       No. of days remaining =  20




          FINAL HEAT OF FORMATION =         56.48371 KCAL/MOL =     236.32783 KJ/MOL


          TOTAL ENERGY            =       -950.69497 EV
          ELECTRONIC ENERGY       =      -4093.75382 EV  POINT GROUP:     C1  
          CORE-CORE REPULSION     =       3143.05885 EV
          COSMO AREA              =        144.12 SQUARE ANGSTROMS
          COSMO VOLUME            =        132.14 CUBIC ANGSTROMS

          GRADIENT NORM           =          0.03864 = 0.00998 PER ATOM
          IONIZATION POTENTIAL    =          8.824973 EV
          HOMO LUMO ENERGIES (EV) =         -8.825  0.274
          NO. OF FILLED LEVELS    =         18
          MOLECULAR WEIGHT        =         92.1402

          MOLECULAR DIMENSIONS (Angstroms)

            Atom       Atom       Distance
            H    15    H    12     6.44071
            H    13    H     8     4.11223
            H    10    H    14     3.08589


          SCF CALCULATIONS        =         53
 
          WALL-CLOCK TIME         =          1.238 SECONDS
          COMPUTATION TIME        =          0.380 SECONDS




   ATOM   CHEMICAL          X               Y               Z
  NUMBER   SYMBOL      (ANGSTROMS)     (ANGSTROMS)     (ANGSTROMS)
 
     1       C         -0.45155615  *  -1.06902361  *  -0.25139854  *
     2       C         -1.87834319  *  -0.55063616  *   0.00961229  *
     3       C          0.43836950  *   0.11798905  *   0.00198696  *
     4       C         -1.70263258  *   0.88698144  *   0.38974919  *
     5       C         -0.41028951  *   1.25312994  *   0.38369418  *
     6       C          3.03070821  *   0.15477049  *  -0.20020265  *
     7       C          1.74044099  *   0.13555847  *  -0.09981293  *
     8       H         -0.19021173  *  -1.91046027  *   0.41521031  *
     9       H         -0.33100667  *  -1.44183845  *  -1.28443834  *
    10       H         -2.52463654  *  -0.64508085  *  -0.88205419  *
    11       H         -2.38290153  *  -1.11148473  *   0.81741497  *
    12       H         -2.55611854  *   1.51838921  *   0.63362669  *
    13       H         -0.00234321  *   2.23517847  *   0.61974114  *
    14       H          3.68294108  *  -0.07921329  *   0.63727497  *
    15       H          3.53832213  *   0.40601509  *  -1.12794589  *

                             CARTESIAN COORDINATES

   1    C       -0.451556149    -1.069023607    -0.251398540
   2    C       -1.878343186    -0.550636160     0.009612288
   3    C        0.438369501     0.117989054     0.001986959
   4    C       -1.702632576     0.886981441     0.389749194
   5    C       -0.410289506     1.253129942     0.383694183
   6    C        3.030708211     0.154770488    -0.200202653
   7    C        1.740440992     0.135558471    -0.099812933
   8    H       -0.190211729    -1.910460274     0.415210307
   9    H       -0.331006670    -1.441838446    -1.284438340
  10    H       -2.524636537    -0.645080845    -0.882054190
  11    H       -2.382901532    -1.111484727     0.817414965
  12    H       -2.556118545     1.518389210     0.633626694
  13    H       -0.002343210     2.235178467     0.619741144
  14    H        3.682941077    -0.079213290     0.637274972
  15    H        3.538322132     0.406015089    -1.127945886


           Empirical Formula: C7 H8  =    15 atoms



      MOLECULAR POINT GROUP   :   C1  


                  EIGENVALUES  
 -39.77269 -32.44929 -28.15615 -27.08050 -21.51882 -19.24798 -18.09267 -16.86315
 -16.00145 -14.97199 -14.54768 -13.77908 -13.14231 -12.91166 -12.55389 -11.11465
 -10.34022  -8.82497   0.27415   1.09350   1.95397   2.96022   3.38325   3.62600
   3.90458   3.95047   3.97962   4.19630   4.28671   4.42018   4.80326   5.00496
   5.04217   5.66637   5.84645   6.67614


              NET ATOMIC CHARGES AND DIPOLE CONTRIBUTIONS

  ATOM NO.   TYPE          CHARGE      No. of ELECS.   s-Pop       p-Pop       
    1          C          -0.047017        4.0470     1.15111     2.89591
    2          C          -0.068821        4.0688     1.15534     2.91348
    3          C          -0.030245        4.0302     1.15725     2.87300
    4          C          -0.144087        4.1441     1.20467     2.93942
    5          C          -0.099619        4.0996     1.18559     2.91403
    6          C          -0.075662        4.0757     1.14593     2.92973
    7          C          -0.180850        4.1808     1.20552     2.97533
    8          H           0.059152        0.9408     0.94085
    9          H           0.059147        0.9409     0.94085
   10          H           0.058234        0.9418     0.94177
   11          H           0.058218        0.9418     0.94178
   12          H           0.111779        0.8882     0.88822
   13          H           0.116219        0.8838     0.88378
   14          H           0.091779        0.9082     0.90822
   15          H           0.091773        0.9082     0.90823
 DIPOLE           X         Y         Z       TOTAL
 POINT-CHG.    -0.290    -0.218    -0.036     0.365
 HYBRID         0.060     0.005    -0.003     0.060
 SUM           -0.231    -0.213    -0.039     0.316


          ATOMIC ORBITAL ELECTRON POPULATIONS

     Atom    s        px        py        pz   
    1  C   1.15111   0.93212   0.95281   1.01099
    2  C   1.15534   0.96237   0.94487   1.00624
    3  C   1.15725   0.89899   0.95632   1.01769
    4  C   1.20467   0.97034   0.96931   0.99976
    5  C   1.18559   0.93990   0.96616   1.00797
    6  C   1.14593   0.91278   1.01371   1.00324
    7  C   1.20552   0.95800   0.99833   1.01900
    8  H   0.94085
    9  H   0.94085
   10  H   0.94177
   11  H   0.94178
   12  H   0.88822
   13  H   0.88378
   14  H   0.90822
   15  H   0.90823
 *******************************************************************************
 ** Site#: 14399        For non-commercial use only    Version 18.184L 64BITS **
 *******************************************************************************
 ** Cite this program as: MOPAC2016, Version: 18.184L, James J. P. Stewart,   **
 ** Stewart Computational Chemistry, web: HTTP://OpenMOPAC.net. Days left:  20**
 *******************************************************************************
 **                                                                           **
 **                                MOPAC2016                                  **
 **                                                                           **
 *******************************************************************************

                              PM3 CALCULATION RESULTS

 *******************************************************************************
 *  CALCULATION DONE:                                Thu Jun 13 15:56:28 2019  *
 *  PM3        - The PM3 Hamiltonian to be used
 *  OLDGEO     - PREVIOUS GEOMETRY TO BE USED
 *  PRECISE    - CRITERIA TO BE INCREASED BY 100 TIMES
 *  NOSYM      - POINT-GROUP SYMMETRY SET TO C1
 *  THREADS=1  - MULTI-THREADING NOT USED
 *  T=         - A TIME OF 172800.0 SECONDS REQUESTED
 *  DUMP=N     - RESTART FILE WRITTEN EVERY  7200.000 SECONDS
 *  THERMO     - THERMODYNAMIC QUANTITIES TO BE CALCULATED
 *******************************************************************************
oldgeo thermo nosym precise THREADS=1  pm3
 InChI=1S/C7H8/c1-2-7-5-3-4-6-7/h3,5H,1,4,6H2

   ATOM   CHEMICAL          X               Y               Z
  NUMBER   SYMBOL      (ANGSTROMS)     (ANGSTROMS)     (ANGSTROMS)
 
     1       C         -0.45155615  *  -1.06902361  *  -0.25139854  *
     2       C         -1.87834319  *  -0.55063616  *   0.00961229  *
     3       C          0.43836950  *   0.11798905  *   0.00198696  *
     4       C         -1.70263258  *   0.88698144  *   0.38974919  *
     5       C         -0.41028951  *   1.25312994  *   0.38369418  *
     6       C          3.03070821  *   0.15477049  *  -0.20020265  *
     7       C          1.74044099  *   0.13555847  *  -0.09981293  *
     8       H         -0.19021173  *  -1.91046027  *   0.41521031  *
     9       H         -0.33100667  *  -1.44183845  *  -1.28443834  *
    10       H         -2.52463654  *  -0.64508085  *  -0.88205419  *
    11       H         -2.38290153  *  -1.11148473  *   0.81741497  *
    12       H         -2.55611854  *   1.51838921  *   0.63362669  *
    13       H         -0.00234321  *   2.23517847  *   0.61974114  *
    14       H          3.68294108  *  -0.07921329  *   0.63727497  *
    15       H          3.53832213  *   0.40601509  *  -1.12794589  *
 


          CARTESIAN COORDINATES 

    NO.       ATOM           X           Y           Z

     1         C         -0.4516     -1.0690     -0.2514
     2         C         -1.8783     -0.5506      0.0096
     3         C          0.4384      0.1180      0.0020
     4         C         -1.7026      0.8870      0.3897
     5         C         -0.4103      1.2531      0.3837
     6         C          3.0307      0.1548     -0.2002
     7         C          1.7404      0.1356     -0.0998
     8         H         -0.1902     -1.9105      0.4152
     9         H         -0.3310     -1.4418     -1.2844
    10         H         -2.5246     -0.6451     -0.8821
    11         H         -2.3829     -1.1115      0.8174
    12         H         -2.5561      1.5184      0.6336
    13         H         -0.0023      2.2352      0.6197
    14         H          3.6829     -0.0792      0.6373
    15         H          3.5383      0.4060     -1.1279

  H: (PM3): J. J. P. STEWART, J. COMP. CHEM. 10, 209 (1989).
  C: (PM3): J. J. P. STEWART, J. COMP. CHEM. 10, 209 (1989).

           Empirical Formula: C7 H8  =    15 atoms



      MOLECULAR POINT GROUP   :   C1  


      RHF CALCULATION, NO. OF DOUBLY OCCUPIED LEVELS = 18



          HEAT OF FORMATION =      56.483707 KCALS/MOLE


          CARTESIAN COORDINATE DERIVATIVES

   NUMBER  ATOM         X            Y            Z

     1       C     -0.003958     0.002907    -0.004284
     2       C      0.001116     0.001173     0.006638
     3       C     -0.005256     0.000984    -0.002903
     4       C     -0.005915     0.000917     0.009900
     5       C     -0.004551    -0.007262    -0.001442
     6       C     -0.001876     0.000855     0.003080
     7       C     -0.002919    -0.003559    -0.001697
     8       H      0.006634    -0.007520    -0.000176
     9       H      0.012599    -0.003789     0.000715
    10       H      0.017101    -0.012859    -0.001106
    11       H     -0.002854     0.001906     0.001886
    12       H     -0.006434     0.000965    -0.004872
    13       H     -0.005500     0.004551    -0.000107
    14       H     -0.002221     0.012036    -0.002218
    15       H      0.004037     0.008696    -0.003417
 


          GRADIENT NORM =   0.03869


          TIME FOR SCF CALCULATION =    0.02

          TIME FOR DERIVATIVES     =    0.01

          MOLECULAR WEIGHT =   92.14



          ROTATIONAL CONSTANTS IN CM(-1)

          A =    0.24372831   B =    0.05985652   C =    0.04942179



           PRINCIPAL MOMENTS OF INERTIA IN UNITS OF 10**(-40)*GRAM-CM**2

          A =      114.8524   B =      467.6646   C =      566.4055


          ORIENTATION OF MOLECULE IN FORCE CALCULATION

    NO.       ATOM         X         Y         Z

     1          C       0.0589   -1.3265    0.0001
     2          C       1.5992   -1.3265    0.0001
     3          C      -0.3230    0.1293    0.0001
     4          C       1.9847    0.1204    0.0015
     5          C       0.9098    0.9259    0.0014
     6          C      -2.7462    1.0731   -0.0022
     7          C      -1.5404    0.6025   -0.0010
     8          H      -0.3534   -1.8450   -0.8841
     9          H      -0.3533   -1.8447    0.8846
    10          H       2.0150   -1.8447    0.8834
    11          H       2.0147   -1.8426   -0.8845
    12          H       3.0291    0.4299    0.0023
    13          H       0.9024    2.0152    0.0022
    14          H      -3.2871    1.2849   -0.9209
    15          H      -3.2890    1.2844    0.9155


    FIRST DERIVATIVES WILL BE USED IN THE CALCULATION OF SECOND DERIVATIVES

          ESTIMATED TIME TO COMPLETE CALCULATION =        4.92 SECONDS

    FOR POINT-GROUP C1   THERE ARE   1 UNIQUE SYMMETRY FUNCTIONS.

 STEP:   1 TIME =     0.03 SECS, INTEGRAL =      0.03 TIME LEFT: 172799.94
 STEP:   2 TIME =     0.03 SECS, INTEGRAL =      0.06 TIME LEFT: 172799.91
 STEP:   3 TIME =     0.03 SECS, INTEGRAL =      0.09 TIME LEFT: 172799.89
 STEP:   4 TIME =     0.03 SECS, INTEGRAL =      0.11 TIME LEFT: 172799.86
 STEP:   5 TIME =     0.02 SECS, INTEGRAL =      0.14 TIME LEFT: 172799.84
 STEP:   6 TIME =     0.03 SECS, INTEGRAL =      0.16 TIME LEFT: 172799.81
 STEP:   7 TIME =     0.03 SECS, INTEGRAL =      0.19 TIME LEFT: 172799.78
 STEP:   8 TIME =     0.03 SECS, INTEGRAL =      0.22 TIME LEFT: 172799.75
 STEP:   9 TIME =     0.03 SECS, INTEGRAL =      0.25 TIME LEFT: 172799.73
 STEP:  10 TIME =     0.03 SECS, INTEGRAL =      0.27 TIME LEFT: 172799.70
 STEP:  11 TIME =     0.03 SECS, INTEGRAL =      0.30 TIME LEFT: 172799.67
 STEP:  12 TIME =     0.03 SECS, INTEGRAL =      0.33 TIME LEFT: 172799.64
 STEP:  13 TIME =     0.03 SECS, INTEGRAL =      0.36 TIME LEFT: 172799.62
 STEP:  14 TIME =     0.03 SECS, INTEGRAL =      0.38 TIME LEFT: 172799.59
 STEP:  15 TIME =     0.03 SECS, INTEGRAL =      0.41 TIME LEFT: 172799.56
 STEP:  16 TIME =     0.03 SECS, INTEGRAL =      0.45 TIME LEFT: 172799.53
 STEP:  17 TIME =     0.03 SECS, INTEGRAL =      0.47 TIME LEFT: 172799.50
 STEP:  18 TIME =     0.03 SECS, INTEGRAL =      0.50 TIME LEFT: 172799.47
 STEP:  19 TIME =     0.03 SECS, INTEGRAL =      0.53 TIME LEFT: 172799.45
 STEP:  20 TIME =     0.03 SECS, INTEGRAL =      0.55 TIME LEFT: 172799.42
 STEP:  21 TIME =     0.03 SECS, INTEGRAL =      0.59 TIME LEFT: 172799.39
 STEP:  22 TIME =     0.03 SECS, INTEGRAL =      0.61 TIME LEFT: 172799.36
 STEP:  23 TIME =     0.03 SECS, INTEGRAL =      0.64 TIME LEFT: 172799.33
 STEP:  24 TIME =     0.03 SECS, INTEGRAL =      0.67 TIME LEFT: 172799.30
 STEP:  25 TIME =     0.03 SECS, INTEGRAL =      0.70 TIME LEFT: 172799.27
 STEP:  26 TIME =     0.03 SECS, INTEGRAL =      0.73 TIME LEFT: 172799.25
 STEP:  27 TIME =     0.03 SECS, INTEGRAL =      0.75 TIME LEFT: 172799.22
 STEP:  28 TIME =     0.03 SECS, INTEGRAL =      0.78 TIME LEFT: 172799.19
 STEP:  29 TIME =     0.03 SECS, INTEGRAL =      0.81 TIME LEFT: 172799.16
 STEP:  30 TIME =     0.03 SECS, INTEGRAL =      0.84 TIME LEFT: 172799.14
 STEP:  31 TIME =     0.03 SECS, INTEGRAL =      0.86 TIME LEFT: 172799.11
 STEP:  32 TIME =     0.03 SECS, INTEGRAL =      0.89 TIME LEFT: 172799.08
 STEP:  33 TIME =     0.03 SECS, INTEGRAL =      0.92 TIME LEFT: 172799.05
 STEP:  34 TIME =     0.03 SECS, INTEGRAL =      0.95 TIME LEFT: 172799.03
 STEP:  35 TIME =     0.03 SECS, INTEGRAL =      0.97 TIME LEFT: 172799.00
 STEP:  36 TIME =     0.03 SECS, INTEGRAL =      1.00 TIME LEFT: 172798.97
 STEP:  37 TIME =     0.03 SECS, INTEGRAL =      1.03 TIME LEFT: 172798.94
 STEP:  38 TIME =     0.02 SECS, INTEGRAL =      1.05 TIME LEFT: 172798.92
 STEP:  39 TIME =     0.03 SECS, INTEGRAL =      1.08 TIME LEFT: 172798.89
 STEP:  40 TIME =     0.03 SECS, INTEGRAL =      1.11 TIME LEFT: 172798.86
 STEP:  41 TIME =     0.03 SECS, INTEGRAL =      1.14 TIME LEFT: 172798.83
 STEP:  42 TIME =     0.03 SECS, INTEGRAL =      1.17 TIME LEFT: 172798.80
 STEP:  43 TIME =     0.03 SECS, INTEGRAL =      1.20 TIME LEFT: 172798.78
 STEP:  44 TIME =     0.03 SECS, INTEGRAL =      1.23 TIME LEFT: 172798.75
 STEP:  45 TIME =     0.03 SECS, INTEGRAL =      1.26 TIME LEFT: 172798.71

(To convert to Hartree/Bohr^2, multiply by (10^(-21) x N x a0^2)/(4.184 x 627.51) =  0.0642)


           FORCE MATRIX IN MILLIDYNES/ANGSTROM


                  C  1       C  2       C  3       C  4       C  5       C  6
 ------------------------------------------------------------------------------
     C    1  14.453369
     C    2   3.649106  14.614435
     C    3   4.286808   0.834734  19.579572
     C    4   0.885519   4.639893   1.459270  18.174738
     C    5   0.884951   1.166159   5.071064  10.226864  18.514125
     C    6   0.065193   0.007063   0.802528   0.023654   0.092626  18.131691
     C    7   0.764101   0.060585  11.093185   0.111351   1.023563  11.899348
     H    8   4.550305   0.438693   0.432932   0.027972   0.027975   0.005791
     H    9   4.550067   0.438678   0.432897   0.027864   0.027807   0.005748
     H   10   0.435503   4.529073   0.030341   0.429991   0.038425   0.001675
     H   11   0.435447   4.529039   0.030356   0.430013   0.038298   0.001663
     H   12   0.042967   0.412053   0.111674   5.031123   0.445099   0.004580
     H   13   0.039403   0.113576   0.430294   0.445015   5.036648   0.003425
     H   14   0.064437   0.002553   0.041990   0.005900   0.076354   5.005839
     H   15   0.064270   0.002686   0.041941   0.005814   0.076046   5.006222


                  C  7       H  8       H  9       H 10       H 11       H 12
 ------------------------------------------------------------------------------
     C    7  24.913786
     H    8   0.018994   5.151053
     H    9   0.018997   0.566408   5.150759
     H   10   0.005297   0.026208   0.030306   5.136053
     H   11   0.005326   0.030294   0.026311   0.570028   5.135919
     H   12   0.007846   0.003445   0.003430   0.014091   0.014023   5.425270
     H   13   0.011180   0.002750   0.002722   0.015573   0.015593   0.046022
     H   14   0.479958   0.007697   0.007825   0.000872   0.001213   0.005039
     H   15   0.479745   0.007780   0.007636   0.001208   0.000869   0.005014


                  H 13       H 14       H 15
 ------------------------------------------
     H   13   5.426557
     H   14   0.001398   5.385941
     H   15   0.001375   0.407354   5.386267


          HEAT OF FORMATION =      56.483707 KCALS/MOLE

          ZERO POINT ENERGY      78.767 KCAL/MOL


           NORMAL COORDINATE ANALYSIS (Total motion = 1 Angstrom)


   Root No.       1         2         3         4         5         6         7         8

                 1 A       2 A       3 A       4 A       5 A       6 A       7 A       8 A   

                  95.5     171.5     235.4     352.2     535.6     553.0     568.4     575.5
  
           1    0.0000    0.0260    0.0000    0.0000   -0.0002   -0.0511    0.0003   -0.0075
           2   -0.0000   -0.0388   -0.0001   -0.0000   -0.0002   -0.0160    0.0009   -0.0558
           3   -0.0475    0.0002   -0.0279   -0.0071   -0.0006   -0.0000    0.0064    0.0003
           4    0.0000    0.0283    0.0000    0.0000   -0.0003   -0.0691    0.0001    0.0039
           5   -0.0000    0.0132   -0.0000    0.0000    0.0001    0.0253   -0.0002    0.0068
           6    0.0534   -0.0001    0.0208   -0.0169   -0.0053    0.0000    0.0007    0.0001
           7    0.0000   -0.0206   -0.0000   -0.0000    0.0001    0.0434   -0.0001   -0.0044
           8   -0.0000   -0.0524   -0.0001   -0.0000   -0.0002   -0.0147    0.0008   -0.0449
           9   -0.0398   -0.0001    0.0446   -0.0118    0.0611   -0.0001    0.0544    0.0017
          10   -0.0000   -0.0186   -0.0000   -0.0000   -0.0002   -0.0289    0.0005   -0.0274
          11    0.0000    0.0255    0.0001   -0.0000    0.0002    0.0295   -0.0004    0.0181
          12    0.0195    0.0000   -0.0455    0.0521    0.0112    0.0000    0.0153    0.0004
          13   -0.0000   -0.0453   -0.0001   -0.0000   -0.0001   -0.0067    0.0007   -0.0427
          14   -0.0000   -0.0119    0.0000   -0.0000    0.0002    0.0515    0.0001   -0.0147
          15   -0.0383   -0.0000    0.0086   -0.0576   -0.0105   -0.0001   -0.0285   -0.0010
          16   -0.0000    0.0298    0.0001    0.0000    0.0004    0.0764   -0.0005    0.0143
          17    0.0001    0.0773    0.0001    0.0000   -0.0001   -0.0257    0.0004   -0.0235
          18    0.0460    0.0000   -0.0301   -0.0144   -0.0024    0.0001   -0.0038   -0.0001
          19   -0.0000   -0.0135   -0.0001   -0.0000    0.0004    0.0493   -0.0013    0.0731
          20   -0.0000   -0.0339   -0.0001    0.0001   -0.0000   -0.0560   -0.0019    0.1389
          21   -0.0048   -0.0001    0.0533    0.0791   -0.0362    0.0001   -0.0218   -0.0006
          22    0.0599    0.0442    0.0349   -0.0086    0.0176   -0.0730    0.0071    0.0109
          23    0.0257   -0.0532    0.0685   -0.0036    0.0988   -0.0055    0.0549   -0.0699
          24   -0.0908    0.0003   -0.0854   -0.0011   -0.0696    0.0025   -0.0296    0.0002
          25   -0.0599    0.0445   -0.0348    0.0087   -0.0181   -0.0729   -0.0070    0.0105
          26   -0.0257   -0.0527   -0.0687    0.0035   -0.0993   -0.0047   -0.0527   -0.0730
          27   -0.0908    0.0005   -0.0854   -0.0011   -0.0696   -0.0020   -0.0296   -0.0018
          28   -0.0591    0.0458   -0.0315    0.0110    0.0115   -0.0691    0.0150    0.0253
          29    0.0396    0.0271    0.0639   -0.0736   -0.0328    0.0310   -0.0491    0.0239
          30    0.1048   -0.0002    0.0741   -0.0667   -0.0314    0.0024   -0.0367   -0.0005
          31    0.0593    0.0455    0.0317   -0.0110   -0.0119   -0.0692   -0.0154    0.0241
          32   -0.0397    0.0274   -0.0640    0.0738    0.0333    0.0313    0.0482    0.0270
          33    0.1047   -0.0002    0.0739   -0.0665   -0.0314   -0.0026   -0.0365   -0.0018
          34   -0.0000   -0.0292    0.0000   -0.0001   -0.0002   -0.0177    0.0007   -0.0382
          35    0.0001    0.0611    0.0002   -0.0000    0.0001   -0.0119   -0.0008    0.0518
          36    0.0418    0.0001   -0.1145    0.1409    0.0069   -0.0001   -0.0098   -0.0007
          37   -0.0001   -0.0838   -0.0001   -0.0000   -0.0004   -0.0449    0.0019   -0.1025
          38    0.0000   -0.0121    0.0000    0.0000    0.0002    0.0508    0.0002   -0.0148
          39   -0.0734   -0.0001    0.0071   -0.1297   -0.0750   -0.0006   -0.1704   -0.0059
          40   -0.0355    0.0490    0.0720    0.0724   -0.1270    0.0963    0.0422   -0.0179
          41    0.0127    0.1267   -0.0143   -0.0847   -0.1842   -0.0066    0.2164   -0.1120
          42    0.0698    0.0002   -0.0765   -0.0779    0.0314   -0.0055    0.0216   -0.0010
          43    0.0354    0.0489   -0.0717   -0.0723    0.1276    0.0938   -0.0423   -0.0220
          44   -0.0125    0.1260    0.0146    0.0845    0.1835   -0.0120   -0.2125   -0.1293
          45    0.0699    0.0001   -0.0766   -0.0780    0.0318    0.0055    0.0213    0.0023


   Root No.       9        10        11        12        13        14        15        16

                 9 A      10 A      11 A      12 A      13 A      14 A      15 A      16 A   

                 761.7     775.0     821.7     921.7     923.2     960.1     991.4     999.1
  
           1   -0.0589   -0.0003    0.0001   -0.0067   -0.0000    0.0000   -0.0061    0.0000
           2   -0.0248   -0.0001   -0.0000    0.0712    0.0001   -0.0000   -0.0053    0.0000
           3    0.0000    0.0020    0.0338    0.0000    0.0106   -0.0242   -0.0000    0.0327
           4   -0.0320   -0.0001    0.0000    0.0163    0.0000   -0.0000    0.0064   -0.0000
           5    0.0806    0.0004   -0.0001   -0.0063    0.0000    0.0000   -0.0026    0.0000
           6    0.0004   -0.0275    0.0249    0.0000   -0.0115    0.0178    0.0000   -0.0355
           7   -0.0172   -0.0001    0.0000   -0.0094   -0.0000   -0.0000    0.0012    0.0000
           8   -0.0356   -0.0002    0.0000   -0.0072   -0.0000    0.0000    0.0030    0.0000
           9   -0.0004    0.0315   -0.0193    0.0000    0.0023    0.0316    0.0001   -0.0236
          10    0.1135    0.0006   -0.0001    0.0099    0.0000   -0.0000   -0.0020   -0.0000
          11    0.0387    0.0002   -0.0000    0.0025    0.0000   -0.0000    0.0007   -0.0000
          12    0.0002   -0.0172   -0.0210   -0.0000   -0.0012    0.0142    0.0000    0.0513
          13    0.0395    0.0002   -0.0000   -0.0376   -0.0000    0.0000   -0.0017   -0.0000
          14   -0.0675   -0.0003    0.0001   -0.0583   -0.0001    0.0000   -0.0015    0.0000
          15    0.0003   -0.0311   -0.0188   -0.0001    0.0131   -0.0466   -0.0001   -0.0219
          16   -0.0194   -0.0001   -0.0000    0.0311   -0.0000    0.0000   -0.0343    0.0000
          17    0.0053    0.0000    0.0000   -0.0123    0.0000    0.0001   -0.0889   -0.0000
          18    0.0000   -0.0039    0.0033   -0.0000    0.0656    0.0117   -0.0000   -0.0032
          19   -0.0139   -0.0000   -0.0000    0.0146    0.0001    0.0000    0.0130   -0.0000
          20    0.0005    0.0000   -0.0000   -0.0051   -0.0000   -0.0000    0.0329   -0.0000
          21    0.0000   -0.0046    0.0007    0.0001   -0.0574   -0.0158   -0.0000    0.0055
          22   -0.0366   -0.0513    0.1046   -0.0480   -0.0051   -0.0483   -0.0084   -0.0585
          23   -0.0547    0.0187    0.0900    0.1255    0.0393   -0.0553   -0.0046    0.1409
          24    0.0053    0.0158   -0.0730   -0.0106   -0.0108    0.0338    0.0008   -0.0244
          25   -0.0385    0.0509   -0.1045   -0.0482    0.0050    0.0484   -0.0084    0.0585
          26   -0.0546   -0.0193   -0.0901    0.1256   -0.0390    0.0554   -0.0045   -0.1410
          27   -0.0060    0.0158   -0.0729    0.0105   -0.0108    0.0338   -0.0008   -0.0244
          28   -0.0551   -0.0415    0.1041   -0.0324    0.0038   -0.0740    0.0140   -0.0162
          29    0.0786    0.1158   -0.0567   -0.0448    0.0408   -0.0998    0.0027    0.1025
          30    0.0070    0.0642   -0.0617   -0.0009    0.0116   -0.0064   -0.0005    0.0355
          31   -0.0565    0.0410   -0.1040   -0.0324   -0.0039    0.0742    0.0142    0.0162
          32    0.0816   -0.1152    0.0567   -0.0445   -0.0410    0.1000    0.0031   -0.1027
          33   -0.0087    0.0638   -0.0616    0.0007    0.0116   -0.0062    0.0005    0.0353
          34    0.1189    0.0004   -0.0001   -0.0289   -0.0000    0.0001   -0.0087    0.0001
          35    0.0245    0.0000   -0.0001    0.1277    0.0002   -0.0001    0.0231    0.0000
          36   -0.0034    0.2994    0.0673   -0.0000    0.0313   -0.1091   -0.0001   -0.1770
          37   -0.0250   -0.0002    0.0000   -0.1310   -0.0001    0.0000   -0.0019   -0.0001
          38   -0.0685   -0.0004   -0.0000   -0.0599   -0.0000   -0.0002   -0.0014   -0.0001
          39   -0.0008    0.1277    0.1727    0.0001   -0.0794    0.2227    0.0004    0.0828
          40   -0.0235   -0.0096    0.0230    0.0518    0.2435    0.0421    0.1405   -0.0059
          41    0.0125    0.0298    0.0170   -0.0218   -0.0906   -0.0143    0.3589    0.0175
          42    0.0032    0.0091   -0.0068   -0.0120   -0.1051   -0.0174    0.0003    0.0045
          43   -0.0238    0.0094   -0.0230    0.0523   -0.2433   -0.0422    0.1404    0.0060
          44    0.0131   -0.0297   -0.0170   -0.0221    0.0904    0.0138    0.3597   -0.0174
          45   -0.0035    0.0090   -0.0068    0.0123   -0.1055   -0.0175    0.0000    0.0045


   Root No.      17        18        19        20        21        22        23        24

                17 A      18 A      19 A      20 A      21 A      22 A      23 A      24 A   

                1041.2    1060.5    1073.5    1095.2    1107.0    1212.8    1227.2    1282.3
  
           1   -0.0573   -0.0239   -0.0000    0.0000    0.0180    0.0195   -0.0306    0.0456
           2   -0.0347    0.0087   -0.0000    0.0000   -0.0002   -0.0065    0.0070   -0.0309
           3   -0.0001    0.0001    0.0209   -0.0431   -0.0001    0.0000   -0.0000    0.0000
           4    0.0503    0.0129   -0.0000   -0.0000   -0.0230    0.0143    0.0317   -0.0364
           5   -0.0384    0.0362   -0.0001    0.0000    0.0054    0.0070   -0.0001   -0.0172
           6    0.0000    0.0000    0.0125    0.0478    0.0001    0.0000    0.0000   -0.0000
           7    0.0130   -0.0099    0.0000   -0.0000   -0.0046   -0.0101   -0.0257   -0.0064
           8    0.0134    0.0087    0.0000   -0.0000    0.0020   -0.0437    0.0100    0.0047
           9    0.0000   -0.0001   -0.0264   -0.0037   -0.0000   -0.0000   -0.0000    0.0000
          10    0.0119   -0.0310    0.0001   -0.0000   -0.0013    0.0006    0.0065    0.0111
          11    0.0229   -0.0354    0.0001   -0.0000    0.0050    0.0273    0.0161    0.0031
          12    0.0001   -0.0001   -0.0323   -0.0035    0.0000    0.0000    0.0000    0.0000
          13    0.0116   -0.0087   -0.0000   -0.0000   -0.0032   -0.0153   -0.0092    0.0121
          14    0.0192   -0.0312    0.0000   -0.0000   -0.0086    0.0093    0.0082    0.0020
          15   -0.0000    0.0000    0.0186    0.0018    0.0000    0.0000    0.0000    0.0000
          16   -0.0073    0.0171   -0.0000    0.0000    0.0040   -0.0026    0.0035   -0.0221
          17    0.0083   -0.0049    0.0000   -0.0000   -0.0019   -0.0013   -0.0012    0.0084
          18   -0.0000    0.0000   -0.0017    0.0003    0.0000   -0.0000    0.0000   -0.0000
          19   -0.0056    0.0030   -0.0000    0.0000    0.0011    0.0047   -0.0126   -0.0159
          20   -0.0068   -0.0044   -0.0000    0.0000    0.0011    0.0063    0.0039    0.0077
          21   -0.0000    0.0000    0.0047   -0.0006    0.0000    0.0000   -0.0000   -0.0000
          22   -0.1399   -0.0183   -0.1170   -0.2283    0.0770   -0.1056    0.0361   -0.0691
          23    0.0116    0.0172    0.1301    0.0643   -0.0566    0.1113   -0.0741    0.0847
          24    0.0107   -0.0051    0.0003    0.0265    0.0039   -0.0098    0.0146   -0.0128
          25   -0.1395   -0.0183    0.1170    0.2283    0.0775   -0.1055    0.0361   -0.0692
          26    0.0116    0.0169   -0.1303   -0.0639   -0.0568    0.1111   -0.0741    0.0848
          27   -0.0106    0.0050    0.0003    0.0265   -0.0038    0.0098   -0.0146    0.0128
          28    0.0711    0.1217   -0.1562    0.1975   -0.1102   -0.0544   -0.0099    0.0172
          29   -0.0358    0.1538   -0.1349    0.0306   -0.0661   -0.0549   -0.0805    0.0671
          30   -0.0092    0.0149    0.0081   -0.0276   -0.0007   -0.0036   -0.0238    0.0213
          31    0.0706    0.1219    0.1562   -0.1973   -0.1105   -0.0542   -0.0099    0.0173
          32   -0.0359    0.1539    0.1348   -0.0301   -0.0661   -0.0548   -0.0805    0.0671
          33    0.0090   -0.0146    0.0084   -0.0276    0.0006    0.0035    0.0236   -0.0211
          34   -0.0485   -0.0412   -0.0000    0.0001   -0.0696    0.0475    0.0454   -0.0084
          35    0.2303   -0.0016    0.0001   -0.0005    0.2287   -0.1272   -0.1085    0.0690
          36   -0.0001    0.0001    0.0636    0.0147    0.0001   -0.0000   -0.0000    0.0000
          37    0.0439    0.2370   -0.0002   -0.0003    0.2135    0.1957    0.0406   -0.0281
          38    0.0217   -0.0328    0.0001   -0.0000   -0.0079    0.0103    0.0097    0.0021
          39    0.0001   -0.0001   -0.0410   -0.0003    0.0001    0.0001    0.0000   -0.0000
          40   -0.0272    0.0401   -0.0041    0.0004    0.0139   -0.0280    0.1487    0.1419
          41   -0.0057   -0.0209    0.0060   -0.0017   -0.0045    0.0119   -0.0580   -0.0548
          42    0.0073   -0.0149    0.0022   -0.0004   -0.0056    0.0164   -0.0905   -0.1044
          43   -0.0272    0.0402    0.0041   -0.0003    0.0139   -0.0279    0.1485    0.1417
          44   -0.0057   -0.0209   -0.0060    0.0018   -0.0045    0.0119   -0.0581   -0.0549
          45   -0.0074    0.0150    0.0022   -0.0004    0.0056   -0.0164    0.0908    0.1046


   Root No.      25        26        27        28        29        30        31        32

                25 A      26 A      27 A      28 A      29 A      30 A      31 A      32 A   

                1347.9    1373.8    1395.2    1413.0    1577.8    1803.9    2272.8    2974.7
  
           1   -0.0217    0.0302    0.0103    0.0237   -0.0268    0.0052    0.0036   -0.0000
           2    0.0220   -0.0183    0.0578    0.0256    0.0385    0.0055   -0.0078   -0.0000
           3    0.0000    0.0000   -0.0000   -0.0000   -0.0000    0.0000   -0.0000    0.0254
           4   -0.0466   -0.0336   -0.0024   -0.0224   -0.0013    0.0083    0.0022   -0.0000
           5   -0.0426   -0.0227   -0.0566    0.0400    0.0005   -0.0181   -0.0029    0.0000
           6   -0.0000   -0.0000   -0.0000    0.0000    0.0000   -0.0000    0.0000   -0.0362
           7   -0.0159    0.0153   -0.0159   -0.0053    0.1683   -0.0277   -0.1732    0.0000
           8   -0.0353    0.0751   -0.0389   -0.0274   -0.0412    0.0046    0.0654   -0.0000
           9   -0.0000    0.0000   -0.0000   -0.0000    0.0001   -0.0000   -0.0001    0.0001
          10    0.0207    0.0161    0.0117   -0.0076   -0.0271   -0.1753    0.0092    0.0000
          11    0.0332    0.0491    0.0178   -0.0256    0.0239    0.1625   -0.0029   -0.0000
          12    0.0000    0.0000    0.0000   -0.0000   -0.0000    0.0000    0.0000   -0.0000
          13    0.0024   -0.0553    0.0035    0.0208   -0.0393    0.2072    0.0033    0.0000
          14    0.0124   -0.0464    0.0164    0.0088   -0.0392   -0.1210    0.0064    0.0000
          15    0.0000   -0.0000    0.0000    0.0000   -0.0000    0.0000    0.0000   -0.0001
          16    0.0037    0.0199    0.0016   -0.0065   -0.1250    0.0076   -0.1375    0.0000
          17   -0.0025   -0.0059   -0.0018    0.0018    0.0491   -0.0026    0.0536   -0.0000
          18    0.0000    0.0000    0.0000   -0.0000   -0.0001    0.0000   -0.0001    0.0000
          19    0.0025    0.0016    0.0016    0.0004    0.0324   -0.0054    0.3030   -0.0000
          20    0.0026   -0.0061    0.0038    0.0025   -0.0148   -0.0031   -0.1176    0.0000
          21    0.0000    0.0000   -0.0000   -0.0000    0.0000   -0.0000    0.0003    0.0000
          22    0.1256   -0.0662   -0.0643   -0.1062    0.0420    0.0018   -0.0070   -0.0712
          23    0.0571   -0.0719   -0.1331   -0.0690   -0.0314    0.0008    0.0016   -0.0925
          24   -0.0790    0.0675    0.1271    0.1009    0.0074    0.0057    0.0031   -0.1531
          25    0.1255   -0.0663   -0.0643   -0.1062    0.0420    0.0018   -0.0069    0.0712
          26    0.0571   -0.0719   -0.1331   -0.0690   -0.0313    0.0008    0.0016    0.0925
          27    0.0789   -0.0674   -0.1270   -0.1009   -0.0074   -0.0057   -0.0032   -0.1533
          28    0.1639    0.0739   -0.0235    0.1088    0.0051   -0.0195    0.0022    0.1044
          29   -0.0153   -0.0236    0.1305   -0.1078   -0.0056   -0.0320   -0.0007   -0.1324
          30   -0.0727   -0.0445    0.1042   -0.1293   -0.0080   -0.0006    0.0037    0.2181
          31    0.1638    0.0739   -0.0236    0.1088    0.0050   -0.0194    0.0022   -0.1044
          32   -0.0155   -0.0237    0.1308   -0.1081   -0.0057   -0.0319   -0.0007    0.1320
          33    0.0726    0.0444   -0.1039    0.1290    0.0080    0.0006   -0.0037    0.2185
          34    0.0275    0.0563    0.0176   -0.0305   -0.0126   -0.1408    0.0167   -0.0000
          35    0.0163   -0.0849    0.0033    0.0464   -0.0485   -0.1038    0.0046   -0.0000
          36    0.0000    0.0000    0.0000    0.0000   -0.0000   -0.0001   -0.0000   -0.0007
          37    0.0681    0.0621    0.0399   -0.0261    0.0588   -0.0597   -0.0088   -0.0000
          38    0.0140   -0.0475    0.0179    0.0077   -0.0462   -0.1647    0.0140    0.0000
          39    0.0000   -0.0000    0.0000   -0.0000    0.0000   -0.0001   -0.0000   -0.0003
          40   -0.0102   -0.0330   -0.0031    0.0076    0.0420   -0.0004   -0.0628    0.0001
          41    0.0034    0.0140    0.0007   -0.0034   -0.0158    0.0001    0.0246    0.0002
          42    0.0093    0.0349    0.0033   -0.0095   -0.1242    0.0071   -0.1083    0.0000
          43   -0.0102   -0.0330   -0.0031    0.0076    0.0417   -0.0004   -0.0630   -0.0001
          44    0.0034    0.0140    0.0007   -0.0034   -0.0159    0.0001    0.0245   -0.0002
          45   -0.0093   -0.0350   -0.0033    0.0095    0.1243   -0.0071    0.1082    0.0001


   Root No.      33        34        35        36        37        38        39

                33 A      34 A      35 A      36 A      37 A      38 A      39 A   

                2990.1    3056.6    3061.5    3114.6    3119.0    3119.3    3137.5
  
           1    0.0000    0.0083   -0.0185    0.0001   -0.0000    0.0001    0.0010
           2    0.0000    0.0097   -0.0236    0.0002    0.0000   -0.0000    0.0013
           3   -0.0361    0.0000   -0.0000   -0.0000   -0.0000   -0.0000    0.0000
           4   -0.0000    0.0191    0.0071   -0.0000    0.0000   -0.0003   -0.0012
           5    0.0000   -0.0237   -0.0097   -0.0000   -0.0000    0.0001    0.0018
           6   -0.0252   -0.0000   -0.0000   -0.0000    0.0000   -0.0000   -0.0000
           7   -0.0000   -0.0004    0.0001   -0.0007    0.0000    0.0002    0.0017
           8    0.0000    0.0004   -0.0005    0.0003    0.0000   -0.0002   -0.0001
           9   -0.0001    0.0000   -0.0000   -0.0000   -0.0002   -0.0000    0.0000
          10    0.0000   -0.0010   -0.0007   -0.0015    0.0009   -0.0371   -0.0391
          11   -0.0000   -0.0008   -0.0003   -0.0005    0.0003   -0.0109   -0.0064
          12   -0.0001   -0.0000   -0.0000   -0.0000   -0.0000   -0.0000   -0.0000
          13    0.0000   -0.0002    0.0000   -0.0002   -0.0000    0.0002    0.0048
          14   -0.0000   -0.0002   -0.0003    0.0008   -0.0009    0.0360   -0.0421
          15   -0.0002   -0.0000    0.0000   -0.0000   -0.0000    0.0000   -0.0000
          16    0.0000    0.0000   -0.0000   -0.0432    0.0005    0.0014    0.0005
          17   -0.0000   -0.0000    0.0000    0.0169   -0.0001   -0.0006   -0.0002
          18   -0.0000    0.0000   -0.0000   -0.0007   -0.0633   -0.0014   -0.0000
          19    0.0000    0.0002   -0.0002    0.0079   -0.0001   -0.0003   -0.0007
          20   -0.0000   -0.0000    0.0000   -0.0031    0.0000    0.0003    0.0001
          21   -0.0000    0.0000   -0.0000    0.0000   -0.0004   -0.0000   -0.0000
          22    0.1070   -0.0457    0.1133   -0.0007    0.0000    0.0001   -0.0027
          23    0.1316   -0.0586    0.1411   -0.0008    0.0000   -0.0002   -0.0033
          24    0.2172   -0.1139    0.2765   -0.0014    0.0001   -0.0002   -0.0067
          25   -0.1070   -0.0457    0.1131   -0.0007   -0.0001    0.0001   -0.0027
          26   -0.1317   -0.0585    0.1409   -0.0008   -0.0000   -0.0002   -0.0033
          27    0.2175    0.1138   -0.2763    0.0014    0.0001    0.0002    0.0067
          28    0.0764   -0.1138   -0.0473    0.0000   -0.0000    0.0006    0.0043
          29   -0.0919    0.1419    0.0574   -0.0001    0.0001   -0.0031   -0.0071
          30    0.1511   -0.2774   -0.1131    0.0000   -0.0001    0.0039    0.0121
          31   -0.0764   -0.1136   -0.0473    0.0000   -0.0000    0.0006    0.0043
          32    0.0916    0.1412    0.0571   -0.0001    0.0001   -0.0030   -0.0071
          33    0.1514    0.2777    0.1131   -0.0000    0.0001   -0.0038   -0.0121
          34   -0.0000    0.0114    0.0119    0.0185   -0.0111    0.4366    0.3968
          35   -0.0000    0.0019    0.0033    0.0055   -0.0034    0.1324    0.1177
          36   -0.0006    0.0000    0.0000    0.0000   -0.0000    0.0003    0.0003
          37    0.0000   -0.0004    0.0001    0.0000   -0.0000    0.0004   -0.0030
          38    0.0000    0.0061    0.0101   -0.0101    0.0105   -0.4258    0.4443
          39   -0.0003    0.0000    0.0000   -0.0000   -0.0000   -0.0003    0.0003
          40   -0.0001   -0.0004    0.0006    0.2176    0.2301   -0.0018   -0.0017
          41   -0.0002    0.0001   -0.0002   -0.0852   -0.0899    0.0007    0.0007
          42   -0.0001   -0.0006    0.0011    0.3948    0.3779   -0.0041   -0.0033
          43    0.0001   -0.0003    0.0006    0.2139   -0.2349   -0.0123   -0.0018
          44    0.0002    0.0001   -0.0002   -0.0832    0.0912    0.0047    0.0008
          45   -0.0001    0.0006   -0.0010   -0.3870    0.3849    0.0213    0.0034


           MASS-WEIGHTED COORDINATE ANALYSIS (NORMAL COORDINATES)


   Root No.       1         2         3         4         5         6         7         8

                 1 A       2 A       3 A       4 A       5 A       6 A       7 A       8 A   

                  95.5     171.5     235.4     352.2     535.6     553.0     568.4     575.5
  
           1    0.0002    0.1713    0.0002    0.0001   -0.0016   -0.2919    0.0021   -0.0379
           2   -0.0002   -0.2553   -0.0004   -0.0002   -0.0016   -0.0914    0.0072   -0.2837
           3   -0.3628    0.0010   -0.2202   -0.0491   -0.0046   -0.0000    0.0498    0.0013
           4    0.0003    0.1864    0.0002    0.0001   -0.0020   -0.3945    0.0012    0.0196
           5   -0.0001    0.0868   -0.0000    0.0002    0.0011    0.1445   -0.0014    0.0347
           6    0.4084   -0.0004    0.1644   -0.1167   -0.0407    0.0001    0.0056    0.0004
           7    0.0001   -0.1355   -0.0004   -0.0001    0.0009    0.2478   -0.0008   -0.0225
           8   -0.0003   -0.3453   -0.0006   -0.0003   -0.0015   -0.0840    0.0059   -0.2283
           9   -0.3040   -0.0005    0.3515   -0.0814    0.4655   -0.0008    0.4248    0.0086
          10   -0.0001   -0.1224   -0.0002   -0.0001   -0.0013   -0.1653    0.0042   -0.1394
          11    0.0002    0.1677    0.0005   -0.0001    0.0013    0.1685   -0.0031    0.0919
          12    0.1490    0.0002   -0.3591    0.3610    0.0856    0.0002    0.1198    0.0023
          13   -0.0002   -0.2985   -0.0005   -0.0000   -0.0010   -0.0384    0.0057   -0.2173
          14   -0.0001   -0.0786    0.0000   -0.0001    0.0013    0.2940    0.0005   -0.0749
          15   -0.2928   -0.0002    0.0678   -0.3991   -0.0801   -0.0007   -0.2229   -0.0049
          16   -0.0002    0.1964    0.0007    0.0002    0.0029    0.4361   -0.0040    0.0726
          17    0.0005    0.5093    0.0008    0.0001   -0.0005   -0.1466    0.0030   -0.1197
          18    0.3512    0.0003   -0.2373   -0.0999   -0.0179    0.0005   -0.0297   -0.0005
          19   -0.0001   -0.0888   -0.0004   -0.0003    0.0027    0.2813   -0.0099    0.3718
          20   -0.0001   -0.2231   -0.0005    0.0004   -0.0000   -0.3198   -0.0150    0.7066
          21   -0.0364   -0.0008    0.4203    0.5479   -0.2754    0.0008   -0.1706   -0.0033
          22    0.1327    0.0843    0.0797   -0.0172    0.0388   -0.1207    0.0160    0.0160
          23    0.0568   -0.1015    0.1566   -0.0072    0.2181   -0.0091    0.1243   -0.1031
          24   -0.2010    0.0005   -0.1952   -0.0021   -0.1535    0.0041   -0.0670    0.0003
          25   -0.1326    0.0848   -0.0795    0.0174   -0.0399   -0.1205   -0.0157    0.0154
          26   -0.0569   -0.1005   -0.1569    0.0069   -0.2191   -0.0079   -0.1193   -0.1076
          27   -0.2010    0.0009   -0.1951   -0.0021   -0.1535   -0.0032   -0.0669   -0.0026
          28   -0.1309    0.0874   -0.0721    0.0222    0.0254   -0.1143    0.0339    0.0373
          29    0.0876    0.0518    0.1461   -0.1476   -0.0724    0.0514   -0.1111    0.0352
          30    0.2320   -0.0003    0.1693   -0.1338   -0.0693    0.0040   -0.0829   -0.0007
          31    0.1313    0.0868    0.0724   -0.0220   -0.0263   -0.1145   -0.0347    0.0356
          32   -0.0879    0.0522   -0.1463    0.1481    0.0735    0.0518    0.1091    0.0399
          33    0.2318   -0.0004    0.1690   -0.1335   -0.0692   -0.0043   -0.0826   -0.0027
          34   -0.0001   -0.0557    0.0000   -0.0001   -0.0003   -0.0292    0.0016   -0.0564
          35    0.0001    0.1165    0.0003   -0.0001    0.0002   -0.0197   -0.0018    0.0763
          36    0.0926    0.0001   -0.2617    0.2827    0.0151   -0.0001   -0.0222   -0.0010
          37   -0.0001   -0.1599   -0.0003   -0.0000   -0.0009   -0.0743    0.0043   -0.1510
          38    0.0000   -0.0230    0.0000    0.0001    0.0005    0.0840    0.0004   -0.0218
          39   -0.1625   -0.0001    0.0162   -0.2602   -0.1656   -0.0009   -0.3854   -0.0087
          40   -0.0786    0.0934    0.1646    0.1453   -0.2802    0.1593    0.0954   -0.0265
          41    0.0282    0.2417   -0.0327   -0.1699   -0.4064   -0.0108    0.4897   -0.1651
          42    0.1546    0.0003   -0.1747   -0.1564    0.0692   -0.0091    0.0489   -0.0014
          43    0.0784    0.0934   -0.1639   -0.1451    0.2816    0.1552   -0.0956   -0.0324
          44   -0.0277    0.2404    0.0335    0.1696    0.4049   -0.0198   -0.4809   -0.1906
          45    0.1548    0.0003   -0.1750   -0.1565    0.0702    0.0091    0.0482    0.0034


   Root No.       9        10        11        12        13        14        15        16

                 9 A      10 A      11 A      12 A      13 A      14 A      15 A      16 A   

                 761.7     775.0     821.7     921.7     923.2     960.1     991.4     999.1
  
           1   -0.3005   -0.0024    0.0006   -0.0487   -0.0001    0.0001   -0.0325    0.0001
           2   -0.1263   -0.0011   -0.0000    0.5144    0.0006   -0.0000   -0.0282    0.0001
           3    0.0002    0.0161    0.2956    0.0001    0.0705   -0.2051   -0.0002    0.2644
           4   -0.1630   -0.0011    0.0002    0.1180    0.0002   -0.0001    0.0338   -0.0001
           5    0.4111    0.0032   -0.0008   -0.0455    0.0000    0.0001   -0.0141    0.0002
           6    0.0022   -0.2184    0.2178    0.0001   -0.0769    0.1513    0.0001   -0.2869
           7   -0.0876   -0.0009    0.0002   -0.0681   -0.0001   -0.0003    0.0064    0.0001
           8   -0.1814   -0.0015    0.0004   -0.0524   -0.0001    0.0000    0.0157    0.0000
           9   -0.0023    0.2498   -0.1687    0.0001    0.0156    0.2678    0.0004   -0.1903
          10    0.5792    0.0044   -0.0008    0.0717    0.0002   -0.0003   -0.0108   -0.0002
          11    0.1975    0.0017   -0.0003    0.0183    0.0001   -0.0002    0.0039   -0.0001
          12    0.0009   -0.1362   -0.1842   -0.0000   -0.0078    0.1208    0.0001    0.4142
          13    0.2017    0.0016   -0.0001   -0.2721   -0.0003    0.0001   -0.0089   -0.0000
          14   -0.3443   -0.0025    0.0008   -0.4215   -0.0006    0.0002   -0.0081    0.0000
          15    0.0016   -0.2466   -0.1645   -0.0006    0.0876   -0.3950   -0.0004   -0.1768
          16   -0.0988   -0.0006   -0.0000    0.2250   -0.0001    0.0002   -0.1821    0.0000
          17    0.0272    0.0002    0.0001   -0.0888    0.0000    0.0005   -0.4717   -0.0000
          18    0.0001   -0.0309    0.0289   -0.0004    0.4386    0.0990   -0.0000   -0.0262
          19   -0.0710   -0.0004   -0.0000    0.1055    0.0004    0.0001    0.0687   -0.0001
          20    0.0023    0.0002   -0.0000   -0.0370   -0.0001   -0.0001    0.1745   -0.0000
          21    0.0003   -0.0366    0.0064    0.0005   -0.3834   -0.1338   -0.0002    0.0445
          22   -0.0541   -0.1180    0.2652   -0.1005   -0.0098   -0.1187   -0.0129   -0.1368
          23   -0.0808    0.0431    0.2283    0.2628    0.0760   -0.1360   -0.0071    0.3296
          24    0.0078    0.0364   -0.1850   -0.0221   -0.0210    0.0829    0.0012   -0.0572
          25   -0.0569    0.1171   -0.2651   -0.1009    0.0096    0.1190   -0.0129    0.1369
          26   -0.0806   -0.0444   -0.2284    0.2629   -0.0754    0.1360   -0.0069   -0.3298
          27   -0.0089    0.0363   -0.1849    0.0220   -0.0209    0.0830   -0.0012   -0.0572
          28   -0.0814   -0.0954    0.2638   -0.0678    0.0073   -0.1819    0.0214   -0.0379
          29    0.1162    0.2663   -0.1439   -0.0938    0.0790   -0.2451    0.0042    0.2397
          30    0.0104    0.1475   -0.1566   -0.0019    0.0225   -0.0158   -0.0008    0.0830
          31   -0.0836    0.0942   -0.2638   -0.0678   -0.0075    0.1822    0.0218    0.0379
          32    0.1206   -0.2650    0.1438   -0.0932   -0.0793    0.2456    0.0047   -0.2402
          33   -0.0128    0.1467   -0.1561    0.0015    0.0224   -0.0153    0.0007    0.0825
          34    0.1758    0.0009   -0.0004   -0.0605   -0.0001    0.0002   -0.0134    0.0003
          35    0.0362    0.0001   -0.0002    0.2674    0.0004   -0.0002    0.0355    0.0000
          36   -0.0050    0.6885    0.1707   -0.0001    0.0606   -0.2681   -0.0002   -0.4141
          37   -0.0370   -0.0004    0.0000   -0.2742   -0.0003    0.0001   -0.0030   -0.0002
          38   -0.1013   -0.0010   -0.0001   -0.1254   -0.0001   -0.0004   -0.0022   -0.0002
          39   -0.0012    0.2936    0.4380    0.0002   -0.1537    0.5472    0.0006    0.1937
          40   -0.0348   -0.0221    0.0584    0.1085    0.4713    0.1034    0.2159   -0.0138
          41    0.0185    0.0685    0.0430   -0.0457   -0.1753   -0.0352    0.5514    0.0409
          42    0.0048    0.0209   -0.0172   -0.0251   -0.2034   -0.0429    0.0004    0.0106
          43   -0.0352    0.0215   -0.0584    0.1095   -0.4708   -0.1037    0.2156    0.0140
          44    0.0194   -0.0683   -0.0431   -0.0463    0.1750    0.0339    0.5526   -0.0408
          45   -0.0052    0.0208   -0.0173    0.0258   -0.2042   -0.0430    0.0001    0.0106


   Root No.      17        18        19        20        21        22        23        24

                17 A      18 A      19 A      20 A      21 A      22 A      23 A      24 A   

                1041.2    1060.5    1073.5    1095.2    1107.0    1212.8    1227.2    1282.3
  
           1   -0.4095   -0.1791   -0.0003    0.0002    0.1522    0.1663   -0.2712    0.3725
           2   -0.2482    0.0654   -0.0001    0.0003   -0.0015   -0.0557    0.0624   -0.2528
           3   -0.0005    0.0004    0.1679   -0.3006   -0.0005    0.0001   -0.0001    0.0001
           4    0.3591    0.0964   -0.0000   -0.0002   -0.1939    0.1222    0.2812   -0.2973
           5   -0.2745    0.2712   -0.0004    0.0001    0.0455    0.0595   -0.0011   -0.1405
           6    0.0000    0.0000    0.1006    0.3334    0.0005    0.0001    0.0002   -0.0003
           7    0.0929   -0.0743    0.0003   -0.0000   -0.0385   -0.0861   -0.2282   -0.0519
           8    0.0961    0.0649    0.0000   -0.0000    0.0172   -0.3727    0.0889    0.0385
           9    0.0001   -0.0004   -0.2121   -0.0257   -0.0001   -0.0002   -0.0002    0.0000
          10    0.0853   -0.2320    0.0004   -0.0000   -0.0112    0.0047    0.0574    0.0906
          11    0.1635   -0.2652    0.0004   -0.0002    0.0424    0.2325    0.1425    0.0252
          12    0.0005   -0.0006   -0.2596   -0.0242    0.0001    0.0001    0.0001    0.0001
          13    0.0827   -0.0648   -0.0000   -0.0001   -0.0268   -0.1305   -0.0819    0.0986
          14    0.1368   -0.2334    0.0001   -0.0003   -0.0729    0.0795    0.0726    0.0160
          15   -0.0001    0.0001    0.1498    0.0129    0.0000    0.0001    0.0001    0.0001
          16   -0.0523    0.1278   -0.0001    0.0000    0.0341   -0.0222    0.0308   -0.1804
          17    0.0595   -0.0370    0.0000   -0.0001   -0.0163   -0.0108   -0.0105    0.0685
          18   -0.0001    0.0001   -0.0139    0.0019    0.0000   -0.0000    0.0000   -0.0002
          19   -0.0403    0.0224   -0.0001    0.0000    0.0094    0.0403   -0.1120   -0.1302
          20   -0.0484   -0.0327   -0.0000    0.0000    0.0095    0.0538    0.0348    0.0632
          21   -0.0000    0.0001    0.0375   -0.0042    0.0000    0.0000   -0.0001   -0.0001
          22   -0.2895   -0.0396   -0.2722   -0.4611    0.1883   -0.2608    0.0927   -0.1637
          23    0.0239    0.0372    0.3028    0.1298   -0.1385    0.2747   -0.1903    0.2007
          24    0.0221   -0.0110    0.0007    0.0535    0.0095   -0.0243    0.0375   -0.0304
          25   -0.2887   -0.0396    0.2722    0.4611    0.1895   -0.2605    0.0927   -0.1638
          26    0.0240    0.0366   -0.3031   -0.1291   -0.1388    0.2745   -0.1902    0.2007
          27   -0.0219    0.0109    0.0007    0.0536   -0.0093    0.0242   -0.0375    0.0303
          28    0.1472    0.2640   -0.3634    0.3989   -0.2695   -0.1342   -0.0253    0.0407
          29   -0.0741    0.3336   -0.3140    0.0618   -0.1616   -0.1357   -0.2066    0.1588
          30   -0.0191    0.0324    0.0189   -0.0557   -0.0018   -0.0090   -0.0611    0.0504
          31    0.1461    0.2644    0.3635   -0.3985   -0.2703   -0.1339   -0.0254    0.0408
          32   -0.0743    0.3337    0.3137   -0.0608   -0.1617   -0.1354   -0.2067    0.1588
          33    0.0187   -0.0317    0.0196   -0.0558    0.0014    0.0087    0.0606   -0.0500
          34   -0.1004   -0.0894   -0.0001    0.0003   -0.1701    0.1172    0.1166   -0.0199
          35    0.4767   -0.0034    0.0003   -0.0011    0.5595   -0.3141   -0.2787    0.1634
          36   -0.0001    0.0001    0.1479    0.0296    0.0002   -0.0000   -0.0001    0.0001
          37    0.0908    0.5140   -0.0006   -0.0007    0.5221    0.4832    0.1041   -0.0666
          38    0.0450   -0.0711    0.0001   -0.0001   -0.0194    0.0253    0.0249    0.0051
          39    0.0003   -0.0001   -0.0953   -0.0006    0.0001    0.0002    0.0000   -0.0000
          40   -0.0564    0.0871   -0.0096    0.0008    0.0339   -0.0691    0.3818    0.3360
          41   -0.0117   -0.0452    0.0140   -0.0034   -0.0109    0.0293   -0.1489   -0.1298
          42    0.0151   -0.0323    0.0050   -0.0008   -0.0136    0.0404   -0.2323   -0.2471
          43   -0.0564    0.0871    0.0095   -0.0006    0.0339   -0.0690    0.3813    0.3355
          44   -0.0118   -0.0454   -0.0139    0.0036   -0.0109    0.0294   -0.1492   -0.1300
          45   -0.0153    0.0325    0.0050   -0.0007    0.0137   -0.0406    0.2330    0.2477


   Root No.      25        26        27        28        29        30        31        32

                25 A      26 A      27 A      28 A      29 A      30 A      31 A      32 A   

                1347.9    1373.8    1395.2    1413.0    1577.8    1803.9    2272.8    2974.7
  
           1   -0.1604    0.2009    0.0719    0.1823   -0.1095    0.0148    0.0089   -0.0000
           2    0.1624   -0.1216    0.4037    0.1971    0.1573    0.0157   -0.0191   -0.0000
           3    0.0000    0.0000   -0.0001   -0.0001   -0.0000    0.0000   -0.0000    0.1754
           4   -0.3437   -0.2233   -0.0168   -0.1723   -0.0054    0.0238    0.0054   -0.0000
           5   -0.3142   -0.1512   -0.3949    0.3083    0.0020   -0.0521   -0.0072    0.0003
           6   -0.0002   -0.0001   -0.0003    0.0003    0.0000   -0.0000    0.0000   -0.2502
           7   -0.1174    0.1016   -0.1113   -0.0410    0.6870   -0.0796   -0.4267    0.0000
           8   -0.2605    0.4990   -0.2713   -0.2112   -0.1683    0.0133    0.1613   -0.0000
           9   -0.0001    0.0001   -0.0001   -0.0000    0.0005   -0.0000   -0.0003    0.0004
          10    0.1525    0.1071    0.0817   -0.0588   -0.1104   -0.5030    0.0228    0.0000
          11    0.2452    0.3268    0.1243   -0.1972    0.0974    0.4663   -0.0072   -0.0000
          12    0.0002    0.0001    0.0002   -0.0001   -0.0000    0.0000    0.0000   -0.0003
          13    0.0180   -0.3674    0.0246    0.1605   -0.1604    0.5946    0.0082    0.0000
          14    0.0918   -0.3083    0.1141    0.0676   -0.1600   -0.3472    0.0157    0.0000
          15    0.0001   -0.0002    0.0001    0.0001   -0.0002    0.0001    0.0000   -0.0006
          16    0.0276    0.1326    0.0115   -0.0502   -0.5103    0.0219   -0.3388    0.0000
          17   -0.0187   -0.0390   -0.0127    0.0140    0.2006   -0.0076    0.1321   -0.0000
          18    0.0000    0.0001    0.0000   -0.0000   -0.0005    0.0000   -0.0003    0.0001
          19    0.0183    0.0107    0.0113    0.0029    0.1323   -0.0155    0.7465   -0.0000
          20    0.0194   -0.0408    0.0264    0.0195   -0.0604   -0.0088   -0.2899    0.0000
          21    0.0000    0.0000   -0.0000   -0.0000    0.0001   -0.0000    0.0006    0.0001
          22    0.2686   -0.1276   -0.1300   -0.2369    0.0497    0.0015   -0.0050   -0.1425
          23    0.1221   -0.1385   -0.2691   -0.1539   -0.0371    0.0007    0.0012   -0.1851
          24   -0.1689    0.1299    0.2570    0.2251    0.0088    0.0047    0.0022   -0.3064
          25    0.2684   -0.1277   -0.1300   -0.2368    0.0496    0.0015   -0.0049    0.1426
          26    0.1221   -0.1384   -0.2692   -0.1539   -0.0370    0.0007    0.0012    0.1852
          27    0.1688   -0.1299   -0.2569   -0.2250   -0.0087   -0.0047   -0.0023   -0.3068
          28    0.3504    0.1423   -0.0476    0.2426    0.0060   -0.0162    0.0016    0.2091
          29   -0.0327   -0.0454    0.2639   -0.2405   -0.0067   -0.0266   -0.0005   -0.2651
          30   -0.1554   -0.0857    0.2107   -0.2883   -0.0095   -0.0005    0.0026    0.4366
          31    0.3502    0.1423   -0.0478    0.2427    0.0059   -0.0161    0.0016   -0.2090
          32   -0.0331   -0.0456    0.2644   -0.2411   -0.0067   -0.0265   -0.0005    0.2642
          33    0.1552    0.0856   -0.2101    0.2876    0.0095    0.0005   -0.0026    0.4374
          34    0.0589    0.1085    0.0357   -0.0681   -0.0149   -0.1170    0.0119   -0.0001
          35    0.0348   -0.1634    0.0066    0.1035   -0.0574   -0.0862    0.0033   -0.0000
          36    0.0001    0.0000    0.0000    0.0000   -0.0000   -0.0001   -0.0000   -0.0014
          37    0.1456    0.1195    0.0807   -0.0582    0.0695   -0.0496   -0.0063   -0.0000
          38    0.0299   -0.0916    0.0363    0.0172   -0.0546   -0.1369    0.0100    0.0000
          39    0.0001   -0.0001    0.0001   -0.0000    0.0000   -0.0001   -0.0000   -0.0007
          40   -0.0218   -0.0636   -0.0063    0.0169    0.0497   -0.0003   -0.0448    0.0002
          41    0.0072    0.0269    0.0014   -0.0076   -0.0187    0.0001    0.0175    0.0004
          42    0.0198    0.0672    0.0067   -0.0212   -0.1468    0.0059   -0.0773    0.0001
          43   -0.0218   -0.0635   -0.0063    0.0169    0.0493   -0.0003   -0.0450   -0.0002
          44    0.0072    0.0270    0.0014   -0.0076   -0.0188    0.0001    0.0175   -0.0004
          45   -0.0198   -0.0674   -0.0067    0.0212    0.1469   -0.0059    0.0772    0.0001


   Root No.      33        34        35        36        37        38        39

                33 A      34 A      35 A      36 A      37 A      38 A      39 A   

                2990.1    3056.6    3061.5    3114.6    3119.0    3119.3    3137.5
  
           1    0.0000    0.0550   -0.1234    0.0004   -0.0000    0.0007    0.0054
           2    0.0000    0.0641   -0.1575    0.0013    0.0000   -0.0001    0.0073
           3   -0.2499    0.0000   -0.0001   -0.0000   -0.0001   -0.0000    0.0000
           4   -0.0000    0.1270    0.0477   -0.0000    0.0000   -0.0013   -0.0066
           5    0.0002   -0.1573   -0.0648   -0.0000   -0.0000    0.0006    0.0099
           6   -0.1739   -0.0001   -0.0000   -0.0000    0.0000   -0.0000   -0.0000
           7   -0.0000   -0.0029    0.0006   -0.0035    0.0000    0.0011    0.0093
           8    0.0000    0.0030   -0.0032    0.0017    0.0000   -0.0009   -0.0007
           9   -0.0006    0.0000   -0.0000   -0.0000   -0.0011   -0.0000    0.0000
          10    0.0000   -0.0070   -0.0047   -0.0079    0.0048   -0.1967   -0.2108
          11   -0.0000   -0.0055   -0.0019   -0.0024    0.0014   -0.0578   -0.0346
          12   -0.0006   -0.0000   -0.0000   -0.0000   -0.0000   -0.0001   -0.0001
          13    0.0000   -0.0015    0.0003   -0.0010   -0.0000    0.0013    0.0259
          14   -0.0000   -0.0013   -0.0022    0.0040   -0.0045    0.1909   -0.2272
          15   -0.0016   -0.0000    0.0000   -0.0000   -0.0001    0.0001   -0.0001
          16    0.0000    0.0002   -0.0002   -0.2248    0.0024    0.0077    0.0026
          17   -0.0000   -0.0001    0.0000    0.0877   -0.0007   -0.0030   -0.0010
          18   -0.0001    0.0000   -0.0000   -0.0034   -0.3211   -0.0076   -0.0001
          19    0.0000    0.0011   -0.0015    0.0409   -0.0004   -0.0016   -0.0037
          20   -0.0000   -0.0001    0.0003   -0.0159    0.0001    0.0014    0.0007
          21   -0.0003    0.0000   -0.0000    0.0000   -0.0022   -0.0001   -0.0000
          22    0.2142   -0.0880    0.2190   -0.0010    0.0001    0.0001   -0.0042
          23    0.2635   -0.1127    0.2729   -0.0012    0.0000   -0.0003   -0.0052
          24    0.4349   -0.2192    0.5346   -0.0021    0.0001   -0.0003   -0.0104
          25   -0.2143   -0.0878    0.2187   -0.0010   -0.0001    0.0001   -0.0042
          26   -0.2636   -0.1125    0.2724   -0.0012   -0.0001   -0.0004   -0.0052
          27    0.4355    0.2190   -0.5342    0.0022    0.0002    0.0003    0.0104
          28    0.1530   -0.2189   -0.0915    0.0000   -0.0000    0.0010    0.0067
          29   -0.1841    0.2731    0.1110   -0.0001    0.0001   -0.0047   -0.0111
          30    0.3025   -0.5338   -0.2186    0.0001   -0.0001    0.0060    0.0189
          31   -0.1529   -0.2186   -0.0914    0.0000   -0.0000    0.0009    0.0067
          32    0.1835    0.2717    0.1104   -0.0001    0.0001   -0.0047   -0.0110
          33    0.3031    0.5343    0.2187   -0.0000    0.0002   -0.0059   -0.0189
          34   -0.0000    0.0220    0.0230    0.0279   -0.0163    0.6710    0.6201
          35   -0.0000    0.0037    0.0063    0.0084   -0.0049    0.2035    0.1839
          36   -0.0012    0.0000    0.0000    0.0000   -0.0000    0.0005    0.0004
          37    0.0000   -0.0007    0.0002    0.0000   -0.0000    0.0006   -0.0047
          38    0.0000    0.0117    0.0195   -0.0153    0.0154   -0.6543    0.6942
          39   -0.0007    0.0000    0.0000   -0.0000   -0.0000   -0.0004    0.0005
          40   -0.0003   -0.0007    0.0012    0.3281    0.3379   -0.0027   -0.0027
          41   -0.0005    0.0003   -0.0005   -0.1285   -0.1320    0.0010    0.0011
          42   -0.0002   -0.0012    0.0021    0.5952    0.5551   -0.0063   -0.0051
          43    0.0003   -0.0007    0.0011    0.3225   -0.3450   -0.0189   -0.0029
          44    0.0005    0.0003   -0.0004   -0.1255    0.1340    0.0073    0.0012
          45   -0.0002    0.0012   -0.0020   -0.5834    0.5653    0.0327    0.0054


          DESCRIPTION OF VIBRATIONS


 VIBRATION    1    1A         ATOM PAIR      ENERGY CONTRIBUTION    RADIAL
 FREQ.        95.48         C  1 -- C  2         +21.2% (656.2%)      0.0%
 T-DIPOLE    0.0778         C  2 -- C  4          +9.7% (442.9%)      0.0%
 TRAVEL      0.0447         C  2 -- H 10          +9.5% (440.1%)     95.6%
 RED. MASS   0.9446         C  2 -- H 11          +9.5% (440.1%)     95.7%
 EFF. MASS 352.9586

 VIBRATION    2    2A         ATOM PAIR      ENERGY CONTRIBUTION    RADIAL
 FREQ.       171.51         C  3 -- C  4         +12.8% (282.2%)      0.0%
 T-DIPOLE    0.1420         C  3 -- C  5         +10.6% (256.4%)      0.1%
 TRAVEL      0.0855         C  1 -- C  3          +9.5% (242.8%)      0.1%
 RED. MASS   1.6042         C  3 -- C  7          +8.1% (224.8%)      0.0%
 EFF. MASS  53.8050

 VIBRATION    3    3A         ATOM PAIR      ENERGY CONTRIBUTION    RADIAL
 FREQ.       235.43         C  6 -- C  7         +11.8% (157.9%)      0.0%
 T-DIPOLE    0.2012         C  1 -- C  3         +10.4% (148.5%)      0.0%
 TRAVEL      0.0861         C  1 -- C  2          +8.5% (133.6%)      0.0%
 RED. MASS   0.8607         C  1 -- H  9          +8.1% (130.4%)     48.2%
 EFF. MASS  38.6457

 VIBRATION    4    4A         ATOM PAIR      ENERGY CONTRIBUTION    RADIAL
 FREQ.       352.21         C  4 -- C  5         +17.4% (104.2%)      0.0%
 T-DIPOLE    0.2108         C  6 -- C  7         +12.5% ( 88.3%)      0.0%
 TRAVEL      0.1073         C  3 -- C  7         +10.4% ( 80.5%)      0.0%
 RED. MASS   1.6209         C  2 -- C  4          +9.2% ( 75.8%)      0.0%
 EFF. MASS  16.6345

 VIBRATION    5    5A         ATOM PAIR      ENERGY CONTRIBUTION    RADIAL
 FREQ.       535.65         C  6 -- H 14         +15.9% ( 69.3%)      0.1%
 T-DIPOLE    0.0966         C  6 -- H 15         +15.9% ( 69.2%)      0.1%
 TRAVEL      0.1500         C  3 -- C  7         +14.1% ( 65.1%)      0.0%
 RED. MASS   0.7703         C  3 -- C  5         +10.1% ( 55.2%)      0.0%
 EFF. MASS   5.5966

 VIBRATION    6    6A         ATOM PAIR      ENERGY CONTRIBUTION    RADIAL
 FREQ.       553.02         C  6 -- H 14         +10.8% (119.1%)     31.2%
 T-DIPOLE    0.1481         C  6 -- H 15         +10.8% (119.0%)     31.2%
 TRAVEL      0.0833         C  6 -- C  7         +10.2% (115.6%)     12.2%
 RED. MASS   1.6017         C  3 -- C  7          +9.3% (110.7%)     24.0%
 EFF. MASS  17.5774

 VIBRATION    7    7A         ATOM PAIR      ENERGY CONTRIBUTION    RADIAL
 FREQ.       568.41         C  6 -- H 14         +17.2% ( 64.4%)      0.2%
 T-DIPOLE    0.1764         C  6 -- H 15         +16.8% ( 63.7%)      0.1%
 TRAVEL      0.1537         C  3 -- C  5         +13.6% ( 57.2%)      0.0%
 RED. MASS   0.5808         C  3 -- C  7         +11.0% ( 51.5%)      0.0%
 EFF. MASS   5.0190

 VIBRATION    8    8A         ATOM PAIR      ENERGY CONTRIBUTION    RADIAL
 FREQ.       575.55         C  3 -- C  7         +20.5% ( 96.3%)      0.1%
 T-DIPOLE    0.4963         C  6 -- C  7         +14.4% ( 80.6%)      0.1%
 TRAVEL      0.0956         C  3 -- C  4          +8.2% ( 60.8%)     12.0%
 RED. MASS   5.0459         C  1 -- C  2          +7.4% ( 58.0%)      3.2%
 EFF. MASS  12.8219

 VIBRATION    9    9A         ATOM PAIR      ENERGY CONTRIBUTION    RADIAL
 FREQ.       761.67         C  2 -- C  4         +17.9% (120.1%)      0.0%
 T-DIPOLE    0.0675         C  3 -- C  4         +16.0% (113.5%)     75.3%
 TRAVEL      0.0736         C  4 -- C  5         +14.6% (108.5%)      0.1%
 RED. MASS   2.6076         C  4 -- H 12          +9.5% ( 87.6%)     99.1%
 EFF. MASS  16.3310

 VIBRATION   10   10A         ATOM PAIR      ENERGY CONTRIBUTION    RADIAL
 FREQ.       775.02         C  4 -- H 12         +31.1% ( 75.4%)      0.0%
 T-DIPOLE    0.4598         C  2 -- H 11         +15.5% ( 53.2%)      8.0%
 TRAVEL      0.1701         C  2 -- H 10         +15.5% ( 53.1%)      8.4%
 RED. MASS   0.3780         C  5 -- H 13         +10.4% ( 43.5%)      0.0%
 EFF. MASS   3.0080

 VIBRATION   11   11A         ATOM PAIR      ENERGY CONTRIBUTION    RADIAL
 FREQ.       821.73         C  1 -- H  9         +18.2% ( 65.0%)      9.0%
 T-DIPOLE    0.2344         C  1 -- H  8         +18.1% ( 65.0%)      9.0%
 TRAVEL      0.1500         C  2 -- H 11         +12.4% ( 53.7%)      7.6%
 RED. MASS   0.2651         C  2 -- H 10         +12.4% ( 53.7%)      7.7%
 EFF. MASS   3.6462         C  5 -- H 13         +10.5% ( 49.6%)      0.0%

 VIBRATION   12   12A         ATOM PAIR      ENERGY CONTRIBUTION    RADIAL
 FREQ.       921.65         C  4 -- C  5         +13.2% ( 68.5%)      0.0%
 T-DIPOLE    0.1167         C  1 -- C  3         +12.0% ( 65.4%)     91.8%
 TRAVEL      0.0839         C  1 -- C  2         +11.9% ( 65.2%)      8.1%
 RED. MASS   1.6917         C  3 -- C  5         +11.2% ( 63.2%)     77.7%
 EFF. MASS  10.3963         C  5 -- H 13         +10.4% ( 60.8%)    100.0%
                            C  1 -- H  9         +10.4% ( 60.8%)     36.1%
                            C  1 -- H  8         +10.4% ( 60.8%)     36.2%

 VIBRATION   13   13A         ATOM PAIR      ENERGY CONTRIBUTION    RADIAL
 FREQ.       923.24         C  6 -- H 14         +34.5% ( 77.3%)     11.3%
 T-DIPOLE    0.0663         C  6 -- H 15         +34.5% ( 77.3%)     11.3%
 TRAVEL      0.1193         C  6 -- C  7         +21.3% ( 60.7%)      0.0%
 RED. MASS   0.8807         C  3 -- C  7          +2.3% ( 20.1%)      0.0%
 EFF. MASS   5.1304

 VIBRATION   14   14A         ATOM PAIR      ENERGY CONTRIBUTION    RADIAL
 FREQ.       960.06         C  5 -- H 13         +26.3% ( 62.2%)      0.0%
 T-DIPOLE    0.1981         C  2 -- H 11          +9.1% ( 36.6%)      6.3%
 TRAVEL      0.1274         C  2 -- H 10          +9.1% ( 36.5%)      6.3%
 RED. MASS   0.5060         C  3 -- C  5          +7.7% ( 33.6%)      0.0%
 EFF. MASS   4.3259

 VIBRATION   15   15A         ATOM PAIR      ENERGY CONTRIBUTION    RADIAL
 FREQ.       991.39         C  6 -- H 15         +43.3% ( 65.3%)      0.0%
 T-DIPOLE    0.5373         C  6 -- H 14         +43.1% ( 65.2%)      0.0%
 TRAVEL      0.1477         C  6 -- C  7         +10.5% ( 32.2%)      0.0%
 RED. MASS   1.0488         C  3 -- C  7          +0.9% (  9.5%)      0.0%
 EFF. MASS   3.1181

 VIBRATION   16   16A         ATOM PAIR      ENERGY CONTRIBUTION    RADIAL
 FREQ.       999.14         C  4 -- H 12         +15.2% ( 51.2%)      0.0%
 T-DIPOLE    0.1405         C  1 -- H  9         +12.3% ( 46.0%)     10.2%
 TRAVEL      0.1156         C  1 -- H  8         +12.3% ( 46.0%)     10.2%
 RED. MASS   0.5954         C  1 -- C  2         +11.6% ( 44.8%)      0.0%
 EFF. MASS   5.0497         C  2 -- C  4         +10.9% ( 43.3%)      0.0%

 VIBRATION   17   17A         ATOM PAIR      ENERGY CONTRIBUTION    RADIAL
 FREQ.      1041.23         C  1 -- C  2         +22.8% ( 78.6%)     99.9%
 T-DIPOLE    0.0470         C  2 -- C  4         +11.7% ( 56.3%)     46.6%
 TRAVEL      0.0878         C  1 -- C  3         +11.6% ( 56.1%)     11.4%
 RED. MASS   1.2321         C  1 -- H  8          +9.9% ( 51.8%)     40.8%
 EFF. MASS   8.4073

 VIBRATION   18   18A         ATOM PAIR      ENERGY CONTRIBUTION    RADIAL
 FREQ.      1060.50         C  5 -- H 13         +16.9% ( 59.7%)      6.9%
 T-DIPOLE    0.0919         C  2 -- C  4         +16.6% ( 59.2%)     91.9%
 TRAVEL      0.1058         C  4 -- C  5         +10.9% ( 47.8%)     45.5%
 RED. MASS   0.4699         C  2 -- H 11          +9.7% ( 45.2%)     10.6%
 EFF. MASS   5.6846

 VIBRATION   19   19A         ATOM PAIR      ENERGY CONTRIBUTION    RADIAL
 FREQ.      1073.51         C  2 -- H 10         +20.5% ( 48.3%)      1.3%
 T-DIPOLE    0.0437         C  2 -- H 11         +20.5% ( 48.3%)      1.3%
 TRAVEL      0.1566         C  1 -- H  9         +16.2% ( 42.9%)      4.5%
 RED. MASS   0.2593         C  1 -- H  8         +16.2% ( 42.9%)      4.5%
 EFF. MASS   2.5625

 VIBRATION   20   20A         ATOM PAIR      ENERGY CONTRIBUTION    RADIAL
 FREQ.      1095.24         C  1 -- H  8         +19.8% ( 55.0%)      8.3%
 T-DIPOLE    0.0103         C  1 -- H  9         +19.8% ( 55.0%)      8.4%
 TRAVEL      0.1354         C  2 -- H 10         +16.5% ( 50.2%)     11.5%
 RED. MASS   0.4106         C  2 -- H 11         +16.5% ( 50.1%)     11.5%
 EFF. MASS   3.3560         C  1 -- C  2         +14.5% ( 47.0%)      0.0%

 VIBRATION   21   21A         ATOM PAIR      ENERGY CONTRIBUTION    RADIAL
 FREQ.      1107.01         C  4 -- H 12         +29.0% ( 56.9%)      0.0%
 T-DIPOLE    0.0459         C  5 -- H 13         +24.8% ( 52.6%)      0.8%
 TRAVEL      0.1747         C  2 -- H 11          +9.5% ( 32.5%)      9.3%
 RED. MASS   0.2447         C  2 -- H 10          +9.5% ( 32.5%)      9.2%
 EFF. MASS   1.9954

 VIBRATION   22   22A         ATOM PAIR      ENERGY CONTRIBUTION    RADIAL
 FREQ.      1212.82         C  5 -- H 13         +16.1% ( 49.5%)      0.9%
 T-DIPOLE    0.0587         C  4 -- H 12         +11.4% ( 41.7%)      0.7%
 TRAVEL      0.1308         C  3 -- C  4         +10.9% ( 40.8%)      2.1%
 RED. MASS   0.4272         C  1 -- H  8         +10.3% ( 39.7%)      0.2%
 EFF. MASS   3.2481         C  1 -- H  9         +10.3% ( 39.6%)      0.2%

 VIBRATION   23   23A         ATOM PAIR      ENERGY CONTRIBUTION    RADIAL
 FREQ.      1227.21         C  1 -- C  2         +10.3% ( 39.9%)     98.7%
 T-DIPOLE    0.0057         C  6 -- H 15          +9.7% ( 38.8%)      0.0%
 TRAVEL      0.1200         C  6 -- H 14          +9.7% ( 38.8%)      0.0%
 RED. MASS   0.3177         C  1 -- C  3          +8.4% ( 36.2%)      8.5%
 EFF. MASS   3.8160

 VIBRATION   24   24A         ATOM PAIR      ENERGY CONTRIBUTION    RADIAL
 FREQ.      1282.27         C  1 -- C  2         +15.2% ( 50.2%)     97.3%
 T-DIPOLE    0.0402         C  1 -- H  9         +13.0% ( 46.4%)      0.0%
 TRAVEL      0.1035         C  1 -- H  8         +13.0% ( 46.4%)      0.0%
 RED. MASS   0.7431         C  6 -- H 14         +11.3% ( 43.4%)      2.1%
 EFF. MASS   4.9133         C  6 -- H 15         +11.3% ( 43.4%)      2.1%

 VIBRATION   25   25A         ATOM PAIR      ENERGY CONTRIBUTION    RADIAL
 FREQ.      1347.92         C  2 -- C  4         +16.3% ( 51.9%)     79.9%
 T-DIPOLE    0.0129         C  2 -- H 10         +15.9% ( 51.3%)      0.0%
 TRAVEL      0.0951         C  2 -- H 11         +15.9% ( 51.3%)      0.0%
 RED. MASS   0.8335         C  1 -- C  2          +8.5% ( 37.4%)     12.9%
 EFF. MASS   5.5303

 VIBRATION   26   26A         ATOM PAIR      ENERGY CONTRIBUTION    RADIAL
 FREQ.      1373.80         C  3 -- C  5         +20.6% ( 68.8%)     79.4%
 T-DIPOLE    0.0704         C  4 -- C  5         +12.0% ( 52.5%)      0.0%
 TRAVEL      0.0721         C  3 -- C  4         +11.1% ( 50.5%)      0.1%
 RED. MASS   1.7248         C  1 -- C  3         +10.3% ( 48.5%)     99.0%
 EFF. MASS   9.4341

 VIBRATION   27   27A         ATOM PAIR      ENERGY CONTRIBUTION    RADIAL
 FREQ.      1395.21         C  1 -- C  2         +14.2% ( 49.2%)      1.2%
 T-DIPOLE    0.0363         C  1 -- H  8         +13.2% ( 47.5%)      6.1%
 TRAVEL      0.0913         C  1 -- H  9         +13.2% ( 47.5%)      6.1%
 RED. MASS   0.8057         C  1 -- C  3         +12.9% ( 47.0%)     75.2%
 EFF. MASS   5.7937         C  2 -- H 11         +11.3% ( 44.0%)      4.8%
                            C  2 -- H 10         +11.3% ( 44.0%)      4.8%

 VIBRATION   28   28A         ATOM PAIR      ENERGY CONTRIBUTION    RADIAL
 FREQ.      1412.98         C  2 -- H 11         +16.2% ( 47.4%)      6.0%
 T-DIPOLE    0.1132         C  2 -- H 10         +16.2% ( 47.4%)      6.0%
 TRAVEL      0.1048         C  2 -- C  4         +10.5% ( 38.2%)     78.6%
 RED. MASS   0.4228         C  1 -- H  8         +10.0% ( 37.3%)      5.7%
 EFF. MASS   4.3483         C  1 -- H  9         +10.0% ( 37.3%)      5.7%

 VIBRATION   29   29A         ATOM PAIR      ENERGY CONTRIBUTION    RADIAL
 FREQ.      1577.81         C  3 -- C  5         +18.3% ( 76.2%)     69.6%
 T-DIPOLE    0.1245         C  1 -- C  3         +17.2% ( 73.8%)     36.1%
 TRAVEL      0.0608         C  3 -- C  4         +16.6% ( 72.6%)     90.2%
 RED. MASS   4.1509         C  6 -- C  7         +12.9% ( 63.9%)    100.0%
 EFF. MASS  11.5427         C  3 -- C  7         +12.6% ( 63.2%)     96.8%

 VIBRATION   30   30A         ATOM PAIR      ENERGY CONTRIBUTION    RADIAL
 FREQ.      1803.87         C  4 -- C  5         +40.0% (100.1%)    100.0%
 T-DIPOLE    0.3218         C  3 -- C  5         +12.5% ( 56.0%)     23.5%
 TRAVEL      0.0560         C  2 -- C  4         +12.2% ( 55.2%)     24.4%
 RED. MASS   5.3591         C  3 -- C  4         +11.8% ( 54.4%)     47.0%
 EFF. MASS  11.9020         C  5 -- H 13         +11.4% ( 53.5%)     10.0%
                            C  4 -- H 12         +11.3% ( 53.2%)     10.0%

 VIBRATION   31   31A         ATOM PAIR      ENERGY CONTRIBUTION    RADIAL
 FREQ.      2272.80         C  3 -- C  7         +40.7% ( 86.9%)    100.0%
 T-DIPOLE    0.2220         C  6 -- C  7         +36.8% ( 82.5%)    100.0%
 TRAVEL      0.0499         C  1 -- C  3          +5.5% ( 31.8%)     36.5%
 RED. MASS   5.6704         C  3 -- C  5          +5.4% ( 31.8%)     39.0%
 EFF. MASS  11.9048

 VIBRATION   32   32A         ATOM PAIR      ENERGY CONTRIBUTION    RADIAL
 FREQ.      2974.65         C  2 -- H 11         +32.8% ( 59.6%)     96.5%
 T-DIPOLE    0.0037         C  2 -- H 10         +32.7% ( 59.6%)     96.5%
 TRAVEL      0.1208         C  1 -- H  9         +16.1% ( 41.7%)     96.4%
 RED. MASS   0.2901         C  1 -- H  8         +16.0% ( 41.7%)     96.4%
 EFF. MASS   1.5529

 VIBRATION   33   33A         ATOM PAIR      ENERGY CONTRIBUTION    RADIAL
 FREQ.      2990.05         C  1 -- H  9         +33.0% ( 59.4%)     96.7%
 T-DIPOLE    0.0799         C  1 -- H  8         +32.9% ( 59.3%)     96.7%
 TRAVEL      0.1215         C  2 -- H 11         +16.0% ( 41.4%)     96.8%
 RED. MASS   0.2897         C  2 -- H 10         +16.0% ( 41.4%)     96.8%
 EFF. MASS   1.5282

 VIBRATION   34   34A         ATOM PAIR      ENERGY CONTRIBUTION    RADIAL
 FREQ.      3056.64         C  2 -- H 10         +42.2% ( 64.1%)     97.5%
 T-DIPOLE    0.0912         C  2 -- H 11         +42.1% ( 64.1%)     97.5%
 TRAVEL      0.1310         C  1 -- H  8          +7.1% ( 26.3%)     97.4%
 RED. MASS   0.3644         C  1 -- H  9          +7.1% ( 26.3%)     97.4%
 EFF. MASS   1.2849

 VIBRATION   35   35A         ATOM PAIR      ENERGY CONTRIBUTION    RADIAL
 FREQ.      3061.53         C  1 -- H  8         +42.3% ( 64.1%)     97.6%
 T-DIPOLE    0.1273         C  1 -- H  9         +42.2% ( 64.0%)     97.6%
 TRAVEL      0.1312         C  2 -- H 10          +7.1% ( 26.2%)     97.7%
 RED. MASS   0.3644         C  2 -- H 11          +7.0% ( 26.2%)     97.7%
 EFF. MASS   1.2790

 VIBRATION   36   36A         ATOM PAIR      ENERGY CONTRIBUTION    RADIAL
 FREQ.      3114.55         C  6 -- H 14         +50.0% ( 70.8%)     95.4%
 T-DIPOLE    0.3558         C  6 -- H 15         +48.0% ( 69.4%)     95.0%
 TRAVEL      0.1237         C  6 -- C  7          +1.8% ( 13.4%)    100.0%
 RED. MASS   0.4850
 EFF. MASS   1.4145

 VIBRATION   37   37A         ATOM PAIR      ENERGY CONTRIBUTION    RADIAL
 FREQ.      3119.02         C  6 -- H 15         +50.2% ( 72.6%)     97.2%
 T-DIPOLE    0.2137         C  6 -- H 14         +48.5% ( 71.3%)     97.0%
 TRAVEL      0.1165         C  6 -- C  7          +1.2% ( 11.2%)      0.0%
 RED. MASS   0.5327
 EFF. MASS   1.5937

 VIBRATION   38   38A         ATOM PAIR      ENERGY CONTRIBUTION    RADIAL
 FREQ.      3119.29         C  4 -- H 12         +51.5% ( 73.2%)    100.0%
 T-DIPOLE    0.3858         C  5 -- H 13         +44.9% ( 68.3%)    100.0%
 TRAVEL      0.1213         C  4 -- C  5          +1.1% ( 10.9%)      0.1%
 RED. MASS   0.4655         C  3 -- C  4          +0.8% (  9.0%)     92.2%
 EFF. MASS   1.4683

 VIBRATION   39   39A         ATOM PAIR      ENERGY CONTRIBUTION    RADIAL
 FREQ.      3137.46         C  5 -- H 13         +50.7% ( 72.9%)     99.9%
 T-DIPOLE    0.3858         C  4 -- H 12         +44.0% ( 67.9%)     99.9%
 TRAVEL      0.1141         C  4 -- C  5          +2.4% ( 16.0%)     99.8%
 RED. MASS   0.4684         C  3 -- C  5          +1.0% ( 10.3%)     23.0%
 EFF. MASS   1.6515

      SYMMETRY NUMBER FOR POINT-GROUP C1  =  1


          SYSTEM IS A GROUND STATE



 InChI=1S/C7H8/c1-2-7-5-3-4-6-7/h3,5H,1,4,6H2


          MOLECULE IS NOT LINEAR

          THERE ARE 39 GENUINE VIBRATIONS IN THIS SYSTEM
          THIS THERMODYNAMICS CALCULATION IS LIMITED TO
          MOLECULES WHICH HAVE NO INTERNAL ROTATIONS




                    CALCULATED THERMODYNAMIC PROPERTIES
                                          *
   TEMP. (K)   PARTITION FUNCTION   H.O.F.    ENTHALPY  HEAT CAPACITY ENTROPY
                                   KCAL/MOL   CAL/MOLE    CAL/K/MOL  CAL/K/MOL


 298.00  VIB.     0.1345D+02                  2280.6616    18.4054    12.8185
         ROT.     0.1968D+06                   888.2813     2.9808    27.2044
         INT.     0.2647D+07                  3168.9429    21.3862    40.0229
         TRA.     0.8551D+27                  1480.4688     4.9680    39.4718
         TOT.                       56.484    4649.4117    26.3543    79.4946

 200.00  VIB.     0.4143D+01                   881.0766    10.3597     7.2301
         ROT.     0.1082D+06                   596.1620     2.9808    26.0157
         INT.     0.4482D+06                  1477.2386    13.3405    33.2458
         TRA.     0.4701D+27                   993.6033     4.9680    37.4906
         TOT.                       54.305    2470.8418    18.3086    70.7364

 210.00  VIB.     0.4633D+01                   988.4047    11.1099     7.7536
         ROT.     0.1164D+06                   625.9700     2.9808    26.1611
         INT.     0.5393D+06                  1614.3748    14.0907    33.9147
         TRA.     0.5058D+27                  1043.2834     4.9680    37.7330
         TOT.                       54.492    2657.6582    19.0587    71.6477

 220.00  VIB.     0.5191D+01                  1103.3503    11.8829     8.2882
         ROT.     0.1248D+06                   655.7781     2.9808    26.2998
         INT.     0.6479D+06                  1759.1285    14.8637    34.5880
         TRA.     0.5424D+27                  1092.9636     4.9680    37.9641
         TOT.                       54.686    2852.0920    19.8317    72.5521

 230.00  VIB.     0.5828D+01                  1226.1301    12.6763     8.8338
         ROT.     0.1334D+06                   685.5862     2.9808    26.4323
         INT.     0.7776D+06                  1911.7163    15.6571    35.2661
         TRA.     0.5798D+27                  1142.6437     4.9680    38.1850
         TOT.                       54.889    3054.3601    20.6251    73.4511

 240.00  VIB.     0.6555D+01                  1356.9361    13.4876     9.3904
         ROT.     0.1422D+06                   715.3943     2.9808    26.5592
         INT.     0.9322D+06                  2072.3304    16.4685    35.9496
         TRA.     0.6180D+27                  1192.3239     4.9680    38.3964
         TOT.                       55.099    3264.6543    21.4365    74.3460

 250.00  VIB.     0.7387D+01                  1495.9335    14.3141     9.9577
         ROT.     0.1512D+06                   745.2024     2.9808    26.6808
         INT.     0.1117D+07                  2241.1360    17.2950    36.6385
         TRA.     0.6570D+27                  1242.0041     4.9680    38.5992
         TOT.                       55.317    3483.1400    22.2630    75.2378

 260.00  VIB.     0.8341D+01                  1643.2601    15.1530    10.5354
         ROT.     0.1604D+06                   775.0105     2.9808    26.7977
         INT.     0.1337D+07                  2418.2706    18.1338    37.3332
         TRA.     0.6968D+27                  1291.6842     4.9680    38.7941
         TOT.                       55.544    3709.9549    23.1018    76.1272

 270.00  VIB.     0.9435D+01                  1799.0255    16.0014    11.1232
         ROT.     0.1697D+06                   804.8186     2.9808    26.9102
         INT.     0.1601D+07                  2603.8441    18.9823    38.0334
         TRA.     0.7374D+27                  1341.3644     4.9680    38.9816
         TOT.                       55.780    3945.2085    23.9503    77.0150

 280.00  VIB.     0.1069D+02                  1963.3119    16.8568    11.7206
         ROT.     0.1792D+06                   834.6267     2.9808    27.0186
         INT.     0.1916D+07                  2797.9386    19.8376    38.7392
         TRA.     0.7788D+27                  1391.0445     4.9680    39.1622
         TOT.                       56.023    4188.9831    24.8056    77.9014

 290.00  VIB.     0.1214D+02                  2136.1748    17.7163    12.3271
         ROT.     0.1889D+06                   864.4348     2.9808    27.1232
         INT.     0.2293D+07                  3000.6097    20.6972    39.4503
         TRA.     0.8209D+27                  1440.7247     4.9680    39.3366
         TOT.                       56.276    4441.3344    25.6652    78.7869

 300.00  VIB.     0.1381D+02                  2317.6448    18.5778    12.9422
         ROT.     0.1987D+06                   894.2429     2.9808    27.2243
         INT.     0.2744D+07                  3211.8877    21.5586    40.1665
         TRA.     0.8637D+27                  1490.4049     4.9680    39.5050
         TOT.                       56.537    4702.2926    26.5266    79.6715

 310.00  VIB.     0.1573D+02                  2507.7283    19.4387    13.5654
         ROT.     0.2088D+06                   924.0510     2.9808    27.3220
         INT.     0.3284D+07                  3431.7794    22.4195    40.8874
         TRA.     0.9072D+27                  1540.0850     4.9680    39.6679
         TOT.                       56.806    4971.8644    27.3875    80.5553

 320.00  VIB.     0.1795D+02                  2706.4104    20.2971    14.1961
         ROT.     0.2189D+06                   953.8591     2.9808    27.4167
         INT.     0.3931D+07                  3660.2696    23.2779    41.6128
         TRA.     0.9515D+27                  1589.7652     4.9680    39.8256
         TOT.                       57.084    5250.0348    28.2460    81.4384

 330.00  VIB.     0.2052D+02                  2913.6561    21.1511    14.8338
         ROT.     0.2293D+06                   983.6672     2.9808    27.5084
         INT.     0.4706D+07                  3897.3233    24.1319    42.3422
         TRA.     0.9964D+27                  1639.4454     4.9680    39.9785
         TOT.                       57.371    5536.7687    29.0999    82.3207

 340.00  VIB.     0.2350D+02                  3129.4125    21.9990    15.4778
         ROT.     0.2398D+06                  1013.4753     2.9808    27.5974
         INT.     0.5635D+07                  4142.8878    24.9798    43.0752
         TRA.     0.1042D+28                  1689.1255     4.9680    40.1268
         TOT.                       57.666    5832.0134    29.9478    83.2020

 350.00  VIB.     0.2695D+02                  3353.6110    22.8393    16.1277
         ROT.     0.2504D+06                  1043.2834     2.9808    27.6838
         INT.     0.6750D+07                  4396.8944    25.8201    43.8114
         TRA.     0.1088D+28                  1738.8057     4.9680    40.2708
         TOT.                       57.970    6135.7001    30.7881    84.0823

 360.00  VIB.     0.3096D+02                  3586.1689    23.6707    16.7827
         ROT.     0.2613D+06                  1073.0915     2.9808    27.7678
         INT.     0.8087D+07                  4659.2604    26.6515    44.5505
         TRA.     0.1135D+28                  1788.4859     4.9680    40.4108
         TOT.                       58.282    6447.7463    31.6195    84.9613

 370.00  VIB.     0.3561D+02                  3826.9918    24.4921    17.4425
         ROT.     0.2722D+06                  1102.8996     2.9808    27.8494
         INT.     0.9693D+07                  4929.8914    27.4729    45.2920
         TRA.     0.1183D+28                  1838.1660     4.9680    40.5469
         TOT.                       58.602    6768.0574    32.4409    85.8388

 380.00  VIB.     0.4101D+02                  4075.9747    25.3026    18.1065
         ROT.     0.2833D+06                  1132.7077     2.9808    27.9289
         INT.     0.1162D+08                  5208.6824    28.2834    46.0354
         TRA.     0.1231D+28                  1887.8462     4.9680    40.6794
         TOT.                       58.931    7096.5286    33.2514    86.7148

 390.00  VIB.     0.4730D+02                  4333.0042    26.1013    18.7741
         ROT.     0.2946D+06                  1162.5158     2.9808    28.0064
         INT.     0.1393D+08                  5495.5200    29.0821    46.7804
         TRA.     0.1280D+28                  1937.5263     4.9680    40.8084
         TOT.                       59.267    7433.0464    34.0502    87.5889

 400.00  VIB.     0.5463D+02                  4597.9600    26.8877    19.4448
         ROT.     0.3060D+06                  1192.3239     2.9808    28.0818
         INT.     0.1672D+08                  5790.2839    29.8685    47.5267
         TRA.     0.1330D+28                  1987.2065     4.9680    40.9342
         TOT.                       59.612    7777.4904    34.8366    88.4609

   *: NOTE: HEATS OF FORMATION ARE RELATIVE TO THE
            ELEMENTS IN THEIR STANDARD STATE AT 298K
              (=  Standard Enthalpy of Formation).

            Hvib:  Zero-point energy is not included.
                   frequencies of less than zero cm-1 are not included.
            Hrot = (3/2)RT
            Htra = (3/2)RT + pV = (5/2)RT

            Heat capacity is Cp, not Cv

          For more information, see: HTTP://OpenMOPAC.net/Manual/thermochemistry.html


           FORCE CONSTANT IN CARTESIAN COORDINATES (Millidynes/A)

    ATOM   CHEMICAL       X               Y               Z
   NUMBER   SYMBOL  FORCE CONSTANT  FORCE CONSTANT  FORCE CONSTANT

      1       C        7.856839        8.913240        8.137962
      2       C        7.804258        9.256429        8.090694
      3       C       16.616724        9.267307        2.413857
      4       C       14.556749       10.271663        2.306716
      5       C       12.021246       13.471823        2.139994
      6       C       14.114074        3.736028        8.376375
      7       C       21.791833        4.935580        1.590014
      8       H        1.284100        1.563026        3.573487
      9       H        1.283632        1.562082        3.574424
     10       H        1.288162        1.551518        3.556748
     11       H        1.287286        1.543805        3.564992
     12       H        4.982334        1.095525        0.347753
     13       H        0.705040        5.369078        0.350388
     14       H        1.724108        0.518393        4.015017
     15       H        1.732264        0.518378        4.007969

 **********************
 *                    *
 * JOB ENDED NORMALLY *
 *                    *
 **********************



 TOTAL JOB TIME:             4.20 SECONDS

 == MOPAC DONE ==
