 *******************************************************************************
 ** Site#: 14399        For non-commercial use only    Version 18.184L 64BITS **
 *******************************************************************************
 ** Cite this program as: MOPAC2016, Version: 18.184L, James J. P. Stewart,   **
 ** Stewart Computational Chemistry, web: HTTP://OpenMOPAC.net. Days left:  20**
 *******************************************************************************
 **                                                                           **
 **                                MOPAC2016                                  **
 **                                                                           **
 *******************************************************************************

                              PM3 CALCULATION RESULTS

 *******************************************************************************
 *  CALCULATION DONE:                                Thu Jun 13 15:51:47 2019  *
 *  PM3        - The PM3 Hamiltonian to be used
 *  PRECISE    - CRITERIA TO BE INCREASED BY 100 TIMES
 *  NOSYM      - POINT-GROUP SYMMETRY SET TO C1
 *  THREADS=1  - MULTI-THREADING NOT USED
 *  T=         - A TIME OF 172800.0 SECONDS REQUESTED
 *  DUMP=N     - RESTART FILE WRITTEN EVERY  7200.000 SECONDS
 *******************************************************************************
pm3  precise nosym THREADS=1
 InChI=1S/C10H10/c1-8-6-7-9-4-2-3-5-10(8)9/h2-3,5-7H,4H2,1H3

   ATOM   CHEMICAL          X               Y               Z
  NUMBER   SYMBOL      (ANGSTROMS)     (ANGSTROMS)     (ANGSTROMS)
 
     1       C         -2.17520000  *   0.67200000  *  -0.05540000  *
     2       C          2.85400000  *  -0.46120000  *   0.08380000  *
     3       C         -0.68720000  *   0.85060000  *  -0.00080000  *
     4       C          1.56740000  *   0.30030000  *   0.06050000  *
     5       C          0.22740000  *  -0.26220000  *   0.00080000  *
     6       C         -2.54830000  *  -0.80060000  *  -0.10660000  *
     7       C          1.44020000  *   1.62710000  *   0.09110000  *
     8       C          0.01070000  *   1.97680000  *   0.05220000  *
     9       C         -0.18290000  *  -1.52600000  *  -0.04620000  *
    10       C         -1.63800000  *  -1.79660000  *  -0.10220000  *
    11       H         -2.63330000  *   1.13100000  *   0.84580000  *
    12       H         -2.57260000  *   1.17840000  *  -0.96010000  *
    13       H          2.87450000  *  -1.12580000  *   0.97240000  *
    14       H          2.93520000  *  -1.07830000  *  -0.83510000  *
    15       H          3.72200000  *   0.23030000  *   0.13110000  *
    16       H         -3.59940000  *  -1.05710000  *  -0.14870000  *
    17       H         -1.97560000  *  -2.82430000  *  -0.14050000  *
    18       H         -0.40580000  *   2.97530000  *   0.06450000  *
    19       H          0.52750000  *  -2.34240000  *  -0.04380000  *
    20       H          2.25950000  *   2.33270000  *   0.13710000  *
 


          CARTESIAN COORDINATES 

    NO.       ATOM           X           Y           Z

     1         C         -2.1752      0.6720     -0.0554
     2         C          2.8540     -0.4612      0.0838
     3         C         -0.6872      0.8506     -0.0008
     4         C          1.5674      0.3003      0.0605
     5         C          0.2274     -0.2622      0.0008
     6         C         -2.5483     -0.8006     -0.1066
     7         C          1.4402      1.6271      0.0911
     8         C          0.0107      1.9768      0.0522
     9         C         -0.1829     -1.5260     -0.0462
    10         C         -1.6380     -1.7966     -0.1022
    11         H         -2.6333      1.1310      0.8458
    12         H         -2.5726      1.1784     -0.9601
    13         H          2.8745     -1.1258      0.9724
    14         H          2.9352     -1.0783     -0.8351
    15         H          3.7220      0.2303      0.1311
    16         H         -3.5994     -1.0571     -0.1487
    17         H         -1.9756     -2.8243     -0.1405
    18         H         -0.4058      2.9753      0.0645
    19         H          0.5275     -2.3424     -0.0438
    20         H          2.2595      2.3327      0.1371

  H: (PM3): J. J. P. STEWART, J. COMP. CHEM. 10, 209 (1989).
  C: (PM3): J. J. P. STEWART, J. COMP. CHEM. 10, 209 (1989).

           Empirical Formula: C10 H10  =    20 atoms



      MOLECULAR POINT GROUP   :   C1  


      RHF CALCULATION, NO. OF DOUBLY OCCUPIED LEVELS = 25


          Geometry optimization using EF

          DIAGONAL MATRIX USED AS START HESSIAN

 CYCLE:     1 TIME:   0.023 TIME LEFT:  2.00D  GRAD.:   148.011 HEAT:  60.23451
 CYCLE:     2 TIME:   0.039 TIME LEFT:  2.00D  GRAD.:   156.279 HEAT:  59.40453
 CYCLE:     3 TIME:   0.020 TIME LEFT:  2.00D  GRAD.:   131.611 HEAT:  58.64087
 CYCLE:     4 TIME:   0.023 TIME LEFT:  2.00D  GRAD.:   118.344 HEAT:  57.48295
 CYCLE:     5 TIME:   0.031 TIME LEFT:  2.00D  GRAD.:    70.845 HEAT:  55.57811
 CYCLE:     6 TIME:   0.027 TIME LEFT:  2.00D  GRAD.:    34.600 HEAT:  54.87024
 CYCLE:     7 TIME:   0.020 TIME LEFT:  2.00D  GRAD.:    33.106 HEAT:  54.76166
 CYCLE:     8 TIME:   0.043 TIME LEFT:  2.00D  GRAD.:    22.177 HEAT:  54.59511
 CYCLE:     9 TIME:   0.027 TIME LEFT:  2.00D  GRAD.:    14.093 HEAT:  54.50697
 CYCLE:    10 TIME:   0.023 TIME LEFT:  2.00D  GRAD.:    16.265 HEAT:  54.45240
 CYCLE:    11 TIME:   0.031 TIME LEFT:  2.00D  GRAD.:     9.812 HEAT:  54.38317
 CYCLE:    12 TIME:   0.020 TIME LEFT:  2.00D  GRAD.:    16.531 HEAT:  54.37549
 CYCLE:    13 TIME:   0.023 TIME LEFT:  2.00D  GRAD.:    12.849 HEAT:  54.32798
 CYCLE:    14 TIME:   0.035 TIME LEFT:  2.00D  GRAD.:     5.950 HEAT:  54.29965
 CYCLE:    15 TIME:   0.035 TIME LEFT:  2.00D  GRAD.:     4.100 HEAT:  54.29294
 CYCLE:    16 TIME:   0.020 TIME LEFT:  2.00D  GRAD.:     3.405 HEAT:  54.28741
 CYCLE:    17 TIME:   0.023 TIME LEFT:  2.00D  GRAD.:     6.548 HEAT:  54.28892
 CYCLE:    18 TIME:   0.023 TIME LEFT:  2.00D  GRAD.:     3.596 HEAT:  54.28018
 CYCLE:    19 TIME:   0.023 TIME LEFT:  2.00D  GRAD.:     5.237 HEAT:  54.28134
 CYCLE:    20 TIME:   0.023 TIME LEFT:  2.00D  GRAD.:     1.772 HEAT:  54.27454
 CYCLE:    21 TIME:   0.020 TIME LEFT:  2.00D  GRAD.:     2.222 HEAT:  54.27359
 CYCLE:    22 TIME:   0.023 TIME LEFT:  2.00D  GRAD.:     1.162 HEAT:  54.27123
 CYCLE:    23 TIME:   0.023 TIME LEFT:  2.00D  GRAD.:     1.844 HEAT:  54.26930
 CYCLE:    24 TIME:   0.023 TIME LEFT:  2.00D  GRAD.:     1.596 HEAT:  54.26694
 CYCLE:    25 TIME:   0.023 TIME LEFT:  2.00D  GRAD.:     1.648 HEAT:  54.26439
 CYCLE:    26 TIME:   0.023 TIME LEFT:  2.00D  GRAD.:     1.402 HEAT:  54.26148
 CYCLE:    27 TIME:   0.023 TIME LEFT:  2.00D  GRAD.:     1.468 HEAT:  54.25923
 CYCLE:    28 TIME:   0.020 TIME LEFT:  2.00D  GRAD.:     1.113 HEAT:  54.25780
 CYCLE:    29 TIME:   0.023 TIME LEFT:  2.00D  GRAD.:     0.998 HEAT:  54.25688
 CYCLE:    30 TIME:   0.023 TIME LEFT:  2.00D  GRAD.:     0.625 HEAT:  54.25620
 CYCLE:    31 TIME:   0.023 TIME LEFT:  2.00D  GRAD.:     0.514 HEAT:  54.25586
 CYCLE:    32 TIME:   0.023 TIME LEFT:  2.00D  GRAD.:     0.472 HEAT:  54.25566
 CYCLE:    33 TIME:   0.023 TIME LEFT:  2.00D  GRAD.:     0.301 HEAT:  54.25551
 CYCLE:    34 TIME:   0.020 TIME LEFT:  2.00D  GRAD.:     0.303 HEAT:  54.25542
 CYCLE:    35 TIME:   0.023 TIME LEFT:  2.00D  GRAD.:     0.274 HEAT:  54.25535
 CYCLE:    36 TIME:   0.023 TIME LEFT:  2.00D  GRAD.:     0.184 HEAT:  54.25529
 CYCLE:    37 TIME:   0.023 TIME LEFT:  2.00D  GRAD.:     0.174 HEAT:  54.25525
 CYCLE:    38 TIME:   0.023 TIME LEFT:  2.00D  GRAD.:     0.117 HEAT:  54.25523
 CYCLE:    39 TIME:   0.023 TIME LEFT:  2.00D  GRAD.:     0.062 HEAT:  54.25523
 CYCLE:    40 TIME:   0.023 TIME LEFT:  2.00D  GRAD.:     0.054 HEAT:  54.25522
 CYCLE:    41 TIME:   0.020 TIME LEFT:  2.00D  GRAD.:     0.045 HEAT:  54.25522

     GRADIENT =  0.04500  IS LESS THAN CUTOFF =  0.05000



 -------------------------------------------------------------------------------
 pm3  precise nosym THREADS=1
 InChI=1S/C10H10/c1-8-6-7-9-4-2-3-5-10(8)9/h2-3,5-7H,4H2,1H3



     GEOMETRY OPTIMISED USING EIGENVECTOR FOLLOWING (EF).     
     SCF FIELD WAS ACHIEVED                                   


                              PM3 CALCULATION
                                                       MOPAC2016 (Version: 18.184L)
                                                       Thu Jun 13 15:51:48 2019
                                                       No. of days remaining =  20




          FINAL HEAT OF FORMATION =         54.25522 KCAL/MOL =     227.00383 KJ/MOL


          TOTAL ENERGY            =      -1337.37821 EV
          ELECTRONIC ENERGY       =      -7041.16986 EV  POINT GROUP:     C1  
          CORE-CORE REPULSION     =       5703.79164 EV
          COSMO AREA              =        172.95 SQUARE ANGSTROMS
          COSMO VOLUME            =        173.05 CUBIC ANGSTROMS

          GRADIENT NORM           =          0.04500 = 0.01006 PER ATOM
          IONIZATION POTENTIAL    =          8.599405 EV
          HOMO LUMO ENERGIES (EV) =         -8.599 -0.883
          NO. OF FILLED LEVELS    =         25
          MOLECULAR WEIGHT        =        130.1890

          MOLECULAR DIMENSIONS (Angstroms)

            Atom       Atom       Distance
            H    16    H    15     7.40624
            H    18    H    17     5.55354
            H    13    H    14     1.77171


          SCF CALCULATIONS        =         50
 
          WALL-CLOCK TIME         =          1.066 SECONDS
          COMPUTATION TIME        =          0.427 SECONDS




   ATOM   CHEMICAL          X               Y               Z
  NUMBER   SYMBOL      (ANGSTROMS)     (ANGSTROMS)     (ANGSTROMS)
 
     1       C         -2.15995718  *   0.63894576  *  -0.05657200  *
     2       C          2.82171324  *  -0.47511234  *   0.08164925  *
     3       C         -0.70425348  *   0.86847033  *  -0.00088125  *
     4       C          1.57907914  *   0.31014410  *   0.06133016  *
     5       C          0.23106016  *  -0.27487155  *   0.00060210  *
     6       C         -2.52330829  *  -0.80313319  *  -0.10590636  *
     7       C          1.44362882  *   1.66665091  *   0.09285018  *
     8       C          0.02126907  *   2.01721989  *   0.05417320  *
     9       C         -0.19894498  *  -1.54762936  *  -0.04687947  *
    10       C         -1.62381294  *  -1.80162820  *  -0.10132871  *
    11       H         -2.64858809  *   1.10357196  *   0.82508552  *
    12       H         -2.58773857  *   1.14864032  *  -0.94493800  *
    13       H          2.84626475  *  -1.14653595  *   0.95076489  *
    14       H          2.90547431  *  -1.09807126  *  -0.81929318  *
    15       H          3.70780006  *   0.17043634  *   0.12896957  *
    16       H         -3.59633790  *  -1.02343130  *  -0.14773761  *
    17       H         -1.94626066  *  -2.84774444  *  -0.13910884  *
    18       H         -0.34965461  *   3.03928854  *   0.06879164  *
    19       H          0.49467422  *  -2.39498887  *  -0.04551706  *
    20       H          2.24293947  *   2.40354106  *   0.13934117  *

                             CARTESIAN COORDINATES

   1    C       -2.159957176     0.638945758    -0.056572002
   2    C        2.821713236    -0.475112335     0.081649250
   3    C       -0.704253477     0.868470328    -0.000881246
   4    C        1.579079145     0.310144097     0.061330161
   5    C        0.231060161    -0.274871554     0.000602098
   6    C       -2.523308293    -0.803133191    -0.105906358
   7    C        1.443628822     1.666650911     0.092850183
   8    C        0.021269070     2.017219894     0.054173205
   9    C       -0.198944981    -1.547629362    -0.046879467
  10    C       -1.623812943    -1.801628204    -0.101328708
  11    H       -2.648588085     1.103571958     0.825085524
  12    H       -2.587738572     1.148640320    -0.944937998
  13    H        2.846264752    -1.146535950     0.950764893
  14    H        2.905474313    -1.098071261    -0.819293176
  15    H        3.707800056     0.170436337     0.128969574
  16    H       -3.596337899    -1.023431295    -0.147737613
  17    H       -1.946260656    -2.847744444    -0.139108836
  18    H       -0.349654611     3.039288544     0.068791641
  19    H        0.494674218    -2.394988867    -0.045517055
  20    H        2.242939472     2.403541057     0.139341172


           Empirical Formula: C10 H10  =    20 atoms



      MOLECULAR POINT GROUP   :   C1  


                  EIGENVALUES  
 -41.18254 -35.56239 -31.97010 -29.15880 -26.84249 -23.49003 -21.86756 -19.79489
 -19.06795 -17.11794 -16.03468 -15.92602 -15.19263 -14.84975 -14.75061 -14.30228
 -13.86358 -13.05859 -12.96100 -12.53409 -12.19327 -12.01148 -11.27375  -8.99009
  -8.59940  -0.88339   1.03165   2.01917   2.41408   3.03016   3.14126   3.25183
   3.43301   3.62817   3.68193   4.05906   4.10442   4.21909   4.34194   4.36400
   4.54410   4.59938   4.61359   4.83607   5.18990   5.49812   5.55561   6.20952
   6.36493   6.37834


              NET ATOMIC CHARGES AND DIPOLE CONTRIBUTIONS

  ATOM NO.   TYPE          CHARGE      No. of ELECS.   s-Pop       p-Pop       
    1          C          -0.000553        4.0006     1.12362     2.87694
    2          C          -0.041992        4.0420     1.11449     2.92750
    3          C          -0.118207        4.1182     1.19153     2.92668
    4          C          -0.107106        4.1071     1.18740     2.91971
    5          C          -0.062253        4.0623     1.17976     2.88250
    6          C          -0.099814        4.0998     1.19786     2.90195
    7          C          -0.109807        4.1098     1.19092     2.91889
    8          C          -0.123664        4.1237     1.18704     2.93662
    9          C          -0.006345        4.0063     1.17347     2.83287
   10          C          -0.138622        4.1386     1.18064     2.95798
   11          H           0.072289        0.9277     0.92771
   12          H           0.072303        0.9277     0.92770
   13          H           0.043193        0.9568     0.95681
   14          H           0.043201        0.9568     0.95680
   15          H           0.042947        0.9571     0.95705
   16          H           0.096636        0.9034     0.90336
   17          H           0.104204        0.8958     0.89580
   18          H           0.115023        0.8850     0.88498
   19          H           0.104360        0.8956     0.89564
   20          H           0.114206        0.8858     0.88579
 DIPOLE           X         Y         Z       TOTAL
 POINT-CHG.    -0.740    -0.674    -0.043     1.002
 HYBRID        -0.087    -0.050    -0.004     0.101
 SUM           -0.828    -0.724    -0.048     1.101


          ATOMIC ORBITAL ELECTRON POPULATIONS

     Atom    s        px        py        pz   
    1  C   1.12362   0.93045   0.93930   1.00719
    2  C   1.11449   0.94160   0.98474   1.00116
    3  C   1.19153   0.94122   0.95001   1.03545
    4  C   1.18740   0.92875   0.95214   1.03883
    5  C   1.17976   0.93418   0.93899   1.00933
    6  C   1.19786   0.98151   0.95402   0.96642
    7  C   1.19092   0.95469   0.94696   1.01724
    8  C   1.18704   0.93837   0.96306   1.03520
    9  C   1.17347   0.94544   0.95647   0.93097
   10  C   1.18064   0.94206   0.98164   1.03428
   11  H   0.92771
   12  H   0.92770
   13  H   0.95681
   14  H   0.95680
   15  H   0.95705
   16  H   0.90336
   17  H   0.89580
   18  H   0.88498
   19  H   0.89564
   20  H   0.88579
 *******************************************************************************
 ** Site#: 14399        For non-commercial use only    Version 18.184L 64BITS **
 *******************************************************************************
 ** Cite this program as: MOPAC2016, Version: 18.184L, James J. P. Stewart,   **
 ** Stewart Computational Chemistry, web: HTTP://OpenMOPAC.net. Days left:  20**
 *******************************************************************************
 **                                                                           **
 **                                MOPAC2016                                  **
 **                                                                           **
 *******************************************************************************

                              PM3 CALCULATION RESULTS

 *******************************************************************************
 *  CALCULATION DONE:                                Thu Jun 13 15:51:48 2019  *
 *  PM3        - The PM3 Hamiltonian to be used
 *  OLDGEO     - PREVIOUS GEOMETRY TO BE USED
 *  PRECISE    - CRITERIA TO BE INCREASED BY 100 TIMES
 *  NOSYM      - POINT-GROUP SYMMETRY SET TO C1
 *  THREADS=1  - MULTI-THREADING NOT USED
 *  T=         - A TIME OF 172800.0 SECONDS REQUESTED
 *  DUMP=N     - RESTART FILE WRITTEN EVERY  7200.000 SECONDS
 *  THERMO     - THERMODYNAMIC QUANTITIES TO BE CALCULATED
 *******************************************************************************
oldgeo thermo nosym precise THREADS=1  pm3
 InChI=1S/C10H10/c1-8-6-7-9-4-2-3-5-10(8)9/h2-3,5-7H,4H2,1H3

   ATOM   CHEMICAL          X               Y               Z
  NUMBER   SYMBOL      (ANGSTROMS)     (ANGSTROMS)     (ANGSTROMS)
 
     1       C         -2.15995718  *   0.63894576  *  -0.05657200  *
     2       C          2.82171324  *  -0.47511234  *   0.08164925  *
     3       C         -0.70425348  *   0.86847033  *  -0.00088125  *
     4       C          1.57907914  *   0.31014410  *   0.06133016  *
     5       C          0.23106016  *  -0.27487155  *   0.00060210  *
     6       C         -2.52330829  *  -0.80313319  *  -0.10590636  *
     7       C          1.44362882  *   1.66665091  *   0.09285018  *
     8       C          0.02126907  *   2.01721989  *   0.05417320  *
     9       C         -0.19894498  *  -1.54762936  *  -0.04687947  *
    10       C         -1.62381294  *  -1.80162820  *  -0.10132871  *
    11       H         -2.64858809  *   1.10357196  *   0.82508552  *
    12       H         -2.58773857  *   1.14864032  *  -0.94493800  *
    13       H          2.84626475  *  -1.14653595  *   0.95076489  *
    14       H          2.90547431  *  -1.09807126  *  -0.81929318  *
    15       H          3.70780006  *   0.17043634  *   0.12896957  *
    16       H         -3.59633790  *  -1.02343130  *  -0.14773761  *
    17       H         -1.94626066  *  -2.84774444  *  -0.13910884  *
    18       H         -0.34965461  *   3.03928854  *   0.06879164  *
    19       H          0.49467422  *  -2.39498887  *  -0.04551706  *
    20       H          2.24293947  *   2.40354106  *   0.13934117  *
 


          CARTESIAN COORDINATES 

    NO.       ATOM           X           Y           Z

     1         C         -2.1600      0.6389     -0.0566
     2         C          2.8217     -0.4751      0.0816
     3         C         -0.7043      0.8685     -0.0009
     4         C          1.5791      0.3101      0.0613
     5         C          0.2311     -0.2749      0.0006
     6         C         -2.5233     -0.8031     -0.1059
     7         C          1.4436      1.6667      0.0929
     8         C          0.0213      2.0172      0.0542
     9         C         -0.1989     -1.5476     -0.0469
    10         C         -1.6238     -1.8016     -0.1013
    11         H         -2.6486      1.1036      0.8251
    12         H         -2.5877      1.1486     -0.9449
    13         H          2.8463     -1.1465      0.9508
    14         H          2.9055     -1.0981     -0.8193
    15         H          3.7078      0.1704      0.1290
    16         H         -3.5963     -1.0234     -0.1477
    17         H         -1.9463     -2.8477     -0.1391
    18         H         -0.3497      3.0393      0.0688
    19         H          0.4947     -2.3950     -0.0455
    20         H          2.2429      2.4035      0.1393

  H: (PM3): J. J. P. STEWART, J. COMP. CHEM. 10, 209 (1989).
  C: (PM3): J. J. P. STEWART, J. COMP. CHEM. 10, 209 (1989).

           Empirical Formula: C10 H10  =    20 atoms



      MOLECULAR POINT GROUP   :   C1  


      RHF CALCULATION, NO. OF DOUBLY OCCUPIED LEVELS = 25



          HEAT OF FORMATION =      54.255217 KCALS/MOLE


          CARTESIAN COORDINATE DERIVATIVES

   NUMBER  ATOM         X            Y            Z

     1       C     -0.002332    -0.002779    -0.004778
     2       C     -0.005726    -0.001910    -0.000967
     3       C     -0.007131     0.003607     0.005272
     4       C     -0.008875     0.004283     0.005656
     5       C     -0.006550     0.003259    -0.002629
     6       C      0.003767     0.005919    -0.001851
     7       C      0.002213     0.008433     0.000739
     8       C      0.003009     0.005771    -0.002546
     9       C      0.000485    -0.019315     0.000624
    10       C     -0.002663    -0.005763     0.005313
    11       H     -0.000775     0.001670     0.000872
    12       H      0.007566     0.000106    -0.003546
    13       H      0.011500     0.002275     0.000143
    14       H     -0.003266     0.002856    -0.005512
    15       H     -0.000330    -0.005165    -0.001238
    16       H      0.006162     0.001170    -0.001024
    17       H      0.004528     0.009864    -0.000242
    18       H      0.004618    -0.010248     0.001906
    19       H     -0.002467     0.000403     0.002121
    20       H     -0.003734    -0.004436     0.001688
 


          GRADIENT NORM =   0.03999


          TIME FOR SCF CALCULATION =    0.02

          TIME FOR DERIVATIVES     =    0.01

          MOLECULAR WEIGHT =  130.19



          ROTATIONAL CONSTANTS IN CM(-1)

          A =    0.08570403   B =    0.04120793   C =    0.02812157



           PRINCIPAL MOMENTS OF INERTIA IN UNITS OF 10**(-40)*GRAM-CM**2

          A =      326.6215   B =      679.3055   C =      995.4202


          ORIENTATION OF MOLECULE IN FORCE CALCULATION

    NO.       ATOM         X         Y         Z

     1          C      -2.1449    0.1237   -0.0009
     2          C       2.9617    0.1237   -0.0009
     3          C      -0.7734    0.6658   -0.0009
     4          C       1.5776    0.6192   -0.0008
     5          C       0.3886   -0.2464    0.0003
     6          C      -2.1861   -1.3636    0.0018
     7          C       1.1504    1.9141   -0.0021
     8          C      -0.3147    1.9459   -0.0022
     9          C       0.2454   -1.5830    0.0025
    10          C      -1.0906   -2.1422    0.0034
    11          H      -2.6991    0.5011    0.8836
    12          H      -2.6974    0.4976   -0.8880
    13          H       3.1557   -0.4961    0.8850
    14          H       3.1549   -0.4966   -0.8867
    15          H       3.6866    0.9476   -0.0015
    16          H      -3.1859   -1.8131    0.0024
    17          H      -1.1780   -3.2340    0.0054
    18          H      -0.8991    2.8628   -0.0031
    19          H       1.1070   -2.2589    0.0037
    20          H       1.7706    2.8082   -0.0030


    FIRST DERIVATIVES WILL BE USED IN THE CALCULATION OF SECOND DERIVATIVES

          ESTIMATED TIME TO COMPLETE CALCULATION =        8.44 SECONDS

    FOR POINT-GROUP C1   THERE ARE   1 UNIQUE SYMMETRY FUNCTIONS.

 STEP:   1 TIME =     0.05 SECS, INTEGRAL =      0.05 TIME LEFT: 172799.91
 STEP:   2 TIME =     0.04 SECS, INTEGRAL =      0.09 TIME LEFT: 172799.87
 STEP:   3 TIME =     0.05 SECS, INTEGRAL =      0.14 TIME LEFT: 172799.82
 STEP:   4 TIME =     0.05 SECS, INTEGRAL =      0.19 TIME LEFT: 172799.78
 STEP:   5 TIME =     0.04 SECS, INTEGRAL =      0.23 TIME LEFT: 172799.73
 STEP:   6 TIME =     0.04 SECS, INTEGRAL =      0.27 TIME LEFT: 172799.69
 STEP:   7 TIME =     0.05 SECS, INTEGRAL =      0.32 TIME LEFT: 172799.64
 STEP:   8 TIME =     0.05 SECS, INTEGRAL =      0.37 TIME LEFT: 172799.60
 STEP:   9 TIME =     0.05 SECS, INTEGRAL =      0.42 TIME LEFT: 172799.55
 STEP:  10 TIME =     0.04 SECS, INTEGRAL =      0.46 TIME LEFT: 172799.50
 STEP:  11 TIME =     0.05 SECS, INTEGRAL =      0.51 TIME LEFT: 172799.46
 STEP:  12 TIME =     0.05 SECS, INTEGRAL =      0.55 TIME LEFT: 172799.41
 STEP:  13 TIME =     0.05 SECS, INTEGRAL =      0.60 TIME LEFT: 172799.36
 STEP:  14 TIME =     0.05 SECS, INTEGRAL =      0.65 TIME LEFT: 172799.32
 STEP:  15 TIME =     0.05 SECS, INTEGRAL =      0.70 TIME LEFT: 172799.27
 STEP:  16 TIME =     0.04 SECS, INTEGRAL =      0.74 TIME LEFT: 172799.23
 STEP:  17 TIME =     0.05 SECS, INTEGRAL =      0.79 TIME LEFT: 172799.18
 STEP:  18 TIME =     0.05 SECS, INTEGRAL =      0.83 TIME LEFT: 172799.13
 STEP:  19 TIME =     0.05 SECS, INTEGRAL =      0.88 TIME LEFT: 172799.08
 STEP:  20 TIME =     0.05 SECS, INTEGRAL =      0.93 TIME LEFT: 172799.04
 STEP:  21 TIME =     0.05 SECS, INTEGRAL =      0.98 TIME LEFT: 172798.99
 STEP:  22 TIME =     0.05 SECS, INTEGRAL =      1.02 TIME LEFT: 172798.94
 STEP:  23 TIME =     0.05 SECS, INTEGRAL =      1.07 TIME LEFT: 172798.89
 STEP:  24 TIME =     0.05 SECS, INTEGRAL =      1.12 TIME LEFT: 172798.84
 STEP:  25 TIME =     0.04 SECS, INTEGRAL =      1.16 TIME LEFT: 172798.80
 STEP:  26 TIME =     0.05 SECS, INTEGRAL =      1.21 TIME LEFT: 172798.75
 STEP:  27 TIME =     0.05 SECS, INTEGRAL =      1.26 TIME LEFT: 172798.71
 STEP:  28 TIME =     0.04 SECS, INTEGRAL =      1.30 TIME LEFT: 172798.66
 STEP:  29 TIME =     0.05 SECS, INTEGRAL =      1.35 TIME LEFT: 172798.62
 STEP:  30 TIME =     0.05 SECS, INTEGRAL =      1.40 TIME LEFT: 172798.57
 STEP:  31 TIME =     0.05 SECS, INTEGRAL =      1.45 TIME LEFT: 172798.52
 STEP:  32 TIME =     0.05 SECS, INTEGRAL =      1.49 TIME LEFT: 172798.47
 STEP:  33 TIME =     0.05 SECS, INTEGRAL =      1.54 TIME LEFT: 172798.43
 STEP:  34 TIME =     0.05 SECS, INTEGRAL =      1.59 TIME LEFT: 172798.38
 STEP:  35 TIME =     0.05 SECS, INTEGRAL =      1.63 TIME LEFT: 172798.33
 STEP:  36 TIME =     0.04 SECS, INTEGRAL =      1.68 TIME LEFT: 172798.29
 STEP:  37 TIME =     0.05 SECS, INTEGRAL =      1.72 TIME LEFT: 172798.24
 STEP:  38 TIME =     0.05 SECS, INTEGRAL =      1.77 TIME LEFT: 172798.20
 STEP:  39 TIME =     0.04 SECS, INTEGRAL =      1.81 TIME LEFT: 172798.15
 STEP:  40 TIME =     0.05 SECS, INTEGRAL =      1.86 TIME LEFT: 172798.11
 STEP:  41 TIME =     0.05 SECS, INTEGRAL =      1.91 TIME LEFT: 172798.06
 STEP:  42 TIME =     0.05 SECS, INTEGRAL =      1.95 TIME LEFT: 172798.01
 STEP:  43 TIME =     0.05 SECS, INTEGRAL =      2.00 TIME LEFT: 172797.96
 STEP:  44 TIME =     0.04 SECS, INTEGRAL =      2.04 TIME LEFT: 172797.92
 STEP:  45 TIME =     0.05 SECS, INTEGRAL =      2.09 TIME LEFT: 172797.88
 STEP:  46 TIME =     0.05 SECS, INTEGRAL =      2.14 TIME LEFT: 172797.83
 STEP:  47 TIME =     0.04 SECS, INTEGRAL =      2.18 TIME LEFT: 172797.79
 STEP:  48 TIME =     0.05 SECS, INTEGRAL =      2.23 TIME LEFT: 172797.74
 STEP:  49 TIME =     0.05 SECS, INTEGRAL =      2.27 TIME LEFT: 172797.69
 STEP:  50 TIME =     0.04 SECS, INTEGRAL =      2.32 TIME LEFT: 172797.65
 STEP:  51 TIME =     0.05 SECS, INTEGRAL =      2.36 TIME LEFT: 172797.60
 STEP:  52 TIME =     0.05 SECS, INTEGRAL =      2.41 TIME LEFT: 172797.55
 STEP:  53 TIME =     0.04 SECS, INTEGRAL =      2.45 TIME LEFT: 172797.51
 STEP:  54 TIME =     0.05 SECS, INTEGRAL =      2.50 TIME LEFT: 172797.46
 STEP:  55 TIME =     0.04 SECS, INTEGRAL =      2.54 TIME LEFT: 172797.42
 STEP:  56 TIME =     0.05 SECS, INTEGRAL =      2.59 TIME LEFT: 172797.38
 STEP:  57 TIME =     0.05 SECS, INTEGRAL =      2.64 TIME LEFT: 172797.33
 STEP:  58 TIME =     0.05 SECS, INTEGRAL =      2.68 TIME LEFT: 172797.28
 STEP:  59 TIME =     0.05 SECS, INTEGRAL =      2.73 TIME LEFT: 172797.23
 STEP:  60 TIME =     0.05 SECS, INTEGRAL =      2.78 TIME LEFT: 172797.19

(To convert to Hartree/Bohr^2, multiply by (10^(-21) x N x a0^2)/(4.184 x 627.51) =  0.0642)


           FORCE MATRIX IN MILLIDYNES/ANGSTROM


                  C  1       C  2       C  3       C  4       C  5       C  6
 ------------------------------------------------------------------------------
     C    1  15.106478
     C    2   0.013046  14.872820
     C    3   5.322199   0.047244  18.977733
     C    4   0.079206   5.535207   1.143412  18.610674
     C    5   0.611020   0.524147   4.642852   4.730977  19.456709
     C    6   4.859918   0.002015   0.765089   0.108512   0.301257  17.730333
     C    7   0.127951   0.678826   1.651165   8.956320   1.559169   0.086109
     C    8   0.617952   0.110936   9.096332   1.569450   1.491946   0.092784
     C    9   0.162324   0.028342   0.946292   0.865419   9.634215   1.221559
     C   10   0.844445   0.005733   0.175598   0.213699   1.321948   9.913484
     H   11   4.362155   0.002622   0.414065   0.007324   0.025844   0.416034
     H   12   4.362109   0.002614   0.413705   0.007447   0.025957   0.415991
     H   13   0.000902   4.692947   0.005937   0.451256   0.014738   0.000723
     H   14   0.000900   4.692793   0.005888   0.451295   0.014733   0.000839
     H   15   0.001595   4.753917   0.008003   0.466759   0.045129   0.000450
     H   16   0.419808   0.000498   0.054604   0.012321   0.013946   4.818226
     H   17   0.117349   0.000741   0.004678   0.009519   0.049209   0.443334
     H   18   0.046048   0.006456   0.455193   0.048109   0.101200   0.002672
     H   19   0.006360   0.007756   0.119773   0.070934   0.455575   0.048506
     H   20   0.006635   0.045983   0.047407   0.451833   0.099980   0.002415


                  C  7       C  8       C  9       C 10       H 11       H 12
 ------------------------------------------------------------------------------
     C    7  17.929961
     C    8   5.012503  17.993116
     C    9   0.203374   0.185897  18.154246
     C   10   0.105891   0.105925   5.570657  18.071915
     H   11   0.012252   0.018279   0.017712   0.041971   4.951597
     H   12   0.012358   0.018286   0.017817   0.042034   0.564750   4.951228
     H   13   0.026302   0.015264   0.006501   0.001324   0.000421   0.000226
     H   14   0.026013   0.015321   0.006502   0.001259   0.000203   0.000425
     H   15   0.025667   0.002839   0.002491   0.000825   0.000122   0.000154
     H   16   0.006735   0.007120   0.121699   0.440934   0.028602   0.028556
     H   17   0.004462   0.004131   0.436625   4.843741   0.015616   0.015625
     H   18   0.417564   5.088073   0.009057   0.006522   0.006853   0.006910
     H   19   0.017399   0.021746   4.859642   0.434088   0.001428   0.001457
     H   20   5.067085   0.416812   0.007790   0.007871   0.000953   0.000962


                  H 13       H 14       H 15       H 16       H 17       H 18
 ------------------------------------------------------------------------------
     H   13   5.406107
     H   14   0.574265   5.405821
     H   15   0.557958   0.557970   5.453600
     H   16   0.000149   0.000158   0.000134   5.186831
     H   17   0.000146   0.000170   0.000145   0.065805   5.207253
     H   18   0.000773   0.000760   0.000611   0.001016   0.000327   5.486354
     H   19   0.005651   0.005641   0.000841   0.008315   0.029906   0.007585
     H   20   0.005580   0.005598   0.010806   0.000854   0.000550   0.008379


                  H 19       H 20
 ------------------------------
     H   19   5.215562
     H   20   0.002658   5.463499


          HEAT OF FORMATION =      54.255217 KCALS/MOLE

          ZERO POINT ENERGY     105.205 KCAL/MOL


           NORMAL COORDINATE ANALYSIS (Total motion = 1 Angstrom)


   Root No.       1         2         3         4         5         6         7         8

                 1 A       2 A       3 A       4 A       5 A       6 A       7 A       8 A   

                  92.0     112.0     160.6     239.9     280.9     302.6     428.8     471.1
  
           1    0.0000   -0.0000    0.0000   -0.0001    0.0001   -0.0000   -0.0000   -0.0068
           2   -0.0000    0.0001    0.0001    0.0098   -0.0001   -0.0000    0.0000   -0.0205
           3   -0.0183    0.0566    0.0119    0.0000   -0.0289    0.0043    0.0013    0.0000
           4    0.0000    0.0000    0.0000    0.0459    0.0000   -0.0000   -0.0000    0.0092
           5    0.0001    0.0000    0.0000    0.0786    0.0001    0.0000    0.0000    0.0175
           6   -0.0171    0.0427   -0.0405   -0.0000   -0.0024   -0.0271   -0.0006    0.0000
           7    0.0000   -0.0000    0.0000    0.0118    0.0000    0.0000   -0.0000   -0.0234
           8   -0.0000    0.0000    0.0000   -0.0224    0.0000   -0.0000    0.0001    0.0485
           9   -0.0068    0.0076    0.0209   -0.0001    0.0672   -0.0265    0.0269   -0.0000
          10   -0.0000   -0.0000   -0.0000    0.0107    0.0000   -0.0000   -0.0000   -0.0105
          11   -0.0000   -0.0000   -0.0000   -0.0160    0.0000    0.0000   -0.0000   -0.0330
          12    0.0002    0.0011    0.0137   -0.0000    0.0158    0.0626    0.0017    0.0000
          13   -0.0000   -0.0000    0.0000    0.0125    0.0000   -0.0000   -0.0001   -0.0444
          14   -0.0000    0.0000    0.0000   -0.0271    0.0000    0.0000    0.0000    0.0187
          15   -0.0013    0.0072    0.0479   -0.0001    0.0617    0.0256    0.0071   -0.0000
          16   -0.0000   -0.0000    0.0000   -0.0300   -0.0001   -0.0000    0.0001    0.0079
          17    0.0000   -0.0000   -0.0001    0.0132    0.0000    0.0000   -0.0001   -0.0316
          18    0.0016    0.0015   -0.0606    0.0000    0.0154    0.0290   -0.0470    0.0001
          19    0.0000   -0.0000    0.0000    0.0012   -0.0000    0.0000    0.0000    0.0343
          20   -0.0000   -0.0000   -0.0000   -0.0182   -0.0000    0.0000   -0.0000   -0.0210
          21    0.0093   -0.0394   -0.0136    0.0000   -0.0424    0.0476    0.0122   -0.0000
          22    0.0000    0.0000    0.0000    0.0058    0.0000    0.0000    0.0000    0.0327
          23   -0.0000   -0.0000   -0.0000   -0.0217   -0.0000   -0.0000    0.0000    0.0353
          24    0.0039   -0.0362   -0.0043    0.0000    0.0046   -0.0612   -0.0182    0.0000
          25   -0.0000    0.0000   -0.0000   -0.0239   -0.0000   -0.0000   -0.0000   -0.0226
          26   -0.0000   -0.0000    0.0000   -0.0246   -0.0001   -0.0000   -0.0001    0.0174
          27    0.0154   -0.0187    0.0616   -0.0000   -0.0315   -0.0175   -0.0441    0.0000
          28   -0.0000    0.0000   -0.0000   -0.0386   -0.0001    0.0000    0.0000    0.0049
          29    0.0000   -0.0000   -0.0000    0.0015   -0.0000   -0.0000    0.0000   -0.0346
          30    0.0176   -0.0338   -0.0156    0.0000   -0.0182   -0.0185    0.0645   -0.0000
          31   -0.0134    0.0508    0.0150    0.0092   -0.1009    0.0212    0.0215   -0.0234
          32    0.0127   -0.0377   -0.0505    0.0239    0.0487    0.0176   -0.0691   -0.0462
          33   -0.0322    0.1051    0.0434   -0.0000   -0.1148    0.0102    0.0461    0.0003
          34    0.0135   -0.0510   -0.0150    0.0090    0.1013   -0.0212   -0.0217   -0.0231
          35   -0.0128    0.0380    0.0508    0.0239   -0.0490   -0.0176    0.0692   -0.0464
          36   -0.0322    0.1048    0.0432    0.0002   -0.1144    0.0102    0.0458   -0.0004
          37   -0.0585   -0.0466    0.0382    0.0982    0.0097    0.0698    0.0032    0.0502
          38   -0.2067   -0.0543   -0.0024    0.0968   -0.0127   -0.0172   -0.0026    0.0324
          39   -0.1492    0.0148   -0.0508    0.0006   -0.0138   -0.0553   -0.0033    0.0007
          40    0.0587    0.0467   -0.0381    0.0981   -0.0097   -0.0699   -0.0031    0.0501
          41    0.2069    0.0544    0.0025    0.0963    0.0129    0.0172    0.0027    0.0322
          42   -0.1494    0.0148   -0.0508   -0.0003   -0.0138   -0.0552   -0.0033   -0.0007
          43   -0.0001    0.0000   -0.0000   -0.0199   -0.0000   -0.0001   -0.0001   -0.0409
          44    0.0003    0.0001    0.0001    0.1381    0.0001    0.0000    0.0001    0.0636
          45    0.2205    0.1307   -0.0704   -0.0003    0.0009   -0.0699   -0.0003   -0.0001
          46   -0.0000    0.0000   -0.0000   -0.0371   -0.0001   -0.0000    0.0001    0.0084
          47    0.0001   -0.0000   -0.0002    0.0291    0.0001    0.0001   -0.0001   -0.0333
          48    0.0021   -0.0058   -0.1430    0.0000    0.0558    0.0756   -0.1078    0.0000
          49   -0.0001    0.0000   -0.0001   -0.0563   -0.0001    0.0000   -0.0000    0.0305
          50    0.0000   -0.0001   -0.0001    0.0027   -0.0000   -0.0001    0.0002   -0.0364
          51    0.0326   -0.0740   -0.0531    0.0000   -0.0222   -0.0353    0.1961   -0.0002
          52    0.0000    0.0000    0.0000    0.0007   -0.0000    0.0001    0.0001    0.0869
          53   -0.0000   -0.0001   -0.0000   -0.0249   -0.0001   -0.0001    0.0000    0.0700
          54    0.0073   -0.0588   -0.0257    0.0001   -0.0350   -0.1453   -0.0825    0.0001
          55   -0.0000    0.0000   -0.0000   -0.0446   -0.0001    0.0000    0.0000    0.0059
          56   -0.0000   -0.0000    0.0001   -0.0504   -0.0002   -0.0000   -0.0002    0.0534
          57    0.0301   -0.0320    0.1024    0.0000   -0.1152   -0.0336   -0.1721    0.0001
          58    0.0000   -0.0000    0.0000   -0.0007   -0.0000    0.0001    0.0001    0.0771
          59   -0.0000   -0.0001   -0.0001   -0.0165   -0.0001    0.0000   -0.0000   -0.0502
          60    0.0183   -0.0624   -0.0508    0.0001   -0.1195    0.0799    0.0355   -0.0001


   Root No.       9        10        11        12        13        14        15        16

                 9 A      10 A      11 A      12 A      13 A      14 A      15 A      16 A   

                 526.3     531.6     547.9     684.6     724.6     751.4     800.5     831.8
  
           1   -0.0249    0.0001    0.0673   -0.0000   -0.0369    0.0000    0.0589   -0.0001
           2    0.0527   -0.0002    0.0057   -0.0000   -0.0104   -0.0000   -0.0343    0.0001
           3   -0.0002   -0.0105    0.0001   -0.0303   -0.0000   -0.0186    0.0001    0.0217
           4   -0.0239    0.0000   -0.0563    0.0000   -0.0568    0.0000   -0.0283    0.0000
           5    0.0121   -0.0000    0.0196   -0.0000    0.0263   -0.0000   -0.0041    0.0000
           6    0.0000    0.0030    0.0000   -0.0079    0.0000   -0.0003   -0.0000    0.0058
           7   -0.0200    0.0001    0.0422    0.0000   -0.0026    0.0000    0.0235   -0.0000
           8    0.0029   -0.0001    0.0140   -0.0000   -0.0246    0.0001   -0.0015    0.0000
           9   -0.0003   -0.0479   -0.0001   -0.0426    0.0001    0.0313   -0.0000    0.0002
          10   -0.0384    0.0001   -0.0386   -0.0000   -0.0213    0.0000   -0.0201    0.0000
          11   -0.0491    0.0002    0.0125   -0.0000    0.0173    0.0000   -0.0368    0.0000
          12    0.0004    0.0649   -0.0001   -0.0495   -0.0001    0.0006   -0.0000    0.0034
          13   -0.0301    0.0001   -0.0044   -0.0000    0.0036   -0.0000    0.0065   -0.0000
          14   -0.0268    0.0001   -0.0299    0.0001   -0.0095   -0.0000    0.0127    0.0000
          15    0.0001    0.0025   -0.0001    0.0860   -0.0000   -0.0138    0.0001    0.0155
          16    0.0606   -0.0002    0.0238    0.0000   -0.0314    0.0000   -0.0445    0.0000
          17    0.0532   -0.0002    0.0065   -0.0000   -0.0156   -0.0000   -0.0148   -0.0000
          18   -0.0000   -0.0037    0.0000    0.0041   -0.0000   -0.0198   -0.0001   -0.0134
          19   -0.0164    0.0001   -0.0004    0.0000    0.0600   -0.0000   -0.0183    0.0000
          20   -0.0451    0.0002    0.0269    0.0000    0.0307    0.0000   -0.0375    0.0000
          21   -0.0002   -0.0350   -0.0000    0.0096   -0.0000    0.0005    0.0000   -0.0295
          22   -0.0083    0.0001    0.0108    0.0000    0.0632   -0.0000   -0.0140    0.0000
          23   -0.0054    0.0000    0.0289    0.0000   -0.0372    0.0001    0.0109   -0.0000
          24    0.0002    0.0320   -0.0001    0.0135    0.0001    0.0046   -0.0000   -0.0354
          25    0.0543   -0.0002   -0.0190   -0.0000    0.0267   -0.0000    0.0145    0.0000
          26   -0.0325    0.0001   -0.0397   -0.0000   -0.0095   -0.0000    0.0299   -0.0000
          27   -0.0001   -0.0204    0.0001    0.0041    0.0000   -0.0016   -0.0001   -0.0026
          28    0.0431   -0.0002   -0.0174   -0.0000    0.0054   -0.0000    0.0083   -0.0000
          29    0.0212   -0.0001   -0.0512   -0.0001    0.0332   -0.0001    0.0671   -0.0001
          30   -0.0000    0.0106    0.0001   -0.0101   -0.0001   -0.0315   -0.0001   -0.0118
          31   -0.0318    0.0626    0.0756    0.1037   -0.0400    0.0284    0.0920   -0.0606
          32    0.0469   -0.0223    0.0131   -0.0306   -0.0102   -0.0762   -0.0082    0.0100
          33   -0.0015    0.0398    0.0021    0.0509   -0.0023    0.0344    0.0078   -0.0220
          34   -0.0325   -0.0624    0.0757   -0.1040   -0.0401   -0.0284    0.0919    0.0606
          35    0.0471    0.0221    0.0130    0.0307   -0.0101    0.0764   -0.0081   -0.0100
          36    0.0016    0.0396   -0.0021    0.0506    0.0023    0.0340   -0.0076   -0.0219
          37    0.0201    0.0599   -0.0654   -0.0696   -0.0748   -0.0010    0.0201    0.0369
          38    0.0286   -0.0215    0.0195    0.0233    0.0279    0.0009    0.0167   -0.0127
          39    0.0012   -0.0261    0.0015    0.0248    0.0039    0.0007    0.0028   -0.0121
          40    0.0192   -0.0602   -0.0653    0.0697   -0.0748    0.0010    0.0202   -0.0369
          41    0.0287    0.0213    0.0194   -0.0233    0.0279   -0.0010    0.0166    0.0126
          42   -0.0014   -0.0261   -0.0014    0.0248   -0.0038    0.0007   -0.0027   -0.0121
          43   -0.0837    0.0003   -0.0558    0.0000   -0.0593    0.0001   -0.1043    0.0001
          44    0.0660   -0.0003    0.0185    0.0000    0.0277   -0.0000    0.0638   -0.0001
          45   -0.0003   -0.0283   -0.0000    0.0302   -0.0000   -0.0006   -0.0000   -0.0156
          46    0.0714   -0.0002   -0.0020    0.0000   -0.0115    0.0000   -0.0443    0.0001
          47    0.0284   -0.0001    0.0637    0.0001   -0.0608    0.0003   -0.0131    0.0000
          48    0.0005    0.0256   -0.0002    0.1004    0.0003    0.2533    0.0002    0.0359
          49   -0.0071    0.0000   -0.0507   -0.0000    0.0174   -0.0000    0.0635   -0.0001
          50    0.0254    0.0000   -0.0483   -0.0001    0.0318    0.0003    0.0641    0.0001
          51    0.0003    0.0721   -0.0001    0.0114    0.0002    0.1923    0.0004    0.1020
          52    0.0088   -0.0000   -0.0094    0.0000    0.0716   -0.0000   -0.0143   -0.0001
          53    0.0053    0.0001    0.0159    0.0001   -0.0327   -0.0000    0.0098    0.0002
          54    0.0010    0.1535    0.0000    0.0427   -0.0002   -0.0824    0.0004    0.2493
          55    0.0697   -0.0003   -0.0219   -0.0000    0.0132   -0.0001    0.0115   -0.0000
          56   -0.0116    0.0000   -0.0441   -0.0002   -0.0268    0.0002    0.0269   -0.0000
          57   -0.0001   -0.0160    0.0001   -0.1118    0.0002    0.1577    0.0000    0.0173
          58    0.0137   -0.0001    0.0251    0.0000    0.0828   -0.0001    0.0247    0.0001
          59   -0.0665    0.0001    0.0093    0.0001    0.0155    0.0000   -0.0690    0.0002
          60   -0.0011   -0.1819    0.0002    0.0515    0.0001   -0.0113    0.0003    0.2285


   Root No.      17        18        19        20        21        22        23        24

                17 A      18 A      19 A      20 A      21 A      22 A      23 A      24 A   

                 882.2     889.5     932.4     948.1     980.4    1004.6    1014.8    1022.2
  
           1   -0.0001   -0.0156   -0.0000   -0.0000    0.0081   -0.0000   -0.0000   -0.0139
           2   -0.0000   -0.0153   -0.0000   -0.0000   -0.0017   -0.0000    0.0001    0.0401
           3    0.0396   -0.0004   -0.0012   -0.0258    0.0000    0.0199   -0.0168   -0.0000
           4    0.0001    0.0200    0.0000   -0.0000    0.0047   -0.0000    0.0000    0.0063
           5   -0.0000    0.0002    0.0000   -0.0000    0.0526   -0.0000   -0.0000   -0.0004
           6   -0.0140    0.0002   -0.0066   -0.0149   -0.0000   -0.0247   -0.0287    0.0001
           7   -0.0000   -0.0013   -0.0000   -0.0000   -0.0035   -0.0000    0.0000    0.0075
           8    0.0002    0.0419    0.0000    0.0000   -0.0017   -0.0000    0.0000    0.0011
           9   -0.0247    0.0002    0.0137    0.0222   -0.0000   -0.0205    0.0174   -0.0002
          10    0.0000    0.0019    0.0000   -0.0000    0.0051    0.0000   -0.0000   -0.0026
          11    0.0000    0.0064    0.0000    0.0000   -0.0106    0.0000    0.0000    0.0002
          12   -0.0067    0.0001    0.0019    0.0054   -0.0000    0.0295    0.0370   -0.0001
          13    0.0001    0.0145   -0.0000    0.0000   -0.0020   -0.0000   -0.0001   -0.0082
          14   -0.0002   -0.0351   -0.0000    0.0000    0.0020   -0.0000   -0.0000   -0.0057
          15    0.0181   -0.0002   -0.0195    0.0119    0.0000    0.0020   -0.0214    0.0001
          16   -0.0002   -0.0350   -0.0000    0.0000    0.0030    0.0000   -0.0001   -0.0383
          17   -0.0001   -0.0174   -0.0000    0.0000    0.0027   -0.0000   -0.0001   -0.0415
          18   -0.0084    0.0001   -0.0171    0.0197    0.0000   -0.0291    0.0238    0.0000
          19   -0.0001   -0.0113    0.0000    0.0000   -0.0096   -0.0000   -0.0000   -0.0027
          20    0.0001    0.0076    0.0000    0.0000   -0.0386   -0.0000    0.0000    0.0026
          21    0.0306   -0.0004    0.0323    0.0120    0.0000   -0.0228   -0.0164    0.0000
          22   -0.0001   -0.0142    0.0000    0.0000    0.0003    0.0000   -0.0000   -0.0025
          23    0.0004    0.0655   -0.0000   -0.0000   -0.0072    0.0000    0.0000    0.0100
          24   -0.0068    0.0000   -0.0370   -0.0275    0.0000    0.0193   -0.0016    0.0000
          25    0.0003    0.0479    0.0000   -0.0000   -0.0073   -0.0000    0.0001    0.0212
          26   -0.0004   -0.0603    0.0000   -0.0001    0.0107   -0.0000    0.0000   -0.0084
          27   -0.0131    0.0002    0.0306   -0.0421   -0.0001   -0.0105    0.0263   -0.0001
          28   -0.0000   -0.0035   -0.0000    0.0000    0.0020   -0.0000    0.0000    0.0034
          29    0.0001    0.0267    0.0000    0.0000    0.0036    0.0001   -0.0001   -0.0274
          30   -0.0182    0.0002    0.0069    0.0197   -0.0000    0.0283   -0.0287    0.0002
          31   -0.0697   -0.0385   -0.0336    0.0316    0.0156   -0.0660    0.0587    0.0708
          32    0.0697   -0.0480   -0.0535   -0.0574    0.0036   -0.0184    0.0195    0.1954
          33   -0.0368   -0.0010    0.0010    0.0203    0.0021   -0.0146    0.0123   -0.0127
          34    0.0693   -0.0401    0.0337   -0.0317    0.0157    0.0661   -0.0583    0.0719
          35   -0.0704   -0.0464    0.0535    0.0574    0.0037    0.0181   -0.0185    0.1965
          36   -0.0364    0.0019    0.0008    0.0200   -0.0021   -0.0146    0.0124    0.0120
          37   -0.0737   -0.0058   -0.0320   -0.0686   -0.1840   -0.1055   -0.1205    0.0061
          38    0.0262   -0.0142    0.0113    0.0252   -0.0051    0.0389    0.0443   -0.0039
          39    0.0221   -0.0032    0.0091    0.0192    0.0017    0.0277    0.0312   -0.0017
          40    0.0737   -0.0075    0.0318    0.0687   -0.1838    0.1056    0.1205    0.0054
          41   -0.0264   -0.0136   -0.0113   -0.0251   -0.0051   -0.0389   -0.0444   -0.0037
          42    0.0221    0.0027    0.0091    0.0191   -0.0016    0.0276    0.0311    0.0016
          43    0.0004    0.0701    0.0001   -0.0001    0.2056   -0.0000    0.0002    0.0177
          44   -0.0002   -0.0446   -0.0001    0.0001   -0.1311    0.0000   -0.0001   -0.0102
          45    0.0260   -0.0003    0.0120    0.0213    0.0000    0.0323    0.0372   -0.0001
          46   -0.0001   -0.0206   -0.0000    0.0000   -0.0001    0.0001   -0.0002   -0.0298
          47   -0.0004   -0.0537    0.0001   -0.0001    0.0106    0.0001   -0.0001   -0.0592
          48   -0.0466    0.0004    0.1291   -0.0705   -0.0001    0.1165   -0.0898    0.0003
          49   -0.0004   -0.0531   -0.0000    0.0000    0.0204   -0.0001    0.0002    0.1300
          50    0.0004    0.0298   -0.0001   -0.0001    0.0025   -0.0001    0.0001   -0.0401
          51    0.1581   -0.0017   -0.0723   -0.0806    0.0000   -0.1063    0.0998   -0.0004
          52    0.0003    0.0489   -0.0000   -0.0000    0.0563    0.0000   -0.0001   -0.0205
          53    0.0006    0.1092    0.0001    0.0001    0.0275   -0.0001   -0.0000   -0.0008
          54    0.0133   -0.0003    0.1434    0.1144   -0.0001   -0.0665    0.0106   -0.0002
          55   -0.0001   -0.0155    0.0001   -0.0001    0.0066   -0.0001    0.0004    0.0942
          56   -0.0008   -0.1450   -0.0002    0.0002    0.0291   -0.0001    0.0002    0.0819
          57    0.0629   -0.0005   -0.1434    0.1957    0.0002    0.0178   -0.0956    0.0003
          58    0.0000    0.0223    0.0000    0.0000    0.0390   -0.0000    0.0001    0.0085
          59   -0.0001   -0.0142   -0.0002   -0.0000   -0.0749    0.0001    0.0000   -0.0051
          60   -0.1398    0.0015   -0.1367   -0.0280    0.0001    0.0822    0.0590   -0.0001


   Root No.      25        26        27        28        29        30        31        32

                25 A      26 A      27 A      28 A      29 A      30 A      31 A      32 A   

                1047.7    1058.8    1062.9    1115.9    1156.7    1169.8    1205.0    1313.3
  
           1   -0.0001   -0.0221    0.0028   -0.0158    0.0022    0.0003    0.0079   -0.0120
           2    0.0001    0.0196    0.0033    0.0029    0.0066   -0.0168    0.0022   -0.0063
           3    0.0047   -0.0000   -0.0000    0.0000    0.0000    0.0000    0.0000   -0.0000
           4   -0.0000   -0.0190   -0.0151   -0.0168    0.0028    0.0044    0.0091    0.0080
           5    0.0000   -0.0008   -0.0027   -0.0035    0.0010   -0.0053   -0.0051   -0.0079
           6   -0.0019   -0.0000   -0.0000   -0.0000   -0.0000    0.0000    0.0000   -0.0000
           7    0.0001    0.0167   -0.0072    0.0078   -0.0072   -0.0283    0.0090   -0.0245
           8    0.0000   -0.0003    0.0005   -0.0055    0.0066   -0.0115   -0.0191    0.0081
           9    0.0296   -0.0000    0.0000   -0.0000   -0.0000    0.0000    0.0000   -0.0000
          10   -0.0000    0.0083    0.0114    0.0145   -0.0042   -0.0043   -0.0177    0.0291
          11   -0.0000   -0.0042    0.0024    0.0051   -0.0029    0.0162    0.0142    0.0072
          12    0.0025    0.0000    0.0000    0.0000    0.0000   -0.0000   -0.0000   -0.0000
          13    0.0001    0.0494    0.0148    0.0444   -0.0048   -0.0082   -0.0095    0.0016
          14   -0.0000    0.0009    0.0004    0.0057   -0.0072    0.0128   -0.0174   -0.0068
          15   -0.0037   -0.0000   -0.0000   -0.0000    0.0000   -0.0000    0.0000    0.0000
          16   -0.0001    0.0143    0.0004   -0.0086   -0.0074    0.0100    0.0015    0.0030
          17   -0.0002   -0.0079   -0.0035    0.0006    0.0015   -0.0036    0.0185    0.0211
          18   -0.0457    0.0001   -0.0000   -0.0000   -0.0000   -0.0000   -0.0000   -0.0000
          19   -0.0000   -0.0083   -0.0271   -0.0089    0.0046   -0.0001   -0.0146    0.0275
          20   -0.0000   -0.0134   -0.0182   -0.0120    0.0022    0.0118    0.0220   -0.0033
          21    0.0029   -0.0000   -0.0000    0.0000   -0.0000   -0.0000   -0.0000    0.0000
          22   -0.0000   -0.0102    0.0204   -0.0130    0.0044   -0.0146   -0.0067   -0.0268
          23    0.0001    0.0149   -0.0136    0.0074   -0.0017   -0.0152   -0.0068    0.0006
          24   -0.0112   -0.0000   -0.0000    0.0000    0.0000    0.0000    0.0000   -0.0000
          25    0.0000   -0.0324   -0.0025    0.0178    0.0071    0.0090   -0.0206   -0.0002
          26   -0.0000    0.0153    0.0032    0.0088   -0.0055    0.0059   -0.0120   -0.0169
          27   -0.0083    0.0000    0.0000   -0.0000    0.0000   -0.0000    0.0000    0.0000
          28    0.0000    0.0085    0.0010   -0.0137    0.0031    0.0086   -0.0067   -0.0157
          29   -0.0000   -0.0053   -0.0042   -0.0260   -0.0027   -0.0026    0.0118   -0.0006
          30    0.0210   -0.0001    0.0000    0.0000    0.0000    0.0000   -0.0000   -0.0000
          31    0.1719   -0.0398    0.0197   -0.0563   -0.0462    0.0757   -0.0098    0.1179
          32    0.2580    0.0227    0.0277   -0.0287   -0.0543    0.0761   -0.0447   -0.0377
          33    0.0011   -0.0112    0.0000   -0.0092   -0.0021    0.0068    0.0076    0.0815
          34   -0.1721   -0.0395    0.0194   -0.0561   -0.0461    0.0755   -0.0097    0.1179
          35   -0.2574    0.0231    0.0273   -0.0284   -0.0542    0.0759   -0.0447   -0.0381
          36    0.0020    0.0110   -0.0001    0.0092    0.0022   -0.0069   -0.0075   -0.0811
          37   -0.0076   -0.0181   -0.0085   -0.0127    0.0019    0.0323    0.0570   -0.0837
          38    0.0028    0.0092    0.0070    0.0089   -0.0017   -0.0035   -0.0134    0.0281
          39    0.0018    0.0052    0.0041    0.0061   -0.0013   -0.0039   -0.0128    0.0362
          40    0.0075   -0.0179   -0.0084   -0.0126    0.0020    0.0323    0.0570   -0.0837
          41   -0.0028    0.0091    0.0070    0.0089   -0.0017   -0.0035   -0.0134    0.0281
          42    0.0018   -0.0051   -0.0041   -0.0061    0.0013    0.0039    0.0128   -0.0361
          43    0.0001   -0.0576   -0.0554   -0.0664    0.0139    0.0065    0.0397   -0.0903
          44   -0.0000    0.0321    0.0314    0.0389   -0.0085   -0.0047   -0.0283    0.0721
          45    0.0021    0.0000    0.0000    0.0000    0.0000    0.0000    0.0000    0.0000
          46    0.0000    0.0681   -0.0021   -0.0686   -0.1244   -0.0338    0.0421    0.0300
          47   -0.0002   -0.1225    0.0031    0.1273    0.2584    0.0950   -0.0682   -0.0362
          48    0.0979   -0.0000    0.0000   -0.0001   -0.0003   -0.0001    0.0001    0.0000
          49    0.0004    0.1206    0.0294   -0.0679    0.3053   -0.0519    0.1248    0.0799
          50   -0.0002   -0.0162   -0.0070   -0.0220   -0.0271    0.0023    0.0021   -0.0085
          51   -0.0531    0.0002    0.0000    0.0000    0.0001    0.0000    0.0000    0.0000
          52   -0.0003   -0.0061    0.3083    0.0566   -0.0373    0.0975    0.1172   -0.0106
          53   -0.0000    0.0182    0.1697    0.0524   -0.0284    0.0560    0.0721    0.0128
          54    0.0412   -0.0000    0.0000   -0.0001    0.0000   -0.0000   -0.0000   -0.0000
          55    0.0001   -0.1454   -0.0240    0.1056   -0.0495   -0.0875    0.0619    0.0344
          56    0.0002   -0.1284   -0.0247    0.1194   -0.0807   -0.1169    0.0939    0.0252
          57    0.0320   -0.0001   -0.0000   -0.0001    0.0001    0.0001   -0.0001   -0.0000
          58    0.0003    0.0742   -0.2654    0.0882   -0.0273    0.1297    0.0956    0.0067
          59   -0.0003   -0.0714    0.1460   -0.0800    0.0246   -0.0775   -0.0532    0.0131
          60   -0.0059    0.0001    0.0000    0.0001   -0.0000    0.0000    0.0000   -0.0000


   Root No.      33        34        35        36        37        38        39        40

                33 A      34 A      35 A      36 A      37 A      38 A      39 A      40 A   

                1338.5    1357.6    1387.7    1388.6    1391.0    1410.1    1477.3    1513.4
  
           1    0.0014    0.0442    0.0235    0.0001   -0.0053   -0.0209    0.0352    0.0498
           2    0.0547    0.0226    0.0231    0.0001    0.0087    0.0354    0.0413    0.0310
           3   -0.0001   -0.0000   -0.0000   -0.0000   -0.0000   -0.0001   -0.0001   -0.0000
           4   -0.0077    0.0236   -0.0271   -0.0001   -0.0172    0.0310   -0.0460    0.0566
           5    0.0025   -0.0162    0.0245    0.0001   -0.0270   -0.0033    0.0080   -0.0132
           6    0.0000   -0.0000    0.0001   -0.0442   -0.0000   -0.0000    0.0000   -0.0000
           7   -0.0036   -0.0009    0.0008    0.0000    0.0091    0.0403   -0.0467   -0.0952
           8    0.0056   -0.0043   -0.0124   -0.0000   -0.0069   -0.0265    0.0388    0.0453
           9   -0.0000    0.0000    0.0000   -0.0000    0.0000    0.0000   -0.0000   -0.0001
          10   -0.0044    0.0180   -0.0048   -0.0000   -0.0111   -0.0158    0.0615   -0.0967
          11    0.0075    0.0150   -0.0154   -0.0001   -0.0077   -0.0136    0.0431   -0.0488
          12   -0.0000   -0.0000    0.0000   -0.0008    0.0000    0.0000   -0.0001    0.0001
          13   -0.0023   -0.0363    0.0006    0.0000    0.0041   -0.0189    0.0012    0.1042
          14    0.0184    0.0127    0.0128    0.0000    0.0001   -0.0097   -0.0315   -0.0206
          15   -0.0000   -0.0000   -0.0000    0.0002    0.0000    0.0000    0.0000    0.0000
          16   -0.0185   -0.0138   -0.0103   -0.0000   -0.0005    0.0014    0.0017   -0.0051
          17   -0.0110   -0.0039    0.0032    0.0000   -0.0057   -0.0387   -0.0490   -0.0186
          18    0.0000    0.0000   -0.0000    0.0000    0.0000    0.0001    0.0001    0.0000
          19   -0.0309   -0.0066    0.0757    0.0003    0.0168    0.0129    0.0058    0.0102
          20   -0.0065    0.0008   -0.0081   -0.0000   -0.0002    0.0168   -0.0241    0.0468
          21    0.0000   -0.0000    0.0000   -0.0003   -0.0000   -0.0000    0.0000   -0.0000
          22    0.0258   -0.0087   -0.0756   -0.0003   -0.0162   -0.0226   -0.0107   -0.0018
          23   -0.0170   -0.0184   -0.0073   -0.0000    0.0029    0.0099   -0.0260   -0.0384
          24    0.0000    0.0000   -0.0000   -0.0001   -0.0000   -0.0000    0.0000    0.0000
          25    0.0312    0.0202    0.0233    0.0001   -0.0010   -0.0266   -0.0536   -0.0125
          26    0.0143   -0.0009    0.0125    0.0001    0.0058    0.0055   -0.0384    0.0107
          27   -0.0000   -0.0000   -0.0000   -0.0001   -0.0000   -0.0000    0.0000   -0.0000
          28   -0.0105   -0.0078   -0.0152   -0.0000    0.0045    0.0422    0.0463    0.0038
          29   -0.0224   -0.0070   -0.0157   -0.0001   -0.0009    0.0157    0.0352    0.0003
          30    0.0000    0.0000    0.0000   -0.0000    0.0000   -0.0000   -0.0000    0.0000
          31    0.0759   -0.1027   -0.0378   -0.0001    0.0071    0.0190   -0.0165   -0.0129
          32   -0.1337   -0.0064   -0.0278   -0.0001   -0.0159   -0.0532   -0.0157   -0.0046
          33    0.1089   -0.0690   -0.0147   -0.0000    0.0156    0.0538   -0.0074   -0.0202
          34    0.0761   -0.1027   -0.0378   -0.0001    0.0071    0.0193   -0.0166   -0.0130
          35   -0.1342   -0.0060   -0.0277   -0.0002   -0.0159   -0.0534   -0.0157   -0.0045
          36   -0.1083    0.0688    0.0147    0.0000   -0.0155   -0.0536    0.0075    0.0202
          37    0.0428   -0.0834    0.0627    0.1992    0.0499   -0.0696    0.0696   -0.0705
          38   -0.0141    0.0444   -0.0671    0.1571    0.2329   -0.0241    0.0036   -0.0034
          39   -0.0183    0.0542   -0.0718    0.0521    0.1556    0.0024   -0.0216    0.0269
          40    0.0428   -0.0835    0.0639   -0.1987    0.0495   -0.0695    0.0695   -0.0704
          41   -0.0141    0.0443   -0.0662   -0.1582    0.2326   -0.0241    0.0035   -0.0034
          42    0.0183   -0.0541    0.0715    0.0533   -0.1557   -0.0023    0.0215   -0.0268
          43    0.0286   -0.0788    0.0552    0.0003    0.1250   -0.0476    0.0068   -0.0042
          44   -0.0263    0.0685   -0.0460    0.0001   -0.1219    0.0551   -0.0296    0.0301
          45   -0.0001    0.0001   -0.0011    0.4321    0.0003   -0.0001    0.0001   -0.0000
          46   -0.0014    0.0107    0.0146    0.0000   -0.0080   -0.0531   -0.0376   -0.0011
          47   -0.0548   -0.0597   -0.0535   -0.0002    0.0098    0.0788    0.0399   -0.0270
          48    0.0001    0.0001    0.0001   -0.0001   -0.0000   -0.0001   -0.0000    0.0001
          49   -0.0240    0.0041    0.0032   -0.0000   -0.0171   -0.0821   -0.0502   -0.0338
          50   -0.0244   -0.0092   -0.0192   -0.0001    0.0008    0.0275    0.0471    0.0032
          51    0.0000    0.0000    0.0000   -0.0000   -0.0000   -0.0001   -0.0001   -0.0000
          52    0.0002    0.0336    0.0388    0.0001    0.0104    0.0391   -0.0157    0.0123
          53   -0.0366    0.0066    0.0681    0.0002    0.0208    0.0513   -0.0314   -0.0320
          54    0.0000    0.0000   -0.0000    0.0002   -0.0000   -0.0000    0.0001    0.0000
          55   -0.0294   -0.0190   -0.0152   -0.0001   -0.0062   -0.0251    0.0297    0.0225
          56   -0.0652   -0.0524   -0.0375   -0.0001    0.0007    0.0126    0.0705    0.0556
          57    0.0001    0.0001    0.0001    0.0014   -0.0000   -0.0000   -0.0001   -0.0001
          58    0.0209    0.0412   -0.0364   -0.0002   -0.0177   -0.0023    0.0248    0.0138
          59   -0.0455   -0.0326    0.0723    0.0003    0.0241    0.0301   -0.0392    0.0501
          60    0.0000    0.0000   -0.0001    0.0007   -0.0000   -0.0000    0.0000   -0.0001


   Root No.      41        42        43        44        45        46        47        48

                41 A      42 A      43 A      44 A      45 A      46 A      47 A      48 A   

                1779.8    1820.4    1831.7    1902.4    2925.6    3005.4    3045.6    3059.8
  
           1   -0.0255    0.0163   -0.0353   -0.0106    0.0000   -0.0335   -0.0022   -0.0014
           2   -0.0091   -0.0064   -0.0413    0.0091   -0.0001    0.0226    0.0013    0.0009
           3    0.0000    0.0000    0.0000   -0.0000   -0.0610   -0.0000    0.0000   -0.0000
           4    0.0380    0.0248   -0.0045    0.0139   -0.0000   -0.0000    0.0000    0.0001
           5   -0.0188   -0.0120    0.0030   -0.0027    0.0000    0.0000   -0.0000    0.0006
           6   -0.0000   -0.0000    0.0000   -0.0000    0.0000    0.0000    0.0000    0.0000
           7    0.0572   -0.0325    0.0922    0.0315   -0.0000   -0.0005    0.0002    0.0001
           8    0.0725   -0.0534    0.1426    0.0019   -0.0000   -0.0005    0.0004   -0.0001
           9   -0.0000    0.0000   -0.0001   -0.0000   -0.0001    0.0000   -0.0000    0.0000
          10   -0.0855   -0.0610    0.0071   -0.0531    0.0000   -0.0000   -0.0000    0.0001
          11    0.1207    0.0881   -0.0322    0.0059    0.0000   -0.0001   -0.0000    0.0002
          12   -0.0001   -0.0001    0.0000    0.0000    0.0000    0.0000    0.0000   -0.0000
          13   -0.0028    0.0183   -0.0050    0.0331   -0.0000    0.0004   -0.0001   -0.0003
          14   -0.0537    0.0187    0.0172    0.2172   -0.0000    0.0002    0.0002   -0.0026
          15    0.0001   -0.0000   -0.0000   -0.0003   -0.0002   -0.0000   -0.0000    0.0000
          16    0.0458   -0.0822   -0.0736    0.0404   -0.0000    0.0043   -0.0359   -0.0202
          17   -0.0398    0.0778    0.0725   -0.0446   -0.0000    0.0027   -0.0154   -0.0064
          18    0.0001   -0.0001   -0.0001    0.0001   -0.0001   -0.0000    0.0000    0.0000
          19    0.0344    0.0339   -0.0162    0.0086    0.0000   -0.0001   -0.0001    0.0000
          20   -0.0927   -0.0806    0.0336   -0.0321   -0.0000    0.0000    0.0000   -0.0000
          21    0.0001    0.0001   -0.0000    0.0000   -0.0000   -0.0000   -0.0000    0.0000
          22   -0.0182    0.0210   -0.0470   -0.0047    0.0000    0.0002    0.0000    0.0000
          23   -0.0471    0.0490   -0.1188   -0.0243    0.0000    0.0001   -0.0000   -0.0000
          24    0.0000   -0.0000    0.0001    0.0000   -0.0001   -0.0000   -0.0000   -0.0000
          25    0.0195   -0.0279   -0.0143   -0.0354   -0.0000   -0.0003    0.0047   -0.0258
          26    0.0430   -0.0191   -0.0185   -0.1691   -0.0000   -0.0002   -0.0042    0.0229
          27   -0.0001    0.0000    0.0000    0.0002    0.0001    0.0000    0.0000   -0.0000
          28   -0.0608    0.1071    0.0907   -0.0379    0.0000    0.0004    0.0034    0.0010
          29    0.0233   -0.0487   -0.0439    0.0383    0.0000   -0.0001    0.0277   -0.0220
          30   -0.0001    0.0001    0.0001   -0.0001   -0.0003    0.0000   -0.0000    0.0000
          31    0.0032   -0.0020    0.0052   -0.0035   -0.2372    0.2006    0.0120    0.0067
          32    0.0189   -0.0201    0.0077    0.0052    0.1634   -0.1378   -0.0110   -0.0059
          33    0.0016   -0.0008    0.0045    0.0049    0.3683   -0.3731   -0.0240   -0.0132
          34    0.0031   -0.0020    0.0052   -0.0034    0.2367    0.1996    0.0120    0.0067
          35    0.0189   -0.0200    0.0076    0.0052   -0.1622   -0.1362   -0.0109   -0.0058
          36   -0.0017    0.0008   -0.0045   -0.0049    0.3698    0.3736    0.0240    0.0132
          37    0.0081    0.0061   -0.0029   -0.0032   -0.0000    0.0000   -0.0001    0.0009
          38   -0.0103   -0.0066    0.0015   -0.0029    0.0000   -0.0000    0.0002   -0.0019
          39    0.0070    0.0039   -0.0006    0.0015   -0.0000    0.0000   -0.0004    0.0037
          40    0.0081    0.0061   -0.0029   -0.0032    0.0000    0.0000   -0.0001    0.0009
          41   -0.0102   -0.0066    0.0014   -0.0029   -0.0000   -0.0000    0.0000   -0.0021
          42   -0.0070   -0.0039    0.0006   -0.0015   -0.0000   -0.0000    0.0002   -0.0039
          43   -0.0214   -0.0125    0.0060    0.0081    0.0000    0.0000    0.0001   -0.0027
          44    0.0316    0.0197   -0.0061    0.0013   -0.0000   -0.0000    0.0001   -0.0030
          45   -0.0000   -0.0000    0.0000   -0.0000    0.0000    0.0000    0.0000    0.0000
          46    0.0232   -0.0420   -0.0431    0.0139    0.0000   -0.0521    0.4161    0.2150
          47    0.0299   -0.0507   -0.0379    0.0352    0.0000   -0.0201    0.1922    0.0964
          48   -0.0000    0.0001    0.0000   -0.0000   -0.0015    0.0000   -0.0003   -0.0001
          49    0.0077   -0.0302   -0.0207    0.0528   -0.0000    0.0003   -0.0296    0.0161
          50    0.0265   -0.0536   -0.0495    0.0372   -0.0000   -0.0030   -0.3334    0.2418
          51   -0.0001    0.0001    0.0001   -0.0001   -0.0007    0.0000    0.0006   -0.0004
          52    0.0135   -0.0515    0.0890    0.0168   -0.0000   -0.0014    0.0002   -0.0004
          53   -0.0428    0.0104   -0.0625   -0.0242    0.0000    0.0018   -0.0003    0.0007
          54    0.0001   -0.0000    0.0001    0.0000    0.0002   -0.0000   -0.0000    0.0000
          55   -0.0138   -0.0156   -0.0119    0.1184   -0.0000    0.0003   -0.0546    0.3080
          56    0.0126   -0.0065   -0.0226   -0.0262    0.0000   -0.0002    0.0453   -0.2436
          57   -0.0000    0.0000    0.0000    0.0000    0.0000   -0.0000   -0.0001    0.0004
          58   -0.0577   -0.0683    0.0454   -0.0278    0.0000    0.0001    0.0001    0.0005
          59   -0.0537   -0.0278   -0.0083   -0.0227    0.0000    0.0001    0.0001    0.0007
          60    0.0001    0.0000   -0.0000    0.0000   -0.0000   -0.0000    0.0000   -0.0000


   Root No.      49        50        51        52        53        54

                49 A      50 A      51 A      52 A      53 A      54 A   

                3064.8    3070.2    3077.9    3138.5    3149.2    3165.4
  
           1   -0.0000   -0.0013    0.0000   -0.0001   -0.0001    0.0000
           2    0.0000    0.0009   -0.0000    0.0001   -0.0004   -0.0000
           3   -0.0000   -0.0000   -0.0000   -0.0000    0.0000    0.0000
           4   -0.0000   -0.0003   -0.0163   -0.0000    0.0001   -0.0240
           5   -0.0001   -0.0011   -0.0471    0.0004    0.0002    0.0062
           6   -0.0577   -0.0001    0.0001   -0.0000   -0.0000   -0.0000
           7   -0.0000    0.0001    0.0000    0.0002    0.0027    0.0000
           8   -0.0000    0.0005    0.0000   -0.0011    0.0041   -0.0000
           9   -0.0000   -0.0000    0.0000    0.0000   -0.0000    0.0000
          10    0.0000   -0.0001    0.0002   -0.0016   -0.0019   -0.0002
          11   -0.0000   -0.0002   -0.0004    0.0034    0.0022    0.0001
          12   -0.0001    0.0000    0.0000   -0.0000   -0.0000   -0.0000
          13   -0.0000    0.0008    0.0003    0.0004   -0.0001    0.0001
          14   -0.0000    0.0028   -0.0002    0.0008    0.0020    0.0001
          15   -0.0000   -0.0000   -0.0000   -0.0000   -0.0000   -0.0000
          16    0.0000   -0.0180    0.0002    0.0001   -0.0001   -0.0000
          17   -0.0000   -0.0048    0.0000    0.0000    0.0000    0.0000
          18    0.0000    0.0000   -0.0000    0.0000   -0.0000    0.0000
          19    0.0000   -0.0001   -0.0007   -0.0296   -0.0142    0.0005
          20    0.0000    0.0000   -0.0001   -0.0471   -0.0213    0.0004
          21   -0.0002    0.0000    0.0000    0.0000    0.0000   -0.0000
          22   -0.0000    0.0000    0.0001   -0.0116    0.0285   -0.0001
          23    0.0000   -0.0001    0.0000    0.0210   -0.0487    0.0000
          24   -0.0000    0.0000   -0.0000   -0.0000    0.0000    0.0000
          25   -0.0001    0.0225   -0.0010    0.0000   -0.0000    0.0002
          26    0.0000   -0.0191    0.0009   -0.0002   -0.0006   -0.0002
          27   -0.0000    0.0000   -0.0000    0.0000    0.0000    0.0000
          28    0.0000   -0.0004    0.0000   -0.0000    0.0001    0.0000
          29    0.0001   -0.0310    0.0005    0.0000    0.0000   -0.0000
          30    0.0000    0.0001   -0.0000    0.0000    0.0000    0.0000
          31    0.0000    0.0059   -0.0001    0.0002   -0.0008   -0.0000
          32    0.0000   -0.0051    0.0001   -0.0002    0.0005    0.0000
          33    0.0000   -0.0114    0.0001   -0.0004    0.0012    0.0000
          34   -0.0000    0.0059   -0.0001    0.0002   -0.0008   -0.0000
          35   -0.0000   -0.0050    0.0001   -0.0002    0.0005    0.0000
          36    0.0000    0.0115   -0.0001    0.0004   -0.0012   -0.0000
          37    0.0721   -0.0013   -0.0459    0.0013    0.0007    0.0368
          38   -0.2678    0.0029    0.1179   -0.0040   -0.0021   -0.1716
          39    0.3605   -0.0054   -0.2073    0.0061    0.0032    0.2556
          40   -0.0720   -0.0014   -0.0456    0.0013    0.0006    0.0366
          41    0.2684    0.0035    0.1176   -0.0039   -0.0020   -0.1715
          42    0.3611    0.0063    0.2067   -0.0060   -0.0031   -0.2552
          43    0.0002    0.0059    0.2840    0.0004    0.0005    0.2126
          44    0.0002    0.0066    0.3266   -0.0003    0.0002    0.2695
          45   -0.0291   -0.0000   -0.0002   -0.0000   -0.0000   -0.0002
          46   -0.0000    0.1776   -0.0020   -0.0004   -0.0001   -0.0000
          47   -0.0000    0.0790   -0.0009   -0.0002   -0.0000   -0.0000
          48   -0.0000   -0.0001    0.0000    0.0000    0.0000   -0.0000
          49   -0.0001    0.0286   -0.0005    0.0000   -0.0000    0.0000
          50   -0.0007    0.3389   -0.0055   -0.0001   -0.0003    0.0001
          51   -0.0000   -0.0006    0.0000    0.0000    0.0000   -0.0000
          52    0.0000    0.0003   -0.0001    0.1465   -0.3347    0.0003
          53   -0.0000   -0.0005    0.0001   -0.2330    0.5227   -0.0005
          54    0.0000    0.0000   -0.0000    0.0002   -0.0005    0.0000
          55    0.0007   -0.2599    0.0118   -0.0005   -0.0009   -0.0026
          56   -0.0005    0.2015   -0.0088    0.0003    0.0007    0.0016
          57   -0.0004   -0.0003    0.0000   -0.0000    0.0000   -0.0000
          58   -0.0000   -0.0002    0.0027    0.3531    0.1572   -0.0044
          59   -0.0000   -0.0002    0.0051    0.5112    0.2236   -0.0056
          60    0.0004    0.0000   -0.0000   -0.0005   -0.0002    0.0000


           MASS-WEIGHTED COORDINATE ANALYSIS (NORMAL COORDINATES)


   Root No.       1         2         3         4         5         6         7         8

                 1 A       2 A       3 A       4 A       5 A       6 A       7 A       8 A   

                  92.0     112.0     160.6     239.9     280.9     302.6     428.8     471.1
  
           1    0.0001   -0.0003    0.0000   -0.0008    0.0005   -0.0000   -0.0000   -0.0503
           2   -0.0001    0.0007    0.0004    0.0681   -0.0004   -0.0001    0.0002   -0.1522
           3   -0.1392    0.4545    0.0900    0.0003   -0.2052    0.0317    0.0099    0.0003
           4    0.0002    0.0001    0.0000    0.3193    0.0001   -0.0002   -0.0000    0.0686
           5    0.0006    0.0003    0.0002    0.5464    0.0005    0.0001    0.0002    0.1298
           6   -0.1297    0.3428   -0.3053   -0.0002   -0.0172   -0.1997   -0.0045    0.0000
           7    0.0001   -0.0000    0.0001    0.0820    0.0002    0.0000   -0.0002   -0.1740
           8   -0.0001    0.0001    0.0000   -0.1556    0.0003   -0.0000    0.0006    0.3601
           9   -0.0516    0.0606    0.1577   -0.0004    0.4761   -0.1948    0.1994   -0.0003
          10   -0.0001   -0.0000   -0.0000    0.0742    0.0000   -0.0000   -0.0003   -0.0781
          11   -0.0004   -0.0001   -0.0000   -0.1110    0.0002    0.0003   -0.0003   -0.2451
          12    0.0015    0.0086    0.1031   -0.0002    0.1123    0.4608    0.0130    0.0001
          13   -0.0000   -0.0000    0.0001    0.0871    0.0003   -0.0001   -0.0004   -0.3296
          14   -0.0003    0.0001    0.0001   -0.1882    0.0003    0.0002    0.0000    0.1393
          15   -0.0100    0.0580    0.3612   -0.0005    0.4373    0.1887    0.0524   -0.0004
          16   -0.0001   -0.0000    0.0000   -0.2087   -0.0005   -0.0001    0.0006    0.0591
          17    0.0002   -0.0001   -0.0004    0.0918    0.0002    0.0001   -0.0005   -0.2348
          18    0.0119    0.0117   -0.4569    0.0003    0.1092    0.2137   -0.3486    0.0005
          19    0.0001   -0.0000    0.0000    0.0082   -0.0000    0.0002    0.0002    0.2548
          20   -0.0002   -0.0003   -0.0002   -0.1267   -0.0001    0.0003   -0.0001   -0.1562
          21    0.0704   -0.3166   -0.1024    0.0003   -0.3008    0.3503    0.0904   -0.0003
          22    0.0001    0.0000    0.0001    0.0402    0.0000    0.0003    0.0002    0.2427
          23   -0.0001   -0.0003   -0.0001   -0.1505   -0.0000   -0.0003    0.0002    0.2625
          24    0.0295   -0.2909   -0.0325    0.0001    0.0328   -0.4506   -0.1352    0.0001
          25   -0.0002    0.0001   -0.0001   -0.1664   -0.0003   -0.0001   -0.0002   -0.1676
          26   -0.0001   -0.0002    0.0002   -0.1707   -0.0006   -0.0002   -0.0005    0.1294
          27    0.1166   -0.1498    0.4645   -0.0001   -0.2230   -0.1288   -0.3269    0.0002
          28   -0.0003    0.0002   -0.0003   -0.2682   -0.0005    0.0001    0.0000    0.0362
          29    0.0001   -0.0003   -0.0002    0.0104   -0.0002   -0.0003    0.0001   -0.2572
          30    0.1338   -0.2713   -0.1176    0.0001   -0.1288   -0.1364    0.4785   -0.0001
          31   -0.0295    0.1182    0.0327    0.0186   -0.2072    0.0451    0.0462   -0.0503
          32    0.0280   -0.0877   -0.1103    0.0482    0.1000    0.0375   -0.1484   -0.0995
          33   -0.0710    0.2443    0.0948   -0.0000   -0.2357    0.0218    0.0991    0.0006
          34    0.0296   -0.1186   -0.0328    0.0181    0.2080   -0.0452   -0.0465   -0.0497
          35   -0.0282    0.0884    0.1108    0.0482   -0.1007   -0.0376    0.1488   -0.0999
          36   -0.0708    0.2437    0.0943    0.0005   -0.2349    0.0218    0.0984   -0.0009
          37   -0.1288   -0.1084    0.0834    0.1977    0.0200    0.1488    0.0068    0.1080
          38   -0.4549   -0.1262   -0.0052    0.1950   -0.0261   -0.0368   -0.0056    0.0697
          39   -0.3284    0.0345   -0.1109    0.0012   -0.0283   -0.1179   -0.0070    0.0015
          40    0.1291    0.1085   -0.0832    0.1975   -0.0199   -0.1490   -0.0066    0.1078
          41    0.4552    0.1264    0.0054    0.1938    0.0264    0.0368    0.0058    0.0694
          42   -0.3287    0.0344   -0.1109   -0.0006   -0.0283   -0.1178   -0.0070   -0.0014
          43   -0.0002    0.0000   -0.0001   -0.0400   -0.0000   -0.0001   -0.0002   -0.0880
          44    0.0007    0.0002    0.0001    0.2781    0.0002    0.0000    0.0002    0.1369
          45    0.4853    0.3039   -0.1538   -0.0007    0.0019   -0.1491   -0.0007   -0.0002
          46   -0.0001    0.0000   -0.0000   -0.0747   -0.0002   -0.0000    0.0002    0.0182
          47    0.0001   -0.0001   -0.0003    0.0586    0.0003    0.0002   -0.0003   -0.0716
          48    0.0047   -0.0136   -0.3122    0.0001    0.1145    0.1612   -0.2317    0.0000
          49   -0.0002    0.0001   -0.0002   -0.1133   -0.0001    0.0001   -0.0000    0.0657
          50    0.0001   -0.0003   -0.0002    0.0055   -0.0001   -0.0002    0.0005   -0.0783
          51    0.0716   -0.1720   -0.1160    0.0001   -0.0456   -0.0753    0.4213   -0.0004
          52    0.0000    0.0000    0.0000    0.0015   -0.0000    0.0002    0.0002    0.1871
          53   -0.0000   -0.0001   -0.0001   -0.0501   -0.0001   -0.0002    0.0000    0.1508
          54    0.0160   -0.1367   -0.0560    0.0002   -0.0718   -0.3098   -0.1773    0.0002
          55   -0.0001    0.0000   -0.0001   -0.0897   -0.0001    0.0000    0.0001    0.0127
          56   -0.0000   -0.0001    0.0001   -0.1015   -0.0005   -0.0001   -0.0004    0.1149
          57    0.0662   -0.0745    0.2234    0.0001   -0.2365   -0.0716   -0.3698    0.0002
          58    0.0001   -0.0000    0.0000   -0.0013   -0.0000    0.0001    0.0002    0.1659
          59   -0.0001   -0.0001   -0.0001   -0.0333   -0.0002    0.0001   -0.0001   -0.1081
          60    0.0402   -0.1452   -0.1108    0.0002   -0.2454    0.1702    0.0763   -0.0001


   Root No.       9        10        11        12        13        14        15        16

                 9 A      10 A      11 A      12 A      13 A      14 A      15 A      16 A   

                 526.3     531.6     547.9     684.6     724.6     751.4     800.5     831.8
  
           1   -0.1480    0.0008    0.4445   -0.0002   -0.2421    0.0002    0.3958   -0.0007
           2    0.3131   -0.0015    0.0375   -0.0002   -0.0680   -0.0001   -0.2305    0.0006
           3   -0.0013   -0.0813    0.0005   -0.2206   -0.0002   -0.1499    0.0007    0.1779
           4   -0.1423    0.0002   -0.3723    0.0001   -0.3723    0.0004   -0.1900    0.0004
           5    0.0720   -0.0002    0.1298   -0.0000    0.1726   -0.0001   -0.0275    0.0000
           6    0.0002    0.0230    0.0002   -0.0576    0.0000   -0.0021   -0.0000    0.0475
           7   -0.1191    0.0008    0.2787    0.0001   -0.0170    0.0000    0.1580   -0.0003
           8    0.0175   -0.0005    0.0926   -0.0001   -0.1614    0.0005   -0.0101    0.0000
           9   -0.0015   -0.3720   -0.0003   -0.3109    0.0006    0.2524   -0.0003    0.0020
          10   -0.2282    0.0010   -0.2548   -0.0000   -0.1398    0.0002   -0.1354    0.0002
          11   -0.2919    0.0019    0.0824   -0.0001    0.1137    0.0001   -0.2473    0.0003
          12    0.0026    0.5046   -0.0005   -0.3611   -0.0005    0.0046   -0.0000    0.0282
          13   -0.1786    0.0008   -0.0292   -0.0001    0.0235   -0.0000    0.0437   -0.0000
          14   -0.1592    0.0007   -0.1976    0.0007   -0.0625   -0.0001    0.0856    0.0000
          15    0.0004    0.0196   -0.0004    0.6267   -0.0001   -0.1114    0.0006    0.1275
          16    0.3602   -0.0015    0.1574    0.0002   -0.2059    0.0003   -0.2989    0.0003
          17    0.3162   -0.0015    0.0432   -0.0000   -0.1024   -0.0003   -0.0998   -0.0001
          18   -0.0002   -0.0288    0.0002    0.0300   -0.0001   -0.1599   -0.0004   -0.1099
          19   -0.0975    0.0006   -0.0028    0.0002    0.3931   -0.0002   -0.1231    0.0002
          20   -0.2677    0.0012    0.1778    0.0003    0.2012    0.0001   -0.2519    0.0001
          21   -0.0012   -0.2720   -0.0002    0.0701   -0.0003    0.0044    0.0002   -0.2422
          22   -0.0492    0.0004    0.0713    0.0001    0.4141   -0.0002   -0.0942    0.0001
          23   -0.0318    0.0003    0.1908    0.0003   -0.2435    0.0004    0.0732   -0.0003
          24    0.0014    0.2488   -0.0005    0.0982    0.0004    0.0367   -0.0003   -0.2907
          25    0.3224   -0.0016   -0.1252   -0.0002    0.1747   -0.0004    0.0977    0.0000
          26   -0.1931    0.0006   -0.2623   -0.0002   -0.0621   -0.0001    0.2008   -0.0004
[...]
 T-DIPOLE    0.3761         C  1 -- H 11         +14.2% ( 53.8%)      2.8%
 TRAVEL      0.0872         C  1 -- C  6          +9.6% ( 44.4%)     93.1%
 RED. MASS   0.7423         C  7 -- C  8          +7.5% ( 39.2%)     97.4%
 EFF. MASS   6.6188

 VIBRATION   34   34A         ATOM PAIR      ENERGY CONTRIBUTION    RADIAL
 FREQ.      1357.56         C  1 -- H 11         +11.3% ( 47.5%)      2.5%
 T-DIPOLE    0.1709         C  1 -- H 12         +11.3% ( 47.5%)      2.5%
 TRAVEL      0.0894         C  1 -- C  6          +8.5% ( 41.2%)     19.4%
 RED. MASS   0.7336         C  1 -- C  3          +7.5% ( 38.7%)     97.4%
 EFF. MASS   6.2089

 VIBRATION   35   35A         ATOM PAIR      ENERGY CONTRIBUTION    RADIAL
 FREQ.      1387.70         C  7 -- C  8         +21.4% ( 77.4%)    100.0%
 T-DIPOLE    0.7802         C  3 -- C  7          +7.9% ( 47.1%)     75.5%
 TRAVEL      0.0712         C  7 -- H 20          +7.9% ( 47.0%)      7.8%
 RED. MASS   2.0355         C  8 -- H 18          +7.8% ( 46.7%)      6.9%
 EFF. MASS   9.5922

 VIBRATION   36   36A         ATOM PAIR      ENERGY CONTRIBUTION    RADIAL
 FREQ.      1388.60         C  2 -- H 15         +54.7% ( 64.0%)      0.0%
 T-DIPOLE    0.0620         C  2 -- H 14         +20.1% ( 38.8%)     11.6%
 TRAVEL      0.1754         C  2 -- H 13         +20.0% ( 38.7%)     11.8%
 RED. MASS   0.4277         C  2 -- C  4          +5.2% ( 19.8%)      0.0%
 EFF. MASS   1.5781

 VIBRATION   37   37A         ATOM PAIR      ENERGY CONTRIBUTION    RADIAL
 FREQ.      1391.03         C  2 -- H 13         +31.2% ( 52.4%)      1.1%
 T-DIPOLE    0.0885         C  2 -- H 14         +31.2% ( 52.3%)      1.1%
 TRAVEL      0.1516         C  2 -- H 15         +11.8% ( 32.2%)     28.9%
 RED. MASS   0.3356         C  2 -- C  4          +4.1% ( 19.1%)      0.1%
 EFF. MASS   2.1083

 VIBRATION   38   38A         ATOM PAIR      ENERGY CONTRIBUTION    RADIAL
 FREQ.      1410.12         C  1 -- C  3          +8.7% ( 45.2%)     15.4%
 T-DIPOLE    0.0920         C  1 -- C  6          +8.6% ( 44.9%)     90.1%
 TRAVEL      0.0730         C  9 -- C 10          +8.4% ( 44.3%)     93.9%
 RED. MASS   0.8695         C  3 -- C  8          +6.7% ( 39.7%)      3.2%
 EFF. MASS   8.9646

 VIBRATION   39   39A         ATOM PAIR      ENERGY CONTRIBUTION    RADIAL
 FREQ.      1477.27         C  9 -- C 10         +11.0% ( 52.9%)     94.4%
 T-DIPOLE    0.8754         C  2 -- C  4          +8.8% ( 47.2%)     62.5%
 TRAVEL      0.0641         C  4 -- C  5          +7.5% ( 43.6%)     93.3%
 RED. MASS   1.3408         C  1 -- C  3          +6.6% ( 41.1%)     88.5%
 EFF. MASS  11.1123

 VIBRATION   40   40A         ATOM PAIR      ENERGY CONTRIBUTION    RADIAL
 FREQ.      1513.45         C  3 -- C  5         +14.1% ( 63.6%)     88.5%
 T-DIPOLE    0.3085         C  4 -- C  5         +13.8% ( 63.0%)     77.9%
 TRAVEL      0.0618         C  2 -- C  4          +9.3% ( 51.7%)     70.6%
 RED. MASS   2.2529         C  1 -- C  3          +8.7% ( 49.9%)     79.2%
 EFF. MASS  11.6578

 VIBRATION   41   41A         ATOM PAIR      ENERGY CONTRIBUTION    RADIAL
 FREQ.      1779.82         C  4 -- C  7         +19.7% ( 73.1%)     96.3%
 T-DIPOLE    2.0025         C  2 -- C  4         +11.2% ( 55.1%)     76.8%
 TRAVEL      0.0563         C  4 -- C  5         +10.8% ( 54.1%)      3.4%
 RED. MASS   2.3873         C  3 -- C  7          +7.4% ( 44.8%)     42.8%
 EFF. MASS  11.9546

 VIBRATION   42   42A         ATOM PAIR      ENERGY CONTRIBUTION    RADIAL
 FREQ.      1820.38         C  6 -- C 10         +19.4% ( 68.8%)     99.9%
 T-DIPOLE    1.2343         C  4 -- C  7         +13.3% ( 57.0%)     96.3%
 TRAVEL      0.0559         C  9 -- C 10          +7.2% ( 42.0%)     67.0%
 RED. MASS   2.1184         C  2 -- C  4          +6.3% ( 39.4%)     75.4%
 EFF. MASS  11.8625

 VIBRATION   43   43A         ATOM PAIR      ENERGY CONTRIBUTION    RADIAL
 FREQ.      1831.75         C  3 -- C  8         +22.9% ( 77.5%)     97.9%
 T-DIPOLE    0.4656         C  1 -- C  3         +12.0% ( 56.2%)     69.2%
 TRAVEL      0.0556         C  6 -- C 10         +10.7% ( 53.0%)    100.0%
 RED. MASS   2.9050         C  3 -- C  7         +10.3% ( 52.0%)     95.5%
 EFF. MASS  11.9119

 VIBRATION   44   44A         ATOM PAIR      ENERGY CONTRIBUTION    RADIAL
 FREQ.      1902.39         C  5 -- C  9         +28.6% ( 91.1%)     99.5%
 T-DIPOLE    1.7726         C  4 -- C  5         +13.2% ( 61.9%)     72.3%
 TRAVEL      0.0546         C  5 -- C  7         +12.5% ( 60.2%)     94.3%
 RED. MASS   4.5659         C  3 -- C  5         +12.4% ( 60.0%)     37.4%
 EFF. MASS  11.8908         C  5 -- C  8         +12.3% ( 59.8%)     79.8%

 VIBRATION   45   45A         ATOM PAIR      ENERGY CONTRIBUTION    RADIAL
 FREQ.      2925.55         C  1 -- H 12         +49.0% ( 72.6%)     96.6%
 T-DIPOLE    0.1122         C  1 -- H 11         +48.9% ( 72.5%)     96.6%
 TRAVEL      0.1226         C  1 -- C  3          +1.1% ( 10.7%)      0.0%
 RED. MASS   0.5172         C  1 -- C  6          +1.1% ( 10.7%)      0.0%
 EFF. MASS   1.5324

 VIBRATION   46   46A         ATOM PAIR      ENERGY CONTRIBUTION    RADIAL
 FREQ.      3005.41         C  1 -- H 11         +49.0% ( 69.0%)     97.8%
 T-DIPOLE    0.1929         C  1 -- H 12         +48.8% ( 68.9%)     97.8%
 TRAVEL      0.1324         C  6 -- H 16          +0.9% (  9.2%)    100.0%
 RED. MASS   0.4763         C  1 -- C  6          +0.7% (  8.1%)     19.4%
 EFF. MASS   1.2807

 VIBRATION   47   47A         ATOM PAIR      ENERGY CONTRIBUTION    RADIAL
 FREQ.      3045.55         C  6 -- H 16         +62.3% ( 80.1%)    100.0%
 T-DIPOLE    0.2603         C 10 -- H 17         +33.3% ( 58.5%)    100.0%
 TRAVEL      0.1228         C  9 -- H 19          +1.5% ( 12.5%)     99.9%
 RED. MASS   0.4882         C  6 -- C 10          +1.1% ( 10.8%)      1.4%
 EFF. MASS   1.4690

 VIBRATION   48   48A         ATOM PAIR      ENERGY CONTRIBUTION    RADIAL
 FREQ.      3059.76         C  9 -- H 19         +55.5% ( 75.7%)    100.0%
 T-DIPOLE    0.2831         C 10 -- H 17         +21.2% ( 46.8%)     99.8%
 TRAVEL      0.1196         C  6 -- H 16         +19.9% ( 45.3%)     99.9%
 RED. MASS   0.3888         C  9 -- C 10          +1.2% ( 11.2%)      2.0%
 EFF. MASS   1.5405

 VIBRATION   49   49A         ATOM PAIR      ENERGY CONTRIBUTION    RADIAL
 FREQ.      3064.78         C  2 -- H 14         +49.1% ( 72.3%)     97.0%
 T-DIPOLE    0.0116         C  2 -- H 13         +49.0% ( 72.2%)     97.0%
 TRAVEL      0.1210         C  2 -- C  4          +1.0% ( 10.2%)      0.0%
 RED. MASS   0.5096         C  2 -- H 15          +0.9% (  9.9%)      0.0%
 EFF. MASS   1.5023

 VIBRATION   50   50A         ATOM PAIR      ENERGY CONTRIBUTION    RADIAL
 FREQ.      3070.22         C 10 -- H 17         +42.6% ( 66.2%)    100.0%
 T-DIPOLE    0.4453         C  9 -- H 19         +39.8% ( 64.0%)    100.0%
 TRAVEL      0.1180         C  6 -- H 16         +13.9% ( 37.9%)     99.8%
 RED. MASS   0.3585         C  9 -- C 10          +1.3% ( 11.7%)     99.3%
 EFF. MASS   1.5761

 VIBRATION   51   51A         ATOM PAIR      ENERGY CONTRIBUTION    RADIAL
 FREQ.      3077.89         C  2 -- H 15         +60.6% ( 80.3%)     98.7%
 T-DIPOLE    0.0239         C  2 -- H 13         +19.2% ( 45.2%)     86.0%
 TRAVEL      0.1203         C  2 -- H 14         +19.1% ( 45.1%)     85.9%
 RED. MASS   0.4716         C  2 -- C  4          +1.0% ( 10.5%)      0.0%
 EFF. MASS   1.5134

 VIBRATION   52   52A         ATOM PAIR      ENERGY CONTRIBUTION    RADIAL
 FREQ.      3138.51         C  7 -- H 20         +78.3% ( 91.5%)    100.0%
 T-DIPOLE    0.2675         C  8 -- H 18         +15.4% ( 40.5%)    100.0%
 TRAVEL      0.1179         C  7 -- C  8          +1.6% ( 13.0%)      5.5%
 RED. MASS   0.6757         C  4 -- C  7          +1.5% ( 12.5%)     46.0%
 EFF. MASS   1.5448

 VIBRATION   53   53A         ATOM PAIR      ENERGY CONTRIBUTION    RADIAL
 FREQ.      3149.25         C  8 -- H 18         +78.9% ( 91.4%)    100.0%
 T-DIPOLE    0.5204         C  7 -- H 20         +15.3% ( 40.2%)    100.0%
 TRAVEL      0.1162         C  7 -- C  8          +1.8% ( 13.7%)     72.7%
 RED. MASS   0.6761         C  3 -- C  8          +1.5% ( 12.8%)     48.7%
 EFF. MASS   1.5852

 VIBRATION   54   54A         ATOM PAIR      ENERGY CONTRIBUTION    RADIAL
 FREQ.      3165.39         C  2 -- H 15         +38.4% ( 59.7%)     97.8%
 T-DIPOLE    0.0531         C  2 -- H 13         +30.7% ( 53.4%)     96.7%
 TRAVEL      0.1367         C  2 -- H 14         +30.6% ( 53.3%)     96.7%
 RED. MASS   0.3301         C  2 -- C  4          +0.3% (  5.5%)     99.1%
 EFF. MASS   1.1400

      SYMMETRY NUMBER FOR POINT-GROUP C1  =  1


          SYSTEM IS A GROUND STATE



 InChI=1S/C10H10/c1-8-6-7-9-4-2-3-5-10(8)9/h2-3,5-7H,4H2,1H3


          MOLECULE IS NOT LINEAR

          THERE ARE 54 GENUINE VIBRATIONS IN THIS SYSTEM
          THIS THERMODYNAMICS CALCULATION IS LIMITED TO
          MOLECULES WHICH HAVE NO INTERNAL ROTATIONS




                    CALCULATED THERMODYNAMIC PROPERTIES
                                          *
   TEMP. (K)   PARTITION FUNCTION   H.O.F.    ENTHALPY  HEAT CAPACITY ENTROPY
                                   KCAL/MOL   CAL/MOLE    CAL/K/MOL  CAL/K/MOL


 298.00  VIB.     0.6625D+02                  3530.7655    27.1661    20.1813
         ROT.     0.5301D+06                   888.2813     2.9808    29.1740
         INT.     0.3512D+08                  4419.0468    30.1469    49.3553
         TRA.     0.1436D+28                  1480.4688     4.9680    40.5022
         TOT.                       54.255    5899.5156    35.1149    89.8574

 200.00  VIB.     0.1032D+02                  1418.9243    16.1485    11.7339
         ROT.     0.2915D+06                   596.1620     2.9808    27.9853
         INT.     0.3010D+07                  2015.0863    19.1293    39.7192
         TRA.     0.7896D+27                   993.6033     4.9680    38.5210
         TOT.                       51.364    3008.6895    24.0973    78.2402

 210.00  VIB.     0.1236D+02                  1585.6345    17.1977    12.5470
         ROT.     0.3136D+06                   625.9700     2.9808    28.1308
         INT.     0.3876D+07                  2211.6046    20.1785    40.6778
         TRA.     0.8496D+27                  1043.2834     4.9680    38.7634
         TOT.                       51.611    3254.8880    25.1465    79.4412

 220.00  VIB.     0.1483D+02                  1762.9567    18.2706    13.3717
         ROT.     0.3363D+06                   655.7781     2.9808    28.2694
         INT.     0.4986D+07                  2418.7349    21.2514    41.6412
         TRA.     0.9110D+27                  1092.9636     4.9680    38.9945
         TOT.                       51.867    3511.6985    26.2194    80.6357

 230.00  VIB.     0.1783D+02                  1951.1185    19.3652    14.2080
         ROT.     0.3595D+06                   685.5862     2.9808    28.4019
         INT.     0.6409D+07                  2636.7047    22.3460    42.6099
         TRA.     0.9738D+27                  1142.6437     4.9680    39.2154
         TOT.                       52.135    3779.3484    27.3140    81.8253

 240.00  VIB.     0.2149D+02                  2150.3234    20.4788    15.0556
         ROT.     0.3832D+06                   715.3943     2.9808    28.5288
         INT.     0.8234D+07                  2865.7177    23.4596    43.5844
         TRA.     0.1038D+28                  1192.3239     4.9680    39.4268
         TOT.                       52.414    4058.0416    28.4276    83.0112

 250.00  VIB.     0.2596D+02                  2360.7486    21.6087    15.9145
         ROT.     0.4074D+06                   745.2024     2.9808    28.6505
         INT.     0.1058D+08                  3105.9510    24.5895    44.5649
         TRA.     0.1103D+28                  1242.0041     4.9680    39.6296
         TOT.                       52.704    4347.9551    29.5575    84.1946

 260.00  VIB.     0.3143D+02                  2582.5424    22.7520    16.7842
         ROT.     0.4321D+06                   775.0105     2.9808    28.7674
         INT.     0.1358D+08                  3357.5529    25.7328    45.5516
         TRA.     0.1170D+28                  1291.6842     4.9680    39.8245
         TOT.                       53.005    4649.2371    30.7008    85.3761

 270.00  VIB.     0.3813D+02                  2815.8233    23.9057    17.6645
         ROT.     0.4572D+06                   804.8186     2.9808    28.8799
         INT.     0.1743D+08                  3620.6419    26.8865    46.5444
         TRA.     0.1239D+28                  1341.3644     4.9680    40.0120
         TOT.                       53.318    4962.0063    31.8545    86.5563

 280.00  VIB.     0.4636D+02                  3060.6802    25.0667    18.5548
         ROT.     0.4828D+06                   834.6267     2.9808    28.9883
         INT.     0.2239D+08                  3895.3069    28.0475    47.5431
         TRA.     0.1308D+28                  1391.0445     4.9680    40.1926
         TOT.                       53.642    5286.3515    33.0155    87.7358

 290.00  VIB.     0.5648D+02                  3317.1724    26.2323    19.4548
         ROT.     0.5089D+06                   864.4348     2.9808    29.0929
         INT.     0.2875D+08                  4181.6072    29.2131    48.5477
         TRA.     0.1379D+28                  1440.7247     4.9680    40.3670
         TOT.                       53.978    5622.3319    34.1811    88.9146

 300.00  VIB.     0.6895D+02                  3585.3311    27.3996    20.3638
         ROT.     0.5355D+06                   894.2429     2.9808    29.1939
         INT.     0.3692D+08                  4479.5740    30.3804    49.5577
         TRA.     0.1451D+28                  1490.4049     4.9680    40.5354
         TOT.                       54.326    5969.9789    35.3484    90.0931

 310.00  VIB.     0.8434D+02                  3865.1605    28.5660    21.2812
         ROT.     0.5625D+06                   924.0510     2.9808    29.2917
         INT.     0.4744D+08                  4789.2115    31.5468    50.5729
         TRA.     0.1524D+28                  1540.0850     4.9680    40.6983
         TOT.                       54.685    6329.2966    36.5148    91.2712

 320.00  VIB.     0.1034D+03                  4156.6398    29.7291    22.2065
         ROT.     0.5899D+06                   953.8591     2.9808    29.3863
         INT.     0.6097D+08                  5110.4989    32.7099    51.5929
         TRA.     0.1598D+28                  1589.7652     4.9680    40.8560
         TOT.                       55.056    6700.2641    37.6780    92.4489

 330.00  VIB.     0.1269D+03                  4459.7248    30.8868    23.1391
         ROT.     0.6178D+06                   983.6672     2.9808    29.4780
         INT.     0.7840D+08                  5443.3920    33.8676    52.6171
         TRA.     0.1674D+28                  1639.4454     4.9680    41.0089
         TOT.                       55.439    7082.8374    38.8356    93.6260

 340.00  VIB.     0.1561D+03                  4774.3502    32.0369    24.0783
         ROT.     0.6461D+06                  1013.4753     2.9808    29.5670
         INT.     0.1008D+09                  5787.8256    35.0177    53.6453
         TRA.     0.1750D+28                  1689.1255     4.9680    41.1572
         TOT.                       55.833    7476.9511    39.9857    94.8025

 350.00  VIB.     0.1923D+03                  5100.4319    33.1777    25.0234
         ROT.     0.6748D+06                  1043.2834     2.9808    29.6534
         INT.     0.1298D+09                  6143.7153    36.1585    54.6768
         TRA.     0.1828D+28                  1738.8057     4.9680    41.3012
         TOT.                       56.238    7882.5210    41.1265    95.9781

 360.00  VIB.     0.2373D+03                  5437.8683    34.3076    25.9739
         ROT.     0.7039D+06                  1073.0915     2.9808    29.7374
         INT.     0.1670D+09                  6510.9598    37.2884    55.7113
         TRA.     0.1907D+28                  1788.4859     4.9680    41.4412
         TOT.                       56.655    8299.4456    42.2564    97.1525

 370.00  VIB.     0.2933D+03                  5786.5432    35.4252    26.9292
         ROT.     0.7335D+06                  1102.8996     2.9808    29.8191
         INT.     0.2151D+09                  6889.4428    38.4060    56.7483
         TRA.     0.1987D+28                  1838.1660     4.9680    41.5773
         TOT.                       57.083    8727.6088    43.3740    98.3256

 380.00  VIB.     0.3631D+03                  6146.3272    36.5293    27.8886
         ROT.     0.7634D+06                  1132.7077     2.9808    29.8986
         INT.     0.2772D+09                  7279.0349    39.5101    57.7872
         TRA.     0.2068D+28                  1887.8462     4.9680    41.7098
         TOT.                       57.523    9166.8811    44.4781    99.4970

 390.00  VIB.     0.4502D+03                  6517.0801    37.6188    28.8516
         ROT.     0.7937D+06                  1162.5158     2.9808    29.9760
         INT.     0.3573D+09                  7679.5959    40.5996    58.8276
         TRA.     0.2150D+28                  1937.5263     4.9680    41.8388
         TOT.                       57.973    9617.1222    45.5676   100.6664

 400.00  VIB.     0.5589D+03                  6898.6517    38.6929    29.8176
         ROT.     0.8244D+06                  1192.3239     2.9808    30.0515
         INT.     0.4608D+09                  8090.9756    41.6737    59.8691
         TRA.     0.2233D+28                  1987.2065     4.9680    41.9646
         TOT.                       58.434   10078.1821    46.6417   101.8337

   *: NOTE: HEATS OF FORMATION ARE RELATIVE TO THE
            ELEMENTS IN THEIR STANDARD STATE AT 298K
              (=  Standard Enthalpy of Formation).

            Hvib:  Zero-point energy is not included.
                   frequencies of less than zero cm-1 are not included.
            Hrot = (3/2)RT
            Htra = (3/2)RT + pV = (5/2)RT

            Heat capacity is Cp, not Cv

          For more information, see: HTTP://OpenMOPAC.net/Manual/thermochemistry.html


           FORCE CONSTANT IN CARTESIAN COORDINATES (Millidynes/A)

    ATOM   CHEMICAL       X               Y               Z
   NUMBER   SYMBOL  FORCE CONSTANT  FORCE CONSTANT  FORCE CONSTANT

      1       C        9.360075        9.114701        7.566921
      2       C        9.287323        8.485720        7.926996
      3       C       12.561917       13.410862        2.481023
      4       C       12.863286       12.695100        2.528618
      5       C        9.276043       16.852279        2.302150
      6       C       13.303304       10.983991        2.444209
      7       C       10.093318       14.627087        2.156148
      8       C        9.920466       14.834216        2.141567
      9       C       10.511740       14.622605        2.284930
     10       C       13.029440       12.005958        2.232326
     11       H        1.604557        1.093147        3.421628
     12       H        1.597952        1.084015        3.436667
     13       H        0.769720        2.106333        3.753050
     14       H        0.768702        2.108678        3.751404
     15       H        2.639546        3.435609        0.652200
     16       H        4.368268        1.521007        0.349151
     17       H        0.792308        5.110182        0.344368
     18       H        2.065632        4.058856        0.336320
     19       H        3.467010        2.410802        0.352875
     20       H        2.228085        3.881291        0.339680

 **********************
 *                    *
 * JOB ENDED NORMALLY *
 *                    *
 **********************



 TOTAL JOB TIME:             5.65 SECONDS

 == MOPAC DONE ==
