 *******************************************************************************
 ** Site#: 14399        For non-commercial use only    Version 18.184L 64BITS **
 *******************************************************************************
 ** Cite this program as: MOPAC2016, Version: 18.184L, James J. P. Stewart,   **
 ** Stewart Computational Chemistry, web: HTTP://OpenMOPAC.net. Days left:  20**
 *******************************************************************************
 **                                                                           **
 **                                MOPAC2016                                  **
 **                                                                           **
 *******************************************************************************

                              PM3 CALCULATION RESULTS

 *******************************************************************************
 *  CALCULATION DONE:                                Thu Jun 13 20:11:07 2019  *
 *  PM3        - The PM3 Hamiltonian to be used
 *  PRECISE    - CRITERIA TO BE INCREASED BY 100 TIMES
 *  NOSYM      - POINT-GROUP SYMMETRY SET TO C1
 *  THREADS=1  - MULTI-THREADING NOT USED
 *  T=         - A TIME OF 172800.0 SECONDS REQUESTED
 *  DUMP=N     - RESTART FILE WRITTEN EVERY  7200.000 SECONDS
 *******************************************************************************
pm3  precise nosym THREADS=1
 InChI=1S/C7H12O2/c1-2-3-7(9-8)6-4-5-6/h2,6-8H,1,3-5H2

   ATOM   CHEMICAL          X               Y               Z
  NUMBER   SYMBOL      (ANGSTROMS)     (ANGSTROMS)     (ANGSTROMS)
 
     1       O         -0.00420000  *   1.61650000  *  -0.73280000  *
     2       O         -0.76980000  *   2.51540000  *  -0.14020000  *
     3       C         -1.43660000  *  -0.30040000  *  -0.47540000  *
     4       C         -0.15330000  *   0.41440000  *  -0.01110000  *
     5       C         -2.02490000  *  -1.29700000  *   0.51360000  *
     6       C         -2.70030000  *   0.04790000  *   0.29840000  *
     7       C          1.05760000  *  -0.48660000  *  -0.29270000  *
     8       C          2.33860000  *   0.13300000  *   0.19980000  *
     9       C          3.50680000  *  -0.49410000  *   0.04430000  *
    10       H         -1.58480000  *  -0.54820000  *  -1.54850000  *
    11       H         -0.17740000  *   0.61020000  *   1.08970000  *
    12       H         -1.50080000  *  -1.38790000  *   1.48920000  *
    13       H         -2.55930000  *  -2.14960000  *   0.04400000  *
    14       H         -2.58140000  *   0.74980000  *   1.15140000  *
    15       H         -3.63600000  *  -0.01050000  *  -0.29660000  *
    16       H          0.91800000  *  -1.46500000  *   0.21780000  *
    17       H          1.13830000  *  -0.67060000  *  -1.38700000  *
    18       H          2.32520000  *   1.10240000  *   0.69130000  *
    19       H          4.42200000  *  -0.03580000  *   0.40500000  *
    20       H          3.55910000  *  -1.46420000  *  -0.44120000  *
    21       H         -0.13680000  *   3.12030000  *   0.32540000  *
 


          CARTESIAN COORDINATES 

    NO.       ATOM           X           Y           Z

     1         O         -0.0042      1.6165     -0.7328
     2         O         -0.7698      2.5154     -0.1402
     3         C         -1.4366     -0.3004     -0.4754
     4         C         -0.1533      0.4144     -0.0111
     5         C         -2.0249     -1.2970      0.5136
     6         C         -2.7003      0.0479      0.2984
     7         C          1.0576     -0.4866     -0.2927
     8         C          2.3386      0.1330      0.1998
     9         C          3.5068     -0.4941      0.0443
    10         H         -1.5848     -0.5482     -1.5485
    11         H         -0.1774      0.6102      1.0897
    12         H         -1.5008     -1.3879      1.4892
    13         H         -2.5593     -2.1496      0.0440
    14         H         -2.5814      0.7498      1.1514
    15         H         -3.6360     -0.0105     -0.2966
    16         H          0.9180     -1.4650      0.2178
    17         H          1.1383     -0.6706     -1.3870
    18         H          2.3252      1.1024      0.6913
    19         H          4.4220     -0.0358      0.4050
    20         H          3.5591     -1.4642     -0.4412
    21         H         -0.1368      3.1203      0.3254

  H: (PM3): J. J. P. STEWART, J. COMP. CHEM. 10, 209 (1989).
  C: (PM3): J. J. P. STEWART, J. COMP. CHEM. 10, 209 (1989).
  O: (PM3): J. J. P. STEWART, J. COMP. CHEM. 10, 209 (1989).

           Empirical Formula: C7 H12 O2  =    21 atoms



      MOLECULAR POINT GROUP   :   C1  


      RHF CALCULATION, NO. OF DOUBLY OCCUPIED LEVELS = 26


          Geometry optimization using EF

          DIAGONAL MATRIX USED AS START HESSIAN

 CYCLE:     1 TIME:   0.016 TIME LEFT:  2.00D  GRAD.:   183.975 HEAT:  21.22970
 CYCLE:     2 TIME:   0.031 TIME LEFT:  2.00D  GRAD.:   205.534 HEAT:  16.23830
 CYCLE:     3 TIME:   0.039 TIME LEFT:  2.00D  GRAD.:    81.196 HEAT:  9.410462
 CYCLE:     4 TIME:   0.031 TIME LEFT:  2.00D  GRAD.:    77.459 HEAT:  7.967127
 CYCLE:     5 TIME:   0.031 TIME LEFT:  2.00D  GRAD.:    49.644 HEAT:  6.376706
 CYCLE:     6 TIME:   0.039 TIME LEFT:  2.00D  GRAD.:    64.159 HEAT:  6.066225
 CYCLE:     7 TIME:   0.023 TIME LEFT:  2.00D  GRAD.:    36.633 HEAT:  5.155905
 CYCLE:     8 TIME:   0.031 TIME LEFT:  2.00D  GRAD.:    28.361 HEAT:  4.843543
 CYCLE:     9 TIME:   0.023 TIME LEFT:  2.00D  GRAD.:    19.666 HEAT:  4.532495
 CYCLE:    10 TIME:   0.039 TIME LEFT:  2.00D  GRAD.:    20.671 HEAT:  4.445691
 CYCLE:    11 TIME:   0.023 TIME LEFT:  2.00D  GRAD.:    16.759 HEAT:  4.335543
 CYCLE:    12 TIME:   0.031 TIME LEFT:  2.00D  GRAD.:    13.202 HEAT:  4.254289
 CYCLE:    13 TIME:   0.023 TIME LEFT:  2.00D  GRAD.:    12.832 HEAT:  4.198256
 CYCLE:    14 TIME:   0.031 TIME LEFT:  2.00D  GRAD.:    14.012 HEAT:  4.138492
 CYCLE:    15 TIME:   0.039 TIME LEFT:  2.00D  GRAD.:    15.565 HEAT:  4.110371
 CYCLE:    16 TIME:   0.031 TIME LEFT:  2.00D  GRAD.:    11.583 HEAT:  4.036439
 CYCLE:    17 TIME:   0.039 TIME LEFT:  2.00D  GRAD.:    10.947 HEAT:  4.013229
 CYCLE:    18 TIME:   0.023 TIME LEFT:  2.00D  GRAD.:     7.278 HEAT:  3.963703
 CYCLE:    19 TIME:   0.031 TIME LEFT:  2.00D  GRAD.:     7.282 HEAT:  3.919926
 CYCLE:    20 TIME:   0.031 TIME LEFT:  2.00D  GRAD.:     6.452 HEAT:  3.852717
 CYCLE:    21 TIME:   0.023 TIME LEFT:  2.00D  GRAD.:     6.966 HEAT:  3.770479
 CYCLE:    22 TIME:   0.031 TIME LEFT:  2.00D  GRAD.:    10.477 HEAT:  3.644251
 CYCLE:    23 TIME:   0.031 TIME LEFT:  2.00D  GRAD.:    25.599 HEAT:  3.583688
 CYCLE:    24 TIME:   0.023 TIME LEFT:  2.00D  GRAD.:     5.673 HEAT:  3.441797
 CYCLE:    25 TIME:   0.031 TIME LEFT:  2.00D  GRAD.:     5.395 HEAT:  3.376193
 CYCLE:    26 TIME:   0.031 TIME LEFT:  2.00D  GRAD.:    19.086 HEAT:  3.343624
 CYCLE:    27 TIME:   0.023 TIME LEFT:  2.00D  GRAD.:     6.878 HEAT:  3.270033
 CYCLE:    28 TIME:   0.031 TIME LEFT:  2.00D  GRAD.:     9.223 HEAT:  3.231848
 CYCLE:    29 TIME:   0.031 TIME LEFT:  2.00D  GRAD.:     7.896 HEAT:  3.142045
 CYCLE:    30 TIME:   0.039 TIME LEFT:  2.00D  GRAD.:    15.535 HEAT:  3.084318
 CYCLE:    31 TIME:   0.023 TIME LEFT:  2.00D  GRAD.:    10.823 HEAT:  3.007435
 CYCLE:    32 TIME:   0.031 TIME LEFT:  2.00D  GRAD.:    17.765 HEAT:  2.953956
 CYCLE:    33 TIME:   0.031 TIME LEFT:  2.00D  GRAD.:     6.808 HEAT:  2.877457
 CYCLE:    34 TIME:   0.023 TIME LEFT:  2.00D  GRAD.:     8.042 HEAT:  2.827194
 CYCLE:    35 TIME:   0.031 TIME LEFT:  2.00D  GRAD.:     9.695 HEAT:  2.776712
 CYCLE:    36 TIME:   0.031 TIME LEFT:  2.00D  GRAD.:     6.748 HEAT:  2.714318
 CYCLE:    37 TIME:   0.023 TIME LEFT:  2.00D  GRAD.:    19.392 HEAT:  2.713355
 CYCLE:    38 TIME:   0.031 TIME LEFT:  2.00D  GRAD.:     5.520 HEAT:  2.646254
 CYCLE:    39 TIME:   0.031 TIME LEFT:  2.00D  GRAD.:     3.909 HEAT:  2.615274
 CYCLE:    40 TIME:   0.023 TIME LEFT:  2.00D  GRAD.:     8.994 HEAT:  2.573545
 CYCLE:    41 TIME:   0.031 TIME LEFT:  2.00D  GRAD.:    11.525 HEAT:  2.527432
 CYCLE:    42 TIME:   0.023 TIME LEFT:  2.00D  GRAD.:     5.416 HEAT:  2.444802
 CYCLE:    43 TIME:   0.031 TIME LEFT:  2.00D  GRAD.:    11.720 HEAT:  2.427864
 CYCLE:    44 TIME:   0.031 TIME LEFT:  2.00D  GRAD.:     4.415 HEAT:  2.404398
 CYCLE:    45 TIME:   0.031 TIME LEFT:  2.00D  GRAD.:     3.260 HEAT:  2.383300
 CYCLE:    46 TIME:   0.023 TIME LEFT:  2.00D  GRAD.:     5.769 HEAT:  2.365141
 CYCLE:    47 TIME:   0.031 TIME LEFT:  2.00D  GRAD.:     5.113 HEAT:  2.345571
 CYCLE:    48 TIME:   0.031 TIME LEFT:  2.00D  GRAD.:     2.848 HEAT:  2.321973
 CYCLE:    49 TIME:   0.031 TIME LEFT:  2.00D  GRAD.:     4.370 HEAT:  2.312308
 CYCLE:    50 TIME:   0.031 TIME LEFT:  2.00D  GRAD.:     3.136 HEAT:  2.291558
 CYCLE:    51 TIME:   0.023 TIME LEFT:  2.00D  GRAD.:     4.845 HEAT:  2.281986
 CYCLE:    52 TIME:   0.031 TIME LEFT:  2.00D  GRAD.:     2.423 HEAT:  2.270651
 CYCLE:    53 TIME:   0.023 TIME LEFT:  2.00D  GRAD.:     1.859 HEAT:  2.259822
 CYCLE:    54 TIME:   0.031 TIME LEFT:  2.00D  GRAD.:     2.090 HEAT:  2.247352
 CYCLE:    55 TIME:   0.031 TIME LEFT:  2.00D  GRAD.:     1.982 HEAT:  2.239290
 CYCLE:    56 TIME:   0.031 TIME LEFT:  2.00D  GRAD.:     1.541 HEAT:  2.232301
 CYCLE:    57 TIME:   0.023 TIME LEFT:  2.00D  GRAD.:     1.795 HEAT:  2.228779
 CYCLE:    58 TIME:   0.031 TIME LEFT:  2.00D  GRAD.:     1.512 HEAT:  2.222082
 CYCLE:    59 TIME:   0.031 TIME LEFT:  2.00D  GRAD.:     1.694 HEAT:  2.218572
 CYCLE:    60 TIME:   0.023 TIME LEFT:  2.00D  GRAD.:     0.880 HEAT:  2.215579
 CYCLE:    61 TIME:   0.031 TIME LEFT:  2.00D  GRAD.:     0.803 HEAT:  2.213656
 CYCLE:    62 TIME:   0.031 TIME LEFT:  2.00D  GRAD.:     0.902 HEAT:  2.211430
 CYCLE:    63 TIME:   0.023 TIME LEFT:  2.00D  GRAD.:     1.091 HEAT:  2.208146
 CYCLE:    64 TIME:   0.031 TIME LEFT:  2.00D  GRAD.:     1.316 HEAT:  2.203729
 CYCLE:    65 TIME:   0.031 TIME LEFT:  2.00D  GRAD.:     1.292 HEAT:  2.198959
 CYCLE:    66 TIME:   0.023 TIME LEFT:  2.00D  GRAD.:     1.272 HEAT:  2.194681
 CYCLE:    67 TIME:   0.031 TIME LEFT:  2.00D  GRAD.:     1.413 HEAT:  2.191320
 CYCLE:    68 TIME:   0.031 TIME LEFT:  2.00D  GRAD.:     1.379 HEAT:  2.189311
 CYCLE:    69 TIME:   0.023 TIME LEFT:  2.00D  GRAD.:     1.162 HEAT:  2.187084
 CYCLE:    70 TIME:   0.031 TIME LEFT:  2.00D  GRAD.:     1.241 HEAT:  2.185648
 CYCLE:    71 TIME:   0.031 TIME LEFT:  2.00D  GRAD.:     0.877 HEAT:  2.184550
 CYCLE:    72 TIME:   0.023 TIME LEFT:  2.00D  GRAD.:     0.775 HEAT:  2.183897
 CYCLE:    73 TIME:   0.031 TIME LEFT:  2.00D  GRAD.:     0.820 HEAT:  2.182425
 CYCLE:    74 TIME:   0.023 TIME LEFT:  2.00D  GRAD.:     1.037 HEAT:  2.180492
 CYCLE:    75 TIME:   0.031 TIME LEFT:  2.00D  GRAD.:     1.313 HEAT:  2.177192
 CYCLE:    76 TIME:   0.031 TIME LEFT:  2.00D  GRAD.:     1.618 HEAT:  2.172174
 CYCLE:    77 TIME:   0.023 TIME LEFT:  2.00D  GRAD.:     1.459 HEAT:  2.168050
 CYCLE:    78 TIME:   0.031 TIME LEFT:  2.00D  GRAD.:     1.862 HEAT:  2.159285
 CYCLE:    79 TIME:   0.031 TIME LEFT:  2.00D  GRAD.:     1.606 HEAT:  2.155048
 CYCLE:    80 TIME:   0.023 TIME LEFT:  2.00D  GRAD.:     2.198 HEAT:  2.145577
 CYCLE:    81 TIME:   0.031 TIME LEFT:  2.00D  GRAD.:     1.252 HEAT:  2.141818
 CYCLE:    82 TIME:   0.023 TIME LEFT:  2.00D  GRAD.:     1.216 HEAT:  2.139916
 CYCLE:    83 TIME:   0.039 TIME LEFT:  2.00D  GRAD.:     1.577 HEAT:  2.136384
 CYCLE:    84 TIME:   0.023 TIME LEFT:  2.00D  GRAD.:     1.161 HEAT:  2.134615
 CYCLE:    85 TIME:   0.031 TIME LEFT:  2.00D  GRAD.:     1.293 HEAT:  2.131090
 CYCLE:    86 TIME:   0.023 TIME LEFT:  2.00D  GRAD.:     1.047 HEAT:  2.128910
 CYCLE:    87 TIME:   0.031 TIME LEFT:  2.00D  GRAD.:     0.809 HEAT:  2.126975
 CYCLE:    88 TIME:   0.031 TIME LEFT:  2.00D  GRAD.:     1.008 HEAT:  2.124207
 CYCLE:    89 TIME:   0.023 TIME LEFT:  2.00D  GRAD.:     1.328 HEAT:  2.121146
 CYCLE:    90 TIME:   0.031 TIME LEFT:  2.00D  GRAD.:     1.159 HEAT:  2.118186
 CYCLE:    91 TIME:   0.023 TIME LEFT:  2.00D  GRAD.:     1.091 HEAT:  2.115419
 CYCLE:    92 TIME:   0.031 TIME LEFT:  2.00D  GRAD.:     1.688 HEAT:  2.110512
 CYCLE:    93 TIME:   0.031 TIME LEFT:  2.00D  GRAD.:     1.816 HEAT:  2.107221
 CYCLE:    94 TIME:   0.031 TIME LEFT:  2.00D  GRAD.:     2.141 HEAT:  2.104118
 CYCLE:    95 TIME:   0.023 TIME LEFT:  2.00D  GRAD.:     1.509 HEAT:  2.100912
 CYCLE:    96 TIME:   0.031 TIME LEFT:  2.00D  GRAD.:     1.123 HEAT:  2.098281
 CYCLE:    97 TIME:   0.023 TIME LEFT:  2.00D  GRAD.:     1.082 HEAT:  2.096022
 CYCLE:    98 TIME:   0.031 TIME LEFT:  2.00D  GRAD.:     1.011 HEAT:  2.093471
 CYCLE:    99 TIME:   0.031 TIME LEFT:  2.00D  GRAD.:     1.212 HEAT:  2.090532
 CYCLE:   100 TIME:   0.031 TIME LEFT:  2.00D  GRAD.:     1.358 HEAT:  2.088364
 CYCLE:   101 TIME:   0.023 TIME LEFT:  2.00D  GRAD.:     2.402 HEAT:  2.086677
 CYCLE:   102 TIME:   0.031 TIME LEFT:  2.00D  GRAD.:     1.996 HEAT:  2.084350
 CYCLE:   103 TIME:   0.023 TIME LEFT:  2.00D  GRAD.:     1.581 HEAT:  2.080401
 CYCLE:   104 TIME:   0.031 TIME LEFT:  2.00D  GRAD.:     1.446 HEAT:  2.075112
 CYCLE:   105 TIME:   0.031 TIME LEFT:  2.00D  GRAD.:     1.847 HEAT:  2.069183
 CYCLE:   106 TIME:   0.023 TIME LEFT:  2.00D  GRAD.:     3.987 HEAT:  2.059625
 CYCLE:   107 TIME:   0.031 TIME LEFT:  2.00D  GRAD.:     3.588 HEAT:  2.052796
 CYCLE:   108 TIME:   0.031 TIME LEFT:  2.00D  GRAD.:     2.337 HEAT:  2.037272
 CYCLE:   109 TIME:   0.023 TIME LEFT:  2.00D  GRAD.:     5.141 HEAT:  2.022461
 CYCLE:   110 TIME:   0.031 TIME LEFT:  2.00D  GRAD.:     2.526 HEAT:  2.005719
 CYCLE:   111 TIME:   0.023 TIME LEFT:  2.00D  GRAD.:     3.050 HEAT:  1.990814
 CYCLE:   112 TIME:   0.031 TIME LEFT:  2.00D  GRAD.:     4.639 HEAT:  1.977134
 CYCLE:   113 TIME:   0.031 TIME LEFT:  2.00D  GRAD.:     1.985 HEAT:  1.970783
 CYCLE:   114 TIME:   0.031 TIME LEFT:  2.00D  GRAD.:     1.889 HEAT:  1.965362
 CYCLE:   115 TIME:   0.023 TIME LEFT:  2.00D  GRAD.:     2.551 HEAT:  1.959903
 CYCLE:   116 TIME:   0.141 TIME LEFT:  2.00D  GRAD.:     2.837 HEAT:  1.955943
 CYCLE:   117 TIME:   0.023 TIME LEFT:  2.00D  GRAD.:     2.014 HEAT:  1.950605
 CYCLE:   118 TIME:   0.023 TIME LEFT:  2.00D  GRAD.:     1.834 HEAT:  1.943912
 CYCLE:   119 TIME:   0.031 TIME LEFT:  2.00D  GRAD.:     1.949 HEAT:  1.940397
 CYCLE:   120 TIME:   0.031 TIME LEFT:  2.00D  GRAD.:     2.197 HEAT:  1.935871
 CYCLE:   121 TIME:   0.031 TIME LEFT:  2.00D  GRAD.:     2.770 HEAT:  1.933180
 CYCLE:   122 TIME:   0.023 TIME LEFT:  2.00D  GRAD.:     2.528 HEAT:  1.926695
 CYCLE:   123 TIME:   0.031 TIME LEFT:  2.00D  GRAD.:     1.962 HEAT:  1.920538
 CYCLE:   124 TIME:   0.023 TIME LEFT:  2.00D  GRAD.:     1.944 HEAT:  1.912575
 CYCLE:   125 TIME:   0.031 TIME LEFT:  2.00D  GRAD.:     1.882 HEAT:  1.905302
 CYCLE:   126 TIME:   0.070 TIME LEFT:  2.00D  GRAD.:     2.276 HEAT:  1.899983
 CYCLE:   127 TIME:   0.039 TIME LEFT:  2.00D  GRAD.:     4.722 HEAT:  1.905626
 CYCLE:   128 TIME:   0.023 TIME LEFT:  2.00D  GRAD.:     1.576 HEAT:  1.894067
 CYCLE:   129 TIME:   0.023 TIME LEFT:  2.00D  GRAD.:     1.175 HEAT:  1.892207
 CYCLE:   130 TIME:   0.031 TIME LEFT:  2.00D  GRAD.:     0.715 HEAT:  1.888996
 CYCLE:   131 TIME:   0.023 TIME LEFT:  2.00D  GRAD.:     1.350 HEAT:  1.886960
 CYCLE:   132 TIME:   0.031 TIME LEFT:  2.00D  GRAD.:     0.890 HEAT:  1.886143
 CYCLE:   133 TIME:   0.023 TIME LEFT:  2.00D  GRAD.:     0.692 HEAT:  1.885499
 CYCLE:   134 TIME:   0.031 TIME LEFT:  2.00D  GRAD.:     0.624 HEAT:  1.885125
 CYCLE:   135 TIME:   0.031 TIME LEFT:  2.00D  GRAD.:     0.529 HEAT:  1.884618
 CYCLE:   136 TIME:   0.023 TIME LEFT:  2.00D  GRAD.:     0.402 HEAT:  1.884108
 CYCLE:   137 TIME:   0.031 TIME LEFT:  2.00D  GRAD.:     0.620 HEAT:  1.883679
 CYCLE:   138 TIME:   0.031 TIME LEFT:  2.00D  GRAD.:     0.734 HEAT:  1.883314
 CYCLE:   139 TIME:   0.023 TIME LEFT:  2.00D  GRAD.:     0.816 HEAT:  1.882854
 CYCLE:   140 TIME:   0.031 TIME LEFT:  2.00D  GRAD.:     0.763 HEAT:  1.882192
 CYCLE:   141 TIME:   0.031 TIME LEFT:  2.00D  GRAD.:     0.757 HEAT:  1.881823
 CYCLE:   142 TIME:   0.023 TIME LEFT:  2.00D  GRAD.:     0.923 HEAT:  1.881251
 CYCLE:   143 TIME:   0.031 TIME LEFT:  2.00D  GRAD.:     0.694 HEAT:  1.880679
 CYCLE:   144 TIME:   0.031 TIME LEFT:  2.00D  GRAD.:     0.690 HEAT:  1.879702
 CYCLE:   145 TIME:   0.023 TIME LEFT:  2.00D  GRAD.:     0.838 HEAT:  1.877730
 CYCLE:   146 TIME:   0.039 TIME LEFT:  2.00D  GRAD.:     0.939 HEAT:  1.875951
 CYCLE:   147 TIME:   0.023 TIME LEFT:  2.00D  GRAD.:     1.040 HEAT:  1.874006
 CYCLE:   148 TIME:   0.031 TIME LEFT:  2.00D  GRAD.:     2.103 HEAT:  1.873025
 CYCLE:   149 TIME:   0.039 TIME LEFT:  2.00D  GRAD.:     0.649 HEAT:  1.872573
 CYCLE:   150 TIME:   0.023 TIME LEFT:  2.00D  GRAD.:     0.910 HEAT:  1.871750
 CYCLE:   151 TIME:   0.031 TIME LEFT:  2.00D  GRAD.:     0.683 HEAT:  1.870233
 CYCLE:   152 TIME:   0.023 TIME LEFT:  2.00D  GRAD.:     0.653 HEAT:  1.869430
 CYCLE:   153 TIME:   0.031 TIME LEFT:  2.00D  GRAD.:     0.452 HEAT:  1.869051
 CYCLE:   154 TIME:   0.031 TIME LEFT:  2.00D  GRAD.:     0.233 HEAT:  1.868842
 CYCLE:   155 TIME:   0.031 TIME LEFT:  2.00D  GRAD.:     0.142 HEAT:  1.868779
 CYCLE:   156 TIME:   0.023 TIME LEFT:  2.00D  GRAD.:     0.107 HEAT:  1.868748
 CYCLE:   157 TIME:   0.031 TIME LEFT:  2.00D  GRAD.:     0.121 HEAT:  1.868715
 CYCLE:   158 TIME:   0.023 TIME LEFT:  2.00D  GRAD.:     0.104 HEAT:  1.868699
 CYCLE:   159 TIME:   0.031 TIME LEFT:  2.00D  GRAD.:     0.078 HEAT:  1.868687
 CYCLE:   160 TIME:   0.023 TIME LEFT:  2.00D  GRAD.:     0.058 HEAT:  1.868689
 CYCLE:   161 TIME:   0.031 TIME LEFT:  2.00D  GRAD.:     0.041 HEAT:  1.868674

     GRADIENT =  0.04073  IS LESS THAN CUTOFF =  0.05000



 -------------------------------------------------------------------------------
 pm3  precise nosym THREADS=1
 InChI=1S/C7H12O2/c1-2-3-7(9-8)6-4-5-6/h2,6-8H,1,3-5H2



     GEOMETRY OPTIMISED USING EIGENVECTOR FOLLOWING (EF).     
     SCF FIELD WAS ACHIEVED                                   


                              PM3 CALCULATION
                                                       MOPAC2016 (Version: 18.184L)
                                                       Thu Jun 13 20:11:12 2019
                                                       No. of days remaining =  20




          FINAL HEAT OF FORMATION =          1.86867 KCAL/MOL =       7.81853 KJ/MOL


          TOTAL ENERGY            =      -1598.24389 EV
          ELECTRONIC ENERGY       =      -7633.11227 EV  POINT GROUP:     C1  
          CORE-CORE REPULSION     =       6034.86838 EV
          COSMO AREA              =        180.24 SQUARE ANGSTROMS
          COSMO VOLUME            =        178.53 CUBIC ANGSTROMS

          GRADIENT NORM           =          0.04073 = 0.00889 PER ATOM
          IONIZATION POTENTIAL    =         10.170687 EV
          HOMO LUMO ENERGIES (EV) =        -10.171  1.035
          NO. OF FILLED LEVELS    =         26
          MOLECULAR WEIGHT        =        128.1706

          MOLECULAR DIMENSIONS (Angstroms)

            Atom       Atom       Distance
            H    19    H    15     8.04765
            H    21    H    13     5.61667
            H    17    H    14     3.00676


          SCF CALCULATIONS        =        172
 
          WALL-CLOCK TIME         =          4.867 SECONDS
          COMPUTATION TIME        =          2.252 SECONDS




   ATOM   CHEMICAL          X               Y               Z
  NUMBER   SYMBOL      (ANGSTROMS)     (ANGSTROMS)     (ANGSTROMS)
 
     1       O          0.10046883  *   1.50973773  *  -0.80305385  *
     2       O         -0.51916831  *   2.70094316  *  -0.10096961  *
     3       C         -1.45270800  *  -0.29428478  *  -0.41150340  *
     4       C         -0.14845999  *   0.37149846  *   0.00505775  *
     5       C         -2.07033740  *  -1.31691886  *   0.50212784  *
     6       C         -2.71895031  *   0.02143776  *   0.33509765  *
     7       C          1.02520977  *  -0.59653917  *  -0.23535360  *
     8       C          2.26257274  *  -0.16701153  *   0.46999688  *
     9       C          3.45887176  *  -0.16260069  *  -0.10607741  *
    10       H         -1.51311468  *  -0.45462942  *  -1.50381277  *
    11       H         -0.19142297  *   0.66126295  *   1.08573482  *
    12       H         -1.57669339  *  -1.57112461  *   1.44755886  *
    13       H         -2.53655407  *  -2.21249913  *   0.07787155  *
    14       H         -2.70103584  *   0.74497553  *   1.15868622  *
    15       H         -3.66260506  *   0.11172461  *  -0.21339288  *
    16       H          0.73270386  *  -1.59604397  *   0.14803558  *
    17       H          1.20447549  *  -0.72992887  *  -1.32173673  *
    18       H          2.13755889  *   0.14439984  *   1.51453900  *
    19       H          4.35999584  *   0.13607870  *   0.42057128  *
    20       H          3.62452399  *  -0.45364511  *  -1.13990394  *
    21       H         -0.30747505  *   3.31437037  *  -0.78507193  *

                             CARTESIAN COORDINATES

   1    O        0.100468831     1.509737728    -0.803053852
   2    O       -0.519168310     2.700943155    -0.100969615
   3    C       -1.452707996    -0.294284782    -0.411503398
   4    C       -0.148459989     0.371498461     0.005057750
   5    C       -2.070337405    -1.316918861     0.502127845
   6    C       -2.718950305     0.021437756     0.335097647
   7    C        1.025209772    -0.596539167    -0.235353602
   8    C        2.262572738    -0.167011534     0.469996880
   9    C        3.458871765    -0.162600694    -0.106077408
  10    H       -1.513114676    -0.454629422    -1.503812769
  11    H       -0.191422969     0.661262946     1.085734818
  12    H       -1.576693390    -1.571124608     1.447558863
  13    H       -2.536554071    -2.212499134     0.077871551
  14    H       -2.701035844     0.744975530     1.158686217
  15    H       -3.662605059     0.111724613    -0.213392881
  16    H        0.732703864    -1.596043970     0.148035584
  17    H        1.204475490    -0.729928875    -1.321736732
  18    H        2.137558894     0.144399836     1.514538996
  19    H        4.359995835     0.136078704     0.420571277
  20    H        3.624523993    -0.453645108    -1.139903944
  21    H       -0.307475049     3.314370366    -0.785071934


           Empirical Formula: C7 H12 O2  =    21 atoms



      MOLECULAR POINT GROUP   :   C1  


                  EIGENVALUES  
 -40.58348 -35.82032 -34.80508 -32.71051 -28.06220 -23.34927 -22.17975 -20.61184
 -19.66146 -18.07278 -17.33980 -16.84072 -16.56560 -15.64089 -14.96359 -14.42703
 -13.91559 -13.76662 -12.70053 -12.62199 -12.33636 -12.14505 -11.78280 -11.48010
 -11.02337 -10.17069   1.03502   1.23906   2.79240   2.96567   3.23039   3.43327
   3.49410   3.56032   3.73996   3.90599   3.95478   4.10866   4.29863   4.35372
   4.54207   4.74975   4.86583   4.87886   4.91384   5.29134   5.55415   5.81555


              NET ATOMIC CHARGES AND DIPOLE CONTRIBUTIONS

  ATOM NO.   TYPE          CHARGE      No. of ELECS.   s-Pop       p-Pop       
    1          O          -0.145002        6.1450     1.90581     4.23919
    2          O          -0.210736        6.2107     1.86503     4.34570
    3          C          -0.172742        4.1727     1.18574     2.98701
    4          C           0.098304        3.9017     1.17242     2.72928
    5          C          -0.149124        4.1491     1.16029     2.98883
    6          C          -0.136576        4.1366     1.16006     2.97652
    7          C          -0.082450        4.0824     1.15458     2.92787
    8          C          -0.136100        4.1361     1.19404     2.94206
    9          C          -0.159441        4.1594     1.18223     2.97721
   10          H           0.103690        0.8963     0.89631
   11          H           0.078665        0.9213     0.92134
   12          H           0.078765        0.9212     0.92124
   13          H           0.077677        0.9223     0.92232
   14          H           0.084265        0.9157     0.91574
   15          H           0.077465        0.9225     0.92253
   16          H           0.068513        0.9315     0.93149
   17          H           0.066513        0.9335     0.93349
   18          H           0.098872        0.9011     0.90113
   19          H           0.079641        0.9204     0.92036
   20          H           0.081818        0.9182     0.91818
   21          H           0.197982        0.8020     0.80202
 DIPOLE           X         Y         Z       TOTAL
 POINT-CHG.    -0.061    -0.684     0.233     0.725
 HYBRID         0.018     0.221    -0.306     0.378
 SUM           -0.042    -0.463    -0.073     0.471


          ATOMIC ORBITAL ELECTRON POPULATIONS

     Atom    s        px        py        pz   
    1  O   1.90581   1.74116   1.11930   1.37872
    2  O   1.86503   1.79279   1.17563   1.37728
    3  C   1.18574   0.95685   1.03974   0.99042
    4  C   1.17242   0.91764   0.85282   0.95882
    5  C   1.16029   1.04124   0.93691   1.01069
    6  C   1.16006   0.96335   0.98532   1.02784
    7  C   1.15458   0.93801   0.98077   1.00909
    8  C   1.19404   0.95139   1.00017   0.99051
    9  C   1.18223   0.96562   1.01004   1.00155
   10  H   0.89631
   11  H   0.92134
   12  H   0.92124
   13  H   0.92232
   14  H   0.91574
   15  H   0.92253
   16  H   0.93149
   17  H   0.93349
   18  H   0.90113
   19  H   0.92036
   20  H   0.91818
   21  H   0.80202
 *******************************************************************************
 ** Site#: 14399        For non-commercial use only    Version 18.184L 64BITS **
 *******************************************************************************
 ** Cite this program as: MOPAC2016, Version: 18.184L, James J. P. Stewart,   **
 ** Stewart Computational Chemistry, web: HTTP://OpenMOPAC.net. Days left:  20**
 *******************************************************************************
 **                                                                           **
 **                                MOPAC2016                                  **
 **                                                                           **
 *******************************************************************************

                              PM3 CALCULATION RESULTS

 *******************************************************************************
 *  CALCULATION DONE:                                Thu Jun 13 20:11:12 2019  *
 *  PM3        - The PM3 Hamiltonian to be used
 *  OLDGEO     - PREVIOUS GEOMETRY TO BE USED
 *  PRECISE    - CRITERIA TO BE INCREASED BY 100 TIMES
 *  NOSYM      - POINT-GROUP SYMMETRY SET TO C1
 *  THREADS=1  - MULTI-THREADING NOT USED
 *  T=         - A TIME OF 172800.0 SECONDS REQUESTED
 *  DUMP=N     - RESTART FILE WRITTEN EVERY  7200.000 SECONDS
 *  THERMO     - THERMODYNAMIC QUANTITIES TO BE CALCULATED
 *******************************************************************************
oldgeo thermo nosym precise THREADS=1  pm3
 InChI=1S/C7H12O2/c1-2-3-7(9-8)6-4-5-6/h2,6-8H,1,3-5H2

   ATOM   CHEMICAL          X               Y               Z
  NUMBER   SYMBOL      (ANGSTROMS)     (ANGSTROMS)     (ANGSTROMS)
 
     1       O          0.10046883  *   1.50973773  *  -0.80305385  *
     2       O         -0.51916831  *   2.70094316  *  -0.10096961  *
     3       C         -1.45270800  *  -0.29428478  *  -0.41150340  *
     4       C         -0.14845999  *   0.37149846  *   0.00505775  *
     5       C         -2.07033740  *  -1.31691886  *   0.50212784  *
     6       C         -2.71895031  *   0.02143776  *   0.33509765  *
     7       C          1.02520977  *  -0.59653917  *  -0.23535360  *
     8       C          2.26257274  *  -0.16701153  *   0.46999688  *
     9       C          3.45887176  *  -0.16260069  *  -0.10607741  *
    10       H         -1.51311468  *  -0.45462942  *  -1.50381277  *
    11       H         -0.19142297  *   0.66126295  *   1.08573482  *
    12       H         -1.57669339  *  -1.57112461  *   1.44755886  *
    13       H         -2.53655407  *  -2.21249913  *   0.07787155  *
    14       H         -2.70103584  *   0.74497553  *   1.15868622  *
    15       H         -3.66260506  *   0.11172461  *  -0.21339288  *
    16       H          0.73270386  *  -1.59604397  *   0.14803558  *
    17       H          1.20447549  *  -0.72992887  *  -1.32173673  *
    18       H          2.13755889  *   0.14439984  *   1.51453900  *
    19       H          4.35999584  *   0.13607870  *   0.42057128  *
    20       H          3.62452399  *  -0.45364511  *  -1.13990394  *
    21       H         -0.30747505  *   3.31437037  *  -0.78507193  *
 


          CARTESIAN COORDINATES 

    NO.       ATOM           X           Y           Z

     1         O          0.1005      1.5097     -0.8031
     2         O         -0.5192      2.7009     -0.1010
     3         C         -1.4527     -0.2943     -0.4115
     4         C         -0.1485      0.3715      0.0051
     5         C         -2.0703     -1.3169      0.5021
     6         C         -2.7190      0.0214      0.3351
     7         C          1.0252     -0.5965     -0.2354
     8         C          2.2626     -0.1670      0.4700
     9         C          3.4589     -0.1626     -0.1061
    10         H         -1.5131     -0.4546     -1.5038
    11         H         -0.1914      0.6613      1.0857
    12         H         -1.5767     -1.5711      1.4476
    13         H         -2.5366     -2.2125      0.0779
    14         H         -2.7010      0.7450      1.1587
    15         H         -3.6626      0.1117     -0.2134
    16         H          0.7327     -1.5960      0.1480
    17         H          1.2045     -0.7299     -1.3217
    18         H          2.1376      0.1444      1.5145
    19         H          4.3600      0.1361      0.4206
    20         H          3.6245     -0.4536     -1.1399
    21         H         -0.3075      3.3144     -0.7851

  H: (PM3): J. J. P. STEWART, J. COMP. CHEM. 10, 209 (1989).
  C: (PM3): J. J. P. STEWART, J. COMP. CHEM. 10, 209 (1989).
  O: (PM3): J. J. P. STEWART, J. COMP. CHEM. 10, 209 (1989).

           Empirical Formula: C7 H12 O2  =    21 atoms



      MOLECULAR POINT GROUP   :   C1  


      RHF CALCULATION, NO. OF DOUBLY OCCUPIED LEVELS = 26



          HEAT OF FORMATION =       1.868674 KCALS/MOLE


          CARTESIAN COORDINATE DERIVATIVES

   NUMBER  ATOM         X            Y            Z

     1       O      0.002757    -0.000176     0.006148
     2       O     -0.002193    -0.013738    -0.013058
     3       C     -0.000847     0.000528     0.001334
     4       C      0.000142    -0.000386    -0.002997
     5       C      0.002108     0.001685    -0.006033
     6       C     -0.000163     0.002435    -0.001173
     7       C     -0.002038    -0.000816     0.000413
     8       C     -0.001015    -0.011779     0.007028
     9       C      0.001871     0.009102    -0.003389
    10       H      0.001830     0.000371     0.001841
    11       H     -0.004205    -0.006366     0.004332
    12       H      0.003897     0.004307    -0.003335
    13       H     -0.001753    -0.005217     0.002466
    14       H     -0.001985    -0.001085     0.000624
    15       H      0.002417     0.002435    -0.001558
    16       H     -0.001669     0.001082    -0.000014
    17       H     -0.001453    -0.004331     0.002712
    18       H     -0.004885     0.001670    -0.007251
    19       H      0.002665    -0.004923    -0.000053
    20       H      0.006009     0.009278    -0.000678
    21       H     -0.001488     0.015923     0.012641
 


          GRADIENT NORM =   0.04037


          TIME FOR SCF CALCULATION =    0.02

          TIME FOR DERIVATIVES     =    0.02

          MOLECULAR WEIGHT =  128.17



          ROTATIONAL CONSTANTS IN CM(-1)

          A =    0.07489643   B =    0.03456283   C =    0.02565067



           PRINCIPAL MOMENTS OF INERTIA IN UNITS OF 10**(-40)*GRAM-CM**2

          A =      373.7531   B =      809.9097   C =     1091.3079


          ORIENTATION OF MOLECULE IN FORCE CALCULATION

    NO.       ATOM         X         Y         Z

     1          O       0.5459   -0.9933   -0.8558
     2          O       2.0611   -0.9933   -0.8558
     3          C      -0.0558    1.3430   -0.8558
     4          C       0.1273    0.0788   -0.0275
     5          C      -0.1838    2.6634   -0.1473
     6          C       1.0562    2.3525   -0.9254
     7          C      -1.2251   -0.3426    0.5773
     8          C      -1.0666   -1.3379    1.6716
     9          C      -1.8193   -2.4270    1.7732
    10          H      -0.6632    1.1674   -1.7628
    11          H       0.8734    0.2568    0.7881
    12          H      -0.1474    2.6993    0.9480
    13          H      -0.8938    3.4109   -0.5167
    14          H       1.9993    2.1628   -0.3994
    15          H       1.2590    2.8704   -1.8688
    16          H      -1.7136    0.5621    0.9950
    17          H      -1.9067   -0.7164   -0.2138
    18          H      -0.2867   -1.1193    2.4116
    19          H      -1.7090   -3.1400    2.5844
    20          H      -2.5949   -2.6854    1.0572
    21          H       2.1398   -1.7021   -1.4727


    FIRST DERIVATIVES WILL BE USED IN THE CALCULATION OF SECOND DERIVATIVES

          ESTIMATED TIME TO COMPLETE CALCULATION =        9.84 SECONDS

    FOR POINT-GROUP C1   THERE ARE   1 UNIQUE SYMMETRY FUNCTIONS.

 STEP:   1 TIME =     0.05 SECS, INTEGRAL =      0.05 TIME LEFT: 172799.91
 STEP:   2 TIME =     0.05 SECS, INTEGRAL =      0.10 TIME LEFT: 172799.86
 STEP:   3 TIME =     0.04 SECS, INTEGRAL =      0.14 TIME LEFT: 172799.82
 STEP:   4 TIME =     0.04 SECS, INTEGRAL =      0.18 TIME LEFT: 172799.78
 STEP:   5 TIME =     0.04 SECS, INTEGRAL =      0.22 TIME LEFT: 172799.74
 STEP:   6 TIME =     0.04 SECS, INTEGRAL =      0.26 TIME LEFT: 172799.70
 STEP:   7 TIME =     0.04 SECS, INTEGRAL =      0.30 TIME LEFT: 172799.66
 STEP:   8 TIME =     0.04 SECS, INTEGRAL =      0.34 TIME LEFT: 172799.62
 STEP:   9 TIME =     0.04 SECS, INTEGRAL =      0.38 TIME LEFT: 172799.59
 STEP:  10 TIME =     0.04 SECS, INTEGRAL =      0.41 TIME LEFT: 172799.55
 STEP:  11 TIME =     0.05 SECS, INTEGRAL =      0.46 TIME LEFT: 172799.50
 STEP:  12 TIME =     0.04 SECS, INTEGRAL =      0.50 TIME LEFT: 172799.46
 STEP:  13 TIME =     0.04 SECS, INTEGRAL =      0.54 TIME LEFT: 172799.42
 STEP:  14 TIME =     0.04 SECS, INTEGRAL =      0.58 TIME LEFT: 172799.38
 STEP:  15 TIME =     0.04 SECS, INTEGRAL =      0.62 TIME LEFT: 172799.34
 STEP:  16 TIME =     0.04 SECS, INTEGRAL =      0.66 TIME LEFT: 172799.30
 STEP:  17 TIME =     0.04 SECS, INTEGRAL =      0.70 TIME LEFT: 172799.27
 STEP:  18 TIME =     0.04 SECS, INTEGRAL =      0.73 TIME LEFT: 172799.23
 STEP:  19 TIME =     0.04 SECS, INTEGRAL =      0.77 TIME LEFT: 172799.19
 STEP:  20 TIME =     0.04 SECS, INTEGRAL =      0.81 TIME LEFT: 172799.15
 STEP:  21 TIME =     0.06 SECS, INTEGRAL =      0.88 TIME LEFT: 172799.09
 STEP:  22 TIME =     0.05 SECS, INTEGRAL =      0.92 TIME LEFT: 172799.04
 STEP:  23 TIME =     0.04 SECS, INTEGRAL =      0.96 TIME LEFT: 172799.00
 STEP:  24 TIME =     0.04 SECS, INTEGRAL =      1.00 TIME LEFT: 172798.96
 STEP:  25 TIME =     0.04 SECS, INTEGRAL =      1.04 TIME LEFT: 172798.92
 STEP:  26 TIME =     0.04 SECS, INTEGRAL =      1.08 TIME LEFT: 172798.88
 STEP:  27 TIME =     0.04 SECS, INTEGRAL =      1.12 TIME LEFT: 172798.84
 STEP:  28 TIME =     0.04 SECS, INTEGRAL =      1.16 TIME LEFT: 172798.80
 STEP:  29 TIME =     0.04 SECS, INTEGRAL =      1.20 TIME LEFT: 172798.77
 STEP:  30 TIME =     0.03 SECS, INTEGRAL =      1.23 TIME LEFT: 172798.73
 STEP:  31 TIME =     0.04 SECS, INTEGRAL =      1.27 TIME LEFT: 172798.70
 STEP:  32 TIME =     0.05 SECS, INTEGRAL =      1.31 TIME LEFT: 172798.65
 STEP:  33 TIME =     0.04 SECS, INTEGRAL =      1.35 TIME LEFT: 172798.61
 STEP:  34 TIME =     0.05 SECS, INTEGRAL =      1.40 TIME LEFT: 172798.56
 STEP:  35 TIME =     0.05 SECS, INTEGRAL =      1.45 TIME LEFT: 172798.52
 STEP:  36 TIME =     0.03 SECS, INTEGRAL =      1.48 TIME LEFT: 172798.48
 STEP:  37 TIME =     0.04 SECS, INTEGRAL =      1.52 TIME LEFT: 172798.45
 STEP:  38 TIME =     0.04 SECS, INTEGRAL =      1.55 TIME LEFT: 172798.41
 STEP:  39 TIME =     0.04 SECS, INTEGRAL =      1.59 TIME LEFT: 172798.37
 STEP:  40 TIME =     0.04 SECS, INTEGRAL =      1.63 TIME LEFT: 172798.33
 STEP:  41 TIME =     0.04 SECS, INTEGRAL =      1.67 TIME LEFT: 172798.29
 STEP:  42 TIME =     0.05 SECS, INTEGRAL =      1.72 TIME LEFT: 172798.24
 STEP:  43 TIME =     0.04 SECS, INTEGRAL =      1.76 TIME LEFT: 172798.20
 STEP:  44 TIME =     0.04 SECS, INTEGRAL =      1.80 TIME LEFT: 172798.16
 STEP:  45 TIME =     0.04 SECS, INTEGRAL =      1.84 TIME LEFT: 172798.12
 STEP:  46 TIME =     0.03 SECS, INTEGRAL =      1.87 TIME LEFT: 172798.09
 STEP:  47 TIME =     0.04 SECS, INTEGRAL =      1.91 TIME LEFT: 172798.05
 STEP:  48 TIME =     0.04 SECS, INTEGRAL =      1.95 TIME LEFT: 172798.02
 STEP:  49 TIME =     0.04 SECS, INTEGRAL =      1.98 TIME LEFT: 172797.98
 STEP:  50 TIME =     0.04 SECS, INTEGRAL =      2.02 TIME LEFT: 172797.94
 STEP:  51 TIME =     0.04 SECS, INTEGRAL =      2.06 TIME LEFT: 172797.90
 STEP:  52 TIME =     0.04 SECS, INTEGRAL =      2.10 TIME LEFT: 172797.86
 STEP:  53 TIME =     0.05 SECS, INTEGRAL =      2.15 TIME LEFT: 172797.81
 STEP:  54 TIME =     0.04 SECS, INTEGRAL =      2.19 TIME LEFT: 172797.77
 STEP:  55 TIME =     0.04 SECS, INTEGRAL =      2.23 TIME LEFT: 172797.73
 STEP:  56 TIME =     0.04 SECS, INTEGRAL =      2.27 TIME LEFT: 172797.70
 STEP:  57 TIME =     0.04 SECS, INTEGRAL =      2.30 TIME LEFT: 172797.66
 STEP:  58 TIME =     0.04 SECS, INTEGRAL =      2.34 TIME LEFT: 172797.62
 STEP:  59 TIME =     0.04 SECS, INTEGRAL =      2.38 TIME LEFT: 172797.58
 STEP:  60 TIME =     0.04 SECS, INTEGRAL =      2.42 TIME LEFT: 172797.54
 STEP:  61 TIME =     0.04 SECS, INTEGRAL =      2.46 TIME LEFT: 172797.50
 STEP:  62 TIME =     0.05 SECS, INTEGRAL =      2.51 TIME LEFT: 172797.45
 STEP:  63 TIME =     0.04 SECS, INTEGRAL =      2.55 TIME LEFT: 172797.41

(To convert to Hartree/Bohr^2, multiply by (10^(-21) x N x a0^2)/(4.184 x 627.51) =  0.0642)


           FORCE MATRIX IN MILLIDYNES/ANGSTROM


                  O  1       O  2       C  3       C  4       C  5       C  6
 ------------------------------------------------------------------------------
     O    1   7.883620
     O    2   2.578575  10.107333
     C    3   0.893933   0.051207  15.413677
     C    4   4.801526   0.979431   3.928540  14.334300
     C    5   0.066499   0.004422   4.854364   0.511528  15.396511
     C    6   0.015096   0.013744   4.856002   0.536330   5.150908  15.421788
     C    7   0.833653   0.110598   0.635104   3.519983   0.032623   0.049747
     C    8   0.050708   0.006370   0.053470   0.649551   0.004736   0.008926
     C    9   0.007286   0.003513   0.011022   0.044706   0.001498   0.002687
     H   10   0.047481   0.003336   4.573632   0.444523   0.437985   0.440887
     H   11   0.443039   0.082084   0.432320   4.116511   0.020766   0.029243
     H   12   0.007158   0.000821   0.461065   0.023831   4.803351   0.461814
     H   13   0.010745   0.000819   0.460425   0.043553   4.847193   0.460071
     H   14   0.003764   0.003013   0.465961   0.027668   0.461925   4.811147
     H   15   0.002728   0.002204   0.461394   0.043768   0.461588   4.847815
     H   16   0.057031   0.017642   0.055616   0.443292   0.010263   0.003448
     H   17   0.076805   0.004383   0.014049   0.464657   0.002949   0.001528
     H   18   0.004482   0.002126   0.002950   0.034415   0.000684   0.000730
     H   19   0.001738   0.001251   0.003204   0.016703   0.000607   0.000725
     H   20   0.002000   0.001315   0.002256   0.011685   0.000392   0.000565
     H   21   1.077225   8.656066   0.006814   0.145292   0.002679   0.001665


                  C  7       C  8       C  9       H 10       H 11       H 12
 ------------------------------------------------------------------------------
     C    7  14.492133
     C    8   4.973879  18.170413
     C    9   0.843686  11.074409  18.032224
     H   10   0.015571   0.001592   0.001384   5.107531
     H   11   0.423483   0.041718   0.002222   0.037127   4.528271
     H   12   0.007478   0.001667   0.000576   0.039137   0.010612   5.416118
     H   13   0.002507   0.000873   0.000342   0.020360   0.001078   0.496456
     H   14   0.004078   0.001353   0.000491   0.037777   0.022171   0.021378
     H   15   0.008631   0.001798   0.000827   0.021150   0.001664   0.042899
     H   16   4.401742   0.408918   0.032380   0.002683   0.017693   0.008769
     H   17   4.440735   0.459358   0.046647   0.006890   0.039989   0.000550
     H   18   0.432491   4.780862   0.454576   0.000666   0.029227   0.000528
     H   19   0.140760   0.461368   5.108209   0.000276   0.000728   0.000266
     H   20   0.101433   0.490969   5.072481   0.000371   0.000704   0.000190
     H   21   0.019523   0.002308   0.002470   0.002301   0.008407   0.000599


                  H 13       H 14       H 15       H 16       H 17       H 18
 ------------------------------------------------------------------------------
     H   13   5.452611
     H   14   0.042634   5.420780
     H   15   0.020772   0.496191   5.452213
     H   16   0.000792   0.000576   0.000640   4.991221
     H   17   0.000373   0.000548   0.000482   0.559466   5.062175
     H   18   0.000295   0.000307   0.000222   0.016802   0.038501   5.153800
     H   19   0.000184   0.000184   0.000124   0.018149   0.003653   0.081316
     H   20   0.000142   0.000124   0.000148   0.012427   0.028966   0.120402
     H   21   0.000603   0.001101   0.001198   0.003604   0.000926   0.001593


                  H 19       H 20       H 21
 ------------------------------------------
     H   19   5.495838
     H   20   0.424236   5.467404
     H   21   0.000954   0.000844   8.995946


          HEAT OF FORMATION =       1.868674 KCALS/MOLE

          ZERO POINT ENERGY     110.907 KCAL/MOL


           NORMAL COORDINATE ANALYSIS (Total motion = 1 Angstrom)


   Root No.       1         2         3         4         5         6         7         8

                 1 A       2 A       3 A       4 A       5 A       6 A       7 A       8 A   

                  39.6      48.7      56.2      65.4     163.8     172.4     244.8     264.1
  
           1   -0.0155   -0.0131    0.0003   -0.0087   -0.0155   -0.0068    0.0054   -0.0061
           2    0.0123   -0.0062   -0.0223   -0.0136    0.0112    0.0030    0.0265   -0.0257
           3    0.0047   -0.0150    0.0410    0.0351   -0.0059    0.0015   -0.0059    0.0649
           4   -0.0157   -0.0133    0.0007   -0.0089   -0.0164   -0.0071    0.0027   -0.0105
           5   -0.0169   -0.0356    0.0666   -0.0046    0.0161    0.0303   -0.0288   -0.0248
           6    0.0405   -0.0030   -0.0581   -0.0167    0.0186   -0.0224   -0.0209   -0.0100
           7   -0.0166    0.0175    0.0095    0.0138    0.0022   -0.0011    0.0075    0.0132
           8    0.0101    0.0012   -0.0148   -0.0074    0.0060    0.0071    0.0124    0.0139
           9    0.0045   -0.0087    0.0059   -0.0061   -0.0088   -0.0031    0.0304    0.0000
          10   -0.0141    0.0001   -0.0095    0.0123   -0.0240   -0.0119    0.0145   -0.0023
          11    0.0117   -0.0034   -0.0091    0.0079    0.0064    0.0059    0.0078    0.0173
          12    0.0062   -0.0117    0.0185    0.0178   -0.0032   -0.0045    0.0270    0.0084
          13    0.0325   -0.0284    0.0222   -0.0247    0.0070    0.0062   -0.0030    0.0067
          14    0.0168   -0.0060   -0.0068    0.0032    0.0174    0.0092    0.0441    0.0085
          15    0.0008   -0.0035   -0.0070   -0.0331   -0.0306   -0.0055   -0.0301    0.0134
          16    0.0009    0.0080    0.0224    0.0002    0.0307    0.0130    0.0026   -0.0030
          17   -0.0121    0.0156   -0.0292    0.0085   -0.0212   -0.0066    0.0160    0.0329
          18   -0.0381    0.0458    0.0024    0.0045    0.0229    0.0118   -0.0091   -0.0101
          19   -0.0122   -0.0045   -0.0226    0.0154   -0.0161   -0.0081    0.0096   -0.0199
          20    0.0130    0.0094   -0.0036    0.0318   -0.0098   -0.0085   -0.0325   -0.0066
          21    0.0114   -0.0124   -0.0062    0.0408    0.0005   -0.0062   -0.0031   -0.0406
          22   -0.0047   -0.0056   -0.0409    0.0116    0.0193    0.0115   -0.0189    0.0124
          23    0.0049    0.0360    0.0251   -0.0160   -0.0214   -0.0128   -0.0181   -0.0039
          24    0.0030    0.0121    0.0226   -0.0022   -0.0131   -0.0119    0.0161   -0.0430
          25    0.0477    0.0443    0.0151   -0.0051    0.0127    0.0048   -0.0158    0.0164
          26   -0.0354    0.0003   -0.0164   -0.0082   -0.0136   -0.0061   -0.0218   -0.0007
          27   -0.0416   -0.0018   -0.0081   -0.0407    0.0202    0.0112    0.0112    0.0101
          28   -0.0496    0.0569    0.0123    0.0392    0.0284    0.0086    0.0072    0.0092
          29    0.0161    0.0016   -0.0165   -0.0314    0.0100    0.0123   -0.0090    0.0139
          30    0.0255   -0.0352    0.0045   -0.0187   -0.0269   -0.0103    0.0331    0.0029
          31   -0.0124    0.0021   -0.0237    0.0228   -0.0276   -0.0149    0.0107   -0.0242
          32    0.0134   -0.0144   -0.0067    0.0153    0.0057    0.0073   -0.0038    0.0321
          33    0.0043   -0.0111    0.0305    0.0063    0.0015   -0.0016    0.0303    0.0245
          34    0.0691   -0.0746    0.0168   -0.0534   -0.0375   -0.0089   -0.0082    0.0273
          35    0.0224   -0.0139    0.0028    0.0238    0.0319    0.0101    0.1015   -0.0027
          36   -0.0006   -0.0017   -0.0072   -0.0327   -0.0298   -0.0051   -0.0325    0.0133
          37    0.0350   -0.0222    0.0334   -0.0268    0.0404    0.0212   -0.0076   -0.0111
          38    0.0285   -0.0119   -0.0014   -0.0145    0.0295    0.0181    0.0192    0.0024
          39    0.0197   -0.0273   -0.0178   -0.0650   -0.0709   -0.0165   -0.0731    0.0357
          40    0.0144   -0.0116    0.0173   -0.0105    0.0043    0.0035   -0.0005    0.0103
          41   -0.0276    0.0235   -0.0366    0.0327   -0.0401   -0.0191    0.0464    0.0477
          42   -0.0680    0.0838    0.0090    0.0324    0.0640    0.0245    0.0073   -0.0293
          43   -0.0201    0.0411    0.0339    0.0167    0.0838    0.0337    0.0071   -0.0312
          44   -0.0219    0.0260   -0.0407   -0.0052   -0.0367   -0.0102   -0.0287    0.0428
          45   -0.0480    0.0586   -0.0014    0.0005    0.0260    0.0144   -0.0327   -0.0111
          46   -0.0073   -0.0106   -0.0399    0.0588   -0.0209   -0.0161   -0.0332   -0.0640
          47    0.0116    0.0174    0.0032    0.0338   -0.0199   -0.0158   -0.0428   -0.0241
          48    0.0198   -0.0369   -0.0415    0.0873    0.0154   -0.0003   -0.0316   -0.0570
          49   -0.0176    0.0019    0.0001   -0.0187   -0.0209   -0.0068    0.0479    0.0154
          50    0.0197   -0.0116   -0.0284    0.0854   -0.0109   -0.0124   -0.0615   -0.0338
          51    0.0129   -0.0079   -0.0142    0.0449    0.0057   -0.0053   -0.0235   -0.0586
          52   -0.0423   -0.0482   -0.1021    0.0246    0.0591    0.0340   -0.0496    0.0547
          53    0.0334    0.0871    0.0831   -0.0600   -0.0383   -0.0211    0.0023   -0.0087
          54    0.0342    0.0419    0.0700   -0.0031   -0.0497   -0.0330    0.0423   -0.0852
          55    0.0551    0.0451    0.0029   -0.0076    0.0486    0.0226   -0.0436    0.0684
          56   -0.0427    0.0194    0.0039   -0.0451   -0.0189   -0.0061   -0.0021    0.0071
          57   -0.0490    0.0148    0.0115   -0.0728    0.0107    0.0088    0.0325    0.0100
          58    0.0870    0.0880    0.0774   -0.0175   -0.0283   -0.0201    0.0150   -0.0294
          59   -0.0641   -0.0504   -0.0738    0.0356   -0.0014    0.0013   -0.0450   -0.0058
          60   -0.0739   -0.0309   -0.0548   -0.0430    0.0604    0.0357   -0.0138    0.0622
          61   -0.0144   -0.0221    0.0006   -0.0261   -0.0023   -0.0062   -0.0323   -0.0428
          62   -0.0217   -0.0426    0.0610   -0.0180    0.0897   -0.3526   -0.0339   -0.0020
          63    0.0462    0.0038   -0.0517   -0.0035   -0.0641    0.4176   -0.0201   -0.0409


   Root No.       9        10        11        12        13        14        15        16

                 9 A      10 A      11 A      12 A      13 A      14 A      15 A      16 A   

                 365.2     414.3     426.5     473.9     534.5     626.7     796.2     813.7
  
           1   -0.0204    0.0222   -0.0060   -0.0024   -0.0049    0.0046    0.1389   -0.0021
           2   -0.0139    0.0111   -0.0052    0.0790   -0.0072   -0.0122    0.0044    0.0040
           3   -0.0203   -0.0106   -0.0217    0.0013    0.0047   -0.0031   -0.0010    0.0051
           4   -0.0278    0.0452   -0.0120   -0.0186   -0.0344   -0.0200   -0.1053    0.0011
           5    0.0293   -0.0181    0.0126   -0.0040    0.0119    0.0059   -0.0098   -0.0004
           6    0.0210   -0.0166    0.0075   -0.0062    0.0106    0.0051   -0.0089    0.0000
           7    0.0584   -0.0016    0.0156    0.0212   -0.0150   -0.0113   -0.0021   -0.0006
           8   -0.0027   -0.0015   -0.0251   -0.0299   -0.0008    0.0070   -0.0025    0.0024
           9   -0.0089    0.0069    0.0567   -0.0223    0.0061   -0.0100   -0.0024   -0.0012
          10    0.0024   -0.0044    0.0105    0.0152    0.0385    0.0315   -0.0161   -0.0049
          11   -0.0150   -0.0063   -0.0306    0.0345    0.0087    0.0051   -0.0122    0.0107
          12   -0.0079    0.0004    0.0279    0.0504    0.0027   -0.0056   -0.0067   -0.0161
          13    0.0107   -0.0020   -0.0078   -0.0059   -0.0060   -0.0007    0.0048   -0.0055
          14   -0.0124    0.0027    0.0036   -0.0652    0.0031    0.0071    0.0062   -0.0030
          15   -0.0036   -0.0001   -0.0047    0.0007    0.0030    0.0008   -0.0004   -0.0020
          16    0.0133   -0.0032   -0.0088    0.0071   -0.0077   -0.0033   -0.0011   -0.0008
          17    0.0561   -0.0021   -0.0108   -0.0199   -0.0200   -0.0030    0.0066   -0.0049
          18   -0.0238   -0.0002   -0.0041   -0.0100    0.0056    0.0025    0.0025   -0.0046
          19   -0.0001   -0.0340   -0.0141   -0.0032    0.0447    0.0295   -0.0269    0.0084
          20   -0.0046    0.0468    0.0112    0.0055    0.0134    0.0036   -0.0175   -0.0003
          21    0.0104    0.0110   -0.0157   -0.0031   -0.0192   -0.0020   -0.0088   -0.0017
          22   -0.0197   -0.0515    0.0114   -0.0054   -0.0064   -0.0376    0.0030   -0.0024
          23   -0.0184   -0.0012    0.0211    0.0012   -0.0099    0.0134    0.0032    0.0000
          24    0.0071   -0.0317   -0.0197   -0.0086   -0.0429    0.0206    0.0119    0.0019
          25   -0.0072    0.0054    0.0146    0.0017   -0.0023   -0.0028    0.0045   -0.0016
          26   -0.0273   -0.0340    0.0227   -0.0026   -0.0067   -0.0157    0.0036   -0.0018
          27    0.0205    0.0346   -0.0128    0.0017    0.0136    0.0019    0.0045    0.0004
          28    0.0788   -0.0046    0.0031    0.0474   -0.0360   -0.0261    0.0062    0.0009
          29   -0.0063   -0.0019   -0.0465   -0.0698   -0.0093    0.0064    0.0077    0.0333
          30   -0.0235    0.0084    0.0659   -0.0319    0.0222    0.0013   -0.0093   -0.0096
          31    0.0076   -0.0101    0.0115   -0.0002    0.0574    0.0530   -0.1106   -0.0027
          32   -0.0383   -0.0172   -0.0748    0.0420    0.0119    0.0159    0.0570    0.0301
          33   -0.0067    0.0068    0.0366    0.0616   -0.0142   -0.0279    0.0668   -0.0214
          34    0.0341    0.0006    0.0097   -0.0111   -0.0131   -0.0118    0.0222    0.1917
          35   -0.0223    0.0121    0.0765   -0.1197    0.0146   -0.0018    0.0108    0.0171
          36   -0.0036   -0.0005   -0.0086    0.0040    0.0025    0.0013   -0.0006   -0.0046
          37   -0.0376   -0.0040   -0.0387   -0.0197    0.0068    0.0182    0.0036   -0.1498
          38   -0.0461   -0.0014   -0.0441   -0.0636    0.0087    0.0245    0.0096   -0.0871
          39    0.0218   -0.0048   -0.0434    0.0346   -0.0110   -0.0009    0.0094    0.1189
          40    0.0356   -0.0027   -0.0002    0.0163   -0.0151   -0.0102   -0.0036   -0.0696
          41    0.1211    0.0017    0.0446   -0.0121   -0.0463   -0.0372    0.0231    0.0816
          42   -0.0429    0.0003   -0.0005   -0.0247    0.0111    0.0041    0.0128    0.1600
          43   -0.0419   -0.0043   -0.0312   -0.0166    0.0118    0.0157    0.0021    0.1304
          44    0.0649   -0.0090   -0.0676    0.0064   -0.0233    0.0154    0.0015   -0.1577
          45   -0.0320   -0.0043   -0.0403   -0.0007    0.0088    0.0173    0.0002   -0.0548
          46    0.0257    0.0600   -0.0162   -0.0571    0.0744   -0.0083    0.0950    0.0102
          47    0.0018    0.0689    0.0179   -0.0129    0.0103    0.0192    0.0104    0.0013
          48    0.0265    0.0764   -0.0330   -0.0283    0.0262   -0.0833    0.0821   -0.0033
          49   -0.0181   -0.0896   -0.0031    0.0474    0.0344    0.0827   -0.1262    0.0055
          50    0.0168    0.1404    0.0072   -0.0203    0.0744   -0.0475    0.0750   -0.0047
          51    0.0169    0.0198   -0.0234   -0.0357   -0.0387   -0.0262    0.0409    0.0028
          52   -0.0315   -0.0214    0.0474    0.0074   -0.0519    0.0020   -0.0008   -0.0077
          53   -0.0105   -0.0052    0.0056   -0.0066    0.0254   -0.0332    0.0338   -0.0005
          54    0.0181   -0.0585   -0.0527   -0.0194   -0.0029   -0.0073    0.0067    0.0076
          55   -0.0006    0.1274    0.0595    0.0314   -0.0443    0.1621   -0.0189    0.0112
          56   -0.0083   -0.0102   -0.0041   -0.0069    0.1052   -0.1199   -0.0379   -0.0078
          57    0.0371    0.0410   -0.0431   -0.0060    0.1191   -0.1111   -0.0304   -0.0064
          58    0.0015   -0.0445   -0.0272   -0.0178    0.0544   -0.1075    0.0070   -0.0080
          59   -0.0562   -0.0954    0.0516   -0.0030   -0.1161    0.0414    0.0561   -0.0018
          60    0.0221    0.1134    0.0222    0.0233   -0.0062    0.0952   -0.0186    0.0074
          61    0.0226    0.0108    0.0166   -0.0627    0.0002    0.0129   -0.0030   -0.0074
          62    0.0278   -0.0229    0.0078   -0.0129    0.0154    0.0075   -0.0109   -0.0000
          63    0.0298   -0.0151    0.0169   -0.0032    0.0103    0.0070   -0.0086   -0.0015


   Root No.      17        18        19        20        21        22        23        24

                17 A      18 A      19 A      20 A      21 A      22 A      23 A      24 A   

                 871.5     876.5     907.6     933.5     946.8     962.6    1001.8    1014.2
  
           1    0.0035   -0.0197   -0.0070    0.0063    0.0068   -0.0017   -0.0041    0.0018
           2   -0.0063    0.0159   -0.0023   -0.0021   -0.0129    0.0029    0.0071   -0.0153
           3   -0.0049    0.0148   -0.0053   -0.0028   -0.0097    0.0003    0.0013   -0.0124
           4   -0.0008    0.0084    0.0032   -0.0013   -0.0014    0.0007    0.0016    0.0017
           5   -0.0003    0.0010    0.0014   -0.0013   -0.0004   -0.0000    0.0003   -0.0005
           6   -0.0003    0.0015    0.0008   -0.0012   -0.0004   -0.0000    0.0001   -0.0006
           7   -0.0028    0.0034   -0.0102   -0.0058    0.0049    0.0158   -0.0221   -0.0053
           8   -0.0006    0.0012   -0.0053   -0.0046    0.0038   -0.0049   -0.0364   -0.0016
           9   -0.0009    0.0056   -0.0138   -0.0003    0.0003   -0.0113   -0.0177    0.0001
          10   -0.0021   -0.0026    0.0157   -0.0168    0.0051   -0.0030   -0.0027    0.0003
          11   -0.0013   -0.0015   -0.0204   -0.0064    0.0142   -0.0022   -0.0033    0.0159
          12    0.0060   -0.0100    0.0342    0.0072   -0.0008    0.0017   -0.0010    0.0091
          13   -0.0053   -0.0028    0.0043    0.0059   -0.0044   -0.0076    0.0301    0.0031
          14    0.0202   -0.0014    0.0132   -0.0029    0.0020    0.0279   -0.0125   -0.0024
          15   -0.0011    0.0037   -0.0195   -0.0062    0.0062    0.0158   -0.0039   -0.0005
          16   -0.0107    0.0018   -0.0119    0.0020   -0.0010   -0.0277   -0.0166    0.0019
          17   -0.0119   -0.0071    0.0197    0.0086   -0.0071   -0.0187    0.0020   -0.0003
          18    0.0086    0.0026   -0.0088    0.0004   -0.0000    0.0048    0.0267    0.0039
          19    0.0036    0.0170   -0.0104    0.0099   -0.0150    0.0042    0.0045   -0.0035
          20    0.0055   -0.0360   -0.0086   -0.0109    0.0329   -0.0023    0.0046   -0.0048
          21    0.0056   -0.0318   -0.0068    0.0231    0.0079   -0.0012   -0.0004    0.0073
          22   -0.0007    0.0017    0.0033    0.0169    0.0179    0.0007   -0.0027    0.0053
          23    0.0008    0.0012   -0.0008   -0.0018   -0.0221    0.0005   -0.0002   -0.0037
          24   -0.0021   -0.0008   -0.0041   -0.0160   -0.0162    0.0022   -0.0033   -0.0133
          25   -0.0010    0.0035    0.0056   -0.0080    0.0145   -0.0018    0.0047   -0.0254
          26    0.0011    0.0040    0.0013    0.0196   -0.0218    0.0017   -0.0055    0.0261
          27   -0.0030    0.0057    0.0043   -0.0383    0.0124   -0.0029    0.0029    0.0227
          28    0.1260    0.0257   -0.0191   -0.0124    0.0188    0.2205   -0.0176    0.0177
          29   -0.0351    0.0075   -0.0598   -0.0043    0.0015   -0.0508   -0.0305   -0.0116
          30   -0.0803   -0.0116    0.0059    0.0046   -0.0089   -0.1398   -0.0224   -0.0133
          31    0.0066   -0.0169    0.0123   -0.0279    0.0181   -0.0190    0.0083    0.0197
          32    0.0002    0.0006   -0.0635   -0.0000    0.0102   -0.0084    0.0630    0.0502
          33   -0.0025    0.0038    0.0459    0.0160   -0.0131    0.0185   -0.0253   -0.0162
          34   -0.0202   -0.0317    0.0709    0.0168   -0.0067    0.1209    0.1183    0.0179
          35   -0.1304   -0.0062   -0.0813   -0.0017    0.0143    0.1371    0.1416    0.0182
          36    0.0084    0.0044   -0.0146   -0.0064    0.0054    0.0074   -0.0141   -0.0019
          37    0.0998    0.0133    0.0348    0.0068   -0.0175   -0.0574    0.0969   -0.0078
          38    0.1581    0.0061    0.0903    0.0010   -0.0148   -0.0155    0.0224   -0.0152
          39    0.0872   -0.0131    0.0880   -0.0000   -0.0030    0.0251   -0.0657   -0.0056
          40    0.0162    0.0226   -0.0668   -0.0038    0.0052   -0.0129   -0.0046    0.0085
          41    0.1225    0.0291   -0.0529    0.0109   -0.0195   -0.1635    0.1730    0.0095
          42    0.0022   -0.0254    0.0720    0.0122   -0.0160   -0.0727    0.0626   -0.0050
          43   -0.0734   -0.0425    0.1003    0.0101   -0.0089   -0.0348   -0.0816   -0.0115
          44   -0.1444   -0.0399    0.0878    0.0374   -0.0225    0.0494    0.0707    0.0079
          45   -0.0812   -0.0267    0.0569    0.0183   -0.0105    0.0402    0.0489    0.0052
          46   -0.0202    0.1511    0.0197   -0.0301   -0.1114    0.0212    0.0066   -0.0981
          47    0.0007   -0.0103   -0.0057   -0.0401   -0.0104    0.0121    0.0175   -0.1201
          48   -0.0124    0.0762    0.0234    0.0380   -0.0140   -0.0126   -0.0255    0.1429
          49    0.0233   -0.0794   -0.0210    0.0106    0.0568   -0.0055    0.0167    0.0455
          50   -0.0135    0.0862    0.0416   -0.0619    0.0074   -0.0072    0.0033    0.0486
          51   -0.0033   -0.0019   -0.0201    0.0459   -0.0443    0.0100   -0.0114   -0.0604
          52    0.0079   -0.0863   -0.0135   -0.1217   -0.1306    0.0040    0.0002   -0.0246
          53   -0.0162    0.1059    0.0408    0.0408    0.1226   -0.0166    0.0116    0.0590
          54   -0.0060    0.0614    0.0016    0.1186    0.0965    0.0040   -0.0101    0.0003
          55    0.0077    0.0370   -0.0217    0.1461   -0.1143    0.0153   -0.0323    0.1245
          56    0.0183   -0.0633   -0.0187    0.1368   -0.0488    0.0109   -0.0090   -0.0869
          57    0.0114   -0.0595   -0.0108    0.0465    0.0052    0.0032    0.0045   -0.0984
          58    0.0016   -0.0490   -0.0005   -0.1236   -0.0784   -0.0013   -0.0048    0.1080
          59   -0.0212    0.0881    0.0478   -0.0827    0.1472   -0.0184    0.0279   -0.0598
          60    0.0028    0.0315   -0.0066    0.1300    0.0487    0.0044    0.0003   -0.0902
          61    0.0093   -0.0272    0.0074    0.0010    0.0216   -0.0040   -0.0102    0.0271
          62    0.0008    0.0004    0.0009   -0.0017    0.0021    0.0001   -0.0005    0.0014
          63   -0.0003   -0.0014    0.0028   -0.0012   -0.0002   -0.0008   -0.0004    0.0013


   Root No.      25        26        27        28        29        30        31        32

                25 A      26 A      27 A      28 A      29 A      30 A      31 A      32 A   

                1049.5    1084.7    1098.3    1130.5    1137.0    1158.2    1169.3    1171.8
  
           1   -0.0011   -0.0002    0.0077   -0.0076   -0.0049    0.0009   -0.0029   -0.0006
           2   -0.0106    0.0112    0.0180   -0.0097   -0.0095   -0.0030   -0.0092    0.0007
           3   -0.0082    0.0086    0.0189   -0.0105   -0.0100    0.0008   -0.0075    0.0015
           4    0.0014   -0.0031   -0.0064    0.0022    0.0017    0.0003    0.0004   -0.0000
           5    0.0000    0.0017    0.0013    0.0006    0.0001   -0.0005    0.0001    0.0000
           6   -0.0000    0.0014    0.0016    0.0002   -0.0001   -0.0001   -0.0001    0.0003
           7   -0.0085    0.0357   -0.0244    0.0282   -0.0269    0.0155   -0.0112   -0.0068
           8    0.0037   -0.0088    0.0057   -0.0074    0.0016    0.0058    0.0298   -0.0093
           9    0.0021   -0.0241    0.0140   -0.0138    0.0102    0.0567   -0.0112    0.0023
          10    0.0079    0.0321    0.0192    0.0269    0.0161   -0.0116    0.0265    0.0021
          11    0.0119    0.0033   -0.0123    0.0178    0.0021    0.0255   -0.0058    0.0113
          12    0.0081   -0.0170   -0.0174    0.0016    0.0177   -0.0312    0.0304   -0.0142
          13    0.0009    0.0021   -0.0046   -0.0143    0.0181   -0.0368   -0.0408   -0.0076
          14   -0.0016    0.0054   -0.0022    0.0227   -0.0086   -0.0286   -0.0337   -0.0287
          15   -0.0021    0.0335   -0.0250   -0.0148    0.0088   -0.0035    0.0058   -0.0100
          16    0.0070   -0.0307    0.0191    0.0020    0.0023    0.0091    0.0218    0.0012
          17    0.0008   -0.0053   -0.0007   -0.0203    0.0240   -0.0163   -0.0086    0.0534
          18    0.0034   -0.0156    0.0160    0.0255   -0.0071   -0.0331   -0.0106    0.0304
          19   -0.0037   -0.0296   -0.0234   -0.0197   -0.0141    0.0081   -0.0207   -0.0031
          20   -0.0248   -0.0102   -0.0063   -0.0064   -0.0098    0.0036   -0.0052    0.0055
          21    0.0026    0.0051    0.0105   -0.0034    0.0065   -0.0028   -0.0053   -0.0116
          22   -0.0290    0.0035    0.0040    0.0061    0.0040   -0.0051    0.0108    0.0029
          23    0.0237   -0.0007   -0.0037   -0.0031   -0.0044    0.0032   -0.0054    0.0011
          24    0.0149    0.0052   -0.0070    0.0050   -0.0070   -0.0024    0.0107    0.0072
          25    0.0254   -0.0043   -0.0056   -0.0048   -0.0054    0.0003   -0.0030    0.0021
          26   -0.0105    0.0030    0.0026    0.0001    0.0006   -0.0038    0.0031    0.0004
          27   -0.0237   -0.0068   -0.0007   -0.0035   -0.0012    0.0019   -0.0042    0.0009
          28    0.0266   -0.0334    0.0318   -0.1114    0.0776    0.0621    0.0104   -0.0328
          29   -0.0020   -0.0017    0.0067   -0.0324   -0.0425   -0.1013    0.2028   -0.1052
          30   -0.0200    0.0206   -0.0240    0.0859   -0.0495    0.0465   -0.0612    0.0392
          31    0.0439    0.0856    0.1873   -0.0209    0.0304   -0.0058    0.0033   -0.0133
          32    0.0625   -0.0479   -0.1158    0.1402    0.1708    0.0815   -0.0052   -0.0247
          33   -0.0356   -0.0576   -0.1562    0.0237   -0.0276   -0.0472    0.0536    0.0062
          34    0.0088   -0.0621    0.0674    0.0609   -0.0585    0.0665    0.0793    0.0972
          35    0.0019    0.0705   -0.0351   -0.0247   -0.0067    0.0129    0.1075    0.0434
          36   -0.0023    0.0304   -0.0248   -0.0136    0.0110   -0.0067   -0.0042   -0.0156
          37   -0.0248    0.0829   -0.0474   -0.0529    0.0012    0.1109    0.0711    0.0822
          38   -0.0239    0.0409   -0.0130    0.0271   -0.0471    0.1188    0.0665    0.0494
          39    0.0023   -0.0552    0.0394    0.0752   -0.0405    0.0168   -0.0108   -0.0236
          40    0.0182   -0.0752    0.0575    0.0452   -0.0135   -0.0262    0.0362    0.0234
          41   -0.0031   -0.0032    0.0046   -0.0027   -0.0288    0.0115    0.0416   -0.1419
          42   -0.0188    0.0704   -0.0551   -0.0477    0.0055    0.0447   -0.0218   -0.0793
          43   -0.0081    0.0538   -0.0518   -0.0874    0.0628    0.0631    0.0108    0.0131
          44   -0.0016   -0.0613    0.0338    0.0096   -0.0436    0.1206   -0.0042   -0.1495
          45   -0.0017   -0.0260    0.0179    0.0209   -0.0301    0.0568   -0.0123   -0.0778
          46   -0.0413   -0.0461   -0.0201    0.0140    0.0495   -0.0033    0.0129   -0.0182
          47   -0.1164   -0.0411    0.0054    0.0189    0.0610   -0.0115    0.0253   -0.0166
          48    0.1537    0.0482   -0.0142   -0.0170   -0.0682    0.0165   -0.0295    0.0180
          49    0.0145   -0.0591   -0.0425   -0.0816   -0.0661   -0.0255   -0.0262   -0.0101
          50    0.0561   -0.0237   -0.0418   -0.0305   -0.0432   -0.0469    0.0454    0.0194
          51   -0.0498    0.0383    0.0436    0.0629    0.0683    0.0504   -0.0240   -0.0129
          52    0.0744    0.0050   -0.0021    0.0006    0.0048    0.0007   -0.0024   -0.0164
          53    0.0031    0.0242    0.0628    0.0138    0.0746    0.0078   -0.0250   -0.0787
          54   -0.0871   -0.0039   -0.0208    0.0054   -0.0315   -0.0106    0.0306    0.0503
          55   -0.0646    0.0165    0.0079    0.0047    0.0014   -0.0161    0.0173   -0.0015
          56    0.0849    0.0179   -0.0022    0.0038   -0.0025   -0.0150    0.0167   -0.0017
          57    0.0706    0.0034   -0.0073   -0.0010   -0.0053   -0.0054    0.0056    0.0007
          58   -0.0718   -0.0088    0.0055   -0.0069    0.0018   -0.0035   -0.0036   -0.0021
          59    0.0673   -0.0214   -0.0109   -0.0227   -0.0106    0.0019   -0.0213   -0.0057
          60    0.0545    0.0069   -0.0086    0.0064   -0.0062    0.0024    0.0064    0.0082
          61    0.0219   -0.0116   -0.0282    0.0289    0.0289    0.0019    0.0301   -0.0033
          62    0.0022    0.0012   -0.0004    0.0033    0.0029    0.0004    0.0024    0.0003
          63    0.0012    0.0007   -0.0008    0.0026    0.0020   -0.0012    0.0030   -0.0006


   Root No.      33        34        35        36        37        38        39        40

                33 A      34 A      35 A      36 A      37 A      38 A      39 A      40 A   

                1176.9    1204.2    1226.7    1262.3    1304.0    1316.5    1374.1    1397.5
  
           1    0.0019   -0.0025    0.0015   -0.0069    0.0061    0.0007   -0.0018   -0.0006
           2    0.0065   -0.0080   -0.0098    0.0083   -0.0140   -0.0078   -0.0004   -0.0013
           3    0.0028   -0.0034   -0.0041    0.0063   -0.0093   -0.0037    0.0007   -0.0010
           4    0.0000    0.0004    0.0003   -0.0002    0.0008   -0.0002   -0.0008    0.0001
           5   -0.0002   -0.0001   -0.0009    0.0016   -0.0023   -0.0011   -0.0002   -0.0003
           6   -0.0004    0.0000   -0.0004    0.0012   -0.0018   -0.0008   -0.0002   -0.0003
           7    0.0222   -0.0197   -0.0106   -0.0064    0.0146    0.0076    0.0022   -0.0054
           8   -0.0059    0.0139    0.0166   -0.0172   -0.0110   -0.0037    0.0099   -0.0285
           9   -0.0103   -0.0101   -0.0101    0.0278    0.0061    0.0135    0.0035    0.0058
          10   -0.0213    0.0228   -0.0011    0.0349   -0.0325    0.0024    0.0145    0.0010
          11   -0.0235    0.0194    0.0310   -0.0087    0.0399    0.0366    0.0077    0.0149
          12    0.0070    0.0025   -0.0027   -0.0326    0.0336   -0.0062   -0.0156   -0.0021
          13   -0.0186    0.0036   -0.0017    0.0161    0.0100    0.0095    0.0002    0.0079
          14   -0.0049   -0.0058   -0.0057   -0.0027   -0.0047   -0.0056   -0.0012   -0.0038
          15   -0.0014    0.0033    0.0078   -0.0205   -0.0100   -0.0109   -0.0009   -0.0084
          16   -0.0022    0.0068    0.0093   -0.0172   -0.0190   -0.0149   -0.0005   -0.0047
          17    0.0124   -0.0039   -0.0047    0.0069    0.0029    0.0005   -0.0019    0.0037
          18    0.0068    0.0018    0.0010    0.0048    0.0049    0.0042    0.0001    0.0020
          19    0.0256    0.0127    0.0006   -0.0002    0.0101   -0.0090   -0.0372   -0.0170
          20   -0.0056    0.0016    0.0018    0.0169    0.0038   -0.0150   -0.0226    0.0168
          21    0.0313    0.0018   -0.0009   -0.0075   -0.0223    0.0143    0.0327   -0.0168
          22   -0.0166   -0.0189    0.0138    0.0094    0.0064   -0.0101   -0.0010    0.0041
          23    0.0032    0.0141   -0.0119   -0.0024    0.0083   -0.0143    0.0127   -0.0066
          24   -0.0255   -0.0292    0.0282    0.0171    0.0045   -0.0014   -0.0199    0.0107
          25   -0.0007    0.0112   -0.0184   -0.0087    0.0005   -0.0034    0.0123   -0.0064
          26   -0.0027    0.0014   -0.0098   -0.0060    0.0004   -0.0050    0.0169   -0.0071
          27    0.0022    0.0108   -0.0137   -0.0055   -0.0011    0.0010    0.0010   -0.0010
          28   -0.0518    0.0135   -0.0075    0.0435   -0.0040    0.0117    0.0062    0.0018
          29    0.0940   -0.0262   -0.1356    0.1430    0.1127    0.0618   -0.0122    0.0419
          30    0.0196   -0.0249    0.0173   -0.0380   -0.0060   -0.0026    0.0054   -0.0142
          31   -0.0223   -0.0635   -0.0419   -0.1030    0.0975   -0.0033   -0.0312    0.0043
          32    0.0253   -0.1232   -0.1389    0.0232   -0.0530   -0.0520   -0.0062   -0.0178
          33   -0.0005    0.1144    0.0693    0.0926   -0.0664    0.0182    0.0287    0.0015
          34    0.0415    0.0037    0.0091    0.0128    0.0248    0.0340    0.0331   -0.0946
          35    0.0328    0.0204    0.0306   -0.0739   -0.0443   -0.0560   -0.0373    0.0899
          36   -0.0047    0.0017    0.0059   -0.0186   -0.0107   -0.0117   -0.0024   -0.0027
          37    0.0390   -0.0094   -0.0028    0.0128    0.0198    0.0207    0.0112   -0.0240
          38    0.0571   -0.0279   -0.0164   -0.0087   -0.0099   -0.0148   -0.0152    0.0422
          39    0.0132   -0.0179   -0.0123   -0.0219   -0.0344   -0.0446   -0.0448    0.1311
          40    0.0082    0.0114    0.0131   -0.0346   -0.0417   -0.0424   -0.0258    0.0423
          41   -0.0639    0.0413    0.0376   -0.0401   -0.0423   -0.0357   -0.0180    0.0285
          42   -0.0390    0.0069    0.0079    0.0169    0.0272    0.0371    0.0359   -0.0664
          43    0.0056   -0.0178   -0.0124   -0.0253   -0.0387   -0.0515   -0.0486    0.0892
          44   -0.0498   -0.0052   -0.0065    0.0126   -0.0016    0.0037    0.0007    0.0026
          45   -0.0262   -0.0047   -0.0048    0.0080    0.0001    0.0007   -0.0066    0.0178
          46    0.0165   -0.0191    0.0241   -0.0695    0.0425    0.0354    0.1489    0.1015
          47    0.0019   -0.0516    0.0313   -0.0394    0.0056    0.0401    0.0592    0.0189
          48    0.0016    0.0745   -0.0337    0.0334    0.0132   -0.0509    0.0439    0.0894
          49    0.0555   -0.0844    0.0142   -0.0158   -0.0430    0.0057    0.1546    0.0754
          50   -0.0792   -0.1603    0.0395    0.0052   -0.0339    0.0196   -0.0633   -0.1122
          51    0.0417    0.1660   -0.0284    0.0122    0.0430   -0.0151   -0.0982   -0.0213
          52    0.0363   -0.0278    0.0781    0.0351    0.0085   -0.0095   -0.0211    0.0077
          53    0.1801   -0.0411    0.1876    0.0666    0.0016   -0.0009   -0.0300    0.0082
          54   -0.1319   -0.0058   -0.0931   -0.0277    0.0049   -0.0072    0.0125    0.0034
          55   -0.0103   -0.0355    0.0056   -0.0263   -0.0752    0.1286   -0.0811    0.0334
          56   -0.0093   -0.0326    0.0086   -0.0204   -0.0607    0.1004   -0.0536    0.0238
          57   -0.0054   -0.0143    0.0015   -0.0122   -0.0388    0.0664   -0.0451    0.0196
          58    0.0100    0.0191   -0.0357   -0.0260   -0.0286    0.0415   -0.0077    0.0029
          59    0.0352    0.0498   -0.0766   -0.0672   -0.0908    0.1512   -0.0714    0.0252
          60   -0.0249   -0.0175    0.0272    0.0322    0.0574   -0.0945    0.0502   -0.0213
          61   -0.0203    0.0216    0.0224   -0.0225    0.0472    0.0348    0.0148    0.0112
          62   -0.0026    0.0020    0.0014   -0.0001    0.0016    0.0023    0.0014    0.0009
          63   -0.0015    0.0018    0.0008   -0.0001    0.0016    0.0018    0.0011    0.0006


   Root No.      41        42        43        44        45        46        47        48

                41 A      42 A      43 A      44 A      45 A      46 A      47 A      48 A   

                1401.5    1407.6    1484.2    1589.1    1860.5    2826.6    2943.5    3010.6
  
           1   -0.0000   -0.0003   -0.0212    0.0012    0.0001    0.0007   -0.0005   -0.0002
           2    0.0001   -0.0021    0.0423   -0.0008   -0.0002    0.0011    0.0001    0.0003
           3   -0.0002   -0.0004    0.0336    0.0011    0.0000    0.0010    0.0003   -0.0001
           4    0.0002   -0.0006   -0.0226   -0.0004   -0.0000    0.0002    0.0000    0.0000
           5    0.0001   -0.0010   -0.0282   -0.0000   -0.0000   -0.0006    0.0000   -0.0000
           6    0.0001   -0.0007   -0.0248    0.0000    0.0000   -0.0005    0.0000   -0.0000
           7    0.0015   -0.0005    0.0008    0.0387    0.0006    0.0007    0.0001   -0.0352
           8   -0.0006   -0.0242    0.0011    0.1348    0.0017    0.0006    0.0001   -0.0121
           9   -0.0021    0.0067   -0.0014    0.0076   -0.0008    0.0009   -0.0002   -0.0520
          10   -0.0011    0.0030   -0.0080   -0.0021   -0.0006   -0.0483   -0.0009   -0.0011
          11   -0.0021    0.0262   -0.0303   -0.0313   -0.0022   -0.0110   -0.0005    0.0003
          12    0.0023   -0.0117   -0.0120    0.0091    0.0021   -0.0516   -0.0014   -0.0014
          13   -0.0132    0.0046   -0.0017    0.0624    0.0002    0.0000    0.0000    0.0010
          14    0.0184    0.0001    0.0024   -0.0736   -0.0002    0.0002    0.0000   -0.0014
          15    0.0155   -0.0047    0.0020   -0.0641   -0.0002   -0.0001   -0.0003    0.0039
          16   -0.0240   -0.0125    0.0028   -0.1037   -0.0004   -0.0002   -0.0000    0.0024
          17   -0.0087    0.0000    0.0009   -0.0322   -0.0002    0.0003    0.0000   -0.0018
          18    0.0083    0.0042   -0.0010    0.0399    0.0001   -0.0002    0.0000    0.0029
          19   -0.0038    0.0064    0.0073    0.0006   -0.0043   -0.0001   -0.0026   -0.0002
          20    0.0089   -0.0313    0.0095    0.0006   -0.0298    0.0015   -0.0435    0.0001
          21   -0.0088    0.0310   -0.0048    0.0016    0.0246    0.0022   -0.0385   -0.0002
          22    0.0018   -0.0063    0.0008   -0.0005    0.1115   -0.0006    0.0014   -0.0001
          23   -0.0030    0.0098   -0.0008   -0.0005    0.1999   -0.0004    0.0000   -0.0000
          24    0.0051   -0.0171    0.0021   -0.0008   -0.0528   -0.0001    0.0016   -0.0000
          25   -0.0031    0.0101   -0.0014    0.0008   -0.1125    0.0001    0.0000    0.0000
          26   -0.0035    0.0120   -0.0022    0.0012   -0.1660    0.0001    0.0001    0.0000
          27   -0.0004    0.0012    0.0001   -0.0000    0.0185    0.0000   -0.0004    0.0000
          28   -0.0050    0.0016   -0.0026    0.0261   -0.0001   -0.0110   -0.0003    0.4261
          29    0.0008    0.0355   -0.0195   -0.0619   -0.0001   -0.0083   -0.0005    0.1279
          30    0.0021   -0.0080    0.0048    0.0629    0.0002   -0.0138    0.0000    0.6334
          31    0.0018   -0.0183   -0.0162    0.0026   -0.0019    0.5749    0.0153    0.0108
          32    0.0021   -0.0458    0.0059    0.0412   -0.0029    0.1213    0.0026   -0.0014
          33   -0.0013    0.0225   -0.0152   -0.0112    0.0052    0.6107    0.0118    0.0132
          34    0.1240   -0.0442    0.0036   -0.0612    0.0000   -0.0007    0.0004    0.0001
          35   -0.1420    0.0351   -0.0030    0.0723    0.0003    0.0013    0.0004    0.0023
          36    0.0093   -0.0018    0.0016   -0.0627   -0.0002    0.0011    0.0033   -0.0313
          37    0.0272   -0.0099   -0.0007    0.0182   -0.0001   -0.0005    0.0002   -0.0232
          38   -0.0502    0.0223   -0.0007   -0.0318   -0.0004    0.0008   -0.0002    0.0207
          39   -0.1795    0.0614   -0.0057    0.0969   -0.0000   -0.0002   -0.0000   -0.0118
          40    0.0919    0.0518   -0.0013   -0.0079   -0.0002    0.0038    0.0001   -0.0254
          41    0.0928    0.0427   -0.0027    0.0574    0.0003    0.0007   -0.0000    0.0087
          42   -0.1484   -0.0868    0.0045   -0.0957   -0.0002    0.0006   -0.0000   -0.0142
          43    0.1877    0.1134   -0.0055    0.0639   -0.0001    0.0003    0.0000    0.0055
          44   -0.0035    0.0026    0.0001   -0.0425   -0.0003    0.0007    0.0001    0.0136
          45    0.0479    0.0277   -0.0030    0.0670    0.0001   -0.0009   -0.0002   -0.0302
          46    0.0287   -0.0543   -0.0214   -0.0086    0.0092    0.0040   -0.2197    0.0006
          47    0.0015    0.0102   -0.0160   -0.0066   -0.0072   -0.0116    0.3957   -0.0015
          48    0.0356   -0.1048    0.0150    0.0046    0.0072   -0.0054    0.1844   -0.0009
          49    0.0223   -0.0459    0.0107    0.0027    0.0144   -0.0108    0.2502    0.0015
          50   -0.0418    0.1153   -0.0040   -0.0015    0.0389   -0.0069    0.1257    0.0014
          51   -0.0027   -0.0044   -0.0027    0.0003   -0.0237   -0.0209    0.2779    0.0009
          52    0.0042   -0.0142    0.0029   -0.0008    0.0680    0.0020   -0.0166    0.0006
          53    0.0048   -0.0148    0.0036   -0.0003   -0.0328   -0.0004   -0.0077    0.0001
          54    0.0007   -0.0029   -0.0010   -0.0007    0.1170    0.0046   -0.0151    0.0006
          55    0.0152   -0.0479    0.0036   -0.0014    0.0574   -0.0000    0.0004    0.0000
          56    0.0104   -0.0321    0.0014   -0.0003   -0.0609    0.0002    0.0014   -0.0001
          57    0.0089   -0.0283    0.0027   -0.0012    0.1266   -0.0003   -0.0019    0.0001
          58    0.0010   -0.0025   -0.0008    0.0006   -0.0825    0.0004    0.0021   -0.0001
          59    0.0113   -0.0350    0.0023   -0.0008    0.0311    0.0002    0.0017   -0.0000
          60   -0.0095    0.0298   -0.0021    0.0010   -0.1310    0.0004    0.0018   -0.0001
          61   -0.0031    0.0285    0.7150   -0.0037   -0.0001    0.0007   -0.0001    0.0001
          62   -0.0002    0.0021    0.0412   -0.0006    0.0001   -0.0012    0.0001   -0.0001
          63   -0.0002    0.0013    0.0398   -0.0003   -0.0002   -0.0011    0.0001   -0.0001


   Root No.      49        50        51        52        53        54        55        56

                49 A      50 A      51 A      52 A      53 A      54 A      55 A      56 A   

                3020.4    3039.9    3081.3    3095.4    3132.7    3133.8    3135.6    3147.5
  
           1   -0.0001   -0.0000    0.0000   -0.0000    0.0000   -0.0000    0.0000   -0.0000
           2   -0.0000   -0.0000   -0.0000    0.0000    0.0000    0.0000    0.0000   -0.0000
           3   -0.0000   -0.0000    0.0000    0.0000   -0.0000    0.0000    0.0000    0.0000
           4    0.0000   -0.0000    0.0000   -0.0000    0.0000    0.0000    0.0000   -0.0000
           5   -0.0000    0.0000    0.0000   -0.0000    0.0000    0.0000    0.0000   -0.0000
           6   -0.0000   -0.0000    0.0000   -0.0000   -0.0000    0.0000   -0.0000    0.0000
[...]
 FREQ.      1262.32         C  4 -- H 11         +16.1% ( 55.4%)      0.1%
 T-DIPOLE    0.1429         C  3 -- H 10         +12.5% ( 48.7%)      2.7%
 TRAVEL      0.0936         C  3 -- C  4         +11.9% ( 47.6%)     22.5%
 RED. MASS   0.6998         O  1 -- C  4          +8.9% ( 41.1%)     65.9%
 EFF. MASS   6.1011

 VIBRATION   37   37A         ATOM PAIR      ENERGY CONTRIBUTION    RADIAL
 FREQ.      1303.96         C  4 -- H 11         +19.2% ( 60.1%)      0.5%
 T-DIPOLE    0.3173         O  1 -- C  4         +15.4% ( 53.9%)     95.8%
 TRAVEL      0.0897         C  4 -- C  7         +14.7% ( 52.6%)     39.2%
 RED. MASS   1.3127         C  3 -- C  4         +13.3% ( 50.0%)     19.6%
 EFF. MASS   6.4291

 VIBRATION   38   38A         ATOM PAIR      ENERGY CONTRIBUTION    RADIAL
 FREQ.      1316.48         C  9 -- H 20         +13.8% ( 43.8%)      0.4%
 T-DIPOLE    0.2585         C  9 -- H 19         +12.5% ( 41.7%)      0.7%
 TRAVEL      0.1123         C  4 -- C  7          +9.8% ( 37.0%)     32.3%
 RED. MASS   0.3804         C  4 -- H 11          +8.6% ( 34.6%)      0.2%
 EFF. MASS   4.0605

 VIBRATION   39   39A         ATOM PAIR      ENERGY CONTRIBUTION    RADIAL
 FREQ.      1374.07         C  7 -- H 17         +24.0% ( 59.8%)      0.6%
 T-DIPOLE    0.0758         C  7 -- H 16         +19.2% ( 53.4%)      1.3%
 TRAVEL      0.1027         C  7 -- C  8         +14.8% ( 46.9%)     64.3%
 RED. MASS   0.8058         C  4 -- C  7         +13.7% ( 45.2%)     89.1%
 EFF. MASS   4.6496

 VIBRATION   40   40A         ATOM PAIR      ENERGY CONTRIBUTION    RADIAL
 FREQ.      1397.51         C  7 -- H 17         +13.2% ( 40.3%)      5.4%
 T-DIPOLE    0.1563         C  7 -- H 16         +13.0% ( 39.9%)      4.5%
 TRAVEL      0.1201         C  5 -- H 13         +10.3% ( 35.5%)      0.9%
 RED. MASS   0.2776         C  5 -- H 12          +8.8% ( 32.9%)      2.5%
 EFF. MASS   3.3451

 VIBRATION   41   41A         ATOM PAIR      ENERGY CONTRIBUTION    RADIAL
 FREQ.      1401.45         C  6 -- H 14         +20.6% ( 45.8%)      2.5%
 T-DIPOLE    0.0975         C  6 -- H 15         +19.7% ( 44.7%)      2.9%
 TRAVEL      0.1529         C  5 -- H 12         +19.3% ( 44.2%)      2.8%
 RED. MASS   0.2471         C  5 -- H 13         +19.1% ( 44.0%)      2.9%
 EFF. MASS   2.0579

 VIBRATION   42   42A         ATOM PAIR      ENERGY CONTRIBUTION    RADIAL
 FREQ.      1407.62         C  7 -- H 17         +13.8% ( 47.2%)      3.2%
 T-DIPOLE    0.3096         C  7 -- H 16         +13.0% ( 45.8%)      3.9%
 TRAVEL      0.0953         C  7 -- C  8         +12.7% ( 45.3%)     99.1%
 RED. MASS   0.6185         C  4 -- C  7         +11.7% ( 43.4%)     17.0%
 EFF. MASS   5.2742

 VIBRATION   43   43A         ATOM PAIR      ENERGY CONTRIBUTION    RADIAL
 FREQ.      1484.18         O  2 -- H 21         +84.3% ( 91.4%)      2.8%
 T-DIPOLE    0.4048         O  1 -- C  4          +5.9% ( 24.3%)     97.7%
 TRAVEL      0.1310         O  1 -- O  2          +5.0% ( 22.1%)      0.0%
 RED. MASS   0.8672         C  4 -- C  7          +1.5% ( 12.4%)     24.8%
 EFF. MASS   2.6489

 VIBRATION   44   44A         ATOM PAIR      ENERGY CONTRIBUTION    RADIAL
 FREQ.      1589.15         C  3 -- C  5         +19.6% ( 73.5%)     97.4%
 T-DIPOLE    0.3329         C  3 -- C  6         +19.6% ( 73.5%)     97.4%
 TRAVEL      0.0608         C  5 -- C  6         +16.5% ( 67.3%)    100.0%
 RED. MASS   3.2809         C  3 -- C  4         +10.0% ( 52.6%)     61.2%
 EFF. MASS  11.4628

 VIBRATION   45   45A         ATOM PAIR      ENERGY CONTRIBUTION    RADIAL
 FREQ.      1860.47         C  8 -- C  9         +45.3% ( 99.3%)     98.9%
 T-DIPOLE    0.1793         C  7 -- C  8         +16.7% ( 60.3%)     54.5%
 TRAVEL      0.0554         C  8 -- H 18         +15.4% ( 57.9%)      3.9%
 RED. MASS   5.3007         C  9 -- H 20         +11.0% ( 48.9%)     11.0%
 EFF. MASS  11.7942         C  9 -- H 19         +10.8% ( 48.4%)     12.8%

 VIBRATION   46   46A         ATOM PAIR      ENERGY CONTRIBUTION    RADIAL
 FREQ.      2826.57         C  4 -- H 11         +96.3% ( 99.9%)    100.0%
 T-DIPOLE    0.0877         O  1 -- C  4          +1.2% ( 11.1%)     12.2%
 TRAVEL      0.1273         C  4 -- C  7          +1.2% ( 11.1%)     11.3%
 RED. MASS   0.9266         C  3 -- C  4          +1.2% ( 11.0%)     11.7%
 EFF. MASS   1.4712

 VIBRATION   47   47A         ATOM PAIR      ENERGY CONTRIBUTION    RADIAL
 FREQ.      2943.51         C  7 -- H 16         +58.2% ( 79.2%)     97.5%
 T-DIPOLE    0.1131         C  7 -- H 17         +39.3% ( 65.0%)     95.3%
 TRAVEL      0.1219         C  7 -- C  8          +1.2% ( 11.2%)      0.0%
 RED. MASS   0.5339         C  4 -- C  7          +1.1% ( 11.1%)      0.1%
 EFF. MASS   1.5415

 VIBRATION   48   48A         ATOM PAIR      ENERGY CONTRIBUTION    RADIAL
 FREQ.      3010.62         C  3 -- H 10         +95.9% ( 99.6%)    100.0%
 T-DIPOLE    0.2451         C  3 -- C  5          +1.1% ( 10.8%)     23.4%
 TRAVEL      0.1242         C  3 -- C  6          +1.1% ( 10.8%)     22.9%
 RED. MASS   0.9160         C  3 -- C  4          +1.1% ( 10.6%)     11.7%
 EFF. MASS   1.4519

 VIBRATION   49   49A         ATOM PAIR      ENERGY CONTRIBUTION    RADIAL
 FREQ.      3020.38         C  7 -- H 17         +58.9% ( 75.7%)     98.5%
 T-DIPOLE    0.1046         C  7 -- H 16         +38.9% ( 61.5%)     96.2%
 TRAVEL      0.1321         C  8 -- H 18          +0.9% (  9.5%)     99.7%
 RED. MASS   0.4921         C  7 -- C  8          +0.7% (  8.0%)     30.5%
 EFF. MASS   1.2784

 VIBRATION   50   50A         ATOM PAIR      ENERGY CONTRIBUTION    RADIAL
 FREQ.      3039.94         C  8 -- H 18         +95.4% ( 99.0%)    100.0%
 T-DIPOLE    0.2474         C  8 -- C  9          +1.4% ( 12.0%)     30.6%
 TRAVEL      0.1217         C  7 -- C  8          +1.3% ( 11.6%)     13.8%
 RED. MASS   0.8947         C  9 -- H 19          +0.9% (  9.5%)     95.4%
 EFF. MASS   1.4987

 VIBRATION   51   51A         ATOM PAIR      ENERGY CONTRIBUTION    RADIAL
 FREQ.      3081.30         C  5 -- H 12         +30.7% ( 57.4%)     98.0%
 T-DIPOLE    0.0296         C  6 -- H 14         +27.7% ( 54.6%)     97.9%
 TRAVEL      0.1187         C  5 -- H 13         +20.1% ( 46.5%)     95.6%
 RED. MASS   0.2697         C  6 -- H 15         +19.1% ( 45.4%)     95.8%
 EFF. MASS   1.5543

 VIBRATION   52   52A         ATOM PAIR      ENERGY CONTRIBUTION    RADIAL
 FREQ.      3095.39         C  6 -- H 14         +31.7% ( 58.0%)     98.4%
 T-DIPOLE    0.2684         C  5 -- H 12         +29.9% ( 56.3%)     98.5%
 TRAVEL      0.1190         C  6 -- H 15         +18.9% ( 44.8%)     95.5%
 RED. MASS   0.2741         C  5 -- H 13         +16.7% ( 42.1%)     95.2%
 EFF. MASS   1.5395

 VIBRATION   53   53A         ATOM PAIR      ENERGY CONTRIBUTION    RADIAL
 FREQ.      3132.67         C  5 -- H 13         +42.5% ( 64.7%)     97.9%
 T-DIPOLE    0.2332         C  5 -- H 12         +26.1% ( 50.7%)     94.2%
 TRAVEL      0.1299         C  6 -- H 15         +17.7% ( 41.7%)     97.7%
 RED. MASS   0.2918         C  6 -- H 14         +12.4% ( 34.9%)     95.0%
 EFF. MASS   1.2765

 VIBRATION   54   54A         ATOM PAIR      ENERGY CONTRIBUTION    RADIAL
 FREQ.      3133.82         C  6 -- H 15         +42.8% ( 65.2%)     97.9%
 T-DIPOLE    0.1677         C  6 -- H 14         +25.2% ( 50.1%)     93.7%
 TRAVEL      0.1269         C  5 -- H 13         +19.6% ( 44.1%)     98.0%
 RED. MASS   0.2968         C  5 -- H 12         +10.2% ( 31.9%)     92.7%
 EFF. MASS   1.3371

 VIBRATION   55   55A         ATOM PAIR      ENERGY CONTRIBUTION    RADIAL
 FREQ.      3135.56         C  9 -- H 20         +91.5% ( 97.4%)     99.9%
 T-DIPOLE    0.1977         C  9 -- H 19          +7.1% ( 27.2%)     72.4%
 TRAVEL      0.1182         C  8 -- C  9          +1.3% ( 11.7%)     21.7%
 RED. MASS   0.8492
 EFF. MASS   1.5397

 VIBRATION   56   56A         ATOM PAIR      ENERGY CONTRIBUTION    RADIAL
 FREQ.      3147.46         C  9 -- H 19         +91.5% ( 96.3%)     99.7%
 T-DIPOLE    0.2583         C  9 -- H 20          +6.1% ( 24.8%)     43.3%
 TRAVEL      0.1210         C  8 -- C  9          +1.6% ( 12.7%)     73.7%
 RED. MASS   0.8143         C  8 -- H 18          +0.8% (  8.7%)     94.5%
 EFF. MASS   1.4642

 VIBRATION   57   57A         ATOM PAIR      ENERGY CONTRIBUTION    RADIAL
 FREQ.      3988.66         O  2 -- H 21         +99.6% (100.0%)     99.9%
 T-DIPOLE    0.3696         O  1 -- O  2          +0.4% (  6.0%)      0.0%
 TRAVEL      0.1107
 RED. MASS   0.9479
 EFF. MASS   1.3795

      SYMMETRY NUMBER FOR POINT-GROUP C1  =  1


          SYSTEM IS A GROUND STATE



 InChI=1S/C7H12O2/c1-2-3-7(9-8)6-4-5-6/h2,6-8H,1,3-5H2


          MOLECULE IS NOT LINEAR

          THERE ARE 57 GENUINE VIBRATIONS IN THIS SYSTEM
          THIS THERMODYNAMICS CALCULATION IS LIMITED TO
          MOLECULES WHICH HAVE NO INTERNAL ROTATIONS




                    CALCULATED THERMODYNAMIC PROPERTIES
                                          *
   TEMP. (K)   PARTITION FUNCTION   H.O.F.    ENTHALPY  HEAT CAPACITY ENTROPY
                                   KCAL/MOL   CAL/MOLE    CAL/K/MOL  CAL/K/MOL


 298.00  VIB.     0.6742D+04                  4927.3661    31.6551    34.0541
         ROT.     0.6484D+06                   888.2813     2.9808    29.5740
         INT.     0.4371D+10                  5815.6474    34.6359    63.6282
         TRA.     0.1403D+28                  1480.4688     4.9680    40.4556
         TOT.                        1.869    7296.1163    39.6040   104.0837

 200.00  VIB.     0.4095D+03                  2352.0301    21.2107    23.7129
         ROT.     0.3565D+06                   596.1620     2.9808    28.3854
         INT.     0.1460D+09                  2948.1921    24.1915    52.0983
         TRA.     0.7713D+27                   993.6033     4.9680    38.4745
         TOT.                       -1.486    3941.7953    29.1595    90.5727

 210.00  VIB.     0.5497D+03                  2568.9594    22.1795    24.7711
         ROT.     0.3836D+06                   625.9700     2.9808    28.5308
         INT.     0.2108D+09                  3194.9294    25.1603    53.3019
         TRA.     0.8299D+27                  1043.2834     4.9680    38.7168
         TOT.                       -1.189    4238.2128    30.1284    92.0188

 220.00  VIB.     0.7360D+03                  2795.7081    23.1746    25.8258
         ROT.     0.4113D+06                   655.7781     2.9808    28.6695
         INT.     0.3027D+09                  3451.4863    26.1554    54.4953
         TRA.     0.8899D+27                  1092.9636     4.9680    38.9480
         TOT.                       -0.883    4544.4499    31.1234    93.4432

 230.00  VIB.     0.9832D+03                  3032.5363    24.1953    26.8784
         ROT.     0.4396D+06                   685.5862     2.9808    28.8020
         INT.     0.4322D+09                  3718.1226    27.1761    55.6803
         TRA.     0.9512D+27                  1142.6437     4.9680    39.1688
         TOT.                       -0.567    4860.7663    32.1441    94.8491

 240.00  VIB.     0.1311D+04                  3279.6948    25.2403    27.9301
         ROT.     0.4686D+06                   715.3943     2.9808    28.9288
         INT.     0.6142D+09                  3995.0892    28.2212    56.8589
         TRA.     0.1014D+28                  1192.3239     4.9680    39.3802
         TOT.                       -0.240    5187.4131    33.1892    96.2392

 250.00  VIB.     0.1744D+04                  3537.4178    26.3078    28.9820
         ROT.     0.4982D+06                   745.2024     2.9808    29.0505
         INT.     0.8689D+09                  4282.6202    29.2886    58.0325
         TRA.     0.1078D+28                  1242.0041     4.9680    39.5830
         TOT.                        0.097    5524.6243    34.2566    97.6156

 260.00  VIB.     0.2317D+04                  3805.9167    27.3951    30.0350
         ROT.     0.5284D+06                   775.0105     2.9808    29.1674
         INT.     0.1224D+10                  4580.9272    30.3759    59.2024
         TRA.     0.1143D+28                  1291.6842     4.9680    39.7779
         TOT.                        0.445    5872.6114    35.3439    98.9803

 270.00  VIB.     0.3074D+04                  4085.3759    28.4994    31.0895
         ROT.     0.5592D+06                   804.8186     2.9808    29.2799
         INT.     0.1719D+10                  4890.1946    31.4802    60.3694
         TRA.     0.1210D+28                  1341.3644     4.9680    39.9654
         TOT.                        0.804    6231.5590    36.4482   100.3348

 280.00  VIB.     0.4073D+04                  4375.9502    29.6175    32.1461
         ROT.     0.5905D+06                   834.6267     2.9808    29.3883
         INT.     0.2405D+10                  5210.5769    32.5984    61.5345
         TRA.     0.1278D+28                  1391.0445     4.9680    40.1461
         TOT.                        1.174    6601.6215    37.5664   101.6805

 290.00  VIB.     0.5391D+04                  4677.7625    30.7464    33.2051
         ROT.     0.6224D+06                   864.4348     2.9808    29.4929
         INT.     0.3355D+10                  5542.1973    33.7273    62.6981
         TRA.     0.1347D+28                  1440.7247     4.9680    40.3204
         TOT.                        1.555    6982.9220    38.6953   103.0185

 300.00  VIB.     0.7129D+04                  4990.9041    31.8829    34.2666
         ROT.     0.6549D+06                   894.2429     2.9808    29.5940
         INT.     0.4669D+10                  5885.1470    34.8637    63.8606
         TRA.     0.1417D+28                  1490.4049     4.9680    40.4888
         TOT.                        1.948    7375.5519    39.8317   104.3494

 310.00  VIB.     0.9420D+04                  5315.4346    33.0237    35.3306
         ROT.     0.6879D+06                   924.0510     2.9808    29.6917
         INT.     0.6480D+10                  6239.4856    36.0045    65.0224
         TRA.     0.1488D+28                  1540.0850     4.9680    40.6517
         TOT.                        2.352    7779.5706    40.9725   105.6741

 320.00  VIB.     0.1244D+05                  5651.3831    34.1660    36.3971
         ROT.     0.7215D+06                   953.8591     2.9808    29.7864
         INT.     0.8975D+10                  6605.2422    37.1468    66.1835
         TRA.     0.1561D+28                  1589.7652     4.9680    40.8094
         TOT.                        2.768    8195.0074    42.1148   106.9930

 330.00  VIB.     0.1642D+05                  5998.7498    35.3069    37.4660
         ROT.     0.7556D+06                   983.6672     2.9808    29.8781
         INT.     0.1240D+11                  6982.4171    38.2877    67.3440
         TRA.     0.1635D+28                  1639.4454     4.9680    40.9623
         TOT.                        3.194    8621.8624    43.2557   108.3064

 340.00  VIB.     0.2166D+05                  6357.5082    36.4439    38.5369
         ROT.     0.7902D+06                  1013.4753     2.9808    29.9671
         INT.     0.1711D+11                  7370.9836    39.4247    68.5039
         TRA.     0.1710D+28                  1689.1255     4.9680    41.1106
         TOT.                        3.633    9060.1091    44.3927   109.6146

 350.00  VIB.     0.2855D+05                  6727.6069    37.5746    39.6096
         ROT.     0.8253D+06                  1043.2834     2.9808    30.0535
         INT.     0.2357D+11                  7770.8904    40.5554    69.6631
         TRA.     0.1786D+28                  1738.8057     4.9680    41.2546
         TOT.                        4.082    9509.6960    45.5234   110.9177

 360.00  VIB.     0.3764D+05                  7108.9722    38.6969    40.6839
         ROT.     0.8609D+06                  1073.0915     2.9808    30.1375
         INT.     0.3240D+11                  8182.0637    41.6777    70.8213
         TRA.     0.1863D+28                  1788.4859     4.9680    41.3946
         TOT.                        4.543    9970.5496    46.6457   112.2159

 370.00  VIB.     0.4960D+05                  7501.5104    39.8089    41.7593
         ROT.     0.8970D+06                  1102.8996     2.9808    30.2191
         INT.     0.4449D+11                  8604.4100    42.7897    71.9784
         TRA.     0.1941D+28                  1838.1660     4.9680    41.5307
         TOT.                        5.015   10442.5761    47.7577   113.5092

 380.00  VIB.     0.6533D+05                  7905.1104    40.9090    42.8356
         ROT.     0.9336D+06                  1132.7077     2.9808    30.2986
         INT.     0.6100D+11                  9037.8181    43.8898    73.1342
         TRA.     0.2020D+28                  1887.8462     4.9680    41.6632
         TOT.                        5.498   10925.6643    48.8578   114.7974

 390.00  VIB.     0.8604D+05                  8319.6456    41.9957    43.9123
         ROT.     0.9707D+06                  1162.5158     2.9808    30.3760
         INT.     0.8353D+11                  9482.1614    44.9765    74.2883
         TRA.     0.2100D+28                  1937.5263     4.9680    41.7923
         TOT.                        5.992   11419.6878    49.9446   116.0806

 400.00  VIB.     0.1133D+06                  8744.9766    43.0680    44.9891
         ROT.     0.1008D+07                  1192.3239     2.9808    30.4515
         INT.     0.1142D+12                  9937.3005    46.0488    75.4406
         TRA.     0.2182D+28                  1987.2065     4.9680    41.9180
         TOT.                        6.497   11924.5070    51.0168   117.3586

   *: NOTE: HEATS OF FORMATION ARE RELATIVE TO THE
            ELEMENTS IN THEIR STANDARD STATE AT 298K
              (=  Standard Enthalpy of Formation).

            Hvib:  Zero-point energy is not included.
                   frequencies of less than zero cm-1 are not included.
            Hrot = (3/2)RT
            Htra = (3/2)RT + pV = (5/2)RT

            Heat capacity is Cp, not Cv

          For more information, see: HTTP://OpenMOPAC.net/Manual/thermochemistry.html


           FORCE CONSTANT IN CARTESIAN COORDINATES (Millidynes/A)

    ATOM   CHEMICAL       X               Y               Z
   NUMBER   SYMBOL  FORCE CONSTANT  FORCE CONSTANT  FORCE CONSTANT

      1       O        4.389314        4.442060        2.665310
      2       O        3.067353        5.521317        4.136553
      3       C        6.618436       10.827525        7.965485
      4       C        8.253211        8.338789        8.193831
      5       C        7.407165        8.018883        9.704528
      6       C       11.249442        5.714074        8.202102
      7       C        7.778213        8.624423        8.634584
      8       C        8.287064       11.631462        7.187819
      9       C        7.851424       11.590216        7.039809
     10       H        1.888568        0.929910        3.543173
     11       H        2.424487        0.812036        2.651115
     12       H        0.636678        0.663767        5.324569
     13       H        2.569102        2.805307        1.285477
     14       H        4.156979        0.718949        1.763645
     15       H        0.916411        1.613684        4.131704
     16       H        1.447375        3.472294        1.325764
     17       H        2.275958        1.247289        2.902063
     18       H        2.758067        0.821622        2.638467
     19       H        0.588885        2.626485        3.258264
     20       H        2.934256        0.871309        2.654759
     21       H        1.300881        5.006871        3.796245

 **********************
 *                    *
 * JOB ENDED NORMALLY *
 *                    *
 **********************



 TOTAL JOB TIME:            12.88 SECONDS

 == MOPAC DONE ==
