 *******************************************************************************
 ** Site#: 14399        For non-commercial use only    Version 18.184L 64BITS **
 *******************************************************************************
 ** Cite this program as: MOPAC2016, Version: 18.184L, James J. P. Stewart,   **
 ** Stewart Computational Chemistry, web: HTTP://OpenMOPAC.net. Days left:  20**
 *******************************************************************************
 **                                                                           **
 **                                MOPAC2016                                  **
 **                                                                           **
 *******************************************************************************

                              PM3 CALCULATION RESULTS

 *******************************************************************************
 *  CALCULATION DONE:                                Thu Jun 13 15:49:09 2019  *
 *  PM3        - The PM3 Hamiltonian to be used
 *  PRECISE    - CRITERIA TO BE INCREASED BY 100 TIMES
 *  NOSYM      - POINT-GROUP SYMMETRY SET TO C1
 *  THREADS=1  - MULTI-THREADING NOT USED
 *  T=         - A TIME OF 172800.0 SECONDS REQUESTED
 *  DUMP=N     - RESTART FILE WRITTEN EVERY  7200.000 SECONDS
 *******************************************************************************
pm3  precise nosym THREADS=1
 InChI=1S/C10H8/c1-2-3-7-10-8-5-4-6-9-10/h1,3-9H

   ATOM   CHEMICAL          X               Y               Z
  NUMBER   SYMBOL      (ANGSTROMS)     (ANGSTROMS)     (ANGSTROMS)
 
     1       C         -0.24460000  *   0.16080000  *  -0.26570000  *
     2       C         -1.03730000  *   0.72440000  *  -1.28100000  *
     3       C         -0.87810000  *  -0.54970000  *   0.77560000  *
     4       C          1.22420000  *   0.36730000  *  -0.31570000  *
     5       C         -2.42610000  *   0.56320000  *  -1.27110000  *
     6       C         -2.26790000  *  -0.70680000  *   0.78020000  *
     7       C         -3.04060000  *  -0.15410000  *  -0.24310000  *
     8       C          2.10630000  *  -0.38060000  *   0.35550000  *
     9       C          3.51690000  *  -0.12310000  *   0.23950000  *
    10       C          4.69910000  *   0.09210000  *   0.14270000  *
    11       H          1.59990000  *   1.14990000  *  -0.96700000  *
    12       H         -0.57990000  *   1.28430000  *  -2.08780000  *
    13       H         -0.31530000  *  -0.96630000  *   1.59870000  *
    14       H         -3.02610000  *   0.99600000  *  -2.06120000  *
    15       H         -2.74720000  *  -1.25260000  *   1.58280000  *
    16       H         -4.11600000  *  -0.27660000  *  -0.23600000  *
    17       H          1.79580000  *  -1.20940000  *   0.97490000  *
    18       H          5.73690000  *   0.28110000  *   0.05780000  *
 


          CARTESIAN COORDINATES 

    NO.       ATOM           X           Y           Z

     1         C         -0.2446      0.1608     -0.2657
     2         C         -1.0373      0.7244     -1.2810
     3         C         -0.8781     -0.5497      0.7756
     4         C          1.2242      0.3673     -0.3157
     5         C         -2.4261      0.5632     -1.2711
     6         C         -2.2679     -0.7068      0.7802
     7         C         -3.0406     -0.1541     -0.2431
     8         C          2.1063     -0.3806      0.3555
     9         C          3.5169     -0.1231      0.2395
    10         C          4.6991      0.0921      0.1427
    11         H          1.5999      1.1499     -0.9670
    12         H         -0.5799      1.2843     -2.0878
    13         H         -0.3153     -0.9663      1.5987
    14         H         -3.0261      0.9960     -2.0612
    15         H         -2.7472     -1.2526      1.5828
    16         H         -4.1160     -0.2766     -0.2360
    17         H          1.7958     -1.2094      0.9749
    18         H          5.7369      0.2811      0.0578

  H: (PM3): J. J. P. STEWART, J. COMP. CHEM. 10, 209 (1989).
  C: (PM3): J. J. P. STEWART, J. COMP. CHEM. 10, 209 (1989).

           Empirical Formula: C10 H8  =    18 atoms



      MOLECULAR POINT GROUP   :   C1  


      RHF CALCULATION, NO. OF DOUBLY OCCUPIED LEVELS = 24


          Geometry optimization using EF

          DIAGONAL MATRIX USED AS START HESSIAN

 CYCLE:     1 TIME:   0.016 TIME LEFT:  2.00D  GRAD.:    80.823 HEAT:  91.12856
 CYCLE:     2 TIME:   0.043 TIME LEFT:  2.00D  GRAD.:    66.692 HEAT:  90.24315
 CYCLE:     3 TIME:   0.027 TIME LEFT:  2.00D  GRAD.:    70.163 HEAT:  90.11624
 CYCLE:     4 TIME:   0.023 TIME LEFT:  2.00D  GRAD.:    28.982 HEAT:  89.65222
 CYCLE:     5 TIME:   0.031 TIME LEFT:  2.00D  GRAD.:    22.891 HEAT:  89.52051
 CYCLE:     6 TIME:   0.020 TIME LEFT:  2.00D  GRAD.:    20.704 HEAT:  89.40431
 CYCLE:     7 TIME:   0.031 TIME LEFT:  2.00D  GRAD.:    18.079 HEAT:  89.33219
 CYCLE:     8 TIME:   0.027 TIME LEFT:  2.00D  GRAD.:    12.549 HEAT:  89.26724
 CYCLE:     9 TIME:   0.023 TIME LEFT:  2.00D  GRAD.:    12.169 HEAT:  89.20990
 CYCLE:    10 TIME:   0.023 TIME LEFT:  2.00D  GRAD.:    18.705 HEAT:  89.16440
 CYCLE:    11 TIME:   0.023 TIME LEFT:  2.00D  GRAD.:    15.598 HEAT:  89.10643
 CYCLE:    12 TIME:   0.020 TIME LEFT:  2.00D  GRAD.:    11.703 HEAT:  89.05919
 CYCLE:    13 TIME:   0.039 TIME LEFT:  2.00D  GRAD.:     6.743 HEAT:  89.03649
 CYCLE:    14 TIME:   0.020 TIME LEFT:  2.00D  GRAD.:     5.838 HEAT:  89.02775
 CYCLE:    15 TIME:   0.023 TIME LEFT:  2.00D  GRAD.:     3.077 HEAT:  89.01551
 CYCLE:    16 TIME:   0.027 TIME LEFT:  2.00D  GRAD.:     5.554 HEAT:  89.01322
 CYCLE:    17 TIME:   0.031 TIME LEFT:  2.00D  GRAD.:     7.123 HEAT:  89.01149
 CYCLE:    18 TIME:   0.020 TIME LEFT:  2.00D  GRAD.:     5.679 HEAT:  89.00573
 CYCLE:    19 TIME:   0.023 TIME LEFT:  2.00D  GRAD.:     4.111 HEAT:  88.99743
 CYCLE:    20 TIME:   0.023 TIME LEFT:  2.00D  GRAD.:     4.553 HEAT:  88.99345
 CYCLE:    21 TIME:   0.023 TIME LEFT:  2.00D  GRAD.:     4.367 HEAT:  88.98622
 CYCLE:    22 TIME:   0.023 TIME LEFT:  2.00D  GRAD.:     3.497 HEAT:  88.97721
 CYCLE:    23 TIME:   0.023 TIME LEFT:  2.00D  GRAD.:     4.716 HEAT:  88.96759
 CYCLE:    24 TIME:   0.023 TIME LEFT:  2.00D  GRAD.:     3.460 HEAT:  88.95221
 CYCLE:    25 TIME:   0.020 TIME LEFT:  2.00D  GRAD.:     2.949 HEAT:  88.94604
 CYCLE:    26 TIME:   0.023 TIME LEFT:  2.00D  GRAD.:     2.469 HEAT:  88.93946
 CYCLE:    27 TIME:   0.023 TIME LEFT:  2.00D  GRAD.:     3.761 HEAT:  88.91902
 CYCLE:    28 TIME:   0.035 TIME LEFT:  2.00D  GRAD.:     4.211 HEAT:  88.90122
 CYCLE:    29 TIME:   0.023 TIME LEFT:  2.00D  GRAD.:     3.671 HEAT:  88.88237
 CYCLE:    30 TIME:   0.020 TIME LEFT:  2.00D  GRAD.:     3.265 HEAT:  88.85961
 CYCLE:    31 TIME:   0.023 TIME LEFT:  2.00D  GRAD.:     4.939 HEAT:  88.82673
 CYCLE:    32 TIME:   0.023 TIME LEFT:  2.00D  GRAD.:     6.127 HEAT:  88.78438
 CYCLE:    33 TIME:   0.023 TIME LEFT:  2.00D  GRAD.:     5.276 HEAT:  88.74170
 CYCLE:    34 TIME:   0.023 TIME LEFT:  2.00D  GRAD.:     4.904 HEAT:  88.72597
 CYCLE:    35 TIME:   0.023 TIME LEFT:  2.00D  GRAD.:     4.973 HEAT:  88.69530
 CYCLE:    36 TIME:   0.020 TIME LEFT:  2.00D  GRAD.:     3.307 HEAT:  88.67497
 CYCLE:    37 TIME:   0.023 TIME LEFT:  2.00D  GRAD.:     2.648 HEAT:  88.64661
 CYCLE:    38 TIME:   0.023 TIME LEFT:  2.00D  GRAD.:     2.167 HEAT:  88.62048
 CYCLE:    39 TIME:   0.023 TIME LEFT:  2.00D  GRAD.:     1.837 HEAT:  88.61206
 CYCLE:    40 TIME:   0.023 TIME LEFT:  2.00D  GRAD.:     1.511 HEAT:  88.60413
 CYCLE:    41 TIME:   0.023 TIME LEFT:  2.00D  GRAD.:     1.407 HEAT:  88.59751
 CYCLE:    42 TIME:   0.023 TIME LEFT:  2.00D  GRAD.:     1.669 HEAT:  88.58867
 CYCLE:    43 TIME:   0.023 TIME LEFT:  2.00D  GRAD.:     2.091 HEAT:  88.57927
 CYCLE:    44 TIME:   0.020 TIME LEFT:  2.00D  GRAD.:     2.411 HEAT:  88.56760
 CYCLE:    45 TIME:   0.023 TIME LEFT:  2.00D  GRAD.:     3.167 HEAT:  88.55297
 CYCLE:    46 TIME:   0.023 TIME LEFT:  2.00D  GRAD.:     2.310 HEAT:  88.54313
 CYCLE:    47 TIME:   0.023 TIME LEFT:  2.00D  GRAD.:     2.343 HEAT:  88.52740
 CYCLE:    48 TIME:   0.023 TIME LEFT:  2.00D  GRAD.:     2.439 HEAT:  88.51529
 CYCLE:    49 TIME:   0.023 TIME LEFT:  2.00D  GRAD.:     1.935 HEAT:  88.50018
 CYCLE:    50 TIME:   0.023 TIME LEFT:  2.00D  GRAD.:     1.381 HEAT:  88.49454
 CYCLE:    51 TIME:   0.020 TIME LEFT:  2.00D  GRAD.:     1.101 HEAT:  88.49277
 CYCLE:    52 TIME:   0.023 TIME LEFT:  2.00D  GRAD.:     1.012 HEAT:  88.49212
 CYCLE:    53 TIME:   0.023 TIME LEFT:  2.00D  GRAD.:     0.664 HEAT:  88.49111
 CYCLE:    54 TIME:   0.023 TIME LEFT:  2.00D  GRAD.:     0.636 HEAT:  88.49000
 CYCLE:    55 TIME:   0.023 TIME LEFT:  2.00D  GRAD.:     0.885 HEAT:  88.48844
 CYCLE:    56 TIME:   0.023 TIME LEFT:  2.00D  GRAD.:     0.852 HEAT:  88.48714
 CYCLE:    57 TIME:   0.023 TIME LEFT:  2.00D  GRAD.:     0.712 HEAT:  88.48560
 CYCLE:    58 TIME:   0.020 TIME LEFT:  2.00D  GRAD.:     0.585 HEAT:  88.48485
 CYCLE:    59 TIME:   0.023 TIME LEFT:  2.00D  GRAD.:     0.641 HEAT:  88.48358
 CYCLE:    60 TIME:   0.023 TIME LEFT:  2.00D  GRAD.:     0.443 HEAT:  88.48316
 CYCLE:    61 TIME:   0.023 TIME LEFT:  2.00D  GRAD.:     0.282 HEAT:  88.48254
 CYCLE:    62 TIME:   0.023 TIME LEFT:  2.00D  GRAD.:     0.313 HEAT:  88.48227
 CYCLE:    63 TIME:   0.023 TIME LEFT:  2.00D  GRAD.:     0.339 HEAT:  88.48197
 CYCLE:    64 TIME:   0.020 TIME LEFT:  2.00D  GRAD.:     0.381 HEAT:  88.48160
 CYCLE:    65 TIME:   0.023 TIME LEFT:  2.00D  GRAD.:     0.425 HEAT:  88.48110
 CYCLE:    66 TIME:   0.023 TIME LEFT:  2.00D  GRAD.:     0.499 HEAT:  88.48046
 CYCLE:    67 TIME:   0.023 TIME LEFT:  2.00D  GRAD.:     0.493 HEAT:  88.47982
 CYCLE:    68 TIME:   0.023 TIME LEFT:  2.00D  GRAD.:     0.406 HEAT:  88.47913
 CYCLE:    69 TIME:   0.023 TIME LEFT:  2.00D  GRAD.:     0.291 HEAT:  88.47889
 CYCLE:    70 TIME:   0.023 TIME LEFT:  2.00D  GRAD.:     0.308 HEAT:  88.47855
 CYCLE:    71 TIME:   0.020 TIME LEFT:  2.00D  GRAD.:     0.201 HEAT:  88.47845
 CYCLE:    72 TIME:   0.023 TIME LEFT:  2.00D  GRAD.:     0.129 HEAT:  88.47831
 CYCLE:    73 TIME:   0.023 TIME LEFT:  2.00D  GRAD.:     0.088 HEAT:  88.47828
 CYCLE:    74 TIME:   0.023 TIME LEFT:  2.00D  GRAD.:     0.083 HEAT:  88.47825
 CYCLE:    75 TIME:   0.023 TIME LEFT:  2.00D  GRAD.:     0.074 HEAT:  88.47823
 CYCLE:    76 TIME:   0.020 TIME LEFT:  2.00D  GRAD.:     0.050 HEAT:  88.47822

     GRADIENT =  0.04964  IS LESS THAN CUTOFF =  0.05000



 -------------------------------------------------------------------------------
 pm3  precise nosym THREADS=1
 InChI=1S/C10H8/c1-2-3-7-10-8-5-4-6-9-10/h1,3-9H



     GEOMETRY OPTIMISED USING EIGENVECTOR FOLLOWING (EF).     
     SCF FIELD WAS ACHIEVED                                   


                              PM3 CALCULATION
                                                       MOPAC2016 (Version: 18.184L)
                                                       Thu Jun 13 15:49:11 2019
                                                       No. of days remaining =  20




          FINAL HEAT OF FORMATION =         88.47822 KCAL/MOL =     370.19285 KJ/MOL


          TOTAL ENERGY            =      -1305.22880 EV
          ELECTRONIC ENERGY       =      -6256.42735 EV  POINT GROUP:     C1  
          CORE-CORE REPULSION     =       4951.19855 EV
          COSMO AREA              =        181.69 SQUARE ANGSTROMS
          COSMO VOLUME            =        175.31 CUBIC ANGSTROMS

          GRADIENT NORM           =          0.04964 = 0.01170 PER ATOM
          IONIZATION POTENTIAL    =          8.943817 EV
          HOMO LUMO ENERGIES (EV) =         -8.944 -0.461
          NO. OF FILLED LEVELS    =         24
          MOLECULAR WEIGHT        =        128.1732

          MOLECULAR DIMENSIONS (Angstroms)

            Atom       Atom       Distance
            H    18    H    16     9.80782
            H    15    H    12     4.56402
            H    17    H    14     0.00120


          SCF CALCULATIONS        =         87
 
          WALL-CLOCK TIME         =          1.859 SECONDS
          COMPUTATION TIME        =          0.659 SECONDS




   ATOM   CHEMICAL          X               Y               Z
  NUMBER   SYMBOL      (ANGSTROMS)     (ANGSTROMS)     (ANGSTROMS)
 
     1       C         -0.23471214  *   0.14853949  *  -0.35501759  *
     2       C         -1.07017596  *   0.75928255  *  -1.29671628  *
     3       C         -0.80309014  *  -0.60853713  *   0.67476352  *
     4       C          1.21124303  *   0.31055513  *  -0.46210968  *
     5       C         -2.44864291  *   0.61158705  *  -1.20517703  *
     6       C         -2.18142900  *  -0.75276514  *   0.76221270  *
     7       C         -3.00627996  *  -0.14306735  *  -0.17764318  *
     8       C          2.06391127  *  -0.25002393  *   0.41008242  *
     9       C          3.46227342  *  -0.09563469  *   0.30968708  *
    10       C          4.64654352  *   0.02845202  *   0.23452848  *
    11       H          1.57578214  *   0.91968413  *  -1.29912960  *
    12       H         -0.63613924  *   1.35514300  *  -2.10782966  *
    13       H         -0.13594868  *  -1.08464297  *   1.40998720  *
    14       H         -3.09806809  *   1.09110091  *  -1.94491802  *
    15       H         -2.61765473  *  -1.34695695  *   1.57169154  *
    16       H         -4.09297168  *  -0.25674942  *  -0.10907424  *
    17       H          1.69247624  *  -0.86137495  *   1.25008116  *
    18       H          5.70294266  *   0.13880171  *   0.16833698  *

                             CARTESIAN COORDINATES

   1    C       -0.234712144     0.148539490    -0.355017589
   2    C       -1.070175959     0.759282547    -1.296716278
   3    C       -0.803090137    -0.608537133     0.674763515
   4    C        1.211243026     0.310555134    -0.462109680
   5    C       -2.448642910     0.611587047    -1.205177034
   6    C       -2.181429004    -0.752765137     0.762212700
   7    C       -3.006279955    -0.143067348    -0.177643182
   8    C        2.063911267    -0.250023931     0.410082425
   9    C        3.462273421    -0.095634694     0.309687084
  10    C        4.646543521     0.028452020     0.234528476
  11    H        1.575782145     0.919684128    -1.299129599
  12    H       -0.636139243     1.355143003    -2.107829661
  13    H       -0.135948682    -1.084642973     1.409987204
  14    H       -3.098068090     1.091100911    -1.944918023
  15    H       -2.617654734    -1.346956953     1.571691542
  16    H       -4.092971678    -0.256749425    -0.109074237
  17    H        1.692476244    -0.861374952     1.250081159
  18    H        5.702942656     0.138801712     0.168336976


           Empirical Formula: C10 H8  =    18 atoms



      MOLECULAR POINT GROUP   :   C1  


                  EIGENVALUES  
 -40.17782 -35.06964 -30.91279 -29.80490 -27.25760 -22.95234 -21.74338 -20.09367
 -18.30931 -18.08888 -17.00412 -16.00782 -15.37166 -15.02776 -14.65139 -13.65486
 -13.44777 -12.70977 -12.64212 -12.33801 -11.14491 -10.73080  -9.85907  -8.94382
  -0.46053   0.32800   1.02614   1.80180   2.57886   2.58036   2.99335   3.08385
   3.30260   3.35376   3.43178   3.62225   3.83979   3.96732   4.00331   4.73011
   4.79523   4.93997   5.13190   5.37933   5.59211   6.11286   6.27452   6.70175


              NET ATOMIC CHARGES AND DIPOLE CONTRIBUTIONS

  ATOM NO.   TYPE          CHARGE      No. of ELECS.   s-Pop       p-Pop       
    1          C          -0.053536        4.0535     1.16728     2.88625
    2          C          -0.086966        4.0870     1.17950     2.90746
    3          C          -0.097446        4.0974     1.17984     2.91761
    4          C          -0.076535        4.0765     1.17929     2.89724
    5          C          -0.102939        4.1029     1.17924     2.92370
    6          C          -0.098782        4.0988     1.17807     2.92071
    7          C          -0.097492        4.0975     1.17969     2.91780
    8          C          -0.012525        4.0125     1.14289     2.86963
    9          C          -0.146712        4.1467     1.18882     2.95789
   10          C          -0.169832        4.1698     1.21090     2.95894
   11          H           0.107809        0.8922     0.89219
   12          H           0.105818        0.8942     0.89418
   13          H           0.109898        0.8901     0.89010
   14          H           0.103452        0.8965     0.89655
   15          H           0.103574        0.8964     0.89643
   16          H           0.103212        0.8968     0.89679
   17          H           0.113074        0.8869     0.88693
   18          H           0.195928        0.8041     0.80407
 DIPOLE           X         Y         Z       TOTAL
 POINT-CHG.    -0.427    -0.004    -0.031     0.428
 HYBRID         0.163     0.017    -0.011     0.165
 SUM           -0.263     0.014    -0.042     0.267


          ATOMIC ORBITAL ELECTRON POPULATIONS

     Atom    s        px        py        pz   
    1  C   1.16728   0.93425   0.98626   0.96575
    2  C   1.17950   0.94408   0.98686   0.97652
    3  C   1.17984   0.95554   0.98563   0.97644
    4  C   1.17929   0.92376   0.98844   0.98504
    5  C   1.17924   0.95429   0.98929   0.98011
    6  C   1.17807   0.94421   0.99299   0.98350
    7  C   1.17969   0.98202   0.97752   0.95826
    8  C   1.14289   0.87721   1.00118   0.99124
    9  C   1.18882   0.94703   1.00676   1.00409
   10  C   1.21090   0.95666   0.99820   1.00407
   11  H   0.89219
   12  H   0.89418
   13  H   0.89010
   14  H   0.89655
   15  H   0.89643
   16  H   0.89679
   17  H   0.88693
   18  H   0.80407
 *******************************************************************************
 ** Site#: 14399        For non-commercial use only    Version 18.184L 64BITS **
 *******************************************************************************
 ** Cite this program as: MOPAC2016, Version: 18.184L, James J. P. Stewart,   **
 ** Stewart Computational Chemistry, web: HTTP://OpenMOPAC.net. Days left:  20**
 *******************************************************************************
 **                                                                           **
 **                                MOPAC2016                                  **
 **                                                                           **
 *******************************************************************************

                              PM3 CALCULATION RESULTS

 *******************************************************************************
 *  CALCULATION DONE:                                Thu Jun 13 15:49:11 2019  *
 *  PM3        - The PM3 Hamiltonian to be used
 *  OLDGEO     - PREVIOUS GEOMETRY TO BE USED
 *  PRECISE    - CRITERIA TO BE INCREASED BY 100 TIMES
 *  NOSYM      - POINT-GROUP SYMMETRY SET TO C1
 *  THREADS=1  - MULTI-THREADING NOT USED
 *  T=         - A TIME OF 172800.0 SECONDS REQUESTED
 *  DUMP=N     - RESTART FILE WRITTEN EVERY  7200.000 SECONDS
 *  THERMO     - THERMODYNAMIC QUANTITIES TO BE CALCULATED
 *******************************************************************************
oldgeo thermo nosym precise THREADS=1  pm3
 InChI=1S/C10H8/c1-2-3-7-10-8-5-4-6-9-10/h1,3-9H

   ATOM   CHEMICAL          X               Y               Z
  NUMBER   SYMBOL      (ANGSTROMS)     (ANGSTROMS)     (ANGSTROMS)
 
     1       C         -0.23471214  *   0.14853949  *  -0.35501759  *
     2       C         -1.07017596  *   0.75928255  *  -1.29671628  *
     3       C         -0.80309014  *  -0.60853713  *   0.67476352  *
     4       C          1.21124303  *   0.31055513  *  -0.46210968  *
     5       C         -2.44864291  *   0.61158705  *  -1.20517703  *
     6       C         -2.18142900  *  -0.75276514  *   0.76221270  *
     7       C         -3.00627996  *  -0.14306735  *  -0.17764318  *
     8       C          2.06391127  *  -0.25002393  *   0.41008242  *
     9       C          3.46227342  *  -0.09563469  *   0.30968708  *
    10       C          4.64654352  *   0.02845202  *   0.23452848  *
    11       H          1.57578214  *   0.91968413  *  -1.29912960  *
    12       H         -0.63613924  *   1.35514300  *  -2.10782966  *
    13       H         -0.13594868  *  -1.08464297  *   1.40998720  *
    14       H         -3.09806809  *   1.09110091  *  -1.94491802  *
    15       H         -2.61765473  *  -1.34695695  *   1.57169154  *
    16       H         -4.09297168  *  -0.25674942  *  -0.10907424  *
    17       H          1.69247624  *  -0.86137495  *   1.25008116  *
    18       H          5.70294266  *   0.13880171  *   0.16833698  *
 


          CARTESIAN COORDINATES 

    NO.       ATOM           X           Y           Z

     1         C         -0.2347      0.1485     -0.3550
     2         C         -1.0702      0.7593     -1.2967
     3         C         -0.8031     -0.6085      0.6748
     4         C          1.2112      0.3106     -0.4621
     5         C         -2.4486      0.6116     -1.2052
     6         C         -2.1814     -0.7528      0.7622
     7         C         -3.0063     -0.1431     -0.1776
     8         C          2.0639     -0.2500      0.4101
     9         C          3.4623     -0.0956      0.3097
    10         C          4.6465      0.0285      0.2345
    11         H          1.5758      0.9197     -1.2991
    12         H         -0.6361      1.3551     -2.1078
    13         H         -0.1359     -1.0846      1.4100
    14         H         -3.0981      1.0911     -1.9449
    15         H         -2.6177     -1.3470      1.5717
    16         H         -4.0930     -0.2567     -0.1091
    17         H          1.6925     -0.8614      1.2501
    18         H          5.7029      0.1388      0.1683

  H: (PM3): J. J. P. STEWART, J. COMP. CHEM. 10, 209 (1989).
  C: (PM3): J. J. P. STEWART, J. COMP. CHEM. 10, 209 (1989).

           Empirical Formula: C10 H8  =    18 atoms



      MOLECULAR POINT GROUP   :   C1  


      RHF CALCULATION, NO. OF DOUBLY OCCUPIED LEVELS = 24



          HEAT OF FORMATION =      88.478216 KCALS/MOLE


          CARTESIAN COORDINATE DERIVATIVES

   NUMBER  ATOM         X            Y            Z

     1       C      0.012891    -0.001286     0.001090
     2       C     -0.003370     0.003476     0.006588
     3       C     -0.002005     0.014581    -0.001051
     4       C      0.014070     0.004275    -0.009788
     5       C      0.005070     0.016774    -0.001111
     6       C     -0.007905     0.002593     0.009013
     7       C      0.008855     0.001982    -0.002521
     8       C     -0.007078    -0.002547    -0.001623
     9       C     -0.002908    -0.000589    -0.010282
    10       C     -0.006244     0.003282    -0.009705
    11       H      0.000693    -0.010077     0.006043
    12       H     -0.004186    -0.004956     0.011208
    13       H     -0.000051     0.006284    -0.008723
    14       H     -0.012247    -0.012591    -0.013827
    15       H     -0.009851    -0.011924     0.002665
    16       H      0.010393     0.001359     0.001628
    17       H      0.001673    -0.007470     0.009535
    18       H      0.002201    -0.003166     0.010861
 


          GRADIENT NORM =   0.05651


          TIME FOR SCF CALCULATION =    0.03

          TIME FOR DERIVATIVES     =    0.01

          MOLECULAR WEIGHT =  128.17



          ROTATIONAL CONSTANTS IN CM(-1)

          A =    0.16972783   B =    0.02086333   C =    0.01857950



           PRINCIPAL MOMENTS OF INERTIA IN UNITS OF 10**(-40)*GRAM-CM**2

          A =      164.9274   B =     1341.7213   C =     1506.6488


          ORIENTATION OF MOLECULE IN FORCE CALCULATION

    NO.       ATOM         X         Y         Z

     1          C       0.4526    0.1317    0.0001
     2          C       1.8518    0.1317    0.0001
     3          C      -0.2316    1.3518    0.0001
     4          C      -0.2680   -1.1368   -0.0001
     5          C       2.5488    1.3336   -0.0003
     6          C       0.4696    2.5504    0.0002
     7          C       1.8608    2.5432   -0.0001
     8          C      -1.6088   -1.2019    0.0002
     9          C      -2.3088   -2.4264   -0.0000
    10          C      -2.9112   -3.4563    0.0000
    11          H       0.3435   -2.0482   -0.0004
    12          H       2.3986   -0.8182    0.0004
    13          H      -1.3325    1.3396   -0.0001
    14          H       3.6437    1.3282   -0.0009
    15          H      -0.0741    3.5007    0.0004
    16          H       2.4139    3.4879   -0.0003
    17          H      -2.2192   -0.2828    0.0007
    18          H      -3.4492   -4.3744    0.0002


    FIRST DERIVATIVES WILL BE USED IN THE CALCULATION OF SECOND DERIVATIVES

          ESTIMATED TIME TO COMPLETE CALCULATION =        7.59 SECONDS

    FOR POINT-GROUP C1   THERE ARE   1 UNIQUE SYMMETRY FUNCTIONS.

 STEP:   1 TIME =     0.05 SECS, INTEGRAL =      0.05 TIME LEFT: 172799.91
 STEP:   2 TIME =     0.04 SECS, INTEGRAL =      0.09 TIME LEFT: 172799.88
 STEP:   3 TIME =     0.04 SECS, INTEGRAL =      0.13 TIME LEFT: 172799.83
 STEP:   4 TIME =     0.04 SECS, INTEGRAL =      0.18 TIME LEFT: 172799.79
 STEP:   5 TIME =     0.04 SECS, INTEGRAL =      0.22 TIME LEFT: 172799.75
 STEP:   6 TIME =     0.04 SECS, INTEGRAL =      0.26 TIME LEFT: 172799.70
 STEP:   7 TIME =     0.04 SECS, INTEGRAL =      0.30 TIME LEFT: 172799.66
 STEP:   8 TIME =     0.04 SECS, INTEGRAL =      0.35 TIME LEFT: 172799.62
 STEP:   9 TIME =     0.04 SECS, INTEGRAL =      0.39 TIME LEFT: 172799.57
 STEP:  10 TIME =     0.04 SECS, INTEGRAL =      0.43 TIME LEFT: 172799.54
 STEP:  11 TIME =     0.04 SECS, INTEGRAL =      0.47 TIME LEFT: 172799.49
 STEP:  12 TIME =     0.04 SECS, INTEGRAL =      0.52 TIME LEFT: 172799.45
 STEP:  13 TIME =     0.04 SECS, INTEGRAL =      0.55 TIME LEFT: 172799.41
 STEP:  14 TIME =     0.04 SECS, INTEGRAL =      0.60 TIME LEFT: 172799.37
 STEP:  15 TIME =     0.04 SECS, INTEGRAL =      0.64 TIME LEFT: 172799.32
 STEP:  16 TIME =     0.04 SECS, INTEGRAL =      0.68 TIME LEFT: 172799.28
 STEP:  17 TIME =     0.04 SECS, INTEGRAL =      0.73 TIME LEFT: 172799.24
 STEP:  18 TIME =     0.04 SECS, INTEGRAL =      0.77 TIME LEFT: 172799.20
 STEP:  19 TIME =     0.04 SECS, INTEGRAL =      0.81 TIME LEFT: 172799.15
 STEP:  20 TIME =     0.04 SECS, INTEGRAL =      0.85 TIME LEFT: 172799.11
 STEP:  21 TIME =     0.04 SECS, INTEGRAL =      0.89 TIME LEFT: 172799.07
 STEP:  22 TIME =     0.04 SECS, INTEGRAL =      0.93 TIME LEFT: 172799.03
 STEP:  23 TIME =     0.04 SECS, INTEGRAL =      0.97 TIME LEFT: 172798.99
 STEP:  24 TIME =     0.04 SECS, INTEGRAL =      1.02 TIME LEFT: 172798.95
 STEP:  25 TIME =     0.04 SECS, INTEGRAL =      1.06 TIME LEFT: 172798.91
 STEP:  26 TIME =     0.04 SECS, INTEGRAL =      1.10 TIME LEFT: 172798.87
 STEP:  27 TIME =     0.04 SECS, INTEGRAL =      1.14 TIME LEFT: 172798.82
 STEP:  28 TIME =     0.04 SECS, INTEGRAL =      1.18 TIME LEFT: 172798.79
 STEP:  29 TIME =     0.04 SECS, INTEGRAL =      1.22 TIME LEFT: 172798.74
 STEP:  30 TIME =     0.04 SECS, INTEGRAL =      1.27 TIME LEFT: 172798.70
 STEP:  31 TIME =     0.04 SECS, INTEGRAL =      1.31 TIME LEFT: 172798.66
 STEP:  32 TIME =     0.04 SECS, INTEGRAL =      1.35 TIME LEFT: 172798.62
 STEP:  33 TIME =     0.04 SECS, INTEGRAL =      1.39 TIME LEFT: 172798.57
 STEP:  34 TIME =     0.04 SECS, INTEGRAL =      1.43 TIME LEFT: 172798.54
 STEP:  35 TIME =     0.04 SECS, INTEGRAL =      1.47 TIME LEFT: 172798.50
 STEP:  36 TIME =     0.04 SECS, INTEGRAL =      1.51 TIME LEFT: 172798.45
 STEP:  37 TIME =     0.04 SECS, INTEGRAL =      1.55 TIME LEFT: 172798.41
 STEP:  38 TIME =     0.04 SECS, INTEGRAL =      1.59 TIME LEFT: 172798.37
 STEP:  39 TIME =     0.04 SECS, INTEGRAL =      1.64 TIME LEFT: 172798.33
 STEP:  40 TIME =     0.04 SECS, INTEGRAL =      1.68 TIME LEFT: 172798.29
 STEP:  41 TIME =     0.04 SECS, INTEGRAL =      1.71 TIME LEFT: 172798.25
 STEP:  42 TIME =     0.04 SECS, INTEGRAL =      1.76 TIME LEFT: 172798.21
 STEP:  43 TIME =     0.04 SECS, INTEGRAL =      1.80 TIME LEFT: 172798.16
 STEP:  44 TIME =     0.04 SECS, INTEGRAL =      1.84 TIME LEFT: 172798.12
 STEP:  45 TIME =     0.04 SECS, INTEGRAL =      1.89 TIME LEFT: 172798.08
 STEP:  46 TIME =     0.04 SECS, INTEGRAL =      1.93 TIME LEFT: 172798.04
 STEP:  47 TIME =     0.04 SECS, INTEGRAL =      1.96 TIME LEFT: 172798.00
 STEP:  48 TIME =     0.04 SECS, INTEGRAL =      2.01 TIME LEFT: 172797.96
 STEP:  49 TIME =     0.04 SECS, INTEGRAL =      2.05 TIME LEFT: 172797.91
 STEP:  50 TIME =     0.04 SECS, INTEGRAL =      2.09 TIME LEFT: 172797.87
 STEP:  51 TIME =     0.04 SECS, INTEGRAL =      2.14 TIME LEFT: 172797.83
 STEP:  52 TIME =     0.04 SECS, INTEGRAL =      2.18 TIME LEFT: 172797.79
 STEP:  53 TIME =     0.04 SECS, INTEGRAL =      2.21 TIME LEFT: 172797.75
 STEP:  54 TIME =     0.04 SECS, INTEGRAL =      2.25 TIME LEFT: 172797.71

(To convert to Hartree/Bohr^2, multiply by (10^(-21) x N x a0^2)/(4.184 x 627.51) =  0.0642)


           FORCE MATRIX IN MILLIDYNES/ANGSTROM


                  C  1       C  2       C  3       C  4       C  5       C  6
 ------------------------------------------------------------------------------
     C    1  18.170976
     C    2   6.685927  17.408157
     C    3   6.706476   2.295381  17.338727
     C    4   5.338179   0.921885   0.821346  18.337659
     C    5   2.299335   7.131678   1.734159   0.124848  17.383451
     C    6   2.283027   1.712674   7.136316   0.103950   2.399123  17.423680
     C    7   1.649773   2.387113   2.422416   0.028074   7.079678   7.061892
     C    8   1.047549   0.088782   0.122669  10.039629   0.037485   0.015445
     C    9   0.174204   0.028065   0.020418   1.177607   0.012703   0.007696
     C   10   0.035206   0.006382   0.006931   0.125905   0.003540   0.003360
     H   11   0.438481   0.048124   0.041576   4.787755   0.002046   0.008616
     H   12   0.446930   4.825629   0.081508   0.053338   0.435059   0.010273
     H   13   0.448674   0.081937   4.655169   0.049839   0.009977   0.434680
     H   14   0.090956   0.436174   0.010223   0.008347   4.862058   0.088236
     H   15   0.090525   0.010206   0.436066   0.008228   0.088806   4.865956
     H   16   0.007669   0.087715   0.087812   0.009602   0.436441   0.436518
     H   17   0.085732   0.003152   0.097321   0.474932   0.002697   0.005699
     H   18   0.004164   0.001075   0.001339   0.007673   0.000945   0.000522


                  C  7       C  8       C  9       C 10       H 11       H 12
 ------------------------------------------------------------------------------
     C    7  17.391945
     C    8   0.014236  18.693056
     C    9   0.003882   6.974066  25.338160
     C   10   0.001401   0.782414  17.182382  23.718348
     H   11   0.001549   0.470032   0.090830   0.010002   5.149841
     H   12   0.090089   0.003472   0.002277   0.000629   0.029374   5.197651
     H   13   0.089118   0.105149   0.008079   0.001583   0.002086   0.006525
     H   14   0.437007   0.001325   0.000643   0.000672   0.000689   0.042568
     H   15   0.436742   0.000994   0.000655   0.000578   0.001249   0.007821
     H   16   4.868760   0.000852   0.000380   0.000675   0.000411   0.006934
     H   17   0.000609   4.562982   0.433188   0.026605   0.101976   0.001452
     H   18   0.000791   0.069590   0.343793   5.882091   0.002827   0.000588


                  H 13       H 14       H 15       H 16       H 17       H 18
 ------------------------------------------------------------------------------
     H   13   5.058164
     H   14   0.007793   5.225882
     H   15   0.041158   0.006974   5.228869
     H   16   0.006903   0.041229   0.041058   5.231912
     H   17   0.067510   0.000382   0.000712   0.000467   4.949824
     H   18   0.000516   0.000377   0.000430   0.000537   0.005281   6.056969


          HEAT OF FORMATION =      88.478216 KCALS/MOLE

          ZERO POINT ENERGY      89.873 KCAL/MOL


           NORMAL COORDINATE ANALYSIS (Total motion = 1 Angstrom)


   Root No.       1         2         3         4         5         6         7         8

                 1 A       2 A       3 A       4 A       5 A       6 A       7 A       8 A   

                  80.3     114.6     128.4     227.8     277.5     364.0     404.4     430.6
  
           1   -0.0001   -0.0005   -0.0292    0.0001    0.0247   -0.0000   -0.0333   -0.0001
           2    0.0000    0.0003    0.0195   -0.0001   -0.0352   -0.0000    0.0276    0.0000
           3    0.0571   -0.0089    0.0000   -0.0237    0.0000   -0.0048    0.0001   -0.0516
           4   -0.0001   -0.0005   -0.0291    0.0001    0.0234    0.0000   -0.0408   -0.0001
           5   -0.0000   -0.0003   -0.0154   -0.0000   -0.0177    0.0000   -0.0292   -0.0000
           6    0.0163    0.0131   -0.0003   -0.0554    0.0001    0.0663   -0.0001    0.0031
           7    0.0000   -0.0000   -0.0021    0.0000   -0.0030   -0.0000   -0.0481   -0.0001
           8    0.0001    0.0006    0.0340   -0.0001   -0.0514   -0.0000    0.0206    0.0000
           9    0.0497   -0.0239    0.0003   -0.0537    0.0001   -0.0650   -0.0000    0.0117
          10   -0.0001   -0.0008   -0.0454   -0.0000   -0.0036    0.0000    0.0446    0.0001
          11    0.0001    0.0006    0.0312   -0.0000   -0.0125   -0.0000    0.0024   -0.0000
          12    0.0768   -0.0288    0.0003    0.0715   -0.0002   -0.0048    0.0001   -0.0127
          13   -0.0000    0.0000    0.0012    0.0000   -0.0085   -0.0000   -0.0220   -0.0000
          14   -0.0001   -0.0006   -0.0336    0.0000    0.0015   -0.0000   -0.0498   -0.0000
          15   -0.0459    0.0175   -0.0002   -0.0090    0.0000   -0.0617   -0.0000    0.0296
          16    0.0001    0.0005    0.0292   -0.0001   -0.0355   -0.0000   -0.0184   -0.0000
          17    0.0000    0.0003    0.0163   -0.0001   -0.0373   -0.0000    0.0015    0.0000
          18   -0.0087   -0.0275    0.0005   -0.0031    0.0000    0.0653   -0.0000    0.0257
          19    0.0001    0.0005    0.0295   -0.0000   -0.0366   -0.0000   -0.0170   -0.0000
          20   -0.0001   -0.0003   -0.0177    0.0000   -0.0136   -0.0000   -0.0476   -0.0000
          21   -0.0615   -0.0069    0.0003    0.0551   -0.0001   -0.0023    0.0001   -0.0370
          22   -0.0001   -0.0008   -0.0453   -0.0000   -0.0091    0.0000    0.0533    0.0001
          23    0.0001    0.0005    0.0253    0.0001    0.0650    0.0000    0.0108   -0.0000
          24    0.0158    0.1004   -0.0019    0.0228   -0.0001    0.0025    0.0000   -0.0201
          25   -0.0000   -0.0000    0.0016   -0.0001   -0.0182   -0.0000    0.0683    0.0000
          26    0.0000   -0.0000   -0.0030    0.0001    0.0763    0.0000    0.0159    0.0000
          27   -0.0213    0.0292   -0.0004    0.0260   -0.0000    0.0057   -0.0001    0.0748
          28    0.0002    0.0015    0.0813    0.0001    0.0642    0.0000    0.0174   -0.0000
          29   -0.0001   -0.0009   -0.0496    0.0000    0.0299    0.0000    0.0493    0.0000
          30   -0.0689   -0.0577    0.0012   -0.0286    0.0001   -0.0020    0.0000   -0.0230
          31   -0.0001   -0.0009   -0.0508   -0.0001   -0.0437    0.0000    0.0657    0.0002
          32    0.0000    0.0005    0.0268   -0.0001   -0.0383   -0.0000    0.0166   -0.0000
          33    0.1235   -0.1636    0.0028    0.1756   -0.0002   -0.0042    0.0000    0.0816
          34   -0.0001   -0.0010   -0.0527    0.0001    0.0399    0.0000   -0.0747   -0.0001
          35   -0.0001   -0.0005   -0.0291    0.0000   -0.0076    0.0000   -0.0492   -0.0000
          36    0.0276    0.0271   -0.0006   -0.0942    0.0001    0.1839   -0.0002    0.0387
          37   -0.0000   -0.0000   -0.0021    0.0000   -0.0035    0.0000   -0.0475   -0.0001
          38    0.0001    0.0010    0.0542   -0.0001   -0.0616    0.0000    0.0276    0.0001
          39    0.0814   -0.0281    0.0003   -0.0904    0.0002   -0.1661   -0.0001    0.0539
          40   -0.0000    0.0000    0.0010    0.0000   -0.0083   -0.0001   -0.0226    0.0000
          41   -0.0002   -0.0011   -0.0609    0.0001    0.0313   -0.0000   -0.0650   -0.0001
          42   -0.0839    0.0380   -0.0005   -0.0105    0.0001   -0.1677   -0.0001    0.0962
          43    0.0001    0.0010    0.0539   -0.0001   -0.0578   -0.0000    0.0165    0.0000
          44    0.0001    0.0005    0.0304   -0.0001   -0.0503   -0.0000    0.0213    0.0000
          45   -0.0163   -0.0453    0.0009    0.0019   -0.0000    0.1803   -0.0002    0.0824
          46    0.0001    0.0009    0.0524   -0.0001   -0.0568   -0.0000    0.0045   -0.0000
          47   -0.0001   -0.0006   -0.0310    0.0000   -0.0018   -0.0000   -0.0602   -0.0000
          48   -0.1135   -0.0090    0.0005    0.1363   -0.0003   -0.0059    0.0002   -0.1051
          49   -0.0002   -0.0009   -0.0557   -0.0000    0.0155    0.0001    0.0491    0.0001
          50    0.0001    0.0003    0.0168    0.0001    0.0807    0.0000    0.0082    0.0000
          51   -0.0211    0.2394   -0.0045   -0.0642   -0.0000   -0.0018    0.0001   -0.1248
          52    0.0005    0.0028    0.1517    0.0002    0.1400    0.0000   -0.0384   -0.0001
          53   -0.0003   -0.0017   -0.0909   -0.0001   -0.0141   -0.0000    0.0828    0.0000
          54   -0.1108   -0.1352    0.0027   -0.0780    0.0002   -0.0098    0.0002   -0.1280


   Root No.       9        10        11        12        13        14        15        16

                 9 A      10 A      11 A      12 A      13 A      14 A      15 A      16 A   

                 513.8     529.5     629.0     644.9     653.1     773.7     849.8     852.6
  
           1   -0.0001    0.0331   -0.0124   -0.0446   -0.0001    0.0000   -0.0000    0.0000
           2   -0.0000    0.0048    0.0364   -0.0460   -0.0001    0.0000   -0.0000    0.0000
           3    0.0486    0.0002   -0.0001   -0.0002    0.0703    0.0379    0.0075   -0.0006
           4   -0.0001    0.0381    0.0007   -0.0530   -0.0001    0.0000    0.0000    0.0000
           5    0.0001   -0.0165    0.0724    0.0414    0.0002   -0.0000    0.0001   -0.0000
           6    0.0174    0.0001    0.0000    0.0001   -0.0228   -0.0150   -0.0059    0.0297
           7   -0.0000    0.0026   -0.0900    0.0002   -0.0001    0.0000    0.0000   -0.0000
           8    0.0001   -0.0192   -0.0169   -0.0262   -0.0001   -0.0000    0.0001   -0.0000
           9    0.0182    0.0001    0.0001    0.0001   -0.0272   -0.0131    0.0108   -0.0227
          10    0.0002   -0.0472    0.0047   -0.0201   -0.0000    0.0000    0.0000    0.0000
          11   -0.0003    0.0658    0.0255   -0.0535   -0.0001    0.0000   -0.0001    0.0000
          12   -0.0386   -0.0002    0.0000   -0.0000   -0.0060    0.0040   -0.0124   -0.0036
          13   -0.0001    0.0148    0.1014   -0.0125    0.0001   -0.0000    0.0001   -0.0000
          14    0.0000   -0.0024    0.0148    0.0256    0.0001   -0.0000   -0.0000   -0.0000
          15   -0.0338   -0.0002   -0.0001   -0.0001    0.0297   -0.0179   -0.0106    0.0264
          16    0.0001   -0.0196    0.0063    0.0419    0.0001    0.0000   -0.0001    0.0000
          17    0.0001   -0.0140   -0.0812   -0.0445   -0.0002    0.0000    0.0001   -0.0000
          18   -0.0337   -0.0002   -0.0001   -0.0001    0.0300   -0.0174    0.0060   -0.0299
          19    0.0001   -0.0206    0.0152    0.0432    0.0001   -0.0000   -0.0001    0.0000
          20    0.0001   -0.0193   -0.0417    0.0492    0.0001    0.0000   -0.0001    0.0000
          21    0.0391    0.0002    0.0000    0.0001   -0.0219   -0.0285   -0.0051   -0.0032
          22    0.0002   -0.0452    0.0025   -0.0191   -0.0000    0.0000   -0.0000    0.0000
          23   -0.0001    0.0321   -0.0062    0.0251    0.0000   -0.0000    0.0000   -0.0000
          24   -0.0374   -0.0002    0.0000    0.0000   -0.0125   -0.0134    0.0135   -0.0013
          25   -0.0004    0.0871   -0.0242    0.0617    0.0001   -0.0000   -0.0003    0.0000
          26    0.0002   -0.0471    0.0051   -0.0051   -0.0000    0.0000    0.0001   -0.0000
          27    0.0701    0.0005   -0.0000   -0.0000    0.0138    0.0068    0.0379    0.0071
          28    0.0000   -0.0132   -0.0047    0.0159    0.0000    0.0000    0.0005   -0.0000
          29   -0.0001    0.0121   -0.0080    0.0275    0.0000    0.0000   -0.0004    0.0000
          30   -0.0138   -0.0001    0.0000    0.0000   -0.0005    0.0029   -0.0766   -0.0126
          31    0.0004   -0.0805    0.0263   -0.0541   -0.0001    0.0000    0.0000    0.0000
          32   -0.0001    0.0425    0.0407   -0.0757   -0.0001    0.0000   -0.0001    0.0001
          33   -0.0526   -0.0003    0.0001    0.0002   -0.0627   -0.0672    0.0035    0.0243
          34   -0.0001    0.0372   -0.0408   -0.0330   -0.0001   -0.0000    0.0000    0.0000
          35    0.0001   -0.0165    0.0482    0.0531    0.0001   -0.0000    0.0001   -0.0001
          36   -0.0067    0.0000    0.0005    0.0007   -0.2227    0.0573    0.0371   -0.1898
          37   -0.0000    0.0026   -0.0897   -0.0001   -0.0001    0.0000    0.0000   -0.0000
          38    0.0002   -0.0498   -0.0014    0.0326    0.0001    0.0000    0.0001   -0.0000
          39   -0.0095   -0.0001    0.0005    0.0007   -0.2150    0.0461   -0.0737    0.1702
          40   -0.0001    0.0151    0.1011   -0.0130    0.0001    0.0001    0.0002   -0.0001
          41   -0.0001    0.0342    0.0062   -0.0422   -0.0001   -0.0000    0.0001   -0.0000
          42   -0.1337   -0.0007    0.0000   -0.0001    0.0301    0.2104    0.0740   -0.1769
          43    0.0001   -0.0272    0.0485    0.0151    0.0001    0.0000    0.0001    0.0000
          44    0.0001   -0.0188   -0.0569   -0.0596   -0.0002   -0.0000    0.0002   -0.0001
          45   -0.1339   -0.0006   -0.0000   -0.0001    0.0373    0.2041   -0.0367    0.1939
          46    0.0002   -0.0353   -0.0631    0.0233   -0.0000    0.0000   -0.0001    0.0000
          47    0.0000   -0.0106    0.0042    0.0605    0.0001    0.0000   -0.0001    0.0000
          48    0.1104    0.0005    0.0004    0.0006   -0.1603    0.2128    0.0329    0.0232
          49    0.0005   -0.1264   -0.0101   -0.0211   -0.0000    0.0000    0.0002   -0.0000
          50    0.0001   -0.0247   -0.0135    0.0217    0.0000   -0.0000    0.0003   -0.0000
          51   -0.0844   -0.0005    0.0001   -0.0000   -0.0088    0.0115   -0.0883    0.0093
          52    0.0005   -0.1424    0.0331   -0.0795   -0.0001    0.0000   -0.0033    0.0003
          53   -0.0004    0.0880   -0.0305    0.0848    0.0001   -0.0000    0.0020   -0.0001
          54   -0.1181   -0.0009    0.0001   -0.0001   -0.0286   -0.0337    0.4675    0.0752


   Root No.      17        18        19        20        21        22        23        24

                17 A      18 A      19 A      20 A      21 A      22 A      23 A      24 A   

                 858.6     905.3     917.5     926.4     974.9     983.8    1023.0    1048.6
  
           1    0.0004    0.0119   -0.0000   -0.0000   -0.0000    0.0000   -0.0000   -0.0059
           2   -0.0000    0.0215    0.0000   -0.0000   -0.0000    0.0000   -0.0000   -0.0041
           3    0.0000   -0.0000   -0.0064    0.0159   -0.0353    0.0105    0.0295    0.0000
           4   -0.0056   -0.0001   -0.0000    0.0000    0.0000    0.0000    0.0000   -0.0367
           5   -0.0080   -0.0336    0.0000    0.0000    0.0000    0.0000   -0.0000    0.0339
           6   -0.0001   -0.0000    0.0271   -0.0179    0.0322    0.0313   -0.0317   -0.0000
           7   -0.0007   -0.0180   -0.0000    0.0000    0.0000    0.0000   -0.0000    0.0564
           8   -0.0115   -0.0249   -0.0000    0.0000   -0.0000   -0.0000    0.0000   -0.0185
           9    0.0002   -0.0000    0.0253   -0.0207    0.0011   -0.0400   -0.0379   -0.0000
          10   -0.0014    0.0127   -0.0000   -0.0000    0.0000   -0.0000   -0.0000   -0.0009
          11    0.0229    0.0712    0.0000   -0.0000   -0.0000    0.0000   -0.0000    0.0262
          12   -0.0001    0.0000   -0.0427   -0.0019    0.0513   -0.0143   -0.0191   -0.0000
          13   -0.0224   -0.0653   -0.0000    0.0000   -0.0000   -0.0000    0.0000    0.0216
          14    0.0002   -0.0018   -0.0000    0.0000   -0.0000   -0.0000    0.0000   -0.0099
          15   -0.0001    0.0000   -0.0077   -0.0036   -0.0008   -0.0434    0.0390    0.0000
          16    0.0115    0.0318    0.0000   -0.0000    0.0000    0.0000    0.0000   -0.0162
          17   -0.0209   -0.0632   -0.0000    0.0000   -0.0000   -0.0000    0.0000    0.0102
          18    0.0001    0.0000    0.0034    0.0039    0.0316    0.0247    0.0432    0.0000
          19    0.0102    0.0275   -0.0000   -0.0000   -0.0000   -0.0000   -0.0000   -0.0076
          20    0.0181    0.0502    0.0000   -0.0000    0.0000    0.0000   -0.0000   -0.0093
          21   -0.0000   -0.0000   -0.0272    0.0178   -0.0337    0.0171   -0.0421    0.0000
          22    0.0040    0.0209    0.0000   -0.0000   -0.0000    0.0000   -0.0000    0.0071
          23   -0.0035   -0.0132   -0.0000    0.0000    0.0000   -0.0000    0.0000   -0.0125
          24    0.0002   -0.0000    0.0135   -0.0553   -0.0404    0.0156    0.0128    0.0000
          25    0.0450   -0.0281   -0.0000    0.0000    0.0000   -0.0000    0.0000   -0.0045
          26   -0.0210    0.0111   -0.0000   -0.0000    0.0000    0.0000   -0.0000    0.0074
          27    0.0003    0.0000   -0.0100    0.0227    0.0152   -0.0054   -0.0038    0.0000
          28   -0.0759    0.0139   -0.0000   -0.0000   -0.0000    0.0000   -0.0000    0.0055
          29    0.0519   -0.0160   -0.0000    0.0000    0.0000   -0.0000    0.0000    0.0049
          30   -0.0007    0.0000    0.0057   -0.0117   -0.0060    0.0020    0.0012    0.0000
          31    0.0058    0.0798    0.0000   -0.0000   -0.0000    0.0000   -0.0000    0.0541
          32    0.0277    0.1167   -0.0001   -0.0001    0.0001    0.0000   -0.0001    0.0631
          33   -0.0001    0.0001    0.2632    0.1517   -0.1713    0.0310    0.0531    0.0001
          34   -0.0000    0.0132    0.0000    0.0000    0.0000    0.0000    0.0000   -0.1291
          35   -0.0048   -0.0267   -0.0000    0.0001   -0.0000   -0.0000    0.0000   -0.0180
          36    0.0007    0.0002   -0.1267    0.0795   -0.1402   -0.1322    0.0976    0.0000
          37   -0.0007   -0.0184    0.0000   -0.0000    0.0000   -0.0000   -0.0000    0.0584
          38   -0.0135   -0.0272   -0.0000   -0.0000   -0.0000    0.0000    0.0001   -0.1086
          39   -0.0010    0.0000   -0.1323    0.0804   -0.0135    0.1919    0.1340    0.0001
          40   -0.0230   -0.0673    0.0000    0.0000   -0.0000    0.0001   -0.0000    0.0207
          41   -0.0197   -0.0457   -0.0000    0.0000   -0.0000    0.0000    0.0001   -0.1625
          42    0.0010    0.0000    0.0368    0.0261    0.0008    0.1853   -0.1260   -0.0001
          43   -0.0106   -0.0261   -0.0000    0.0000   -0.0000    0.0000    0.0001   -0.1794
          44   -0.0343   -0.0988   -0.0000    0.0000    0.0000    0.0000    0.0001   -0.0835
          45   -0.0007   -0.0002   -0.0215   -0.0124   -0.1417   -0.1102   -0.1435   -0.0000
          46    0.0088    0.0215    0.0000    0.0000    0.0000    0.0000   -0.0001   -0.0225
          47    0.0188    0.0539    0.0000   -0.0000    0.0000   -0.0000    0.0000   -0.0028
          48    0.0003   -0.0001    0.1523   -0.0991    0.1500   -0.0716    0.1377    0.0000
          49   -0.0429   -0.0050    0.0000    0.0001    0.0000   -0.0000   -0.0000   -0.0246
          50   -0.0358   -0.0292   -0.0000   -0.0001   -0.0001    0.0000    0.0000   -0.0338
          51   -0.0011    0.0001    0.0764    0.3348    0.1185   -0.0680   -0.0455   -0.0000
          52    0.4794   -0.0846    0.0000    0.0002    0.0000   -0.0000    0.0000   -0.0005
          53   -0.2729    0.0411   -0.0000   -0.0001   -0.0000    0.0000   -0.0000    0.0092
          54    0.0043   -0.0001   -0.0217    0.0446    0.0163   -0.0054   -0.0025   -0.0000


   Root No.      25        26        27        28        29        30        31        32

                25 A      26 A      27 A      28 A      29 A      30 A      31 A      32 A   

                1105.4    1123.4    1128.2    1154.7    1172.2    1215.2    1248.0    1264.8
  
           1    0.0015   -0.0204    0.0061   -0.0115    0.0160   -0.0114    0.0073   -0.0061
           2   -0.0093   -0.0132   -0.0007    0.0069    0.0011   -0.0048   -0.0140   -0.0011
           3    0.0000   -0.0000    0.0000    0.0000   -0.0000   -0.0000   -0.0000    0.0000
           4   -0.0036   -0.0203   -0.0053    0.0016   -0.0162    0.0140    0.0245   -0.0033
           5    0.0233    0.0148    0.0198   -0.0006    0.0187   -0.0199    0.0053   -0.0072
           6   -0.0000    0.0000   -0.0000    0.0000    0.0000    0.0000   -0.0000    0.0000
           7   -0.0076    0.0416    0.0031   -0.0014    0.0137   -0.0190    0.0001   -0.0052
           8   -0.0110   -0.0055   -0.0051   -0.0043   -0.0175   -0.0083   -0.0199    0.0005
           9   -0.0000    0.0000   -0.0000    0.0000    0.0000   -0.0000    0.0000   -0.0000
          10   -0.0047   -0.0089    0.0105   -0.0017    0.0129   -0.0156   -0.0170   -0.0475
          11    0.0043    0.0166    0.0071   -0.0022    0.0137   -0.0293    0.0044    0.0279
          12   -0.0000    0.0000    0.0000    0.0000    0.0000   -0.0000    0.0000    0.0000
          13   -0.0142   -0.0126   -0.0118    0.0048   -0.0162    0.0195    0.0043    0.0079
          14    0.0032   -0.0014   -0.0007    0.0000    0.0113   -0.0022    0.0136    0.0005
          15    0.0000    0.0000    0.0000   -0.0000    0.0000   -0.0000    0.0000   -0.0000
          16   -0.0063    0.0195   -0.0068    0.0050    0.0007   -0.0078   -0.0123   -0.0045
          17    0.0079   -0.0170   -0.0062   -0.0016   -0.0093    0.0181   -0.0048    0.0035
          18    0.0000   -0.0000    0.0000    0.0000   -0.0000    0.0000   -0.0000    0.0000
          19    0.0015   -0.0225   -0.0045    0.0054   -0.0086    0.0120   -0.0224    0.0096
          20   -0.0124   -0.0354   -0.0123    0.0005   -0.0050    0.0259    0.0134    0.0043
          21   -0.0000    0.0000   -0.0000   -0.0000   -0.0000   -0.0000    0.0000   -0.0000
          22   -0.0013   -0.0013   -0.0007   -0.0005    0.0100   -0.0294   -0.0077   -0.0026
          23   -0.0197   -0.0106    0.0455   -0.0019    0.0205    0.0131   -0.0275   -0.0744
          24    0.0000   -0.0000    0.0000   -0.0000    0.0000    0.0000   -0.0000   -0.0000
          25   -0.0026    0.0011    0.0025    0.0011   -0.0033    0.0087    0.0028    0.0119
          26    0.0129    0.0035   -0.0240    0.0001   -0.0082   -0.0044    0.0063    0.0085
          27    0.0000   -0.0000   -0.0000    0.0000    0.0000   -0.0000    0.0000    0.0000
          28    0.0110    0.0037   -0.0218    0.0005   -0.0095   -0.0013    0.0089    0.0176
          29    0.0147    0.0059   -0.0307    0.0012   -0.0158    0.0022    0.0148    0.0307
          30    0.0000    0.0000   -0.0000   -0.0000   -0.0000    0.0000   -0.0000   -0.0000
          31    0.0263    0.1264    0.0380    0.0028   -0.0656    0.2940    0.0470   -0.1426
          32    0.0252    0.1079    0.0268    0.0007   -0.0387    0.1759    0.0472   -0.0298
          33    0.0000    0.0000   -0.0000   -0.0000   -0.0000    0.0000    0.0000   -0.0000
          34    0.1409    0.0684    0.1008   -0.1130   -0.1909   -0.0395   -0.1197    0.0510
          35    0.1087    0.0687    0.0826   -0.0658   -0.0798   -0.0549   -0.0801    0.0243
          36    0.0000   -0.0000    0.0000    0.0000    0.0000    0.0000    0.0000   -0.0000
          37   -0.0075    0.0446    0.0028   -0.0026    0.0161   -0.0210   -0.0004   -0.0065
          38   -0.1139    0.0965    0.0649    0.0244   -0.1393   -0.1722    0.2448   -0.1319
          39    0.0000   -0.0000    0.0000    0.0000   -0.0000    0.0000   -0.0000    0.0000
          40   -0.0141   -0.0135   -0.0125    0.0073   -0.0185    0.0218    0.0040    0.0092
          41   -0.0425    0.1828   -0.1048    0.2981    0.0536    0.0124   -0.1163    0.0180
          42   -0.0000   -0.0000   -0.0000   -0.0000   -0.0000   -0.0000   -0.0000   -0.0000
          43    0.0772    0.0903   -0.0464   -0.1825    0.2017    0.0424    0.0747    0.0084
          44    0.0548    0.0212   -0.0296   -0.1104    0.1036    0.0489    0.0459    0.0112
          45   -0.0000    0.0000   -0.0000   -0.0000    0.0000   -0.0000   -0.0000   -0.0000
          46    0.1926   -0.1062    0.1055    0.2354    0.0376    0.0107    0.0936   -0.0005
          47   -0.1249    0.0107   -0.0788   -0.1333   -0.0320    0.0307   -0.0544    0.0116
          48    0.0000    0.0000    0.0000   -0.0000    0.0000   -0.0000   -0.0000    0.0000
          49   -0.1063    0.0264    0.1704    0.0140    0.0351    0.0521    0.0272    0.3254
          50   -0.0917    0.0084    0.1645    0.0079    0.0387    0.0719   -0.0057    0.1440
          51   -0.0000    0.0000   -0.0000    0.0000    0.0000    0.0000    0.0000   -0.0001
          52    0.0067    0.0036   -0.0168    0.0011   -0.0102    0.0019    0.0102    0.0230
          53    0.0197    0.0069   -0.0390    0.0011   -0.0183    0.0006    0.0171    0.0340
          54   -0.0000   -0.0000    0.0000    0.0000    0.0000   -0.0000    0.0000    0.0000


   Root No.      33        34        35        36        37        38        39        40

                33 A      34 A      35 A      36 A      37 A      38 A      39 A      40 A   

                1393.2    1396.4    1544.0    1611.4    1778.5    1799.2    1856.7    2327.3
  
           1   -0.0569    0.0593    0.0681    0.0550   -0.1187   -0.0399   -0.0457    0.0028
           2    0.0822    0.0481   -0.0415    0.0978    0.0714   -0.0758   -0.0369    0.0026
           3    0.0000    0.0000   -0.0000    0.0000    0.0000    0.0000    0.0000    0.0000
           4    0.0930    0.0118    0.0044   -0.0500    0.0860    0.0949    0.0096   -0.0014
           5    0.0645    0.0167    0.0636    0.0078    0.0011    0.0847   -0.0064   -0.0004
           6   -0.0000   -0.0000   -0.0000   -0.0000   -0.0000   -0.0000   -0.0000    0.0000
           7    0.0009    0.0116   -0.0525    0.0335    0.0432    0.0250    0.0054    0.0003
           8   -0.0609    0.0696   -0.0381   -0.0382   -0.0697    0.1288    0.0060   -0.0007
           9    0.0000    0.0000   -0.0000    0.0000    0.0000    0.0000   -0.0000   -0.0000
          10   -0.0018   -0.0187   -0.0037    0.0025   -0.0066   -0.0060    0.2292    0.0056
          11   -0.0326   -0.0553    0.0084   -0.0375   -0.0084    0.0127    0.0639   -0.0009
          12   -0.0000   -0.0000   -0.0000   -0.0000    0.0000   -0.0000   -0.0000   -0.0000
          13   -0.0315   -0.0506   -0.0502    0.0116   -0.0477   -0.0253   -0.0003    0.0001
          14   -0.0810    0.0478   -0.0418   -0.0738    0.0645   -0.1173    0.0116    0.0003
          15    0.0000    0.0000    0.0000   -0.0000    0.0000    0.0000    0.0000   -0.0000
          16    0.1059    0.0183    0.0073   -0.0680   -0.0857   -0.0853   -0.0061    0.0003
          17    0.0271   -0.0470    0.0648   -0.0278    0.0051   -0.0807   -0.0007    0.0002
          18   -0.0000   -0.0000    0.0000    0.0000    0.0000    0.0000    0.0000   -0.0000
          19   -0.0886   -0.0006    0.0647    0.0234    0.1237    0.0211    0.0070   -0.0002
          20    0.0203   -0.0551   -0.0354    0.0461   -0.0702    0.0437   -0.0057   -0.0000
          21    0.0000   -0.0000   -0.0000   -0.0000   -0.0000   -0.0000   -0.0000   -0.0000
          22   -0.0164   -0.0396   -0.0106   -0.0343    0.0161    0.0168   -0.2182   -0.0456
          23   -0.0038   -0.0209   -0.0091   -0.0126    0.0082    0.0045   -0.0573   -0.0592
          24    0.0000   -0.0000    0.0000    0.0000   -0.0000    0.0000    0.0000   -0.0000
          25    0.0038    0.0067    0.0002    0.0018    0.0006    0.0002   -0.0036    0.1501
          26   -0.0009    0.0016    0.0003   -0.0016    0.0010    0.0020   -0.0137    0.2545
          27   -0.0000    0.0000   -0.0000    0.0000   -0.0000   -0.0000   -0.0000    0.0000
          28    0.0024    0.0092    0.0025    0.0055   -0.0023   -0.0024    0.0200   -0.0973
          29    0.0051    0.0178    0.0042    0.0104   -0.0040   -0.0044    0.0377   -0.1659
          30    0.0000   -0.0000    0.0000   -0.0000    0.0000    0.0000    0.0000   -0.0000
          31   -0.0446    0.0771    0.0293    0.0107   -0.0312   -0.0037   -0.0066    0.0019
          32   -0.0603    0.0038    0.0299   -0.0370   -0.0199    0.0170   -0.1353   -0.0132
          33   -0.0000   -0.0000    0.0000    0.0000    0.0000   -0.0000   -0.0001   -0.0000
          34   -0.0145   -0.0784   -0.0911    0.0556    0.0003   -0.0646   -0.0022    0.0001
          35    0.0063   -0.0323    0.0183    0.0780   -0.0555   -0.0023   -0.0190    0.0008
          36    0.0000   -0.0000    0.0000   -0.0000    0.0000   -0.0000    0.0000    0.0000
          37    0.0014    0.0160   -0.0618    0.0409    0.0485    0.0313    0.0059    0.0004
          38   -0.0897   -0.0631    0.0741    0.0985    0.0317   -0.0614   -0.0123    0.0036
          39   -0.0000    0.0000    0.0000    0.0000   -0.0000   -0.0000   -0.0000   -0.0000
          40   -0.0363   -0.0591   -0.0589    0.0147   -0.0572   -0.0292    0.0002    0.0000
          41   -0.0609   -0.0766    0.0681    0.0837   -0.0248    0.0437   -0.0056    0.0000
          42   -0.0000    0.0000    0.0000   -0.0000    0.0000    0.0000    0.0000    0.0000
          43   -0.0164   -0.0455   -0.0845    0.0684   -0.0029    0.0527   -0.0000   -0.0001
          44   -0.0478   -0.0926    0.0236    0.0526    0.0626   -0.0077    0.0037   -0.0001
          45   -0.0000   -0.0000    0.0000    0.0000    0.0000    0.0000   -0.0000   -0.0000
          46   -0.0400   -0.0246   -0.1082    0.0329   -0.0500    0.0305   -0.0017   -0.0001
          47   -0.0134   -0.0509    0.0662    0.0515    0.0320    0.0487   -0.0010   -0.0003
          48   -0.0000    0.0000    0.0000   -0.0000    0.0000   -0.0000    0.0000   -0.0000
          49    0.0193    0.0134    0.0150   -0.0047   -0.0062   -0.0015    0.0083    0.0119
          50    0.0214    0.0146    0.0080    0.0085   -0.0072   -0.0099    0.1331   -0.0295
          51   -0.0000    0.0000    0.0000    0.0000   -0.0000   -0.0000    0.0000   -0.0000
          52    0.0035    0.0120    0.0029    0.0072   -0.0031   -0.0034    0.0283   -0.1896
          53    0.0059    0.0209    0.0054    0.0134   -0.0057   -0.0063    0.0547   -0.3234
          54    0.0000    0.0000   -0.0000   -0.0000   -0.0000   -0.0001   -0.0000    0.0001


   Root No.      41        42        43        44        45        46        47        48

                41 A      42 A      43 A      44 A      45 A      46 A      47 A      48 A   

                2971.3    3012.0    3039.6    3051.3    3058.8    3066.8    3078.6    3357.7
  
           1    0.0002    0.0010    0.0006   -0.0014   -0.0007    0.0009    0.0006    0.0001
           2    0.0007   -0.0017    0.0003   -0.0001   -0.0005   -0.0002    0.0006    0.0001
           3    0.0000   -0.0000   -0.0000    0.0000    0.0000   -0.0000   -0.0000    0.0000
           4    0.0001   -0.0002    0.0021    0.0200    0.0075   -0.0070   -0.0039   -0.0000
           5   -0.0001    0.0008   -0.0047   -0.0333   -0.0136    0.0143    0.0086   -0.0000
           6   -0.0000   -0.0000    0.0000    0.0000    0.0000   -0.0000   -0.0000    0.0000
           7    0.0210   -0.0517    0.0016   -0.0008   -0.0032   -0.0036    0.0037    0.0000
           8    0.0004   -0.0005    0.0007    0.0002   -0.0006   -0.0013    0.0009   -0.0000
           9    0.0000   -0.0000    0.0000    0.0000   -0.0000   -0.0000    0.0000    0.0000
          10   -0.0043   -0.0009    0.0429   -0.0017   -0.0004    0.0001    0.0001   -0.0004
          11   -0.0003   -0.0008   -0.0567    0.0026    0.0008   -0.0004   -0.0003   -0.0002
          12    0.0000   -0.0000   -0.0000    0.0000    0.0000   -0.0000   -0.0000    0.0000
          13    0.0001   -0.0002   -0.0014   -0.0236    0.0100   -0.0277   -0.0223    0.0000
          14   -0.0001    0.0001    0.0002    0.0013    0.0015   -0.0008    0.0009    0.0000
          15   -0.0000   -0.0000    0.0000    0.0000   -0.0000    0.0000    0.0000   -0.0000
          16   -0.0013    0.0045   -0.0002    0.0018   -0.0097   -0.0145    0.0113   -0.0000
          17    0.0005   -0.0038    0.0002   -0.0035    0.0192    0.0255   -0.0179    0.0000
          18    0.0000   -0.0000    0.0000   -0.0000    0.0000    0.0000   -0.0000   -0.0000
          19   -0.0001    0.0001   -0.0000    0.0052   -0.0141    0.0041   -0.0143    0.0000
          20    0.0001   -0.0000    0.0000    0.0078   -0.0249    0.0027   -0.0245    0.0000
          21    0.0000   -0.0000    0.0000   -0.0000    0.0000   -0.0000    0.0000    0.0000
          22    0.0332    0.0113   -0.0056    0.0002    0.0003    0.0002   -0.0002   -0.0007
          23   -0.0452   -0.0153   -0.0009    0.0001   -0.0003   -0.0004    0.0002   -0.0016
          24   -0.0000   -0.0000    0.0000    0.0000   -0.0000   -0.0000    0.0000   -0.0000
          25    0.0010    0.0003    0.0006   -0.0000   -0.0000    0.0000    0.0000    0.0141
          26    0.0013    0.0005    0.0004   -0.0000    0.0000    0.0000    0.0000    0.0240
          27   -0.0000    0.0000   -0.0000   -0.0000   -0.0000    0.0000    0.0000   -0.0000
          28    0.0001    0.0000    0.0000    0.0000    0.0000    0.0000   -0.0000   -0.0498
          29   -0.0003   -0.0001    0.0001    0.0000    0.0000   -0.0000   -0.0000   -0.0850
          30    0.0000   -0.0000    0.0000    0.0000   -0.0000    0.0000   -0.0000    0.0000
          31   -0.0002   -0.0088   -0.4488    0.0214    0.0062   -0.0031   -0.0016   -0.0007
          32   -0.0060    0.0118    0.6748   -0.0298   -0.0084    0.0038    0.0018    0.0008
          33    0.0000    0.0000    0.0002   -0.0000   -0.0000    0.0000   -0.0000   -0.0000
          34   -0.0021    0.0074   -0.0306   -0.2246   -0.0877    0.0859    0.0479   -0.0002
          35    0.0038   -0.0127    0.0478    0.3836    0.1525   -0.1516   -0.0852    0.0002
          36   -0.0000    0.0000   -0.0000   -0.0001   -0.0000    0.0000    0.0000   -0.0000
          37   -0.2371    0.5879   -0.0173    0.0053    0.0324    0.0351   -0.0319    0.0001
          38    0.0014    0.0010    0.0006   -0.0003    0.0015    0.0019   -0.0013   -0.0000
          39   -0.0000    0.0001   -0.0000    0.0000    0.0000    0.0000   -0.0000    0.0000
          40   -0.0008    0.0016    0.0170    0.2785   -0.1143    0.3139    0.2406   -0.0003
          41   -0.0000    0.0001   -0.0004   -0.0034   -0.0024   -0.0003   -0.0024    0.0000
          42   -0.0000    0.0000   -0.0000   -0.0001    0.0001   -0.0001   -0.0001   -0.0000
          43    0.0105   -0.0409    0.0022   -0.0219    0.1212    0.1653   -0.1148    0.0002
          44   -0.0156    0.0645   -0.0036    0.0396   -0.2161   -0.2885    0.1975   -0.0003
          45   -0.0000    0.0000   -0.0000    0.0000   -0.0000   -0.0001    0.0000   -0.0000
          46   -0.0014    0.0022   -0.0002   -0.0559    0.1674   -0.0287    0.1557   -0.0002
          47   -0.0022    0.0027   -0.0002   -0.0926    0.2877   -0.0418    0.2663   -0.0004
          48   -0.0000   -0.0000   -0.0000    0.0000   -0.0000    0.0000   -0.0000    0.0000
          49   -0.3636   -0.1227   -0.0058    0.0001   -0.0027   -0.0028    0.0018    0.0004
          50    0.5313    0.1818    0.0014    0.0001    0.0042    0.0042   -0.0029   -0.0014
          51    0.0003    0.0001    0.0000    0.0000    0.0000    0.0000   -0.0000    0.0000
          52   -0.0000   -0.0000   -0.0007   -0.0000   -0.0000    0.0000    0.0002    0.4384
          53   -0.0006   -0.0003   -0.0009    0.0000    0.0000   -0.0000    0.0003    0.7483
          54    0.0000   -0.0000   -0.0000   -0.0000    0.0000   -0.0000   -0.0000   -0.0002


           MASS-WEIGHTED COORDINATE ANALYSIS (NORMAL COORDINATES)


   Root No.       1         2         3         4         5         6         7         8

                 1 A       2 A       3 A       4 A       5 A       6 A       7 A       8 A   

                  80.3     114.6     128.4     227.8     277.5     364.0     404.4     430.6
  
           1   -0.0004   -0.0033   -0.1794    0.0004    0.1450   -0.0000   -0.1969   -0.0004
           2    0.0002    0.0021    0.1198   -0.0005   -0.2063   -0.0000    0.1633    0.0002
           3    0.3413   -0.0551    0.0000   -0.1557    0.0001   -0.0294    0.0004   -0.3815
           4   -0.0004   -0.0033   -0.1789    0.0004    0.1373    0.0000   -0.2415   -0.0004
           5   -0.0002   -0.0018   -0.0949   -0.0000   -0.1036    0.0000   -0.1727   -0.0000
           6    0.0977    0.0812   -0.0018   -0.3634    0.0005    0.4034   -0.0003    0.0226
           7    0.0000   -0.0003   -0.0131    0.0001   -0.0175   -0.0000   -0.2845   -0.0004
           8    0.0005    0.0038    0.2094   -0.0006   -0.3014   -0.0001    0.1221    0.0003
           9    0.2971   -0.1481    0.0019   -0.3523    0.0008   -0.3952   -0.0002    0.0864
          10   -0.0007   -0.0052   -0.2795   -0.0001   -0.0212    0.0002    0.2640    0.0007
          11    0.0005    0.0035    0.1922   -0.0002   -0.0731   -0.0001    0.0142   -0.0003
          12    0.4594   -0.1786    0.0021    0.4696   -0.0010   -0.0292    0.0004   -0.0940
          13   -0.0001    0.0001    0.0074    0.0000   -0.0496   -0.0002   -0.1302   -0.0001
          14   -0.0006   -0.0038   -0.2066    0.0003    0.0091   -0.0001   -0.2948   -0.0003
          15   -0.2746    0.1084   -0.0013   -0.0588    0.0003   -0.3749   -0.0002    0.2188
          16    0.0005    0.0032    0.1798   -0.0004   -0.2082   -0.0000   -0.1090   -0.0000
          17    0.0003    0.0018    0.1006   -0.0005   -0.2189   -0.0001    0.0089    0.0002
          18   -0.0523   -0.1705    0.0034   -0.0204    0.0001    0.3973   -0.0002    0.1898
          19    0.0004    0.0033    0.1817   -0.0003   -0.2146   -0.0001   -0.1003   -0.0001
          20   -0.0003   -0.0021   -0.1089    0.0000   -0.0795   -0.0001   -0.2816   -0.0002
          21   -0.3676   -0.0427    0.0018    0.3615   -0.0006   -0.0140    0.0005   -0.2739
          22   -0.0008   -0.0050   -0.2785   -0.0003   -0.0532    0.0002    0.3154    0.0007
          23    0.0005    0.0030    0.1555    0.0006    0.3814    0.0001    0.0640   -0.0002
          24    0.0947    0.6220   -0.0118    0.1498   -0.0006    0.0151    0.0002   -0.1488
          25   -0.0000   -0.0000    0.0097   -0.0004   -0.1069   -0.0001    0.4039    0.0001
          26    0.0001   -0.0000   -0.0184    0.0007    0.4473    0.0002    0.0940    0.0001
          27   -0.1271    0.1809   -0.0026    0.1706   -0.0001    0.0345   -0.0007    0.5533
          28    0.0014    0.0095    0.5003    0.0005    0.3765    0.0001    0.1028   -0.0002
          29   -0.0008   -0.0056   -0.3053    0.0002    0.1754    0.0001    0.2914    0.0003
          30   -0.4118   -0.3577    0.0075   -0.1880    0.0005   -0.0121    0.0001   -0.1697
          31   -0.0002   -0.0017   -0.0905   -0.0002   -0.0742    0.0001    0.1125    0.0003
          32    0.0001    0.0009    0.0477   -0.0002   -0.0651   -0.0000    0.0285   -0.0001
          33    0.2139   -0.2936    0.0050    0.3338   -0.0004   -0.0073    0.0000    0.1749
          34   -0.0002   -0.0017   -0.0939    0.0002    0.0678    0.0000   -0.1281   -0.0002
          35   -0.0001   -0.0010   -0.0519    0.0000   -0.0129    0.0001   -0.0843   -0.0000
          36    0.0478    0.0487   -0.0010   -0.1792    0.0002    0.3240   -0.0003    0.0830
          37   -0.0000   -0.0001   -0.0037    0.0000   -0.0060    0.0000   -0.0814   -0.0001
          38    0.0002    0.0017    0.0965   -0.0002   -0.1047    0.0000    0.0472    0.0001
          39    0.1410   -0.0503    0.0005   -0.1720    0.0004   -0.2925   -0.0001    0.1155
          40   -0.0000    0.0000    0.0018    0.0000   -0.0142   -0.0001   -0.0388    0.0000
          41   -0.0003   -0.0020   -0.1086    0.0002    0.0532   -0.0000   -0.1114   -0.0001
          42   -0.1453    0.0681   -0.0009   -0.0200    0.0002   -0.2954   -0.0002    0.2060
          43    0.0002    0.0017    0.0960   -0.0002   -0.0982   -0.0000    0.0283    0.0001
          44    0.0001    0.0010    0.0542   -0.0002   -0.0854   -0.0001    0.0365    0.0001
          45   -0.0282   -0.0813    0.0016    0.0036   -0.0000    0.3176   -0.0003    0.1766
          46    0.0002    0.0017    0.0933   -0.0002   -0.0965   -0.0000    0.0077   -0.0000
          47   -0.0002   -0.0010   -0.0553    0.0001   -0.0031   -0.0000   -0.1031   -0.0001
          48   -0.1967   -0.0161    0.0008    0.2591   -0.0004   -0.0104    0.0004   -0.2250
          49   -0.0003   -0.0016   -0.0993   -0.0001    0.0263    0.0001    0.0841    0.0003
          50    0.0001    0.0005    0.0299    0.0003    0.1370    0.0001    0.0141    0.0001
          51   -0.0365    0.4296   -0.0080   -0.1220   -0.0001   -0.0032    0.0002   -0.2672
          52    0.0008    0.0051    0.2705    0.0004    0.2379    0.0001   -0.0658   -0.0001
          53   -0.0005   -0.0030   -0.1620   -0.0001   -0.0239   -0.0000    0.1420    0.0001
          54   -0.1919   -0.2426    0.0049   -0.1483    0.0003   -0.0172    0.0003   -0.2741


   Root No.       9        10        11        12        13        14        15        16

                 9 A      10 A      11 A      12 A      13 A      14 A      15 A      16 A   

                 513.8     529.5     629.0     644.9     653.1     773.7     849.8     852.6
  
           1   -0.0008    0.1920   -0.0630   -0.2556   -0.0008    0.0000   -0.0001    0.0000
           2   -0.0001    0.0276    0.1851   -0.2634   -0.0004    0.0000   -0.0001    0.0001
           3    0.3364    0.0013   -0.0005   -0.0012    0.5017    0.3045    0.0445   -0.0051
           4   -0.0009    0.2210    0.0034   -0.3038   -0.0009    0.0000    0.0003    0.0001
           5    0.0004   -0.0958    0.3681    0.2375    0.0011   -0.0002    0.0004   -0.0001
           6    0.1205    0.0007    0.0002    0.0005   -0.1627   -0.1207   -0.0351    0.2425
           7   -0.0001    0.0153   -0.4576    0.0012   -0.0006    0.0001    0.0000   -0.0001
           8    0.0006   -0.1112   -0.0858   -0.1501   -0.0005   -0.0000    0.0004   -0.0001
           9    0.1263    0.0006    0.0003    0.0005   -0.1941   -0.1055    0.0645   -0.1854
          10    0.0015   -0.2739    0.0238   -0.1155   -0.0002    0.0000    0.0001    0.0000
          11   -0.0017    0.3822    0.1295   -0.3064   -0.0006    0.0001   -0.0008    0.0003
          12   -0.2677   -0.0014    0.0001   -0.0000   -0.0428    0.0322   -0.0735   -0.0298
          13   -0.0004    0.0861    0.5156   -0.0716    0.0005   -0.0002    0.0009   -0.0002
          14    0.0000   -0.0140    0.0754    0.1467    0.0005   -0.0001   -0.0000   -0.0000
          15   -0.2341   -0.0010   -0.0004   -0.0006    0.2117   -0.1440   -0.0630    0.2149
          16    0.0004   -0.1137    0.0322    0.2402    0.0007    0.0000   -0.0004    0.0001
          17    0.0005   -0.0814   -0.4126   -0.2548   -0.0013    0.0001    0.0007   -0.0003
          18   -0.2337   -0.0009   -0.0003   -0.0006    0.2141   -0.1399    0.0358   -0.2442
          19    0.0006   -0.1196    0.0774    0.2476    0.0007   -0.0001   -0.0003    0.0001
          20    0.0004   -0.1119   -0.2120    0.2821    0.0005    0.0001   -0.0006    0.0002
          21    0.2707    0.0011    0.0001    0.0004   -0.1560   -0.2294   -0.0305   -0.0259
          22    0.0014   -0.2623    0.0125   -0.1095   -0.0002    0.0000   -0.0002    0.0001
          23   -0.0010    0.1862   -0.0317    0.1438    0.0003   -0.0000    0.0001   -0.0000
          24   -0.2593   -0.0012    0.0000    0.0002   -0.0891   -0.1081    0.0800   -0.0108
          25   -0.0025    0.5054   -0.1230    0.3539    0.0007   -0.0000   -0.0017    0.0002
          26    0.0013   -0.2735    0.0258   -0.0292   -0.0000    0.0000    0.0008   -0.0001
          27    0.4855    0.0028   -0.0002   -0.0001    0.0983    0.0549    0.2252    0.0576
          28    0.0002   -0.0764   -0.0237    0.0912    0.0001    0.0000    0.0030   -0.0004
          29   -0.0004    0.0702   -0.0406    0.1577    0.0004    0.0000   -0.0021    0.0002
          30   -0.0956   -0.0006    0.0000    0.0000   -0.0034    0.0233   -0.4558   -0.1025
          31    0.0007   -0.1353    0.0388   -0.0899   -0.0002    0.0000    0.0000    0.0001
          32   -0.0003    0.0715    0.0599   -0.1256   -0.0002    0.0001   -0.0002    0.0001
          33   -0.1056   -0.0005    0.0001    0.0003   -0.1296   -0.1565    0.0060    0.0574
          34   -0.0002    0.0625   -0.0601   -0.0548   -0.0002   -0.0000    0.0001    0.0001
          35    0.0001   -0.0277    0.0710    0.0882    0.0002   -0.0000    0.0001   -0.0001
          36   -0.0135    0.0000    0.0007    0.0012   -0.4603    0.1334    0.0639   -0.4483
          37   -0.0000    0.0043   -0.1321   -0.0001   -0.0001    0.0000    0.0000   -0.0001
          38    0.0004   -0.0838   -0.0020    0.0541    0.0001    0.0000    0.0001   -0.0000
          39   -0.0191   -0.0001    0.0007    0.0012   -0.4445    0.1073   -0.1270    0.4020
          40   -0.0002    0.0254    0.1489   -0.0216    0.0002    0.0002    0.0003   -0.0003
          41   -0.0002    0.0576    0.0091   -0.0700   -0.0002   -0.0000    0.0002   -0.0001
          42   -0.2684   -0.0012    0.0000   -0.0002    0.0622    0.4900    0.1276   -0.4179
          43    0.0002   -0.0457    0.0714    0.0251    0.0002    0.0000    0.0001    0.0000
          44    0.0002   -0.0317   -0.0838   -0.0990   -0.0004   -0.0001    0.0004   -0.0002
          45   -0.2688   -0.0011   -0.0000   -0.0002    0.0772    0.4753   -0.0633    0.4581
          46    0.0003   -0.0594   -0.0928    0.0386   -0.0001    0.0001   -0.0001    0.0000
          47    0.0001   -0.0178    0.0062    0.1005    0.0003    0.0000   -0.0002    0.0001
          48    0.2216    0.0008    0.0005    0.0010   -0.3314    0.4957    0.0567    0.0548
          49    0.0011   -0.2125   -0.0148   -0.0351   -0.0001    0.0000    0.0004   -0.0001
          50    0.0002   -0.0415   -0.0199    0.0360    0.0001   -0.0000    0.0004   -0.0001
          51   -0.1693   -0.0009    0.0001   -0.0001   -0.0183    0.0267   -0.1522    0.0221
          52    0.0010   -0.2395    0.0488   -0.1320   -0.0002    0.0000   -0.0057    0.0007
          53   -0.0007    0.1479   -0.0449    0.1407    0.0002   -0.0000    0.0034   -0.0003
          54   -0.2369   -0.0016    0.0001   -0.0001   -0.0591   -0.0784    0.8057    0.1777


   Root No.      17        18        19        20        21        22        23        24

                17 A      18 A      19 A      20 A      21 A      22 A      23 A      24 A   

                 858.6     905.3     917.5     926.4     974.9     983.8    1023.0    1048.6
  
           1    0.0019    0.0728   -0.0000   -0.0001   -0.0001    0.0000   -0.0000   -0.0448
           2   -0.0000    0.1311    0.0001   -0.0001   -0.0000    0.0000   -0.0000   -0.0311
           3    0.0002   -0.0000   -0.0514    0.1166   -0.2644    0.0849    0.2305    0.0001
           4   -0.0285   -0.0004   -0.0000    0.0000    0.0000    0.0001    0.0001   -0.2801
           5   -0.0404   -0.2050    0.0000    0.0001    0.0001    0.0001   -0.0001    0.2583
           6   -0.0005   -0.0003    0.2170   -0.1318    0.2408    0.2530   -0.2475   -0.0002
           7   -0.0036   -0.1100   -0.0000    0.0000    0.0001    0.0001   -0.0000    0.4301
           8   -0.0581   -0.1522   -0.0000    0.0000   -0.0001   -0.0001    0.0001   -0.1411
           9    0.0008   -0.0000    0.2026   -0.1520    0.0085   -0.3230   -0.2963   -0.0002
          10   -0.0073    0.0778   -0.0000   -0.0000    0.0001   -0.0000   -0.0001   -0.0069
          11    0.1154    0.4350    0.0002   -0.0001   -0.0000    0.0001   -0.0001    0.1996
          12   -0.0006    0.0001   -0.3416   -0.0140    0.3842   -0.1154   -0.1490   -0.0001
          13   -0.1130   -0.3989   -0.0001    0.0000   -0.0000   -0.0002    0.0002    0.1646
          14    0.0011   -0.0107   -0.0001    0.0000   -0.0001   -0.0000    0.0000   -0.0757
          15   -0.0007    0.0002   -0.0619   -0.0264   -0.0061   -0.3507    0.3046    0.0001
          16    0.0579    0.1944    0.0001   -0.0000    0.0001    0.0001    0.0001   -0.1233
          17   -0.1053   -0.3861   -0.0001    0.0001   -0.0000   -0.0001    0.0000    0.0779
          18    0.0004    0.0001    0.0272    0.0290    0.2365    0.1998    0.3375    0.0001
          19    0.0514    0.1681   -0.0000   -0.0000   -0.0001   -0.0000   -0.0001   -0.0582
          20    0.0911    0.3063    0.0000   -0.0000    0.0000    0.0000   -0.0001   -0.0708
          21   -0.0002   -0.0000   -0.2177    0.1309   -0.2524    0.1383   -0.3289    0.0000
          22    0.0204    0.1277    0.0001   -0.0001   -0.0000    0.0000   -0.0000    0.0542
          23   -0.0179   -0.0804   -0.0000    0.0001    0.0000   -0.0000    0.0000   -0.0954
          24    0.0009   -0.0002    0.1077   -0.4062   -0.3021    0.1264    0.1001    0.0000
          25    0.2272   -0.1717   -0.0000    0.0002    0.0000   -0.0000    0.0001   -0.0344
          26   -0.1060    0.0677   -0.0000   -0.0001    0.0000    0.0000   -0.0001    0.0564
          27    0.0017    0.0000   -0.0799    0.1668    0.1135   -0.0440   -0.0294    0.0000
          28   -0.3829    0.0846   -0.0000   -0.0002   -0.0000    0.0000   -0.0001    0.0416
          29    0.2615   -0.0975   -0.0000    0.0002    0.0000   -0.0000    0.0000    0.0376
          30   -0.0036    0.0001    0.0459   -0.0863   -0.0448    0.0165    0.0097    0.0000
          31    0.0085    0.1412    0.0001   -0.0001   -0.0000    0.0000   -0.0001    0.1195
          32    0.0405    0.2065   -0.0001   -0.0002    0.0001    0.0000   -0.0001    0.1394
          33   -0.0002    0.0001    0.6099    0.3227   -0.3714    0.0727    0.1201    0.0001
          34   -0.0000    0.0234    0.0000    0.0001    0.0000    0.0000    0.0000   -0.2853
          35   -0.0070   -0.0473   -0.0001    0.0001   -0.0000   -0.0001    0.0000   -0.0398
          36    0.0010    0.0004   -0.2937    0.1692   -0.3039   -0.3094    0.2209    0.0001
          37   -0.0010   -0.0325    0.0000   -0.0000    0.0000   -0.0001   -0.0001    0.1290
          38   -0.0197   -0.0481   -0.0000   -0.0000   -0.0000    0.0001    0.0002   -0.2400
          39   -0.0014    0.0000   -0.3067    0.1712   -0.0293    0.4492    0.3033    0.0002
          40   -0.0336   -0.1190    0.0000    0.0000   -0.0000    0.0002   -0.0001    0.0458
          41   -0.0288   -0.0808   -0.0001    0.0000   -0.0001    0.0000    0.0003   -0.3593
          42    0.0014    0.0000    0.0853    0.0555    0.0017    0.4336   -0.2852   -0.0002
          43   -0.0155   -0.0462   -0.0001    0.0001   -0.0001    0.0001    0.0001   -0.3967
          44   -0.0501   -0.1748   -0.0000    0.0001    0.0000    0.0001    0.0002   -0.1846
          45   -0.0010   -0.0003   -0.0498   -0.0263   -0.3072   -0.2579   -0.3247   -0.0001
          46    0.0129    0.0381    0.0000    0.0000    0.0000    0.0000   -0.0002   -0.0497
          47    0.0275    0.0954    0.0000   -0.0000    0.0000   -0.0000    0.0001   -0.0062
          48    0.0005   -0.0002    0.3529   -0.2108    0.3252   -0.1676    0.3117    0.0000
          49   -0.0627   -0.0088    0.0001    0.0002    0.0000   -0.0000   -0.0000   -0.0543
          50   -0.0524   -0.0517   -0.0000   -0.0003   -0.0001    0.0001    0.0001   -0.0748
          51   -0.0016    0.0002    0.1771    0.7124    0.2569   -0.1591   -0.1030   -0.0001
          52    0.7004   -0.1497    0.0000    0.0003    0.0001   -0.0000    0.0001   -0.0011
          53   -0.3988    0.0727   -0.0000   -0.0002   -0.0000    0.0000   -0.0000    0.0204
          54    0.0062   -0.0002   -0.0502    0.0949    0.0354   -0.0127   -0.0056   -0.0000


   Root No.      25        26        27        28        29        30        31        32

[...]
 FREQ.      1128.22         C  8 -- H 17         +22.2% ( 63.6%)     26.7%
 T-DIPOLE    0.1400         C  8 -- C  9         +18.2% ( 57.6%)     71.3%
 TRAVEL      0.1010         C 10 -- H 18         +10.7% ( 44.2%)     96.5%
 RED. MASS   0.5190         C  4 -- C  8          +9.9% ( 42.5%)      5.5%
 EFF. MASS   5.8598

 VIBRATION   28   28A         ATOM PAIR      ENERGY CONTRIBUTION    RADIAL
 FREQ.      1154.66         C  5 -- H 14         +37.1% ( 61.1%)      0.1%
 T-DIPOLE    0.0065         C  7 -- H 16         +29.9% ( 54.8%)      0.1%
 TRAVEL      0.2198         C  6 -- H 15         +19.6% ( 44.4%)      0.1%
 RED. MASS   0.3012         C  2 -- H 12          +7.5% ( 27.4%)      0.1%
 EFF. MASS   1.2090

 VIBRATION   29   29A         ATOM PAIR      ENERGY CONTRIBUTION    RADIAL
 FREQ.      1172.23         C  6 -- H 15         +20.0% ( 54.7%)      0.6%
 T-DIPOLE    0.0377         C  2 -- H 12         +17.9% ( 51.8%)      8.5%
 TRAVEL      0.1219         C  3 -- H 13          +9.1% ( 37.0%)     14.2%
 RED. MASS   0.2616         C  1 -- C  2          +7.0% ( 32.4%)     76.9%
 EFF. MASS   3.8740

 VIBRATION   30   30A         ATOM PAIR      ENERGY CONTRIBUTION    RADIAL
 FREQ.      1215.19         C  4 -- H 11         +38.4% ( 76.9%)      0.7%
 T-DIPOLE    0.0558         C  3 -- H 13          +9.1% ( 37.4%)      8.2%
 TRAVEL      0.1155         C  4 -- C  8          +6.0% ( 30.4%)      6.9%
 RED. MASS   0.4214         C  8 -- H 17          +5.9% ( 30.0%)     16.2%
 EFF. MASS   4.1572

 VIBRATION   31   31A         ATOM PAIR      ENERGY CONTRIBUTION    RADIAL
 FREQ.      1248.00         C  3 -- H 13         +26.0% ( 63.8%)      0.0%
 T-DIPOLE    0.0438         C  2 -- H 12         +11.7% ( 42.8%)      0.5%
 TRAVEL      0.1232         C  7 -- H 16          +8.7% ( 36.9%)      0.0%
 RED. MASS   0.2907         C  5 -- H 14          +6.1% ( 31.0%)      0.4%
 EFF. MASS   3.5575

 VIBRATION   32   32A         ATOM PAIR      ENERGY CONTRIBUTION    RADIAL
 FREQ.      1264.83         C  8 -- H 17         +32.7% ( 76.0%)      8.1%
 T-DIPOLE    0.0935         C  4 -- C  8         +20.9% ( 60.8%)     12.7%
 TRAVEL      0.0934         C  8 -- C  9         +15.5% ( 52.4%)     88.5%
 RED. MASS   1.0133         C  4 -- H 11          +8.3% ( 38.2%)     83.2%
 EFF. MASS   6.1130

 VIBRATION   33   33A         ATOM PAIR      ENERGY CONTRIBUTION    RADIAL
 FREQ.      1393.19         C  6 -- C  7         +14.9% ( 67.4%)     99.8%
 T-DIPOLE    0.2717         C  2 -- C  5         +14.7% ( 67.0%)     96.7%
 TRAVEL      0.0643         C  1 -- C  2         +13.0% ( 63.0%)     98.6%
 RED. MASS   1.9733         C  1 -- C  3          +9.5% ( 53.9%)     98.4%
 EFF. MASS  11.7075

 VIBRATION   34   34A         ATOM PAIR      ENERGY CONTRIBUTION    RADIAL
 FREQ.      1396.44         C  1 -- C  4         +14.0% ( 59.8%)     98.3%
 T-DIPOLE    0.3775         C  5 -- C  7         +13.0% ( 57.4%)     99.6%
 TRAVEL      0.0653         C  3 -- C  6         +11.7% ( 54.7%)     69.3%
 RED. MASS   1.4261         C  1 -- C  3         +10.3% ( 51.2%)     64.6%
 EFF. MASS  11.3276

 VIBRATION   35   35A         ATOM PAIR      ENERGY CONTRIBUTION    RADIAL
 FREQ.      1543.96         C  3 -- C  6         +12.6% ( 52.6%)    100.0%
 T-DIPOLE    0.5395         C  2 -- C  5         +12.4% ( 52.1%)     99.8%
 TRAVEL      0.0633         C  1 -- C  2         +11.8% ( 50.7%)     26.9%
 RED. MASS   1.5305         C  1 -- C  3         +11.7% ( 50.6%)     26.3%
 EFF. MASS  10.9112         C  6 -- C  7         +10.5% ( 48.0%)     25.1%
                            C  5 -- C  7         +10.3% ( 47.5%)     19.9%

 VIBRATION   36   36A         ATOM PAIR      ENERGY CONTRIBUTION    RADIAL
 FREQ.      1611.42         C  1 -- C  3         +15.6% ( 58.0%)     61.7%
 T-DIPOLE    0.4460         C  1 -- C  2         +15.5% ( 57.8%)     57.6%
 TRAVEL      0.0615         C  1 -- C  4         +14.3% ( 55.5%)     97.9%
 RED. MASS   2.0562         C  5 -- C  7          +9.1% ( 44.3%)     66.7%
 EFF. MASS  11.0791

 VIBRATION   37   37A         ATOM PAIR      ENERGY CONTRIBUTION    RADIAL
 FREQ.      1778.51         C  6 -- C  7         +15.6% ( 54.9%)     88.9%
 T-DIPOLE    0.0512         C  1 -- C  2         +14.9% ( 53.8%)     89.5%
 TRAVEL      0.0565         C  5 -- C  7         +14.9% ( 53.7%)     85.7%
 RED. MASS   2.4261         C  1 -- C  3         +14.6% ( 53.1%)     88.7%
 EFF. MASS  11.8585

 VIBRATION   38   38A         ATOM PAIR      ENERGY CONTRIBUTION    RADIAL
 FREQ.      1799.20         C  3 -- C  6         +16.8% ( 57.1%)     99.8%
 T-DIPOLE    0.1259         C  2 -- C  5         +16.5% ( 56.7%)    100.0%
 TRAVEL      0.0563         C  1 -- C  3         +12.0% ( 48.3%)     46.7%
 RED. MASS   2.2665         C  1 -- C  2         +11.2% ( 46.8%)     41.4%
 EFF. MASS  11.8243

 VIBRATION   39   39A         ATOM PAIR      ENERGY CONTRIBUTION    RADIAL
 FREQ.      1856.69         C  4 -- C  8         +42.1% ( 96.3%)     95.4%
 T-DIPOLE    0.1325         C  1 -- C  4         +15.8% ( 59.1%)     58.2%
 TRAVEL      0.0554         C  4 -- H 11         +13.8% ( 55.1%)      2.9%
 RED. MASS   5.1131         C  8 -- H 17         +12.6% ( 52.7%)      3.1%
 EFF. MASS  11.8323         C  8 -- C  9         +12.2% ( 51.7%)     43.4%

 VIBRATION   40   40A         ATOM PAIR      ENERGY CONTRIBUTION    RADIAL
 FREQ.      2327.34         C  9 -- C 10         +58.1% ( 96.1%)    100.0%
 T-DIPOLE    0.6680         C  8 -- C  9         +29.8% ( 68.8%)     99.9%
 TRAVEL      0.0501         C 10 -- H 18         +10.2% ( 40.3%)    100.0%
 RED. MASS   5.3952         C  4 -- C  8          +1.0% ( 12.3%)     48.5%
 EFF. MASS  11.5323

 VIBRATION   41   41A         ATOM PAIR      ENERGY CONTRIBUTION    RADIAL
 FREQ.      2971.30         C  8 -- H 17         +85.1% ( 93.9%)    100.0%
 T-DIPOLE    0.3619         C  3 -- H 13         +11.8% ( 35.0%)    100.0%
 TRAVEL      0.1222         C  4 -- C  8          +1.3% ( 11.7%)     36.4%
 RED. MASS   0.7322         C  8 -- C  9          +1.2% ( 11.3%)     18.6%
 EFF. MASS   1.5189

 VIBRATION   42   42A         ATOM PAIR      ENERGY CONTRIBUTION    RADIAL
 FREQ.      3012.00         C  3 -- H 13         +84.0% ( 92.8%)    100.0%
 T-DIPOLE    0.2039         C  8 -- H 17         +11.4% ( 34.2%)    100.0%
 TRAVEL      0.1214         C  6 -- H 15          +1.4% ( 12.1%)     98.8%
 RED. MASS   0.7089         C  1 -- C  3          +1.3% ( 11.8%)     26.0%
 EFF. MASS   1.5182

 VIBRATION   43   43A         ATOM PAIR      ENERGY CONTRIBUTION    RADIAL
 FREQ.      3039.56         C  4 -- H 11         +96.4% ( 99.7%)    100.0%
 T-DIPOLE    0.3130         C  4 -- C  8          +1.5% ( 12.6%)     38.2%
 TRAVEL      0.1207         C  1 -- C  4          +1.4% ( 12.1%)     16.4%
 RED. MASS   0.9186         C  2 -- H 12          +0.5% (  7.0%)    100.0%
 EFF. MASS   1.5229

 VIBRATION   44   44A         ATOM PAIR      ENERGY CONTRIBUTION    RADIAL
 FREQ.      3051.34         C  2 -- H 12         +66.1% ( 82.7%)    100.0%
 T-DIPOLE    0.1767         C  5 -- H 14         +26.0% ( 51.8%)    100.0%
 TRAVEL      0.1213         C  7 -- H 16          +3.9% ( 20.2%)     99.9%
 RED. MASS   0.4997         C  2 -- C  5          +1.3% ( 11.6%)      2.1%
 EFF. MASS   1.5017

 VIBRATION   45   45A         ATOM PAIR      ENERGY CONTRIBUTION    RADIAL
 FREQ.      3058.79         C  7 -- H 16         +49.5% ( 71.5%)    100.0%
 T-DIPOLE    0.1837         C  6 -- H 15         +27.4% ( 53.3%)    100.0%
 TRAVEL      0.1211         C  2 -- H 12         +13.8% ( 37.7%)    100.0%
 RED. MASS   0.3373         C  5 -- H 14          +5.9% ( 24.6%)     99.7%
 EFF. MASS   1.5028

 VIBRATION   46   46A         ATOM PAIR      ENERGY CONTRIBUTION    RADIAL
 FREQ.      3066.84         C  6 -- H 15         +44.0% ( 67.3%)    100.0%
 T-DIPOLE    0.5243         C  5 -- H 14         +39.2% ( 63.6%)    100.0%
 TRAVEL      0.1197         C  2 -- H 12         +12.1% ( 35.3%)    100.0%
 RED. MASS   0.3588         C  7 -- H 16          +1.0% ( 10.3%)     97.2%
 EFF. MASS   1.5350

 VIBRATION   47   47A         ATOM PAIR      ENERGY CONTRIBUTION    RADIAL
 FREQ.      3078.64         C  7 -- H 16         +42.5% ( 66.1%)    100.0%
 T-DIPOLE    0.4484         C  5 -- H 14         +25.9% ( 51.6%)    100.0%
 TRAVEL      0.1172         C  6 -- H 15         +23.3% ( 49.0%)    100.0%
 RED. MASS   0.3042         C  2 -- H 12          +4.3% ( 20.9%)     99.9%
 EFF. MASS   1.5945

 VIBRATION   48   48A         ATOM PAIR      ENERGY CONTRIBUTION    RADIAL
 FREQ.      3357.69         C 10 -- H 18         +94.1% ( 99.1%)    100.0%
 T-DIPOLE    1.0653         C  9 -- C 10          +5.6% ( 24.2%)    100.0%
 TRAVEL      0.0986         C  8 -- C  9          +0.3% (  5.9%)    100.0%
 RED. MASS   0.9514
 EFF. MASS   2.0661

      SYMMETRY NUMBER FOR POINT-GROUP C1  =  1


          SYSTEM IS A GROUND STATE



 InChI=1S/C10H8/c1-2-3-7-10-8-5-4-6-9-10/h1,3-9H


          MOLECULE IS NOT LINEAR

          THERE ARE 48 GENUINE VIBRATIONS IN THIS SYSTEM
          THIS THERMODYNAMICS CALCULATION IS LIMITED TO
          MOLECULES WHICH HAVE NO INTERNAL ROTATIONS




                    CALCULATED THERMODYNAMIC PROPERTIES
                                          *
   TEMP. (K)   PARTITION FUNCTION   H.O.F.    ENTHALPY  HEAT CAPACITY ENTROPY
                                   KCAL/MOL   CAL/MOLE    CAL/K/MOL  CAL/K/MOL


 298.00  VIB.     0.8369D+02                  3538.8427    26.4751    20.6728
         ROT.     0.6514D+06                   888.2813     2.9808    29.5832
         INT.     0.5451D+08                  4427.1240    29.4559    50.2560
         TRA.     0.1403D+28                  1480.4688     4.9680    40.4556
         TOT.                       88.478    5907.5928    34.4239    90.7117

 200.00  VIB.     0.1272D+02                  1456.2326    16.1397    12.3354
         ROT.     0.3581D+06                   596.1620     2.9808    28.3945
         INT.     0.4557D+07                  2052.3945    19.1206    40.7300
         TRA.     0.7713D+27                   993.6033     4.9680    38.4745
         TOT.                       85.617    3045.9978    24.0886    79.2045

 210.00  VIB.     0.1530D+02                  1622.6572    17.1482    13.1472
         ROT.     0.3853D+06                   625.9700     2.9808    28.5400
         INT.     0.5894D+07                  2248.6272    20.1290    41.6872
         TRA.     0.8299D+27                  1043.2834     4.9680    38.7169
         TOT.                       85.863    3291.9106    25.0971    80.4041

 220.00  VIB.     0.1843D+02                  1799.2546    18.1739    13.9686
         ROT.     0.4132D+06                   655.7781     2.9808    28.6786
         INT.     0.7613D+07                  2455.0328    21.1548    42.6472
         TRA.     0.8899D+27                  1092.9636     4.9680    38.9480
         TOT.                       86.119    3547.9964    26.1228    81.5952

 230.00  VIB.     0.2224D+02                  1986.1856    19.2145    14.7993
         ROT.     0.4417D+06                   685.5862     2.9808    28.8111
         INT.     0.9821D+07                  2671.7719    22.1953    43.6105
         TRA.     0.9512D+27                  1142.6437     4.9680    39.1689
         TOT.                       86.385    3814.4156    27.1633    82.7793

 240.00  VIB.     0.2689D+02                  2183.5858    20.2673    15.6393
         ROT.     0.4708D+06                   715.3943     2.9808    28.9380
         INT.     0.1266D+08                  2898.9801    23.2481    44.5773
         TRA.     0.1014D+28                  1192.3239     4.9680    39.3803
         TOT.                       86.662    4091.3040    28.2162    83.9576

 250.00  VIB.     0.3257D+02                  2391.5638    21.3296    16.4882
         ROT.     0.5005D+06                   745.2024     2.9808    29.0597
         INT.     0.1630D+08                  3136.7662    24.3104    45.5478
         TRA.     0.1078D+28                  1242.0041     4.9680    39.5831
         TOT.                       86.949    4378.7703    29.2785    85.1309

 260.00  VIB.     0.3951D+02                  2610.2007    22.3986    17.3455
         ROT.     0.5308D+06                   775.0105     2.9808    29.1766
         INT.     0.2098D+08                  3385.2112    25.3795    46.5221
         TRA.     0.1143D+28                  1291.6842     4.9680    39.7779
         TOT.                       87.248    4676.8955    30.3475    86.3001

 270.00  VIB.     0.4803D+02                  2839.5498    23.4716    18.2110
         ROT.     0.5618D+06                   804.8186     2.9808    29.2891
         INT.     0.2698D+08                  3644.3685    26.4524    47.5001
         TRA.     0.1210D+28                  1341.3644     4.9680    39.9654
         TOT.                       87.556    4985.7328    31.4205    87.4655

 280.00  VIB.     0.5848D+02                  3079.6376    24.5459    19.0840
         ROT.     0.5932D+06                   834.6267     2.9808    29.3975
         INT.     0.3469D+08                  3914.2643    27.5267    48.4815
         TRA.     0.1278D+28                  1391.0445     4.9680    40.1461
         TOT.                       87.876    5305.3088    32.4948    88.6276

 290.00  VIB.     0.7132D+02                  3330.4644    25.6190    19.9641
         ROT.     0.6253D+06                   864.4348     2.9808    29.5021
         INT.     0.4460D+08                  4194.8992    28.5998    49.4662
         TRA.     0.1347D+28                  1440.7247     4.9680    40.3205
         TOT.                       88.206    5635.6239    33.5679    89.7866

 300.00  VIB.     0.8711D+02                  3592.0064    26.6886    20.8506
         ROT.     0.6579D+06                   894.2429     2.9808    29.6031
         INT.     0.5732D+08                  4486.2493    29.6694    50.4538
         TRA.     0.1417D+28                  1490.4049     4.9680    40.4889
         TOT.                       88.547    5976.6542    34.6374    90.9427

 310.00  VIB.     0.1066D+03                  3864.2175    27.7525    21.7431
         ROT.     0.6911D+06                   924.0510     2.9808    29.7009
         INT.     0.7365D+08                  4788.2685    30.7333    51.4440
         TRA.     0.1488D+28                  1540.0850     4.9680    40.6518
         TOT.                       88.899    6328.3535    35.7013    92.0958

 320.00  VIB.     0.1306D+03                  4147.0307    28.8087    22.6409
         ROT.     0.7248D+06                   953.8591     2.9808    29.7955
         INT.     0.9464D+08                  5100.8898    31.7895    52.4364
         TRA.     0.1561D+28                  1589.7652     4.9680    40.8095
         TOT.                       89.261    6690.6550    36.7576    93.2460

 330.00  VIB.     0.1602D+03                  4440.3608    29.8556    23.5435
         ROT.     0.7591D+06                   983.6672     2.9808    29.8872
         INT.     0.1216D+09                  5424.0280    32.8364    53.4307
         TRA.     0.1635D+28                  1639.4454     4.9680    40.9624
         TOT.                       89.634    7063.4733    37.8044    94.3931

 340.00  VIB.     0.1968D+03                  4744.1061    30.8915    24.4502
         ROT.     0.7938D+06                  1013.4753     2.9808    29.9762
         INT.     0.1562D+09                  5757.5815    33.8724    54.4264
         TRA.     0.1710D+28                  1689.1255     4.9680    41.1107
         TOT.                       90.017    7446.7070    38.8404    95.5371

 350.00  VIB.     0.2421D+03                  5058.1508    31.9153    25.3604
         ROT.     0.8291D+06                  1043.2834     2.9808    30.0626
         INT.     0.2007D+09                  6101.4343    34.8961    55.4231
         TRA.     0.1786D+28                  1738.8057     4.9680    41.2547
         TOT.                       90.411    7840.2399    39.8641    96.6778

 360.00  VIB.     0.2982D+03                  5382.3665    32.9256    26.2737
         ROT.     0.8649D+06                  1073.0915     2.9808    30.1466
         INT.     0.2579D+09                  6455.4580    35.9064    56.4203
         TRA.     0.1863D+28                  1788.4859     4.9680    41.3947
         TOT.                       90.815    8243.9439    40.8744    97.8150

 370.00  VIB.     0.3677D+03                  5716.6143    33.9215    27.1895
         ROT.     0.9012D+06                  1102.8996     2.9808    30.2283
         INT.     0.3314D+09                  6819.5139    36.9023    57.4177
         TRA.     0.1941D+28                  1838.1660     4.9680    41.5308
         TOT.                       91.228    8657.6799    41.8704    98.9485

 380.00  VIB.     0.4540D+03                  6060.7465    34.9023    28.1071
         ROT.     0.9379D+06                  1132.7077     2.9808    30.3078
         INT.     0.4258D+09                  7193.4542    37.8832    58.4149
         TRA.     0.2020D+28                  1887.8462     4.9680    41.6633
         TOT.                       91.652    9081.3004    42.8512   100.0782

 390.00  VIB.     0.5610D+03                  6414.6085    35.8674    29.0263
         ROT.     0.9752D+06                  1162.5158     2.9808    30.3852
         INT.     0.5471D+09                  7577.1243    38.8482    59.4115
         TRA.     0.2100D+28                  1937.5263     4.9680    41.7923
         TOT.                       92.085    9514.6506    43.8162   101.2038

 400.00  VIB.     0.6940D+03                  6778.0397    36.8161    29.9463
         ROT.     0.1013D+07                  1192.3239     2.9808    30.4607
         INT.     0.7030D+09                  7970.3636    39.7969    60.4070
         TRA.     0.2182D+28                  1987.2065     4.9680    41.9181
         TOT.                       92.528    9957.5701    44.7649   102.3251

   *: NOTE: HEATS OF FORMATION ARE RELATIVE TO THE
            ELEMENTS IN THEIR STANDARD STATE AT 298K
              (=  Standard Enthalpy of Formation).

            Hvib:  Zero-point energy is not included.
                   frequencies of less than zero cm-1 are not included.
            Hrot = (3/2)RT
            Htra = (3/2)RT + pV = (5/2)RT

            Heat capacity is Cp, not Cv

          For more information, see: HTTP://OpenMOPAC.net/Manual/thermochemistry.html


           FORCE CONSTANT IN CARTESIAN COORDINATES (Millidynes/A)

    ATOM   CHEMICAL       X               Y               Z
   NUMBER   SYMBOL  FORCE CONSTANT  FORCE CONSTANT  FORCE CONSTANT

      1       C       12.695059       12.737767        2.590734
      2       C       12.064204       12.322344        2.348298
      3       C       11.869471       12.406933        2.347490
      4       C       15.156635       10.046968        2.228092
      5       C       12.092283       12.267249        2.339836
      6       C       12.221458       12.196517        2.336137
      7       C       12.192508       12.179372        2.341444
      8       C       14.936512       10.812922        2.175917
      9       C        8.026251       19.158148        1.489790
     10       C        7.012888       17.949354        1.277826
     11       H        2.107931        3.763195        0.352916
     12       H        1.878897        4.031212        0.353938
     13       H        4.971191        0.854968        0.375718
     14       H        5.158011        0.759791        0.355645
     15       H        1.844928        4.074956        0.355658
     16       H        1.883552        4.040957        0.354447
     17       H        2.093784        3.576220        0.357644
     18       H        1.785514        4.579678        0.320225

 **********************
 *                    *
 * JOB ENDED NORMALLY *
 *                    *
 **********************



 TOTAL JOB TIME:             6.73 SECONDS

 == MOPAC DONE ==
