 *******************************************************************************
 ** Site#: 14399        For non-commercial use only    Version 18.184L 64BITS **
 *******************************************************************************
 ** Cite this program as: MOPAC2016, Version: 18.184L, James J. P. Stewart,   **
 ** Stewart Computational Chemistry, web: HTTP://OpenMOPAC.net. Days left:  20**
 *******************************************************************************
 **                                                                           **
 **                                MOPAC2016                                  **
 **                                                                           **
 *******************************************************************************

                              PM3 CALCULATION RESULTS

 *******************************************************************************
 *  CALCULATION DONE:                                Thu Jun 13 16:01:01 2019  *
 *  PM3        - The PM3 Hamiltonian to be used
 *  PRECISE    - CRITERIA TO BE INCREASED BY 100 TIMES
 *  NOSYM      - POINT-GROUP SYMMETRY SET TO C1
 *  THREADS=1  - MULTI-THREADING NOT USED
 *  T=         - A TIME OF 172800.0 SECONDS REQUESTED
 *  DUMP=N     - RESTART FILE WRITTEN EVERY  7200.000 SECONDS
 *******************************************************************************
pm3  precise nosym THREADS=1
 InChI=1S/C10H12/c1-2-4-6-8-10-9-7-5-3-1/h1-4,7-10H,5-6H2

   ATOM   CHEMICAL          X               Y               Z
  NUMBER   SYMBOL      (ANGSTROMS)     (ANGSTROMS)     (ANGSTROMS)
 
     1       C         -0.21040000  *  -1.32050000  *   0.93640000  *
     2       C          0.21040000  *   1.32050000  *  -0.93640000  *
     3       C         -1.44280000  *  -1.41980000  *   0.08020000  *
     4       C          0.98110000  *  -1.76720000  *   0.13480000  *
     5       C          1.44280000  *   1.41980000  *  -0.08020000  *
     6       C         -0.98110000  *   1.76720000  *  -0.13480000  *
     7       C          2.04540000  *  -1.00780000  *  -0.16170000  *
     8       C         -2.23690000  *  -0.39390000  *  -0.25820000  *
     9       C          2.23690000  *   0.39390000  *   0.25820000  *
    10       C         -2.04540000  *   1.00780000  *   0.16170000  *
    11       H         -0.32910000  *  -2.01330000  *   1.79550000  *
    12       H         -0.07570000  *  -0.31250000  *   1.37330000  *
    13       H          0.07570000  *   0.31250000  *  -1.37330000  *
    14       H          0.32910000  *   2.01330000  *  -1.79550000  *
    15       H         -1.72250000  *  -2.40770000  *  -0.26690000  *
    16       H          0.98720000  *  -2.79610000  *  -0.20580000  *
    17       H          1.72250000  *   2.40770000  *   0.26690000  *
    18       H         -0.98720000  *   2.79610000  *   0.20580000  *
    19       H          3.14890000  *   0.62010000  *   0.79610000  *
    20       H          2.88010000  *  -1.48440000  *  -0.66020000  *
    21       H         -3.14890000  *  -0.62010000  *  -0.79610000  *
    22       H         -2.88010000  *   1.48440000  *   0.66020000  *
 


          CARTESIAN COORDINATES 

    NO.       ATOM           X           Y           Z

     1         C         -0.2104     -1.3205      0.9364
     2         C          0.2104      1.3205     -0.9364
     3         C         -1.4428     -1.4198      0.0802
     4         C          0.9811     -1.7672      0.1348
     5         C          1.4428      1.4198     -0.0802
     6         C         -0.9811      1.7672     -0.1348
     7         C          2.0454     -1.0078     -0.1617
     8         C         -2.2369     -0.3939     -0.2582
     9         C          2.2369      0.3939      0.2582
    10         C         -2.0454      1.0078      0.1617
    11         H         -0.3291     -2.0133      1.7955
    12         H         -0.0757     -0.3125      1.3733
    13         H          0.0757      0.3125     -1.3733
    14         H          0.3291      2.0133     -1.7955
    15         H         -1.7225     -2.4077     -0.2669
    16         H          0.9872     -2.7961     -0.2058
    17         H          1.7225      2.4077      0.2669
    18         H         -0.9872      2.7961      0.2058
    19         H          3.1489      0.6201      0.7961
    20         H          2.8801     -1.4844     -0.6602
    21         H         -3.1489     -0.6201     -0.7961
    22         H         -2.8801      1.4844      0.6602

  H: (PM3): J. J. P. STEWART, J. COMP. CHEM. 10, 209 (1989).
  C: (PM3): J. J. P. STEWART, J. COMP. CHEM. 10, 209 (1989).

           Empirical Formula: C10 H12  =    22 atoms



      MOLECULAR POINT GROUP   :   C1  


      RHF CALCULATION, NO. OF DOUBLY OCCUPIED LEVELS = 26


          Geometry optimization using EF

          DIAGONAL MATRIX USED AS START HESSIAN

 CYCLE:     1 TIME:   0.031 TIME LEFT:  2.00D  GRAD.:    85.216 HEAT:  59.19458
 CYCLE:     2 TIME:   0.051 TIME LEFT:  2.00D  GRAD.:    31.720 HEAT:  57.29292
 CYCLE:     3 TIME:   0.031 TIME LEFT:  2.00D  GRAD.:    46.279 HEAT:  57.04996
 CYCLE:     4 TIME:   0.023 TIME LEFT:  2.00D  GRAD.:    25.545 HEAT:  56.71078
 CYCLE:     5 TIME:   0.023 TIME LEFT:  2.00D  GRAD.:    31.012 HEAT:  56.60431
 CYCLE:     6 TIME:   0.023 TIME LEFT:  2.00D  GRAD.:    32.641 HEAT:  56.55800
 CYCLE:     7 TIME:   0.023 TIME LEFT:  2.00D  GRAD.:    23.945 HEAT:  56.35105
 CYCLE:     8 TIME:   0.031 TIME LEFT:  2.00D  GRAD.:    24.900 HEAT:  56.31029
 CYCLE:     9 TIME:   0.023 TIME LEFT:  2.00D  GRAD.:    15.402 HEAT:  56.24000
 CYCLE:    10 TIME:   0.023 TIME LEFT:  2.00D  GRAD.:    14.638 HEAT:  56.21566
 CYCLE:    11 TIME:   0.023 TIME LEFT:  2.00D  GRAD.:    10.304 HEAT:  56.16737
 CYCLE:    12 TIME:   0.023 TIME LEFT:  2.00D  GRAD.:    10.119 HEAT:  56.14832
 CYCLE:    13 TIME:   0.062 TIME LEFT:  2.00D  GRAD.:     5.487 HEAT:  56.11090
 CYCLE:    14 TIME:   0.023 TIME LEFT:  2.00D  GRAD.:     7.023 HEAT:  56.09715
 CYCLE:    15 TIME:   0.023 TIME LEFT:  2.00D  GRAD.:     7.157 HEAT:  56.07389
 CYCLE:    16 TIME:   0.023 TIME LEFT:  2.00D  GRAD.:     7.773 HEAT:  56.05135
 CYCLE:    17 TIME:   0.020 TIME LEFT:  2.00D  GRAD.:     4.677 HEAT:  56.02187
 CYCLE:    18 TIME:   0.023 TIME LEFT:  2.00D  GRAD.:     6.891 HEAT:  56.01282
 CYCLE:    19 TIME:   0.039 TIME LEFT:  2.00D  GRAD.:     7.754 HEAT:  56.00713
 CYCLE:    20 TIME:   0.023 TIME LEFT:  2.00D  GRAD.:     3.023 HEAT:  55.99198
 CYCLE:    21 TIME:   0.043 TIME LEFT:  2.00D  GRAD.:     4.194 HEAT:  55.99154
 CYCLE:    22 TIME:   0.020 TIME LEFT:  2.00D  GRAD.:     3.045 HEAT:  55.98533
 CYCLE:    23 TIME:   0.031 TIME LEFT:  2.00D  GRAD.:     7.644 HEAT:  55.99238
 CYCLE:    24 TIME:   0.027 TIME LEFT:  2.00D  GRAD.:     1.924 HEAT:  55.97886
 CYCLE:    25 TIME:   0.023 TIME LEFT:  2.00D  GRAD.:     3.663 HEAT:  55.97904
 CYCLE:    26 TIME:   0.023 TIME LEFT:  2.00D  GRAD.:     1.751 HEAT:  55.97347
 CYCLE:    27 TIME:   0.023 TIME LEFT:  2.00D  GRAD.:     5.185 HEAT:  55.97362
 CYCLE:    28 TIME:   0.023 TIME LEFT:  2.00D  GRAD.:     3.885 HEAT:  55.96912
 CYCLE:    29 TIME:   0.023 TIME LEFT:  2.00D  GRAD.:     3.332 HEAT:  55.96722
 CYCLE:    30 TIME:   0.020 TIME LEFT:  2.00D  GRAD.:     2.269 HEAT:  55.96431
 CYCLE:    31 TIME:   0.023 TIME LEFT:  2.00D  GRAD.:     2.392 HEAT:  55.96321
 CYCLE:    32 TIME:   0.023 TIME LEFT:  2.00D  GRAD.:     2.104 HEAT:  55.96211
 CYCLE:    33 TIME:   0.023 TIME LEFT:  2.00D  GRAD.:     1.053 HEAT:  55.96051
 CYCLE:    34 TIME:   0.023 TIME LEFT:  2.00D  GRAD.:     0.848 HEAT:  55.95983
 CYCLE:    35 TIME:   0.023 TIME LEFT:  2.00D  GRAD.:     0.704 HEAT:  55.95899
 CYCLE:    36 TIME:   0.023 TIME LEFT:  2.00D  GRAD.:     0.780 HEAT:  55.95773
 CYCLE:    37 TIME:   0.027 TIME LEFT:  2.00D  GRAD.:     0.872 HEAT:  55.95675
 CYCLE:    38 TIME:   0.023 TIME LEFT:  2.00D  GRAD.:     0.592 HEAT:  55.95575
 CYCLE:    39 TIME:   0.020 TIME LEFT:  2.00D  GRAD.:     0.443 HEAT:  55.95503
 CYCLE:    40 TIME:   0.023 TIME LEFT:  2.00D  GRAD.:     0.350 HEAT:  55.95470
 CYCLE:    41 TIME:   0.023 TIME LEFT:  2.00D  GRAD.:     0.262 HEAT:  55.95450
 CYCLE:    42 TIME:   0.023 TIME LEFT:  2.00D  GRAD.:     0.161 HEAT:  55.95435
 CYCLE:    43 TIME:   0.023 TIME LEFT:  2.00D  GRAD.:     0.094 HEAT:  55.95430
 CYCLE:    44 TIME:   0.023 TIME LEFT:  2.00D  GRAD.:     0.066 HEAT:  55.95429
 CYCLE:    45 TIME:   0.020 TIME LEFT:  2.00D  GRAD.:     0.056 HEAT:  55.95428
 CYCLE:    46 TIME:   0.023 TIME LEFT:  2.00D  GRAD.:     0.037 HEAT:  55.95428

     GRADIENT =  0.03693  IS LESS THAN CUTOFF =  0.05000



 -------------------------------------------------------------------------------
 pm3  precise nosym THREADS=1
 InChI=1S/C10H12/c1-2-4-6-8-10-9-7-5-3-1/h1-4,7-10H,5-6H2



     GEOMETRY OPTIMISED USING EIGENVECTOR FOLLOWING (EF).     
     SCF FIELD WAS ACHIEVED                                   


                              PM3 CALCULATION
                                                       MOPAC2016 (Version: 18.184L)
                                                       Thu Jun 13 16:01:03 2019
                                                       No. of days remaining =  20




          FINAL HEAT OF FORMATION =         55.95428 KCAL/MOL =     234.11270 KJ/MOL


          TOTAL ENERGY            =      -1367.96989 EV
          ELECTRONIC ENERGY       =      -7506.18647 EV  POINT GROUP:     C1  
          CORE-CORE REPULSION     =       6138.21657 EV
          COSMO AREA              =        173.41 SQUARE ANGSTROMS
          COSMO VOLUME            =        182.15 CUBIC ANGSTROMS

          GRADIENT NORM           =          0.03693 = 0.00787 PER ATOM
          IONIZATION POTENTIAL    =          9.393798 EV
          HOMO LUMO ENERGIES (EV) =         -9.394  0.455
          NO. OF FILLED LEVELS    =         26
          MOLECULAR WEIGHT        =        132.2048

          MOLECULAR DIMENSIONS (Angstroms)

            Atom       Atom       Distance
            H    22    H    20     6.52534
            H    17    H    15     5.90657
            H    11    H    14     4.24882


          SCF CALCULATIONS        =         56
 
          WALL-CLOCK TIME         =          1.352 SECONDS
          COMPUTATION TIME        =          0.536 SECONDS




   ATOM   CHEMICAL          X               Y               Z
  NUMBER   SYMBOL      (ANGSTROMS)     (ANGSTROMS)     (ANGSTROMS)
 
     1       C         -0.21340545  *  -1.34164655  *   0.94132504  *
     2       C          0.21342283  *   1.34165015  *  -0.94132061  *
     3       C         -1.43706487  *  -1.42694331  *   0.09624005  *
     4       C          0.97315769  *  -1.77275512  *   0.15072703  *
     5       C          1.43707211  *   1.42694642  *  -0.09623396  *
     6       C         -0.97316422  *   1.77275300  *  -0.15074974  *
     7       C          2.01493412  *  -0.99646526  *  -0.15448875  *
     8       C         -2.20464885  *  -0.39137333  *  -0.24941009  *
     9       C          2.20463311  *   0.39136671  *   0.24943122  *
    10       C         -2.01493816  *   0.99646877  *   0.15448042  *
    11       H         -0.32896073  *  -2.00734288  *   1.82026389  *
    12       H         -0.07548908  *  -0.31708142  *   1.34595319  *
    13       H          0.07550671  *   0.31709095  *  -1.34596368  *
    14       H          0.32898817  *   2.00735109  *  -1.82025294  *
    15       H         -1.69460085  *  -2.43361639  *  -0.25652754  *
    16       H          0.95325137  *  -2.81360987  *  -0.19625554  *
    17       H          1.69462697  *   2.43360807  *   0.25653669  *
    18       H         -0.95326536  *   2.81360655  *   0.19621748  *
    19       H          3.09426438  *   0.55582535  *   0.87170597  *
    20       H          2.84921578  *  -1.40801524  *  -0.73786719  *
    21       H         -3.09430385  *  -0.55585966  *  -0.87163748  *
    22       H         -2.84922766  *   1.40803832  *   0.73782502  *

                             CARTESIAN COORDINATES

   1    C       -0.213405450    -1.341646554     0.941325039
   2    C        0.213422830     1.341650153    -0.941320609
   3    C       -1.437064868    -1.426943308     0.096240052
   4    C        0.973157689    -1.772755118     0.150727034
   5    C        1.437072110     1.426946422    -0.096233964
   6    C       -0.973164222     1.772753001    -0.150749740
   7    C        2.014934120    -0.996465257    -0.154488750
   8    C       -2.204648852    -0.391373335    -0.249410088
   9    C        2.204633110     0.391366706     0.249431221
  10    C       -2.014938161     0.996468770     0.154480424
  11    H       -0.328960725    -2.007342875     1.820263889
  12    H       -0.075489080    -0.317081416     1.345953186
  13    H        0.075506706     0.317090949    -1.345963678
  14    H        0.328988171     2.007351095    -1.820252941
  15    H       -1.694600847    -2.433616394    -0.256527543
  16    H        0.953251365    -2.813609866    -0.196255538
  17    H        1.694626969     2.433608072     0.256536686
  18    H       -0.953265357     2.813606554     0.196217485
  19    H        3.094264377     0.555825347     0.871705967
  20    H        2.849215781    -1.408015238    -0.737867191
  21    H       -3.094303853    -0.555859657    -0.871637478
  22    H       -2.849227660     1.408038321     0.737825022


           Empirical Formula: C10 H12  =    22 atoms



      MOLECULAR POINT GROUP   :   C1  


                  EIGENVALUES  
 -40.15078 -34.64246 -34.38428 -28.04190 -27.64114 -24.07555 -21.10608 -20.14700
 -17.65554 -17.64990 -17.48004 -16.79395 -15.60666 -15.31239 -14.98435 -14.97285
 -14.23912 -13.42110 -13.02183 -12.16767 -12.13239 -11.70257 -10.65743 -10.30416
  -9.58945  -9.39380   0.45462   0.82986   1.39033   1.62262   3.24945   3.34324
   3.37210   3.57935   3.78064   3.79394   3.87909   3.98023   4.02462   4.19455
   4.41818   4.48069   4.49355   4.64421   5.09100   5.26506   5.50623   5.75353
   5.77204   5.82236   6.08282   6.22704


              NET ATOMIC CHARGES AND DIPOLE CONTRIBUTIONS

  ATOM NO.   TYPE          CHARGE      No. of ELECS.   s-Pop       p-Pop       
    1          C          -0.045538        4.0455     1.13630     2.90923
    2          C          -0.045537        4.0455     1.13630     2.90923
    3          C          -0.126317        4.1263     1.19310     2.93322
    4          C          -0.126331        4.1263     1.19311     2.93322
    5          C          -0.126315        4.1263     1.19310     2.93322
    6          C          -0.126329        4.1263     1.19311     2.93322
    7          C          -0.111365        4.1114     1.17851     2.93286
    8          C          -0.111380        4.1114     1.17850     2.93288
    9          C          -0.111381        4.1114     1.17850     2.93288
   10          C          -0.111362        4.1114     1.17850     2.93286
   11          H           0.060325        0.9397     0.93967
   12          H           0.075074        0.9249     0.92493
   13          H           0.075073        0.9249     0.92493
   14          H           0.060323        0.9397     0.93968
   15          H           0.094492        0.9055     0.90551
   16          H           0.094502        0.9055     0.90550
   17          H           0.094492        0.9055     0.90551
   18          H           0.094499        0.9055     0.90550
   19          H           0.098264        0.9017     0.90174
   20          H           0.098274        0.9017     0.90173
   21          H           0.098264        0.9017     0.90174
   22          H           0.098272        0.9017     0.90173
 DIPOLE           X         Y         Z       TOTAL
 POINT-CHG.     0.000    -0.000     0.000     0.000
 HYBRID        -0.000    -0.000    -0.000     0.000
 SUM            0.000    -0.000     0.000     0.000


          ATOMIC ORBITAL ELECTRON POPULATIONS

     Atom    s        px        py        pz   
    1  C   1.13630   0.91942   1.02919   0.96062
    2  C   1.13630   0.91942   1.02919   0.96062
    3  C   1.19310   0.96362   0.97653   0.99307
    4  C   1.19311   0.95342   0.98502   0.99479
    5  C   1.19310   0.96362   0.97653   0.99307
    6  C   1.19311   0.95342   0.98502   0.99479
    7  C   1.17851   0.98077   0.94738   1.00471
    8  C   1.17850   0.99303   0.93628   1.00357
    9  C   1.17850   0.99303   0.93628   1.00357
   10  C   1.17850   0.98077   0.94738   1.00471
   11  H   0.93967
   12  H   0.92493
   13  H   0.92493
   14  H   0.93968
   15  H   0.90551
   16  H   0.90550
   17  H   0.90551
   18  H   0.90550
   19  H   0.90174
   20  H   0.90173
   21  H   0.90174
   22  H   0.90173
 *******************************************************************************
 ** Site#: 14399        For non-commercial use only    Version 18.184L 64BITS **
 *******************************************************************************
 ** Cite this program as: MOPAC2016, Version: 18.184L, James J. P. Stewart,   **
 ** Stewart Computational Chemistry, web: HTTP://OpenMOPAC.net. Days left:  20**
 *******************************************************************************
 **                                                                           **
 **                                MOPAC2016                                  **
 **                                                                           **
 *******************************************************************************

                              PM3 CALCULATION RESULTS

 *******************************************************************************
 *  CALCULATION DONE:                                Thu Jun 13 16:01:03 2019  *
 *  PM3        - The PM3 Hamiltonian to be used
 *  OLDGEO     - PREVIOUS GEOMETRY TO BE USED
 *  PRECISE    - CRITERIA TO BE INCREASED BY 100 TIMES
 *  NOSYM      - POINT-GROUP SYMMETRY SET TO C1
 *  THREADS=1  - MULTI-THREADING NOT USED
 *  T=         - A TIME OF 172800.0 SECONDS REQUESTED
 *  DUMP=N     - RESTART FILE WRITTEN EVERY  7200.000 SECONDS
 *  THERMO     - THERMODYNAMIC QUANTITIES TO BE CALCULATED
 *******************************************************************************
oldgeo thermo nosym precise THREADS=1  pm3
 InChI=1S/C10H12/c1-2-4-6-8-10-9-7-5-3-1/h1-4,7-10H,5-6H2

   ATOM   CHEMICAL          X               Y               Z
  NUMBER   SYMBOL      (ANGSTROMS)     (ANGSTROMS)     (ANGSTROMS)
 
     1       C         -0.21340545  *  -1.34164655  *   0.94132504  *
     2       C          0.21342283  *   1.34165015  *  -0.94132061  *
     3       C         -1.43706487  *  -1.42694331  *   0.09624005  *
     4       C          0.97315769  *  -1.77275512  *   0.15072703  *
     5       C          1.43707211  *   1.42694642  *  -0.09623396  *
     6       C         -0.97316422  *   1.77275300  *  -0.15074974  *
     7       C          2.01493412  *  -0.99646526  *  -0.15448875  *
     8       C         -2.20464885  *  -0.39137333  *  -0.24941009  *
     9       C          2.20463311  *   0.39136671  *   0.24943122  *
    10       C         -2.01493816  *   0.99646877  *   0.15448042  *
    11       H         -0.32896073  *  -2.00734288  *   1.82026389  *
    12       H         -0.07548908  *  -0.31708142  *   1.34595319  *
    13       H          0.07550671  *   0.31709095  *  -1.34596368  *
    14       H          0.32898817  *   2.00735109  *  -1.82025294  *
    15       H         -1.69460085  *  -2.43361639  *  -0.25652754  *
    16       H          0.95325137  *  -2.81360987  *  -0.19625554  *
    17       H          1.69462697  *   2.43360807  *   0.25653669  *
    18       H         -0.95326536  *   2.81360655  *   0.19621748  *
    19       H          3.09426438  *   0.55582535  *   0.87170597  *
    20       H          2.84921578  *  -1.40801524  *  -0.73786719  *
    21       H         -3.09430385  *  -0.55585966  *  -0.87163748  *
    22       H         -2.84922766  *   1.40803832  *   0.73782502  *
 


          CARTESIAN COORDINATES 

    NO.       ATOM           X           Y           Z

     1         C         -0.2134     -1.3416      0.9413
     2         C          0.2134      1.3417     -0.9413
     3         C         -1.4371     -1.4269      0.0962
     4         C          0.9732     -1.7728      0.1507
     5         C          1.4371      1.4269     -0.0962
     6         C         -0.9732      1.7728     -0.1507
     7         C          2.0149     -0.9965     -0.1545
     8         C         -2.2046     -0.3914     -0.2494
     9         C          2.2046      0.3914      0.2494
    10         C         -2.0149      0.9965      0.1545
    11         H         -0.3290     -2.0073      1.8203
    12         H         -0.0755     -0.3171      1.3460
    13         H          0.0755      0.3171     -1.3460
    14         H          0.3290      2.0074     -1.8203
    15         H         -1.6946     -2.4336     -0.2565
    16         H          0.9533     -2.8136     -0.1963
    17         H          1.6946      2.4336      0.2565
    18         H         -0.9533      2.8136      0.1962
    19         H          3.0943      0.5558      0.8717
    20         H          2.8492     -1.4080     -0.7379
    21         H         -3.0943     -0.5559     -0.8716
    22         H         -2.8492      1.4080      0.7378

  H: (PM3): J. J. P. STEWART, J. COMP. CHEM. 10, 209 (1989).
  C: (PM3): J. J. P. STEWART, J. COMP. CHEM. 10, 209 (1989).

           Empirical Formula: C10 H12  =    22 atoms



      MOLECULAR POINT GROUP   :   C1  


      RHF CALCULATION, NO. OF DOUBLY OCCUPIED LEVELS = 26



          HEAT OF FORMATION =      55.954279 KCALS/MOLE


          CARTESIAN COORDINATE DERIVATIVES

   NUMBER  ATOM         X            Y            Z

     1       C     -0.002385    -0.003104    -0.000833
     2       C     -0.000920    -0.007126    -0.000003
     3       C      0.003450    -0.002187    -0.000382
     4       C      0.002606     0.002509     0.000041
     5       C      0.000399     0.004321    -0.000395
     6       C     -0.000706     0.004326     0.003587
     7       C     -0.000556    -0.006883     0.000360
     8       C     -0.001303     0.003574     0.007149
     9       C      0.003322     0.004432    -0.005795
    10       C      0.002270     0.000578     0.005779
    11       H     -0.000270     0.007081     0.012138
    12       H     -0.004197    -0.005380    -0.003241
    13       H      0.005189     0.006204     0.003631
    14       H     -0.001072    -0.007748    -0.011669
    15       H      0.004863    -0.008792    -0.004240
    16       H     -0.000348    -0.004339    -0.007834
    17       H     -0.006956     0.008992     0.000673
    18       H     -0.002794     0.005654     0.004295
    19       H     -0.003042     0.001708    -0.002471
    20       H      0.000016    -0.003878    -0.005640
    21       H      0.001152    -0.003867     0.002752
    22       H      0.001284     0.003926     0.002099
 


          GRADIENT NORM =   0.03733


          TIME FOR SCF CALCULATION =    0.02

          TIME FOR DERIVATIVES     =    0.01

          MOLECULAR WEIGHT =  132.20



          ROTATIONAL CONSTANTS IN CM(-1)

          A =    0.06211618   B =    0.04632863   C =    0.02937531



           PRINCIPAL MOMENTS OF INERTIA IN UNITS OF 10**(-40)*GRAM-CM**2

          A =      450.6519   B =      604.2220   C =      952.9354


          ORIENTATION OF MOLECULE IN FORCE CALCULATION

    NO.       ATOM         X         Y         Z

     1          C      -1.6528   -0.0000   -0.0000
     2          C       1.6528   -0.0000   -0.0000
     3          C      -1.3987    1.4677   -0.0000
     4          C      -1.3992   -0.5529   -1.3597
     5          C       1.3987   -1.4677    0.0000
     6          C       1.3992    0.5529    1.3597
     7          C      -0.4607   -1.4533   -1.6591
     8          C      -0.4603    2.0841    0.7215
     9          C       0.4603   -2.0841   -0.7215
    10          C       0.4607    1.4533    1.6591
    11          H      -2.7087   -0.1883    0.2805
    12          H      -1.0337   -0.5147    0.7644
    13          H       1.0337    0.5147   -0.7645
    14          H       2.7087    0.1882   -0.2805
    15          H      -2.0482    2.0565   -0.6600
    16          H      -2.0491   -0.1635   -2.1536
    17          H       2.0482   -2.0565    0.6600
    18          H       2.0491    0.1636    2.1536
    19          H       0.3543   -3.1752   -0.6600
    20          H      -0.3548   -1.8073   -2.6931
    21          H      -0.3543    3.1753    0.6600
    22          H       0.3549    1.8073    2.6931


    FIRST DERIVATIVES WILL BE USED IN THE CALCULATION OF SECOND DERIVATIVES

          ESTIMATED TIME TO COMPLETE CALCULATION =        8.25 SECONDS

    FOR POINT-GROUP C1   THERE ARE   1 UNIQUE SYMMETRY FUNCTIONS.

 STEP:   1 TIME =     0.05 SECS, INTEGRAL =      0.05 TIME LEFT: 172799.91
 STEP:   2 TIME =     0.05 SECS, INTEGRAL =      0.11 TIME LEFT: 172799.86
 STEP:   3 TIME =     0.05 SECS, INTEGRAL =      0.16 TIME LEFT: 172799.81
 STEP:   4 TIME =     0.05 SECS, INTEGRAL =      0.21 TIME LEFT: 172799.76
 STEP:   5 TIME =     0.05 SECS, INTEGRAL =      0.26 TIME LEFT: 172799.71
 STEP:   6 TIME =     0.05 SECS, INTEGRAL =      0.31 TIME LEFT: 172799.66
 STEP:   7 TIME =     0.05 SECS, INTEGRAL =      0.36 TIME LEFT: 172799.61
 STEP:   8 TIME =     0.05 SECS, INTEGRAL =      0.41 TIME LEFT: 172799.56
 STEP:   9 TIME =     0.05 SECS, INTEGRAL =      0.46 TIME LEFT: 172799.51
 STEP:  10 TIME =     0.05 SECS, INTEGRAL =      0.51 TIME LEFT: 172799.46
 STEP:  11 TIME =     0.05 SECS, INTEGRAL =      0.57 TIME LEFT: 172799.40
 STEP:  12 TIME =     0.05 SECS, INTEGRAL =      0.62 TIME LEFT: 172799.35
 STEP:  13 TIME =     0.05 SECS, INTEGRAL =      0.67 TIME LEFT: 172799.30
 STEP:  14 TIME =     0.05 SECS, INTEGRAL =      0.72 TIME LEFT: 172799.25
 STEP:  15 TIME =     0.05 SECS, INTEGRAL =      0.77 TIME LEFT: 172799.20
 STEP:  16 TIME =     0.05 SECS, INTEGRAL =      0.82 TIME LEFT: 172799.15
 STEP:  17 TIME =     0.05 SECS, INTEGRAL =      0.87 TIME LEFT: 172799.10
 STEP:  18 TIME =     0.05 SECS, INTEGRAL =      0.92 TIME LEFT: 172799.05
 STEP:  19 TIME =     0.05 SECS, INTEGRAL =      0.98 TIME LEFT: 172798.99
 STEP:  20 TIME =     0.06 SECS, INTEGRAL =      1.04 TIME LEFT: 172798.93
 STEP:  21 TIME =     0.05 SECS, INTEGRAL =      1.09 TIME LEFT: 172798.88
 STEP:  22 TIME =     0.05 SECS, INTEGRAL =      1.14 TIME LEFT: 172798.83
 STEP:  23 TIME =     0.05 SECS, INTEGRAL =      1.19 TIME LEFT: 172798.78
 STEP:  24 TIME =     0.05 SECS, INTEGRAL =      1.24 TIME LEFT: 172798.73
 STEP:  25 TIME =     0.05 SECS, INTEGRAL =      1.29 TIME LEFT: 172798.68
 STEP:  26 TIME =     0.05 SECS, INTEGRAL =      1.34 TIME LEFT: 172798.62
 STEP:  27 TIME =     0.05 SECS, INTEGRAL =      1.39 TIME LEFT: 172798.57
 STEP:  28 TIME =     0.05 SECS, INTEGRAL =      1.45 TIME LEFT: 172798.52
 STEP:  29 TIME =     0.05 SECS, INTEGRAL =      1.50 TIME LEFT: 172798.47
 STEP:  30 TIME =     0.05 SECS, INTEGRAL =      1.55 TIME LEFT: 172798.41
 STEP:  31 TIME =     0.05 SECS, INTEGRAL =      1.61 TIME LEFT: 172798.36
 STEP:  32 TIME =     0.05 SECS, INTEGRAL =      1.66 TIME LEFT: 172798.31
 STEP:  33 TIME =     0.05 SECS, INTEGRAL =      1.71 TIME LEFT: 172798.26
 STEP:  34 TIME =     0.05 SECS, INTEGRAL =      1.76 TIME LEFT: 172798.21
 STEP:  35 TIME =     0.05 SECS, INTEGRAL =      1.81 TIME LEFT: 172798.16
 STEP:  36 TIME =     0.05 SECS, INTEGRAL =      1.86 TIME LEFT: 172798.11
 STEP:  37 TIME =     0.05 SECS, INTEGRAL =      1.91 TIME LEFT: 172798.05
 STEP:  38 TIME =     0.05 SECS, INTEGRAL =      1.96 TIME LEFT: 172798.00
 STEP:  39 TIME =     0.05 SECS, INTEGRAL =      2.02 TIME LEFT: 172797.95
 STEP:  40 TIME =     0.05 SECS, INTEGRAL =      2.06 TIME LEFT: 172797.91
 STEP:  41 TIME =     0.05 SECS, INTEGRAL =      2.11 TIME LEFT: 172797.86
 STEP:  42 TIME =     0.05 SECS, INTEGRAL =      2.17 TIME LEFT: 172797.80
 STEP:  43 TIME =     0.05 SECS, INTEGRAL =      2.22 TIME LEFT: 172797.75
 STEP:  44 TIME =     0.05 SECS, INTEGRAL =      2.27 TIME LEFT: 172797.70
 STEP:  45 TIME =     0.16 SECS, INTEGRAL =      2.43 TIME LEFT: 172797.54
 STEP:  46 TIME =     0.05 SECS, INTEGRAL =      2.48 TIME LEFT: 172797.48
 STEP:  47 TIME =     0.05 SECS, INTEGRAL =      2.54 TIME LEFT: 172797.43
 STEP:  48 TIME =     0.05 SECS, INTEGRAL =      2.59 TIME LEFT: 172797.38
 STEP:  49 TIME =     0.05 SECS, INTEGRAL =      2.64 TIME LEFT: 172797.33
 STEP:  50 TIME =     0.05 SECS, INTEGRAL =      2.69 TIME LEFT: 172797.28
 STEP:  51 TIME =     0.05 SECS, INTEGRAL =      2.74 TIME LEFT: 172797.23
 STEP:  52 TIME =     0.05 SECS, INTEGRAL =      2.79 TIME LEFT: 172797.18
 STEP:  53 TIME =     0.05 SECS, INTEGRAL =      2.84 TIME LEFT: 172797.12
 STEP:  54 TIME =     0.05 SECS, INTEGRAL =      2.89 TIME LEFT: 172797.07
 STEP:  55 TIME =     0.05 SECS, INTEGRAL =      2.95 TIME LEFT: 172797.02
 STEP:  56 TIME =     0.05 SECS, INTEGRAL =      3.00 TIME LEFT: 172796.97
 STEP:  57 TIME =     0.05 SECS, INTEGRAL =      3.05 TIME LEFT: 172796.92
 STEP:  58 TIME =     0.05 SECS, INTEGRAL =      3.10 TIME LEFT: 172796.87
 STEP:  59 TIME =     0.05 SECS, INTEGRAL =      3.16 TIME LEFT: 172796.81
 STEP:  60 TIME =     0.05 SECS, INTEGRAL =      3.21 TIME LEFT: 172796.76
 STEP:  61 TIME =     0.05 SECS, INTEGRAL =      3.26 TIME LEFT: 172796.71
 STEP:  62 TIME =     0.05 SECS, INTEGRAL =      3.31 TIME LEFT: 172796.66
 STEP:  63 TIME =     0.05 SECS, INTEGRAL =      3.36 TIME LEFT: 172796.61
 STEP:  64 TIME =     0.05 SECS, INTEGRAL =      3.41 TIME LEFT: 172796.55
 STEP:  65 TIME =     0.05 SECS, INTEGRAL =      3.46 TIME LEFT: 172796.50
 STEP:  66 TIME =     0.05 SECS, INTEGRAL =      3.52 TIME LEFT: 172796.45

(To convert to Hartree/Bohr^2, multiply by (10^(-21) x N x a0^2)/(4.184 x 627.51) =  0.0642)


           FORCE MATRIX IN MILLIDYNES/ANGSTROM


                  C  1       C  2       C  3       C  4       C  5       C  6
 ------------------------------------------------------------------------------
     C    1  14.948709
     C    2   0.031382  14.948716
     C    3   4.906638   0.037960  18.046380
     C    4   4.904923   0.037680   0.786363  18.040742
     C    5   0.037987   4.906816   0.003587   0.051970  18.046763
     C    6   0.037733   4.904906   0.051872   0.003961   0.786261  18.040678
     C    7   0.773272   0.103638   0.037935  10.594552   0.834997   0.015046
     C    8   0.773346   0.102570  10.596287   0.038297   0.015133   0.835676
     C    9   0.102602   0.773345   0.015237   0.835702  10.596381   0.038200
     C   10   0.103788   0.773200   0.835051   0.015024   0.037846  10.594554
     H   11   4.421761   0.001000   0.430283   0.430537   0.002995   0.003004
     H   12   4.394085   0.016064   0.458580   0.458406   0.018209   0.018086
     H   13   0.016069   4.394066   0.018206   0.018077   0.458521   0.458476
     H   14   0.001020   4.421230   0.003031   0.002997   0.430253   0.430519
     H   15   0.431056   0.003698   4.771735   0.020140   0.001169   0.017066
     H   16   0.431039   0.003716   0.019975   4.771289   0.017054   0.001176
     H   17   0.003722   0.431017   0.001120   0.017045   4.771893   0.020170
     H   18   0.003746   0.431080   0.017068   0.001196   0.019970   4.771378
     H   19   0.009357   0.122308   0.002043   0.037109   0.444159   0.019350
     H   20   0.121961   0.009315   0.019396   0.444609   0.036875   0.001969
     H   21   0.122375   0.009408   0.444164   0.019391   0.002115   0.037165
     H   22   0.009273   0.121977   0.036910   0.001968   0.019327   0.444619


                  C  7       C  8       C  9       C 10       H 11       H 12
 ------------------------------------------------------------------------------
     C    7  18.400961
     C    8   0.007165  18.407525
     C    9   5.710666   0.003744  18.407645
     C   10   0.003550   5.710604   0.007089  18.400717
     H   11   0.040943   0.040689   0.010420   0.010620   4.999349
     H   12   0.036977   0.036919   0.030261   0.030087   0.538516   4.986304
     H   13   0.030093   0.030301   0.036951   0.036918   0.000830   0.006833
     H   14   0.010614   0.010413   0.040797   0.041003   0.000252   0.000833
     H   15   0.001757   0.435539   0.001327   0.128287   0.026607   0.039408
     H   16   0.435694   0.001736   0.127133   0.001409   0.026586   0.039338
     H   17   0.128223   0.001385   0.435521   0.001708   0.000466   0.001385
     H   18   0.001364   0.127053   0.001716   0.435675   0.000471   0.001397
     H   19   0.414698   0.001332   4.739693   0.002192   0.000803   0.001621
     H   20   4.739691   0.002067   0.414754   0.001272   0.015472   0.002520
     H   21   0.002200   4.739807   0.001299   0.414794   0.015577   0.002490
     H   22   0.001301   0.414693   0.002022   4.739857   0.000776   0.001621


                  H 13       H 14       H 15       H 16       H 17       H 18
 ------------------------------------------------------------------------------
     H   13   4.986296
     H   14   0.538949   4.998912
     H   15   0.001398   0.000475   5.142554
     H   16   0.001412   0.000476   0.010541   5.142377
     H   17   0.039411   0.026622   0.000149   0.004475   5.142684
     H   18   0.039346   0.026596   0.004480   0.000123   0.010540   5.142546
     H   19   0.002498   0.015573   0.000505   0.013932   0.073252   0.000649
     H   20   0.001598   0.000784   0.000651   0.073251   0.013751   0.000499
     H   21   0.001622   0.000798   0.073340   0.000653   0.000489   0.013972
     H   22   0.002513   0.015471   0.013807   0.000495   0.000651   0.073197


                  H 19       H 20       H 21       H 22
 ------------------------------------------------------
     H   19   5.095536
     H   20   0.025943   5.094979
     H   21   0.000344   0.001349   5.095261
     H   22   0.001338   0.000339   0.025890   5.095038


          HEAT OF FORMATION =      55.954279 KCALS/MOLE

          ZERO POINT ENERGY     117.662 KCAL/MOL


           NORMAL COORDINATE ANALYSIS (Total motion = 1 Angstrom)


   Root No.       1         2         3         4         5         6         7         8

                 1 A       2 A       3 A       4 A       5 A       6 A       7 A       8 A   

                 135.5     162.3     189.3     203.0     288.6     319.6     364.5     400.9
  
           1    0.0000   -0.0552   -0.0102   -0.0003    0.0465    0.0243    0.0003    0.0000
           2   -0.0146   -0.0000    0.0199   -0.0247    0.0002   -0.0174    0.0169   -0.0110
           3   -0.0102    0.0001   -0.0293   -0.0167   -0.0002    0.0254    0.0116   -0.0074
           4   -0.0001    0.0555   -0.0098    0.0002    0.0466   -0.0238   -0.0003    0.0001
           5   -0.0147   -0.0002    0.0200    0.0245    0.0001    0.0174   -0.0169   -0.0109
           6   -0.0103    0.0002   -0.0293    0.0168    0.0000   -0.0253   -0.0116   -0.0074
           7   -0.0262   -0.0221    0.0107    0.0391   -0.0058    0.0141    0.0106    0.0273
           8   -0.0110   -0.0060    0.0158   -0.0322    0.0077   -0.0154    0.0168   -0.0148
           9    0.0271   -0.0046   -0.0062   -0.0181   -0.0032   -0.0069   -0.0266   -0.0099
          10    0.0264   -0.0219    0.0101   -0.0395   -0.0058    0.0140   -0.0105   -0.0274
          11    0.0209    0.0068   -0.0008   -0.0290   -0.0001    0.0124   -0.0179   -0.0149
          12   -0.0208    0.0038   -0.0166   -0.0231   -0.0082    0.0111    0.0257   -0.0101
          13   -0.0261    0.0219    0.0108   -0.0393   -0.0059   -0.0141   -0.0106    0.0272
          14   -0.0111    0.0059    0.0159    0.0321    0.0076    0.0154   -0.0168   -0.0148
          15    0.0271    0.0048   -0.0061    0.0182   -0.0033    0.0069    0.0266   -0.0099
          16    0.0262    0.0219    0.0104    0.0396   -0.0058   -0.0140    0.0105   -0.0275
          17    0.0208   -0.0067   -0.0008    0.0291    0.0001   -0.0123    0.0179   -0.0149
          18   -0.0208   -0.0037   -0.0165    0.0231   -0.0081   -0.0111   -0.0257   -0.0100
          19    0.0203    0.0066   -0.0052   -0.0171   -0.0197    0.0173    0.0191    0.0158
          20    0.0116    0.0337   -0.0289   -0.0040   -0.0146    0.0220    0.0209    0.0278
          21   -0.0123    0.0160    0.0193   -0.0282   -0.0068   -0.0025   -0.0014    0.0014
          22   -0.0204    0.0065   -0.0049    0.0171   -0.0196    0.0177   -0.0188   -0.0157
          23   -0.0071   -0.0273   -0.0070   -0.0278    0.0117   -0.0062    0.0062    0.0117
          24    0.0160   -0.0252    0.0338    0.0068    0.0109   -0.0216    0.0194    0.0251
          25   -0.0203   -0.0065   -0.0050   -0.0171   -0.0195   -0.0179    0.0188   -0.0157
          26   -0.0072    0.0274   -0.0067    0.0277    0.0115    0.0063   -0.0062    0.0117
          27    0.0160    0.0249    0.0341   -0.0068    0.0106    0.0216   -0.0194    0.0251
          28    0.0202   -0.0065   -0.0053    0.0173   -0.0195   -0.0175   -0.0190    0.0158
          29    0.0116   -0.0334   -0.0292    0.0042   -0.0143   -0.0220   -0.0209    0.0278
          30   -0.0124   -0.0163    0.0193    0.0281   -0.0067    0.0024    0.0014    0.0014
          31   -0.0001   -0.0654   -0.0217   -0.0003    0.0689    0.0334    0.0004    0.0001
          32   -0.0422    0.0184    0.0397    0.0075   -0.0389   -0.0322    0.0405    0.0209
          33   -0.0290   -0.0274   -0.0580    0.0047    0.0580    0.0472    0.0281    0.0143
          34   -0.0002   -0.0813   -0.0411   -0.0005    0.1042    0.0462    0.0007    0.0002
          35   -0.0202   -0.0095    0.0083   -0.0414    0.0210   -0.0095    0.0326   -0.0242
          36   -0.0138    0.0141   -0.0120   -0.0279   -0.0309    0.0133    0.0220   -0.0164
          37   -0.0003    0.0822   -0.0406    0.0003    0.1048   -0.0453   -0.0007    0.0003
          38   -0.0204    0.0095    0.0085    0.0412    0.0211    0.0097   -0.0327   -0.0241
          39   -0.0139   -0.0142   -0.0120    0.0279   -0.0310   -0.0135   -0.0220   -0.0164
          40   -0.0002    0.0658   -0.0213    0.0002    0.0692   -0.0327   -0.0004    0.0002
          41   -0.0422   -0.0191    0.0396   -0.0078   -0.0393    0.0318   -0.0405    0.0209
          42   -0.0291    0.0282   -0.0579   -0.0048    0.0586   -0.0466   -0.0281    0.0144
          43   -0.0533   -0.0141    0.0321    0.0702   -0.0250    0.0209    0.0414    0.0441
          44   -0.0061    0.0074    0.0353   -0.0273   -0.0056   -0.0342    0.0117   -0.0199
          45    0.0579   -0.0007   -0.0096   -0.0452    0.0050   -0.0300   -0.0605   -0.0320
          46    0.0538   -0.0133    0.0310   -0.0708   -0.0251    0.0213   -0.0415   -0.0445
          47    0.0513   -0.0014   -0.0054   -0.0528   -0.0027    0.0414   -0.0512   -0.0374
          48   -0.0280   -0.0074   -0.0358   -0.0084    0.0072    0.0197    0.0339   -0.0063
          49   -0.0531    0.0136    0.0320   -0.0705   -0.0251   -0.0211   -0.0414    0.0441
          50   -0.0061   -0.0078    0.0353    0.0272   -0.0057    0.0341   -0.0117   -0.0198
          51    0.0577    0.0009   -0.0094    0.0454    0.0049    0.0299    0.0605   -0.0320
          52    0.0535    0.0131    0.0313    0.0710   -0.0250   -0.0214    0.0414   -0.0445
          53    0.0511    0.0016   -0.0054    0.0531   -0.0023   -0.0413    0.0511   -0.0375
          54   -0.0280    0.0077   -0.0357    0.0084    0.0073   -0.0196   -0.0339   -0.0063
          55   -0.0499   -0.0406   -0.0056   -0.0110   -0.0363   -0.0507    0.0193   -0.0746
          56   -0.0031    0.0314   -0.0045    0.0272    0.0146    0.0120   -0.0082    0.0190
          57    0.0305    0.0428    0.0700    0.0049    0.0457    0.0518   -0.0559    0.0524
          58    0.0497    0.0410   -0.0055   -0.0111   -0.0369    0.0501    0.0201    0.0749
          59    0.0256    0.0523   -0.0625   -0.0151   -0.0482    0.0511    0.0556    0.0558
          60   -0.0136    0.0130    0.0306   -0.0233    0.0035   -0.0082   -0.0133   -0.0020
          61   -0.0501    0.0405   -0.0051    0.0109   -0.0369    0.0504   -0.0194   -0.0746
          62   -0.0030   -0.0314   -0.0048   -0.0273    0.0148   -0.0119    0.0082    0.0190
          63    0.0306   -0.0434    0.0696   -0.0052    0.0462   -0.0516    0.0559    0.0524
          64    0.0497   -0.0409   -0.0059    0.0114   -0.0364   -0.0504   -0.0200    0.0749
          65    0.0257   -0.0517   -0.0630    0.0155   -0.0476   -0.0514   -0.0556    0.0559
          66   -0.0137   -0.0133    0.0305    0.0231    0.0035    0.0082    0.0133   -0.0020


   Root No.       9        10        11        12        13        14        15        16

                 9 A      10 A      11 A      12 A      13 A      14 A      15 A      16 A   

                 463.7     464.6     591.1     596.9     668.7     681.3     790.8     804.5
  
           1    0.0231    0.0030    0.0001    0.0011    0.0006   -0.0000    0.0133   -0.0001
           2    0.0106   -0.0109   -0.0150   -0.0035   -0.0075    0.0087    0.0006   -0.0000
           3   -0.0159    0.0162   -0.0102    0.0049    0.0110    0.0060   -0.0008   -0.0001
           4   -0.0231    0.0006    0.0001   -0.0011    0.0007    0.0001   -0.0133   -0.0000
           5   -0.0097   -0.0120   -0.0150    0.0034   -0.0074   -0.0088   -0.0006   -0.0001
           6    0.0145    0.0178   -0.0102   -0.0049    0.0110   -0.0058    0.0008   -0.0001
           7   -0.0248    0.0137    0.0195    0.0018    0.0147   -0.0178    0.0111    0.0146
           8    0.0171   -0.0182   -0.0197   -0.0133   -0.0078    0.0085   -0.0065   -0.0013
           9   -0.0064   -0.0328    0.0334   -0.0316    0.0045   -0.0023   -0.0032   -0.0054
          10   -0.0248    0.0135   -0.0196    0.0015    0.0142    0.0178    0.0112   -0.0146
          11   -0.0004    0.0371    0.0233    0.0343   -0.0012    0.0015    0.0053   -0.0049
          12   -0.0185    0.0046   -0.0310    0.0002    0.0086    0.0088    0.0050    0.0009
          13    0.0236    0.0163    0.0195   -0.0017    0.0144    0.0180   -0.0110    0.0147
          14   -0.0156   -0.0201   -0.0197    0.0132   -0.0077   -0.0086    0.0065   -0.0014
          15    0.0090   -0.0320    0.0333    0.0317    0.0045    0.0024    0.0030   -0.0052
          16    0.0236    0.0162   -0.0196   -0.0016    0.0144   -0.0176   -0.0112   -0.0146
          17   -0.0026    0.0370    0.0235   -0.0342   -0.0011   -0.0016   -0.0052   -0.0048
          18    0.0180    0.0066   -0.0310   -0.0003    0.0087   -0.0087   -0.0050    0.0008
          19    0.0003   -0.0202   -0.0193   -0.0216   -0.0048    0.0021    0.0110   -0.0149
          20    0.0160    0.0034    0.0050    0.0044   -0.0076   -0.0043    0.0120   -0.0094
          21    0.0071    0.0139    0.0166    0.0235   -0.0266   -0.0245    0.0035    0.0030
          22    0.0004   -0.0203    0.0193   -0.0213   -0.0047   -0.0024    0.0112    0.0153
          23   -0.0124   -0.0141    0.0172   -0.0233    0.0279   -0.0242   -0.0081   -0.0015
          24   -0.0123    0.0022   -0.0013    0.0046   -0.0029    0.0050   -0.0100   -0.0104
          25    0.0011   -0.0202    0.0192    0.0214   -0.0048    0.0023   -0.0111    0.0153
          26    0.0136   -0.0127    0.0171    0.0234    0.0276    0.0246    0.0080   -0.0013
          27    0.0121    0.0034   -0.0013   -0.0046   -0.0028   -0.0050    0.0099   -0.0104
          28    0.0013   -0.0201   -0.0194    0.0215   -0.0048   -0.0021   -0.0110   -0.0148
          29   -0.0162    0.0017    0.0051   -0.0044   -0.0077    0.0043   -0.0119   -0.0092
          30   -0.0082    0.0131    0.0167   -0.0235   -0.0269    0.0241   -0.0034    0.0033
          31    0.0528    0.0031    0.0002    0.0057   -0.0275   -0.0001   -0.0073    0.0000
          32   -0.0398   -0.0101   -0.0124   -0.0110    0.0390   -0.0204    0.0344    0.0341
          33    0.0591    0.0151   -0.0081    0.0164   -0.0576   -0.0137   -0.0511    0.0232
          34    0.0981    0.0035    0.0004    0.0131   -0.0720   -0.0001   -0.0387    0.0001
          35    0.0372   -0.0105   -0.0625    0.0005   -0.0337    0.0329   -0.0182   -0.0120
          36   -0.0555    0.0156   -0.0424   -0.0015    0.0490    0.0223    0.0274   -0.0083
          37   -0.0978   -0.0070    0.0004   -0.0131   -0.0718   -0.0008    0.0387   -0.0000
          38   -0.0362   -0.0145   -0.0625   -0.0008   -0.0332   -0.0333    0.0181   -0.0124
          39    0.0541    0.0215   -0.0424    0.0013    0.0493   -0.0216   -0.0274   -0.0085
          40   -0.0526   -0.0026    0.0002   -0.0057   -0.0274   -0.0003    0.0073   -0.0000
          41    0.0405   -0.0058   -0.0125    0.0109    0.0387    0.0209   -0.0343    0.0342
          42   -0.0599    0.0087   -0.0080   -0.0165   -0.0577    0.0129    0.0512    0.0229
          43   -0.0562    0.0659    0.0222    0.0218   -0.0103    0.0319   -0.0594   -0.0678
          44    0.0250   -0.0391   -0.0247   -0.0212   -0.0255    0.0126    0.0030    0.0189
          45    0.0330   -0.1031    0.0253   -0.0585    0.0126   -0.0469    0.0752    0.0940
          46   -0.0556    0.0661   -0.0217    0.0228   -0.0105   -0.0321   -0.0586    0.0658
          47   -0.0392    0.1105    0.0143    0.0635   -0.0019   -0.0382   -0.0701    0.0925
          48   -0.0111   -0.0027   -0.0329   -0.0031    0.0278    0.0296    0.0255   -0.0174
          49    0.0506    0.0716    0.0223   -0.0217   -0.0100   -0.0319    0.0590   -0.0676
          50   -0.0218   -0.0417   -0.0249    0.0210   -0.0253   -0.0129   -0.0030    0.0186
          51   -0.0245   -0.1062    0.0251    0.0586    0.0120    0.0469   -0.0747    0.0939
          52    0.0499    0.0718   -0.0216   -0.0229   -0.0109    0.0318    0.0585    0.0651
          53    0.0302    0.1143    0.0147   -0.0634   -0.0023    0.0380    0.0702    0.0917
          54    0.0114   -0.0014   -0.0329    0.0030    0.0282   -0.0291   -0.0255   -0.0174
          55   -0.0123   -0.0172    0.0552    0.0805   -0.0584   -0.0770    0.0339   -0.0350
          56    0.0138   -0.0138    0.0095    0.0149    0.0352    0.0362    0.0005    0.0079
          57   -0.0034   -0.0107   -0.0634   -0.0539    0.0477    0.0698   -0.0517    0.0650
          58    0.0137   -0.0151   -0.0547   -0.0793   -0.0588   -0.0780   -0.0340    0.0320
          59    0.0009    0.0158   -0.0546   -0.0430   -0.0576   -0.0783   -0.0473    0.0611
          60    0.0134    0.0102    0.0326    0.0338   -0.0147   -0.0072    0.0194   -0.0161
          61    0.0134   -0.0158    0.0556   -0.0803   -0.0594    0.0764   -0.0343   -0.0350
          62   -0.0125   -0.0152    0.0096   -0.0148    0.0357   -0.0358   -0.0005    0.0077
          63    0.0044   -0.0103   -0.0637    0.0536    0.0486   -0.0693    0.0521    0.0650
          64   -0.0126   -0.0165   -0.0551    0.0790   -0.0597    0.0772    0.0337    0.0317
          65   -0.0023    0.0157   -0.0548    0.0428   -0.0586    0.0775    0.0473    0.0608
          66   -0.0142    0.0087    0.0328   -0.0337   -0.0148    0.0070   -0.0193   -0.0157


   Root No.      17        18        19        20        21        22        23        24

                17 A      18 A      19 A      20 A      21 A      22 A      23 A      24 A   

                 810.2     818.4     920.1     945.0     969.4     985.6    1001.7    1007.2
  
           1    0.0004    0.0001    0.0307   -0.0356    0.0002    0.0001    0.0001    0.0146
           2   -0.0036   -0.0051    0.0037   -0.0045    0.0006    0.0031    0.0146    0.0001
           3    0.0054   -0.0034   -0.0054    0.0067    0.0003    0.0021    0.0097    0.0000
           4    0.0003   -0.0001    0.0307    0.0356   -0.0002    0.0001    0.0002   -0.0144
           5   -0.0037    0.0051    0.0036    0.0045   -0.0006    0.0031    0.0146   -0.0000
           6    0.0054    0.0034   -0.0054   -0.0067   -0.0003    0.0021    0.0097   -0.0001
           7   -0.0039    0.0034   -0.0015    0.0091   -0.0103   -0.0062   -0.0004   -0.0133
           8    0.0099   -0.0064   -0.0033    0.0016    0.0030    0.0010   -0.0069    0.0059
           9    0.0166    0.0205   -0.0035   -0.0012    0.0094    0.0183    0.0102    0.0187
          10   -0.0045   -0.0032   -0.0015    0.0093    0.0102    0.0061    0.0001   -0.0132
          11   -0.0196    0.0169    0.0044    0.0006    0.0097    0.0173    0.0066   -0.0195
          12   -0.0027   -0.0136    0.0018   -0.0020   -0.0007   -0.0059   -0.0102    0.0014
          13   -0.0040   -0.0033   -0.0015   -0.0092    0.0103   -0.0062   -0.0004    0.0132
          14    0.0099    0.0064   -0.0033   -0.0016   -0.0030    0.0010   -0.0069   -0.0059
          15    0.0166   -0.0205   -0.0035    0.0012   -0.0094    0.0183    0.0102   -0.0186
          16   -0.0046    0.0031   -0.0015   -0.0093   -0.0101    0.0061    0.0001    0.0131
          17   -0.0196   -0.0169    0.0044   -0.0006   -0.0097    0.0173    0.0066    0.0194
          18   -0.0028    0.0135    0.0018    0.0020    0.0007   -0.0059   -0.0102   -0.0014
          19   -0.0084    0.0104   -0.0107    0.0148   -0.0126   -0.0178    0.0057    0.0133
          20   -0.0205    0.0169   -0.0012    0.0036   -0.0117   -0.0143   -0.0001    0.0118
          21   -0.0185    0.0230    0.0087   -0.0120   -0.0007   -0.0043   -0.0254    0.0032
          22   -0.0078   -0.0104   -0.0107    0.0150    0.0124    0.0177   -0.0056    0.0132
          23    0.0249    0.0275   -0.0076    0.0098   -0.0053   -0.0094   -0.0237   -0.0074
          24    0.0115    0.0069    0.0043   -0.0081   -0.0104   -0.0116    0.0094   -0.0097
          25   -0.0079    0.0105   -0.0107   -0.0150   -0.0124    0.0177   -0.0056   -0.0132
          26    0.0250   -0.0274   -0.0076   -0.0098    0.0053   -0.0094   -0.0237    0.0073
          27    0.0116   -0.0069    0.0043    0.0080    0.0104   -0.0117    0.0094    0.0096
          28   -0.0084   -0.0105   -0.0107   -0.0148    0.0126   -0.0178    0.0057   -0.0133
          29   -0.0205   -0.0170   -0.0012   -0.0036    0.0117   -0.0143   -0.0001   -0.0117
          30   -0.0185   -0.0230    0.0087    0.0120    0.0007   -0.0043   -0.0254   -0.0032
          31   -0.0008   -0.0000   -0.0034    0.0020    0.0000   -0.0000    0.0001    0.0021
          32   -0.0008   -0.0064    0.0606   -0.0678   -0.0612   -0.0121    0.1860    0.0223
          33    0.0026   -0.0047   -0.0898    0.0995   -0.0420   -0.0086    0.1247   -0.0315
          34   -0.0049   -0.0002   -0.0512    0.0529   -0.0002   -0.0001   -0.0001   -0.0159
          35   -0.0054   -0.0415   -0.0258    0.0271    0.0229   -0.0100   -0.0419   -0.0110
          36    0.0079   -0.0277    0.0382   -0.0399    0.0156   -0.0065   -0.0282    0.0161
          37   -0.0046    0.0002   -0.0512   -0.0528    0.0001   -0.0001   -0.0002    0.0158
          38   -0.0053    0.0414   -0.0257   -0.0270   -0.0229   -0.0099   -0.0420    0.0109
          39    0.0077    0.0276    0.0382    0.0399   -0.0156   -0.0065   -0.0281   -0.0161
          40   -0.0007    0.0000   -0.0034   -0.0020   -0.0000   -0.0000    0.0001   -0.0021
          41   -0.0011    0.0067    0.0605    0.0677    0.0612   -0.0123    0.1864   -0.0219
          42    0.0030    0.0050   -0.0898   -0.0996    0.0418   -0.0086    0.1247    0.0313
          43    0.0585    0.0636   -0.0444    0.0111    0.0580    0.0721    0.0210    0.0643
          44   -0.0092   -0.0385   -0.0141    0.0220   -0.0004    0.0056    0.0118    0.0018
          45   -0.0616   -0.0678    0.0285    0.0160   -0.0605   -0.0536    0.0061   -0.0608
          46    0.0620   -0.0645   -0.0437    0.0103   -0.0574   -0.0717   -0.0200    0.0641
          47    0.0653   -0.0781   -0.0207   -0.0241   -0.0559   -0.0470    0.0112    0.0554
          48   -0.0154   -0.0097    0.0235   -0.0141    0.0222    0.0253    0.0084   -0.0246
          49    0.0590   -0.0641   -0.0444   -0.0110   -0.0579    0.0722    0.0211   -0.0640
          50   -0.0093    0.0387   -0.0141   -0.0220    0.0004    0.0056    0.0118   -0.0018
          51   -0.0623    0.0685    0.0284   -0.0162    0.0604   -0.0537    0.0059    0.0605
          52    0.0622    0.0652   -0.0437   -0.0103    0.0573   -0.0718   -0.0200   -0.0637
          53    0.0655    0.0792   -0.0206    0.0241    0.0558   -0.0472    0.0113   -0.0550
          54   -0.0156    0.0096    0.0235    0.0140   -0.0222    0.0253    0.0084    0.0245
          55    0.0874   -0.0414    0.0340    0.0384    0.0605   -0.0404    0.0247    0.0155
          56    0.0125   -0.0195   -0.0162   -0.0198   -0.0057    0.0022   -0.0290   -0.0006
          57   -0.0497    0.0445   -0.0620   -0.0649   -0.0569    0.0939   -0.0152   -0.0796
          58    0.0892   -0.0422    0.0345   -0.0375    0.0618    0.0411   -0.0251   -0.0164
          59    0.0435   -0.0338    0.0635   -0.0664    0.0558    0.0879   -0.0247   -0.0744
          60   -0.0306    0.0348   -0.0082    0.0058   -0.0160   -0.0332   -0.0211    0.0294
          61    0.0871    0.0412    0.0340   -0.0384   -0.0606   -0.0403    0.0247   -0.0159
          62    0.0125    0.0196   -0.0162    0.0198    0.0057    0.0022   -0.0289    0.0006
          63   -0.0492   -0.0439   -0.0621    0.0650    0.0571    0.0938   -0.0151    0.0796
          64    0.0892    0.0428    0.0345    0.0376   -0.0617    0.0412   -0.0252    0.0159
          65    0.0437    0.0345    0.0635    0.0664   -0.0556    0.0880   -0.0249    0.0742
          66   -0.0307   -0.0351   -0.0082   -0.0058    0.0159   -0.0332   -0.0210   -0.0294


   Root No.      25        26        27        28        29        30        31        32

                25 A      26 A      27 A      28 A      29 A      30 A      31 A      32 A   

                1011.8    1013.7    1030.8    1050.8    1081.6    1093.6    1113.5    1116.7
  
           1    0.0207   -0.0001    0.0006   -0.0000    0.0081   -0.0009   -0.0000    0.0000
           2    0.0063    0.0154   -0.0096   -0.0048   -0.0149   -0.0153   -0.0104    0.0112
           3   -0.0096    0.0102    0.0144   -0.0030    0.0221    0.0225   -0.0073    0.0077
           4    0.0208    0.0001   -0.0006   -0.0000    0.0081    0.0009    0.0000    0.0000
           5    0.0063   -0.0153    0.0096   -0.0047   -0.0149    0.0153    0.0104    0.0112
           6   -0.0096   -0.0103   -0.0145   -0.0031    0.0221   -0.0225    0.0073    0.0077
           7   -0.0172   -0.0073   -0.0147    0.0091   -0.0136   -0.0005   -0.0112    0.0065
           8    0.0011   -0.0065    0.0138    0.0017    0.0168    0.0130    0.0088   -0.0109
           9    0.0174    0.0114   -0.0124   -0.0013   -0.0117   -0.0125   -0.0051    0.0066
          10   -0.0173    0.0074   -0.0146   -0.0091   -0.0134   -0.0002    0.0111   -0.0066
          11   -0.0167    0.0082    0.0065   -0.0005    0.0045    0.0066   -0.0015    0.0020
          12    0.0057   -0.0102   -0.0176    0.0018   -0.0199   -0.0166    0.0103   -0.0128
          13   -0.0173    0.0073    0.0147    0.0091   -0.0135    0.0004    0.0112    0.0065
          14    0.0012    0.0065   -0.0138    0.0016    0.0168   -0.0130   -0.0088   -0.0109
          15    0.0175   -0.0113    0.0125   -0.0013   -0.0117    0.0124    0.0051    0.0066
          16   -0.0174   -0.0075    0.0146   -0.0090   -0.0134    0.0002   -0.0111   -0.0065
          17   -0.0168   -0.0082   -0.0065   -0.0005    0.0045   -0.0066    0.0015    0.0020
          18    0.0056    0.0102    0.0176    0.0019   -0.0199    0.0166   -0.0103   -0.0128
          19    0.0081    0.0010   -0.0019    0.0006    0.0076   -0.0055   -0.0041   -0.0033
          20    0.0137   -0.0093    0.0052    0.0089    0.0078   -0.0100   -0.0068   -0.0039
          21    0.0057   -0.0080   -0.0300   -0.0184    0.0027    0.0055    0.0005   -0.0058
          22    0.0081   -0.0010   -0.0019   -0.0007    0.0075   -0.0055    0.0042    0.0034
          23   -0.0102   -0.0110    0.0258   -0.0136   -0.0052   -0.0013   -0.0020   -0.0069
          24   -0.0104   -0.0054   -0.0163    0.0152   -0.0063    0.0112   -0.0067   -0.0015
          25    0.0082    0.0010    0.0019   -0.0007    0.0075    0.0055   -0.0041    0.0034
          26   -0.0103    0.0110   -0.0257   -0.0137   -0.0052    0.0013    0.0020   -0.0069
          27   -0.0105    0.0054    0.0162    0.0153   -0.0063   -0.0113    0.0067   -0.0015
          28    0.0082   -0.0009    0.0020    0.0007    0.0076    0.0055    0.0041   -0.0033
          29    0.0137    0.0093   -0.0052    0.0089    0.0078    0.0101    0.0068   -0.0039
          30    0.0057    0.0080    0.0300   -0.0184    0.0027   -0.0054   -0.0005   -0.0058
          31    0.0031    0.0001   -0.0116   -0.0001   -0.0052   -0.0052    0.0001   -0.0000
          32    0.0356    0.1596    0.0091   -0.0590    0.0061   -0.0084    0.0375   -0.0117
          33   -0.0558    0.1077   -0.0126   -0.0396   -0.0086    0.0137    0.0251   -0.0079
          34   -0.0138    0.0002   -0.0389   -0.0002   -0.0454   -0.0310    0.0003   -0.0002
          35   -0.0053   -0.0256   -0.0232    0.0167   -0.0348   -0.0277   -0.1065    0.1113
          36    0.0089   -0.0175    0.0346    0.0115    0.0509    0.0389   -0.0722    0.0752
          37   -0.0139   -0.0003    0.0389   -0.0001   -0.0454    0.0309   -0.0003   -0.0001
          38   -0.0054    0.0255    0.0231    0.0167   -0.0348    0.0276    0.1067    0.1111
          39    0.0090    0.0175   -0.0346    0.0114    0.0509   -0.0388    0.0724    0.0750
          40    0.0031   -0.0001    0.0116   -0.0000   -0.0052    0.0052   -0.0001   -0.0000
          41    0.0360   -0.1593   -0.0088   -0.0590    0.0061    0.0085   -0.0375   -0.0116
          42   -0.0557   -0.1076    0.0126   -0.0396   -0.0086   -0.0137   -0.0251   -0.0078
          43    0.0553    0.0107   -0.0597    0.0394   -0.0255   -0.0133   -0.0149    0.0271
          44   -0.0122   -0.0238   -0.0659    0.0757   -0.0092    0.0206   -0.0155    0.0316
          45   -0.0667   -0.0232   -0.0428    0.0377   -0.0235    0.0083   -0.0242    0.0253
          46    0.0552   -0.0106   -0.0601   -0.0402   -0.0249   -0.0129    0.0150   -0.0275
          47    0.0669   -0.0311    0.0639    0.0633    0.0240   -0.0162   -0.0275    0.0354
          48   -0.0134   -0.0136    0.0449    0.0562   -0.0012   -0.0163   -0.0047    0.0198
          49    0.0557   -0.0106    0.0597    0.0395   -0.0255    0.0133    0.0150    0.0271
          50   -0.0123    0.0238    0.0657    0.0758   -0.0091   -0.0207    0.0156    0.0315
          51   -0.0673    0.0231    0.0426    0.0378   -0.0235   -0.0084    0.0242    0.0252
          52    0.0556    0.0107    0.0603   -0.0401   -0.0249    0.0129   -0.0151   -0.0274
          53    0.0673    0.0314   -0.0639    0.0632    0.0239    0.0161    0.0276    0.0353
          54   -0.0136    0.0136   -0.0451    0.0561   -0.0012    0.0162    0.0048    0.0197
          55   -0.0646    0.0612    0.0403    0.0698    0.0728   -0.1165   -0.0662   -0.0745
          56   -0.0020    0.0069   -0.0308   -0.0191   -0.0056    0.0077    0.0032   -0.0039
          57    0.0161    0.0250    0.0013    0.0312    0.0969   -0.0843   -0.0754   -0.0630
          58   -0.0652    0.0614   -0.0390   -0.0685    0.0719    0.1145   -0.0675    0.0749
          59   -0.0136   -0.0252   -0.0101    0.0216   -0.0877   -0.0741    0.0701   -0.0606
          60    0.0078    0.0030   -0.0291   -0.0293    0.0418    0.0383   -0.0321    0.0204
          61   -0.0644   -0.0613   -0.0405    0.0698    0.0727    0.1165    0.0660   -0.0746
          62   -0.0021   -0.0070    0.0309   -0.0191   -0.0056   -0.0077   -0.0032   -0.0039
          63    0.0155   -0.0249   -0.0015    0.0314    0.0968    0.0844    0.0753   -0.0631
          64   -0.0652   -0.0616    0.0391   -0.0685    0.0720   -0.1144    0.0677    0.0747
          65   -0.0142    0.0251    0.0100    0.0217   -0.0878    0.0740   -0.0702   -0.0605
          66    0.0080   -0.0030    0.0292   -0.0293    0.0419   -0.0383    0.0322    0.0203


   Root No.      33        34        35        36        37        38        39        40

                33 A      34 A      35 A      36 A      37 A      38 A      39 A      40 A   

                1164.2    1178.5    1193.6    1201.9    1208.8    1263.0    1264.7    1370.0
  
           1   -0.0000   -0.0001    0.0095   -0.0084   -0.0001   -0.0030    0.0002    0.0026
           2    0.0105    0.0076   -0.0133    0.0135    0.0103   -0.0052    0.0322    0.0074
           3    0.0070    0.0049    0.0199   -0.0204    0.0066    0.0111    0.0208   -0.0102
           4    0.0000   -0.0000    0.0095    0.0084    0.0000   -0.0030    0.0002   -0.0026
           5   -0.0105    0.0075   -0.0133   -0.0136   -0.0102   -0.0052    0.0322   -0.0074
           6   -0.0070    0.0049    0.0199    0.0204   -0.0067    0.0111    0.0208    0.0102
           7    0.0022    0.0046   -0.0024    0.0047    0.0041    0.0016    0.0126    0.0066
           8   -0.0059   -0.0110    0.0070   -0.0114    0.0136    0.0245    0.0034    0.0143
           9    0.0020    0.0050   -0.0048    0.0070   -0.0041   -0.0042    0.0019    0.0045
          10   -0.0023   -0.0045   -0.0025    0.0048   -0.0041    0.0004   -0.0127    0.0066
          11   -0.0004    0.0005    0.0018   -0.0022    0.0013   -0.0050    0.0036   -0.0096
          12   -0.0062   -0.0119   -0.0084    0.0128    0.0144   -0.0240    0.0052   -0.0119
          13   -0.0022    0.0046   -0.0024   -0.0048   -0.0042    0.0016    0.0126   -0.0066
          14    0.0059   -0.0110    0.0070    0.0114   -0.0136    0.0245    0.0034   -0.0142
          15   -0.0020    0.0050   -0.0047   -0.0070    0.0041   -0.0042    0.0019   -0.0045
          16    0.0023   -0.0045   -0.0025   -0.0048    0.0041    0.0004   -0.0127   -0.0066
          17    0.0004    0.0005    0.0018    0.0022   -0.0013   -0.0050    0.0036    0.0096
          18    0.0062   -0.0119   -0.0084   -0.0129   -0.0144   -0.0240    0.0052    0.0119
          19   -0.0040    0.0004   -0.0043    0.0004   -0.0046    0.0104   -0.0050    0.0099
          20    0.0011    0.0026    0.0017   -0.0020    0.0056   -0.0113    0.0031   -0.0055
          21   -0.0016   -0.0033   -0.0002    0.0015   -0.0065    0.0056   -0.0212    0.0161
          22    0.0040   -0.0005   -0.0043    0.0003    0.0047    0.0109    0.0038    0.0097
          23   -0.0010   -0.0020   -0.0005   -0.0006   -0.0039   -0.0027   -0.0183   -0.0129
          24    0.0017    0.0037   -0.0016    0.0023    0.0077    0.0135    0.0094    0.0109
          25   -0.0040   -0.0005   -0.0043   -0.0003   -0.0047    0.0109    0.0038   -0.0097
          26    0.0010   -0.0020   -0.0005    0.0006    0.0039   -0.0027   -0.0183    0.0129
          27   -0.0017    0.0037   -0.0016   -0.0023   -0.0077    0.0135    0.0094   -0.0109
          28    0.0040    0.0004   -0.0043   -0.0004    0.0046    0.0104   -0.0050   -0.0099
          29   -0.0011    0.0026    0.0017    0.0020   -0.0057   -0.0113    0.0031    0.0054
          30    0.0016   -0.0033   -0.0002   -0.0015    0.0065    0.0056   -0.0212   -0.0161
          31   -0.0000   -0.0000    0.0032   -0.0019   -0.0000    0.0057   -0.0004    0.0373
          32   -0.0071    0.0044   -0.0016    0.0030   -0.0567   -0.0307   -0.0807   -0.0711
          33   -0.0048    0.0029    0.0023   -0.0032   -0.0382    0.0371   -0.0576    0.1047
          34    0.0001    0.0002   -0.0254    0.0302    0.0002   -0.0417    0.0024   -0.1096
          35    0.0755    0.1039   -0.0271    0.0300   -0.0944   -0.0260   -0.0756   -0.0407
          36    0.0507    0.0695    0.0413   -0.0425   -0.0640    0.0305   -0.0536    0.0595
          37   -0.0001    0.0002   -0.0253   -0.0302   -0.0002   -0.0417    0.0024    0.1097
          38   -0.0755    0.1039   -0.0268   -0.0301    0.0944   -0.0260   -0.0755    0.0407
          39   -0.0507    0.0695    0.0414    0.0425    0.0639    0.0305   -0.0536   -0.0595
          40    0.0000   -0.0000    0.0032    0.0019    0.0000    0.0057   -0.0004   -0.0374
          41    0.0070    0.0044   -0.0015   -0.0030    0.0567   -0.0308   -0.0807    0.0711
          42    0.0048    0.0029    0.0024    0.0032    0.0382    0.0371   -0.0576   -0.1047
          43   -0.0656   -0.0341    0.0652   -0.0440   -0.0344   -0.0379   -0.0285   -0.0192
          44   -0.1189   -0.0774    0.1317   -0.1044   -0.0417   -0.0398   -0.0520   -0.0352
          45   -0.0327   -0.0154    0.0421   -0.0289   -0.0171   -0.0248   -0.0064   -0.0139
          46    0.0656    0.0337    0.0657   -0.0451    0.0336   -0.0350    0.0328   -0.0196
          47   -0.0747   -0.0427   -0.0889    0.0670   -0.0302    0.0351   -0.0295    0.0265
          48   -0.0976   -0.0650   -0.1069    0.0869   -0.0306    0.0229   -0.0487    0.0275
          49    0.0657   -0.0340    0.0652    0.0441    0.0343   -0.0380   -0.0285    0.0192
          50    0.1190   -0.0773    0.1316    0.1046    0.0415   -0.0398   -0.0520    0.0352
          51    0.0327   -0.0153    0.0421    0.0289    0.0170   -0.0248   -0.0064    0.0139
          52   -0.0656    0.0336    0.0656    0.0451   -0.0337   -0.0350    0.0328    0.0196
          53    0.0747   -0.0427   -0.0887   -0.0671    0.0304    0.0351   -0.0296   -0.0265
          54    0.0976   -0.0650   -0.1068   -0.0870    0.0308    0.0229   -0.0487   -0.0275
          55   -0.0299    0.0588   -0.0296   -0.0532    0.0527   -0.0681   -0.0191    0.0219
          56    0.0027   -0.0054    0.0013    0.0035    0.0018    0.0007   -0.0194    0.0127
          57   -0.0313    0.0512   -0.0266   -0.0467    0.0484   -0.0628   -0.0180    0.0209
          58   -0.0297   -0.0583   -0.0303    0.0520    0.0537   -0.0661    0.0269   -0.0226
          59    0.0281    0.0455    0.0250   -0.0414   -0.0467    0.0558   -0.0305    0.0247
          60   -0.0143   -0.0242   -0.0116    0.0206    0.0171   -0.0254   -0.0083    0.0035
          61    0.0299    0.0588   -0.0298    0.0531   -0.0527   -0.0682   -0.0192   -0.0220
          62   -0.0027   -0.0054    0.0013   -0.0035   -0.0018    0.0007   -0.0194   -0.0127
          63    0.0312    0.0511   -0.0268    0.0467   -0.0484   -0.0628   -0.0180   -0.0209
          64    0.0297   -0.0584   -0.0304   -0.0521   -0.0536   -0.0661    0.0269    0.0225
          65   -0.0281    0.0455    0.0250    0.0414    0.0466    0.0558   -0.0305   -0.0247
          66    0.0143   -0.0242   -0.0116   -0.0206   -0.0170   -0.0254   -0.0083   -0.0035


   Root No.      41        42        43        44        45        46        47        48

                41 A      42 A      43 A      44 A      45 A      46 A      47 A      48 A   

                1376.4    1396.9    1428.2    1454.2    1860.0    1867.0    1916.5    1922.8
  
           1    0.0000   -0.0105    0.0095    0.0000   -0.0000    0.0076    0.0000   -0.0074
           2   -0.0507   -0.0190    0.0145    0.0408    0.0180    0.0048    0.0148   -0.0045
           3   -0.0343    0.0282   -0.0215    0.0274    0.0121   -0.0072    0.0099    0.0066
           4   -0.0000   -0.0105   -0.0095    0.0000    0.0000    0.0076    0.0000    0.0074
           5    0.0507   -0.0190   -0.0146    0.0408   -0.0180    0.0049    0.0148    0.0045
           6    0.0343    0.0282    0.0215    0.0274   -0.0121   -0.0072    0.0099   -0.0066
           7   -0.0060   -0.0008   -0.0075   -0.0068   -0.0460   -0.0476   -0.0469    0.0483
           8    0.0245    0.0094   -0.0238   -0.0324   -0.0434   -0.0456   -0.0406    0.0428
           9   -0.0022   -0.0040   -0.0021   -0.0052   -0.0341   -0.0364   -0.0336    0.0355
          10    0.0061   -0.0008   -0.0076    0.0068    0.0461   -0.0479    0.0467    0.0481
          11    0.0070    0.0001    0.0109   -0.0171   -0.0480    0.0512   -0.0460   -0.0488
          12    0.0233   -0.0103    0.0213   -0.0280   -0.0274    0.0287   -0.0248   -0.0262
          13    0.0060   -0.0008    0.0075   -0.0068    0.0459   -0.0477   -0.0469   -0.0484
          14   -0.0245    0.0095    0.0238   -0.0324    0.0433   -0.0457   -0.0406   -0.0429
          15    0.0022   -0.0040    0.0021   -0.0052    0.0340   -0.0364   -0.0335   -0.0355
          16   -0.0061   -0.0008    0.0076    0.0068   -0.0462   -0.0478    0.0467   -0.0481
          17   -0.0070    0.0001   -0.0109   -0.0171    0.0481    0.0510   -0.0461    0.0488
          18   -0.0233   -0.0103   -0.0213   -0.0280    0.0275    0.0286   -0.0248    0.0262
          19   -0.0147    0.0044   -0.0150    0.0219   -0.0443    0.0462   -0.0646   -0.0664
          20    0.0143   -0.0049    0.0091   -0.0132    0.0453   -0.0471    0.0539    0.0554
          21   -0.0006    0.0014   -0.0210    0.0237    0.0120   -0.0126   -0.0072   -0.0069
          22    0.0150    0.0043   -0.0150   -0.0219    0.0441    0.0458    0.0648   -0.0666
          23    0.0045    0.0006    0.0161    0.0170    0.0281    0.0293    0.0139   -0.0147
          24    0.0137    0.0051   -0.0164   -0.0212    0.0373    0.0386    0.0529   -0.0541
          25   -0.0150    0.0044    0.0150   -0.0219   -0.0440    0.0459    0.0648    0.0666
          26   -0.0045    0.0006   -0.0161    0.0170   -0.0281    0.0294    0.0139    0.0147
          27   -0.0137    0.0051    0.0164   -0.0212   -0.0372    0.0386    0.0529    0.0541
          28    0.0147    0.0044    0.0150    0.0219    0.0444    0.0461   -0.0646    0.0664
          29   -0.0143   -0.0049   -0.0091   -0.0132   -0.0454   -0.0470    0.0540   -0.0554
          30    0.0006    0.0014    0.0210    0.0237   -0.0120   -0.0126   -0.0072    0.0069
          31    0.0005   -0.0611    0.0360    0.0000    0.0000    0.0030    0.0000   -0.0026
          32    0.0614    0.0950   -0.0467   -0.0309    0.0081    0.0058    0.0101   -0.0059
          33    0.0431   -0.1412    0.0693   -0.0207    0.0054   -0.0087    0.0068    0.0087
          34   -0.0013    0.1572   -0.0868   -0.0001   -0.0000   -0.0123   -0.0001    0.0119
          35    0.0658    0.0522   -0.0262   -0.0477   -0.0191   -0.0022   -0.0180    0.0033
          36    0.0453   -0.0778    0.0390   -0.0321   -0.0129    0.0034   -0.0121   -0.0049
          37    0.0014    0.1571    0.0868   -0.0001   -0.0000   -0.0123   -0.0000   -0.0119
          38   -0.0657    0.0522    0.0263   -0.0477    0.0191   -0.0023   -0.0180   -0.0033
          39   -0.0453   -0.0777   -0.0390   -0.0321    0.0129    0.0034   -0.0121    0.0049
          40   -0.0005   -0.0611   -0.0360    0.0000   -0.0000    0.0031    0.0000    0.0026
          41   -0.0613    0.0949    0.0467   -0.0309   -0.0081    0.0058    0.0101    0.0059
          42   -0.0432   -0.1411   -0.0693   -0.0207   -0.0055   -0.0087    0.0068   -0.0087
          43   -0.0219   -0.0116    0.0272    0.0309   -0.0100   -0.0106   -0.0197    0.0203
          44   -0.0200   -0.0017    0.0341    0.0443    0.0361    0.0367    0.0290   -0.0294
          45   -0.0289   -0.0044    0.0156    0.0264   -0.0167   -0.0188   -0.0174    0.0191
          46    0.0215   -0.0116    0.0272   -0.0309    0.0101   -0.0107    0.0197    0.0202
          47   -0.0337    0.0048   -0.0271    0.0409   -0.0019    0.0037   -0.0052   -0.0067
          48   -0.0071   -0.0001   -0.0258    0.0311    0.0397   -0.0413    0.0332    0.0343
          49    0.0219   -0.0116   -0.0272    0.0309    0.0100   -0.0106   -0.0197   -0.0203
          50    0.0201   -0.0017   -0.0341    0.0443   -0.0360    0.0367    0.0290    0.0294
          51    0.0289   -0.0045   -0.0156    0.0264    0.0166   -0.0188   -0.0174   -0.0191
          52   -0.0215   -0.0116   -0.0272   -0.0309   -0.0101   -0.0107    0.0197   -0.0202
          53    0.0337    0.0048    0.0271    0.0409    0.0019    0.0037   -0.0052    0.0067
          54    0.0071   -0.0001    0.0257    0.0311   -0.0398   -0.0412    0.0332   -0.0343
          55    0.0357   -0.0159   -0.0301    0.0331    0.0098   -0.0093   -0.0027   -0.0019
          56   -0.0075    0.0018   -0.0153    0.0156   -0.0399    0.0418    0.0291    0.0306
          57    0.0415   -0.0132   -0.0260    0.0337    0.0192   -0.0199   -0.0082   -0.0084
          58    0.0353   -0.0159    0.0301   -0.0331    0.0097   -0.0092    0.0026    0.0019
          59   -0.0354    0.0117   -0.0298    0.0370   -0.0028    0.0027    0.0033    0.0037
          60    0.0227   -0.0067   -0.0044    0.0018    0.0443   -0.0464    0.0298    0.0313
          61   -0.0357   -0.0159    0.0301    0.0331   -0.0098   -0.0092   -0.0027    0.0019
          62    0.0075    0.0018    0.0153    0.0156    0.0400    0.0417    0.0291   -0.0306
          63   -0.0415   -0.0132    0.0259    0.0337   -0.0192   -0.0198   -0.0082    0.0084
          64   -0.0353   -0.0159   -0.0301   -0.0331   -0.0097   -0.0092    0.0026   -0.0018
          65    0.0354    0.0117    0.0298    0.0370    0.0028    0.0027    0.0033   -0.0037
          66   -0.0227   -0.0066    0.0044    0.0018   -0.0444   -0.0463    0.0298   -0.0313


   Root No.      49        50        51        52        53        54        55        56

                49 A      50 A      51 A      52 A      53 A      54 A      55 A      56 A   

                2936.9    2937.2    3009.2    3009.5    3017.7    3017.7    3021.6    3021.6
  
           1    0.0230   -0.0301   -0.0076   -0.0095    0.0000    0.0001   -0.0001    0.0004
           2   -0.0054    0.0070   -0.0092   -0.0113    0.0002    0.0007    0.0002   -0.0004
           3    0.0080   -0.0103    0.0137    0.0168   -0.0000   -0.0011   -0.0001    0.0006
           4   -0.0300   -0.0231   -0.0089    0.0082   -0.0000    0.0001    0.0001   -0.0004
           5    0.0070    0.0053   -0.0107    0.0097   -0.0001    0.0007    0.0000    0.0005
           6   -0.0104   -0.0079    0.0160   -0.0144   -0.0002   -0.0011    0.0002   -0.0006
           7   -0.0007    0.0008   -0.0005   -0.0004   -0.0036   -0.0028   -0.0053    0.0031
           8    0.0007   -0.0009    0.0002    0.0000    0.0038    0.0030    0.0054   -0.0032
           9   -0.0008    0.0009   -0.0004   -0.0004   -0.0036   -0.0029   -0.0055    0.0033
          10   -0.0007    0.0008   -0.0005   -0.0004    0.0031   -0.0035    0.0031    0.0050
          11    0.0005   -0.0005    0.0003    0.0003   -0.0017    0.0020   -0.0018   -0.0029
          12   -0.0009    0.0012   -0.0003   -0.0002    0.0043   -0.0049    0.0041    0.0067
          13    0.0008    0.0006   -0.0005    0.0003    0.0030   -0.0033   -0.0032   -0.0052
          14   -0.0009   -0.0007    0.0002   -0.0000   -0.0031    0.0035    0.0033    0.0053
          15    0.0010    0.0007   -0.0004    0.0003    0.0030   -0.0034   -0.0033   -0.0055
          16    0.0008    0.0006   -0.0005    0.0003   -0.0037   -0.0029    0.0051   -0.0030
          17   -0.0006   -0.0003    0.0003   -0.0003    0.0020    0.0016   -0.0030    0.0018
          18    0.0012    0.0009   -0.0003    0.0001   -0.0050   -0.0040    0.0069   -0.0041
          19    0.0001    0.0001   -0.0001    0.0000    0.0014   -0.0016    0.0009    0.0015
          20    0.0001   -0.0001    0.0003    0.0000   -0.0042    0.0048   -0.0029   -0.0047
          21    0.0000   -0.0001    0.0011    0.0005   -0.0116    0.0132   -0.0080   -0.0131
          22    0.0001    0.0001   -0.0001    0.0000   -0.0016   -0.0013   -0.0016    0.0010
          23   -0.0001    0.0001   -0.0011   -0.0005   -0.0142   -0.0113   -0.0147    0.0086
          24   -0.0000    0.0001    0.0001    0.0002    0.0005    0.0004    0.0006   -0.0004
          25   -0.0000    0.0001   -0.0001   -0.0000    0.0014   -0.0015   -0.0010   -0.0016
          26    0.0001    0.0001   -0.0011    0.0004    0.0118   -0.0133   -0.0090   -0.0146
          27    0.0001    0.0001    0.0001   -0.0002   -0.0004    0.0005    0.0004    0.0006
          28   -0.0000    0.0001   -0.0001   -0.0001   -0.0017   -0.0013    0.0016   -0.0009
          29   -0.0001   -0.0001    0.0003    0.0000    0.0050    0.0040   -0.0048    0.0029
          30   -0.0001   -0.0001    0.0011   -0.0003    0.0137    0.0110   -0.0135    0.0080
          31   -0.1646    0.2161    0.2067    0.2551   -0.0011   -0.0091   -0.0002    0.0006
          32   -0.0311    0.0408    0.0296    0.0366    0.0004   -0.0009    0.0007   -0.0004
          33    0.0463   -0.0607   -0.0442   -0.0545    0.0005    0.0012    0.0002    0.0008
          34   -0.1100    0.1439   -0.1130   -0.1389    0.0009    0.0094    0.0017   -0.0061
          35    0.0945   -0.1231    0.0820    0.1008   -0.0010   -0.0073   -0.0018    0.0050
          36   -0.1403    0.1829   -0.1218   -0.1498    0.0007    0.0109    0.0018   -0.0076
          37    0.1435    0.1101   -0.1321    0.1191    0.0009    0.0094   -0.0015    0.0063
          38   -0.1232   -0.0942    0.0959   -0.0864   -0.0003   -0.0074    0.0008   -0.0053
          39    0.1830    0.1399   -0.1424    0.1284    0.0013    0.0109   -0.0021    0.0077
          40    0.2154    0.1658    0.2414   -0.2184   -0.0006   -0.0094    0.0001   -0.0007
          41    0.0406    0.0313    0.0346   -0.0313   -0.0005   -0.0008    0.0004    0.0007
          42   -0.0605   -0.0466   -0.0516    0.0467   -0.0003    0.0013    0.0005   -0.0006
          43    0.0092   -0.0118    0.0045    0.0033    0.0457    0.0362    0.0675   -0.0396
          44   -0.0061    0.0078   -0.0041   -0.0030   -0.0434   -0.0346   -0.0633    0.0374
          45    0.0088   -0.0112    0.0051    0.0040    0.0470    0.0371    0.0686   -0.0402
          46    0.0092   -0.0118    0.0046    0.0032   -0.0401    0.0454   -0.0392   -0.0642
          47   -0.0059    0.0074   -0.0032   -0.0025    0.0238   -0.0268    0.0231    0.0375
          48    0.0090   -0.0114    0.0059    0.0042   -0.0507    0.0576   -0.0489   -0.0803
          49   -0.0119   -0.0090    0.0049   -0.0025   -0.0378    0.0424    0.0410    0.0667
          50    0.0079    0.0059   -0.0045    0.0023    0.0359   -0.0406   -0.0384   -0.0628
          51   -0.0114   -0.0085    0.0056   -0.0032   -0.0389    0.0436    0.0418    0.0678
          52   -0.0119   -0.0090    0.0050   -0.0024    0.0469    0.0376   -0.0659    0.0389
          53    0.0076    0.0056   -0.0035    0.0020   -0.0278   -0.0221    0.0387   -0.0227
          54   -0.0117   -0.0087    0.0064   -0.0032    0.0594    0.0477   -0.0823    0.0488
          55    0.0003    0.0001    0.0012   -0.0003   -0.0131    0.0149    0.0096    0.0157
          56    0.0016    0.0011    0.0140   -0.0047   -0.1384    0.1566    0.1061    0.1725
          57    0.0002    0.0001   -0.0006    0.0001    0.0077   -0.0087   -0.0069   -0.0112
          58   -0.0002    0.0002    0.0012    0.0004   -0.0138    0.0157   -0.0091   -0.0149
          59    0.0006   -0.0007   -0.0045   -0.0021    0.0469   -0.0534    0.0314    0.0516
          60    0.0010   -0.0013   -0.0126   -0.0057    0.1373   -0.1563    0.0949    0.1556
          61   -0.0002    0.0002    0.0011    0.0005    0.0158    0.0126    0.0158   -0.0093
          62   -0.0012    0.0015    0.0132    0.0067    0.1667    0.1330    0.1737   -0.1021
          63   -0.0002    0.0001   -0.0006   -0.0002   -0.0093   -0.0074   -0.0113    0.0067
          64    0.0003    0.0001    0.0012   -0.0002    0.0163    0.0130   -0.0154    0.0091
          65   -0.0007   -0.0005   -0.0048    0.0014   -0.0553   -0.0443    0.0532   -0.0315
          66   -0.0013   -0.0010   -0.0134    0.0038   -0.1617   -0.1297    0.1605   -0.0949


   Root No.      57        58        59        60

                57 A      58 A      59 A      60 A   

                3041.6    3041.9    3044.3    3044.7
  
           1   -0.0000   -0.0013    0.0000    0.0012
           2    0.0001    0.0004    0.0001   -0.0004
           3    0.0000   -0.0006    0.0001    0.0006
           4   -0.0000   -0.0013    0.0000   -0.0013
           5   -0.0001    0.0004    0.0001    0.0004
           6   -0.0000   -0.0006    0.0001   -0.0006
           7    0.0085   -0.0085    0.0080    0.0077
           8   -0.0062    0.0061   -0.0056   -0.0052
           9    0.0084   -0.0084    0.0078    0.0075
          10   -0.0090   -0.0084   -0.0078    0.0075
          11    0.0058    0.0054    0.0050   -0.0049
          12   -0.0094   -0.0087   -0.0078    0.0075
          13   -0.0088   -0.0081    0.0081   -0.0078
          14    0.0063    0.0058   -0.0056    0.0053
[...]
 TRAVEL      0.0906         C  1 -- H 11          +9.8% ( 44.7%)      0.0%
 RED. MASS   0.6162         C  2 -- H 14          +9.8% ( 44.7%)      0.0%
 EFF. MASS   6.5005

 VIBRATION   40   40A         ATOM PAIR      ENERGY CONTRIBUTION    RADIAL
 FREQ.      1369.99         C  2 -- H 14          +8.9% ( 34.1%)      2.1%
 T-DIPOLE    0.0001         C  1 -- H 11          +8.9% ( 34.1%)      2.1%
 TRAVEL      0.1102         C  2 -- H 13          +8.9% ( 34.0%)      3.2%
 RED. MASS   0.2096         C  1 -- H 12          +8.9% ( 34.0%)      3.2%
 EFF. MASS   4.0523

 VIBRATION   41   41A         ATOM PAIR      ENERGY CONTRIBUTION    RADIAL
 FREQ.      1376.42         C  2 -- C  5         +10.0% ( 49.3%)     79.4%
 T-DIPOLE    0.0001         C  1 -- C  3         +10.0% ( 49.3%)     79.4%
 TRAVEL      0.0732         C  2 -- C  6         +10.0% ( 49.2%)     79.6%
 RED. MASS   1.5607         C  1 -- C  4         +10.0% ( 49.1%)     79.6%
 EFF. MASS   9.1501

 VIBRATION   42   42A         ATOM PAIR      ENERGY CONTRIBUTION    RADIAL
 FREQ.      1396.95         C  1 -- H 12         +17.3% ( 44.4%)      5.5%
 T-DIPOLE    0.1047         C  2 -- H 13         +17.3% ( 44.4%)      5.5%
 TRAVEL      0.1233         C  1 -- H 11         +16.9% ( 43.8%)      4.9%
 RED. MASS   0.3374         C  2 -- H 14         +16.8% ( 43.8%)      4.9%
 EFF. MASS   3.1747

 VIBRATION   43   43A         ATOM PAIR      ENERGY CONTRIBUTION    RADIAL
 FREQ.      1428.18         C  7 -- C  9          +7.9% ( 38.7%)     99.1%
 T-DIPOLE    0.0002         C  8 -- C 10          +7.9% ( 38.7%)     99.1%
 TRAVEL      0.0783         C  2 -- C  5          +5.8% ( 33.1%)     77.5%
 RED. MASS   0.4821         C  1 -- C  3          +5.8% ( 33.1%)     77.5%
 EFF. MASS   7.7084

 VIBRATION   44   44A         ATOM PAIR      ENERGY CONTRIBUTION    RADIAL
 FREQ.      1454.19         C  1 -- C  3          +7.9% ( 43.1%)     83.0%
 T-DIPOLE    0.0503         C  2 -- C  5          +7.9% ( 43.1%)     83.0%
 TRAVEL      0.0683         C  1 -- C  4          +7.9% ( 43.1%)     83.0%
 RED. MASS   0.9409         C  2 -- C  6          +7.9% ( 43.1%)     83.0%
 EFF. MASS   9.9401

 VIBRATION   45   45A         ATOM PAIR      ENERGY CONTRIBUTION    RADIAL
 FREQ.      1860.05         C  6 -- C 10         +11.2% ( 49.7%)     99.4%
 T-DIPOLE    0.0002         C  4 -- C  7         +11.2% ( 49.6%)     99.4%
 TRAVEL      0.0554         C  3 -- C  8         +11.1% ( 49.5%)     99.4%
 RED. MASS   1.3518         C  5 -- C  9         +11.1% ( 49.4%)     99.4%
 EFF. MASS  11.8068

 VIBRATION   46   46A         ATOM PAIR      ENERGY CONTRIBUTION    RADIAL
 FREQ.      1867.01         C  4 -- C  7         +11.5% ( 50.0%)     99.4%
 T-DIPOLE    0.1906         C  6 -- C 10         +11.5% ( 49.9%)     99.4%
 TRAVEL      0.0552         C  5 -- C  9         +11.4% ( 49.8%)     99.3%
 RED. MASS   1.4055         C  3 -- C  8         +11.4% ( 49.7%)     99.3%
 EFF. MASS  11.8335

 VIBRATION   47   47A         ATOM PAIR      ENERGY CONTRIBUTION    RADIAL
 FREQ.      1916.50         C  3 -- C  8         +10.7% ( 48.2%)     98.7%
 T-DIPOLE    0.1697         C  5 -- C  9         +10.7% ( 48.2%)     98.7%
 TRAVEL      0.0543         C  6 -- C 10         +10.6% ( 48.0%)     98.7%
 RED. MASS   1.4578         C  4 -- C  7         +10.6% ( 47.9%)     98.7%
 EFF. MASS  11.9172

 VIBRATION   48   48A         ATOM PAIR      ENERGY CONTRIBUTION    RADIAL
 FREQ.      1922.76         C  5 -- C  9         +10.8% ( 48.3%)     98.9%
 T-DIPOLE    0.0002         C  3 -- C  8         +10.8% ( 48.3%)     98.9%
 TRAVEL      0.0542         C  6 -- C 10         +10.7% ( 48.1%)     98.9%
 RED. MASS   1.4752         C  4 -- C  7         +10.7% ( 48.1%)     98.9%
 EFF. MASS  11.9348

 VIBRATION   49   49A         ATOM PAIR      ENERGY CONTRIBUTION    RADIAL
 FREQ.      2936.90         C  2 -- H 13         +34.7% ( 61.2%)     97.4%
 T-DIPOLE    0.0167         C  2 -- H 14         +26.5% ( 53.5%)     95.4%
 TRAVEL      0.1215         C  1 -- H 12         +20.4% ( 46.9%)     97.4%
 RED. MASS   0.2793         C  1 -- H 11         +15.5% ( 40.9%)     95.3%
 EFF. MASS   1.5544

 VIBRATION   50   50A         ATOM PAIR      ENERGY CONTRIBUTION    RADIAL
 FREQ.      2937.19         C  1 -- H 12         +34.6% ( 61.1%)     97.4%
 T-DIPOLE    0.1283         C  1 -- H 11         +26.6% ( 53.6%)     95.4%
 TRAVEL      0.1215         C  2 -- H 13         +20.2% ( 46.7%)     97.3%
 RED. MASS   0.2792         C  2 -- H 14         +15.6% ( 41.1%)     95.5%
 EFF. MASS   1.5541

 VIBRATION   51   51A         ATOM PAIR      ENERGY CONTRIBUTION    RADIAL
 FREQ.      3009.25         C  2 -- H 14         +32.5% ( 56.2%)     98.3%
 T-DIPOLE    0.1347         C  2 -- H 13         +24.2% ( 48.5%)     96.5%
 TRAVEL      0.1324         C  1 -- H 11         +23.8% ( 48.2%)     98.3%
 RED. MASS   0.2496         C  1 -- H 12         +17.7% ( 41.5%)     96.5%
 EFF. MASS   1.2779

 VIBRATION   52   52A         ATOM PAIR      ENERGY CONTRIBUTION    RADIAL
 FREQ.      3009.49         C  1 -- H 11         +32.8% ( 56.5%)     98.3%
 T-DIPOLE    0.0102         C  1 -- H 12         +24.1% ( 48.4%)     96.4%
 TRAVEL      0.1324         C  2 -- H 14         +24.0% ( 48.3%)     98.3%
 RED. MASS   0.2521         C  2 -- H 13         +17.7% ( 41.5%)     96.4%
 EFF. MASS   1.2790

 VIBRATION   53   53A         ATOM PAIR      ENERGY CONTRIBUTION    RADIAL
 FREQ.      3017.67         C 10 -- H 22         +24.0% ( 49.7%)    100.0%
 T-DIPOLE    0.0228         C  8 -- H 21         +22.9% ( 48.6%)    100.0%
 TRAVEL      0.1235         C  7 -- H 20         +17.3% ( 42.2%)    100.0%
 RED. MASS   0.1691         C  9 -- H 19         +15.8% ( 40.3%)    100.0%
 EFF. MASS   1.4656

 VIBRATION   54   54A         ATOM PAIR      ENERGY CONTRIBUTION    RADIAL
 FREQ.      3017.75         C  7 -- H 20         +24.6% ( 50.3%)    100.0%
 T-DIPOLE    0.2566         C  9 -- H 19         +22.2% ( 47.8%)    100.0%
 TRAVEL      0.1235         C 10 -- H 22         +16.9% ( 41.8%)    100.0%
 RED. MASS   0.1676         C  8 -- H 21         +16.0% ( 40.6%)    100.0%
 EFF. MASS   1.4652

 VIBRATION   55   55A         ATOM PAIR      ENERGY CONTRIBUTION    RADIAL
 FREQ.      3021.56         C  8 -- H 21         +25.7% ( 51.4%)    100.0%
 T-DIPOLE    0.4259         C 10 -- H 22         +24.3% ( 49.9%)    100.0%
 TRAVEL      0.1239         C  3 -- H 15         +11.2% ( 33.9%)     99.9%
 RED. MASS   0.1642         C  6 -- H 18         +10.6% ( 33.0%)     99.9%
 EFF. MASS   1.4538

 VIBRATION   56   56A         ATOM PAIR      ENERGY CONTRIBUTION    RADIAL
 FREQ.      3021.62         C  9 -- H 19         +26.3% ( 52.0%)    100.0%
 T-DIPOLE    0.1060         C  7 -- H 20         +23.6% ( 49.3%)    100.0%
 TRAVEL      0.1239         C  5 -- H 17         +11.3% ( 34.1%)     99.9%
 RED. MASS   0.1637         C  4 -- H 16         +10.4% ( 32.8%)     99.9%
 EFF. MASS   1.4540

 VIBRATION   57   57A         ATOM PAIR      ENERGY CONTRIBUTION    RADIAL
 FREQ.      3041.58         C  4 -- H 16         +21.2% ( 46.6%)    100.0%
 T-DIPOLE    0.0101         C  5 -- H 17         +20.1% ( 45.4%)    100.0%
 TRAVEL      0.1197         C  6 -- H 18         +19.3% ( 44.5%)    100.0%
 RED. MASS   0.1644         C  3 -- H 15         +19.0% ( 44.2%)    100.0%
 EFF. MASS   1.5485

 VIBRATION   58   58A         ATOM PAIR      ENERGY CONTRIBUTION    RADIAL
 FREQ.      3041.86         C  6 -- H 18         +20.8% ( 46.2%)    100.0%
 T-DIPOLE    0.5305         C  3 -- H 15         +20.2% ( 45.6%)    100.0%
 TRAVEL      0.1195         C  4 -- H 16         +19.7% ( 45.0%)    100.0%
 RED. MASS   0.1628         C  5 -- H 17         +18.4% ( 43.5%)    100.0%
 EFF. MASS   1.5516

 VIBRATION   59   59A         ATOM PAIR      ENERGY CONTRIBUTION    RADIAL
 FREQ.      3044.26         C  5 -- H 17         +17.5% ( 42.4%)     99.9%
 T-DIPOLE    0.2517         C  3 -- H 15         +17.2% ( 42.0%)     99.9%
 TRAVEL      0.1188         C  6 -- H 18         +16.7% ( 41.4%)     99.9%
 RED. MASS   0.1348         C  4 -- H 16         +16.2% ( 40.8%)     99.9%
 EFF. MASS   1.5701

 VIBRATION   60   60A         ATOM PAIR      ENERGY CONTRIBUTION    RADIAL
 FREQ.      3044.74         C  5 -- H 17         +17.3% ( 42.1%)     99.9%
 T-DIPOLE    0.0031         C  3 -- H 15         +16.8% ( 41.6%)     99.9%
 TRAVEL      0.1187         C  6 -- H 18         +16.7% ( 41.3%)     99.9%
 RED. MASS   0.1332         C  4 -- H 16         +16.3% ( 40.9%)     99.9%
 EFF. MASS   1.5728

      SYMMETRY NUMBER FOR POINT-GROUP C1  =  1


          SYSTEM IS A GROUND STATE



 InChI=1S/C10H12/c1-2-4-6-8-10-9-7-5-3-1/h1-4,7-10H,5-6H2


          MOLECULE IS NOT LINEAR

          THERE ARE 60 GENUINE VIBRATIONS IN THIS SYSTEM
          THIS THERMODYNAMICS CALCULATION IS LIMITED TO
          MOLECULES WHICH HAVE NO INTERNAL ROTATIONS




                    CALCULATED THERMODYNAMIC PROPERTIES
                                          *
   TEMP. (K)   PARTITION FUNCTION   H.O.F.    ENTHALPY  HEAT CAPACITY ENTROPY
                                   KCAL/MOL   CAL/MOLE    CAL/K/MOL  CAL/K/MOL


 298.00  VIB.     0.4610D+02                  3715.7312    29.8590    20.0815
         ROT.     0.5746D+06                   888.2813     2.9808    29.3341
         INT.     0.2649D+08                  4604.0125    32.8398    49.4157
         TRA.     0.1470D+28                  1480.4688     4.9680    40.5480
         TOT.                       55.954    6084.4814    37.8078    89.9636

 200.00  VIB.     0.6809D+01                  1412.5146    17.3908    10.8746
         ROT.     0.3159D+06                   596.1620     2.9808    28.1454
         INT.     0.2151D+07                  2008.6766    20.3716    39.0201
         TRA.     0.8080D+27                   993.6033     4.9680    38.5668
         TOT.                       52.872    3002.2798    25.3397    77.5869

 210.00  VIB.     0.8150D+01                  1592.3362    18.5780    11.7517
         ROT.     0.3399D+06                   625.9700     2.9808    28.2909
         INT.     0.2770D+07                  2218.3063    21.5588    40.0426
         TRA.     0.8694D+27                  1043.2834     4.9680    38.8092
         TOT.                       53.131    3261.5897    26.5268    78.8518

 220.00  VIB.     0.9793D+01                  1784.1631    19.7916    12.6439
         ROT.     0.3645D+06                   655.7781     2.9808    28.4296
         INT.     0.3569D+07                  2439.9413    22.7724    41.0734
         TRA.     0.9322D+27                  1092.9636     4.9680    39.0403
         TOT.                       53.403    3532.9049    27.7405    80.1138

 230.00  VIB.     0.1181D+02                  1988.2506    21.0297    13.5509
         ROT.     0.3896D+06                   685.5862     2.9808    28.5621
         INT.     0.4602D+07                  2673.8369    24.0106    42.1129
         TRA.     0.9965D+27                  1142.6437     4.9680    39.2612
         TOT.                       53.686    3816.4806    28.9786    81.3741

 240.00  VIB.     0.1429D+02                  2204.8310    22.2897    14.4725
         ROT.     0.4153D+06                   715.3943     2.9808    28.6889
         INT.     0.5937D+07                  2920.2254    25.2706    43.1614
         TRA.     0.1062D+28                  1192.3239     4.9680    39.4726
         TOT.                       53.982    4112.5493    30.2386    82.6340

 250.00  VIB.     0.1736D+02                  2434.1083    23.5686    15.4082
         ROT.     0.4415D+06                   745.2024     2.9808    28.8106
         INT.     0.7665D+07                  3179.3107    26.5494    44.2188
         TRA.     0.1129D+28                  1242.0041     4.9680    39.6754
         TOT.                       54.291    4421.3148    31.5174    83.8942

 260.00  VIB.     0.2115D+02                  2676.2536    24.8628    16.3578
         ROT.     0.4683D+06                   775.0105     2.9808    28.9275
         INT.     0.9906D+07                  3451.2642    27.8436    45.2853
         TRA.     0.1198D+28                  1291.6842     4.9680    39.8703
         TOT.                       54.613    4742.9484    32.8116    85.1556

 270.00  VIB.     0.2586D+02                  2931.4037    26.1689    17.3206
         ROT.     0.4956D+06                   804.8186     2.9808    29.0400
         INT.     0.1281D+08                  3736.2223    29.1497    46.3606
         TRA.     0.1267D+28                  1341.3644     4.9680    40.0578
         TOT.                       54.947    5077.5867    34.1177    86.4183

 280.00  VIB.     0.3170D+02                  3199.6593    27.4833    18.2960
         ROT.     0.5234D+06                   834.6267     2.9808    29.1484
         INT.     0.1659D+08                  4034.2860    30.4641    47.4444
         TRA.     0.1338D+28                  1391.0445     4.9680    40.2384
         TOT.                       55.295    5425.3306    35.4321    87.6829

 290.00  VIB.     0.3899D+02                  3481.0856    28.8025    19.2834
         ROT.     0.5516D+06                   864.4348     2.9808    29.2530
         INT.     0.2151D+08                  4345.5204    31.7833    48.5364
         TRA.     0.1411D+28                  1440.7247     4.9680    40.4128
         TOT.                       55.656    5786.2451    36.7513    88.9492

 300.00  VIB.     0.4809D+02                  3775.7132    30.1230    20.2821
         ROT.     0.5804D+06                   894.2429     2.9808    29.3541
         INT.     0.2791D+08                  4669.9561    33.1038    49.6362
         TRA.     0.1484D+28                  1490.4049     4.9680    40.5812
         TOT.                       56.030    6160.3610    38.0718    90.2174

 310.00  VIB.     0.5947D+02                  4083.5399    31.4418    21.2914
         ROT.     0.6097D+06                   924.0510     2.9808    29.4518
         INT.     0.3626D+08                  5007.5909    34.4226    50.7432
         TRA.     0.1559D+28                  1540.0850     4.9680    40.7441
         TOT.                       56.417    6547.6759    39.3906    91.4873

 320.00  VIB.     0.7375D+02                  4404.5327    32.7558    22.3104
         ROT.     0.6394D+06                   953.8591     2.9808    29.5464
         INT.     0.4715D+08                  5358.3918    35.7366    51.8568
         TRA.     0.1635D+28                  1589.7652     4.9680    40.9018
         TOT.                       56.818    6948.1570    40.7046    92.7586

 330.00  VIB.     0.9168D+02                  4738.6305    34.0623    23.3384
         ROT.     0.6696D+06                   983.6672     2.9808    29.6382
         INT.     0.6139D+08                  5722.2977    37.0431    52.9765
         TRA.     0.1713D+28                  1639.4454     4.9680    41.0547
         TOT.                       57.232    7361.7431    42.0112    94.0312

 340.00  VIB.     0.1143D+03                  5085.7466    35.3591    24.3745
         ROT.     0.7003D+06                  1013.4753     2.9808    29.7272
         INT.     0.8002D+08                  6099.2219    38.3399    54.1017
         TRA.     0.1791D+28                  1689.1255     4.9680    41.2030
         TOT.                       57.658    7788.3474    43.3079    95.3047

 350.00  VIB.     0.1427D+03                  5445.7715    36.6438    25.4180
         ROT.     0.7314D+06                  1043.2834     2.9808    29.8136
         INT.     0.1044D+09                  6489.0550    39.6246    55.2316
         TRA.     0.1871D+28                  1738.8057     4.9680    41.3470
         TOT.                       58.098    8227.8606    44.5926    96.5786

 360.00  VIB.     0.1787D+03                  5818.5759    37.9146    26.4682
         ROT.     0.7630D+06                  1073.0915     2.9808    29.8975
         INT.     0.1364D+09                  6891.6674    40.8955    56.3657
         TRA.     0.1951D+28                  1788.4859     4.9680    41.4870
         TOT.                       58.550    8680.1533    45.8635    97.8527

 370.00  VIB.     0.2243D+03                  6204.0129    39.1701    27.5242
         ROT.     0.7950D+06                  1102.8996     2.9808    29.9792
         INT.     0.1783D+09                  7306.9125    42.1509    57.5034
         TRA.     0.2033D+28                  1838.1660     4.9680    41.6231
         TOT.                       59.015    9145.0785    47.1189    99.1264

 380.00  VIB.     0.2820D+03                  6601.9209    40.4086    28.5852
         ROT.     0.8275D+06                  1132.7077     2.9808    30.0587
         INT.     0.2334D+09                  7734.6286    43.3895    58.6439
         TRA.     0.2116D+28                  1887.8462     4.9680    41.7556
         TOT.                       59.492    9622.4748    48.3575   100.3995

 390.00  VIB.     0.3553D+03                  7012.1260    41.6293    29.6507
         ROT.     0.8603D+06                  1162.5158     2.9808    30.1361
         INT.     0.3057D+09                  8174.6418    44.6101    59.7868
         TRA.     0.2200D+28                  1937.5263     4.9680    41.8846
         TOT.                       59.982   10112.1682    49.5781   101.6714

 400.00  VIB.     0.4485D+03                  7434.4440    42.8311    30.7198
         ROT.     0.8936D+06                  1192.3239     2.9808    30.2116
         INT.     0.4008D+09                  8626.7679    45.8119    60.9314
         TRA.     0.2285D+28                  1987.2065     4.9680    42.0104
         TOT.                       60.484   10613.9744    50.7799   102.9418

   *: NOTE: HEATS OF FORMATION ARE RELATIVE TO THE
            ELEMENTS IN THEIR STANDARD STATE AT 298K
              (=  Standard Enthalpy of Formation).

            Hvib:  Zero-point energy is not included.
                   frequencies of less than zero cm-1 are not included.
            Hrot = (3/2)RT
            Htra = (3/2)RT + pV = (5/2)RT

            Heat capacity is Cp, not Cv

          For more information, see: HTTP://OpenMOPAC.net/Manual/thermochemistry.html


           FORCE CONSTANT IN CARTESIAN COORDINATES (Millidynes/A)

    ATOM   CHEMICAL       X               Y               Z
   NUMBER   SYMBOL  FORCE CONSTANT  FORCE CONSTANT  FORCE CONSTANT

      1       C        8.258064        8.846237        8.771417
      2       C        8.257761        8.846241        8.771716
      3       C        9.260413       10.505706        7.247513
      4       C        9.261118        8.486045        9.260035
      5       C        9.261030       10.505875        7.247272
      6       C        9.261091        8.486115        9.259805
      7       C        9.638488        8.559993        9.386195
      8       C        9.639425       10.377574        7.581042
      9       C        9.639089       10.377746        7.581336
     10       C        9.638169        8.559757        9.386137
     11       H        4.576187        0.747594        0.892658
     12       H        2.072241        1.612828        2.653237
     13       H        2.072208        1.612847        2.653156
     14       H        4.575395        0.747587        0.892632
     15       H        2.086991        2.033206        2.078498
     16       H        2.088672        1.069621        3.039325
     17       H        2.087295        2.033285        2.078526
     18       H        2.088969        1.069652        3.039404
     19       H        0.590106        4.973254        0.540985
     20       H        0.590062        0.976395        4.539172
     21       H        0.590065        4.972864        0.540907
     22       H        0.590027        0.976555        4.539105

 **********************
 *                    *
 * JOB ENDED NORMALLY *
 *                    *
 **********************



 TOTAL JOB TIME:             7.08 SECONDS

 == MOPAC DONE ==
