 *******************************************************************************
 ** Site#: 14399        For non-commercial use only    Version 18.184L 64BITS **
 *******************************************************************************
 ** Cite this program as: MOPAC2016, Version: 18.184L, James J. P. Stewart,   **
 ** Stewart Computational Chemistry, web: HTTP://OpenMOPAC.net. Days left:  20**
 *******************************************************************************
 **                                                                           **
 **                                MOPAC2016                                  **
 **                                                                           **
 *******************************************************************************

                              PM3 CALCULATION RESULTS

 *******************************************************************************
 *  CALCULATION DONE:                                Thu Jun 13 16:12:36 2019  *
 *  PM3        - The PM3 Hamiltonian to be used
 *  PRECISE    - CRITERIA TO BE INCREASED BY 100 TIMES
 *  NOSYM      - POINT-GROUP SYMMETRY SET TO C1
 *  THREADS=1  - MULTI-THREADING NOT USED
 *  T=         - A TIME OF 172800.0 SECONDS REQUESTED
 *  DUMP=N     - RESTART FILE WRITTEN EVERY  7200.000 SECONDS
 *******************************************************************************
pm3  precise nosym THREADS=1
 InChI=1S/C7H12/c1-7-5-3-2-4-6-7/h2-3,7H,4-6H2,1H3

   ATOM   CHEMICAL          X               Y               Z
  NUMBER   SYMBOL      (ANGSTROMS)     (ANGSTROMS)     (ANGSTROMS)
 
     1       C         -0.82750000  *   0.15630000  *  -0.13640000  *
     2       C          0.12250000  *   0.82070000  *   0.87040000  *
     3       C         -0.24600000  *  -1.19420000  *  -0.59690000  *
     4       C          1.48740000  *   1.09210000  *   0.22420000  *
     5       C         -2.22140000  *  -0.03250000  *   0.47130000  *
     6       C          1.99990000  *  -0.08010000  *  -0.57610000  *
     7       C          1.21640000  *  -1.10280000  *  -0.95780000  *
     8       H         -0.92830000  *   0.82220000  *  -1.02340000  *
     9       H          0.25840000  *   0.15830000  *   1.75450000  *
    10       H         -0.30650000  *   1.78370000  *   1.22390000  *
    11       H          2.22050000  *   1.33090000  *   1.02390000  *
    12       H          1.41480000  *   1.97350000  *  -0.44850000  *
    13       H         -0.35640000  *  -1.95840000  *   0.20300000  *
    14       H         -0.81040000  *  -1.54500000  *  -1.48770000  *
    15       H         -2.89920000  *  -0.50730000  *  -0.26990000  *
    16       H         -2.17240000  *  -0.67500000  *   1.37680000  *
    17       H         -2.65130000  *   0.95210000  *   0.75370000  *
    18       H          3.04100000  *  -0.07520000  *  -0.88410000  *
    19       H          1.65850000  *  -1.91940000  *  -1.52060000  *
 


          CARTESIAN COORDINATES 

    NO.       ATOM           X           Y           Z

     1         C         -0.8275      0.1563     -0.1364
     2         C          0.1225      0.8207      0.8704
     3         C         -0.2460     -1.1942     -0.5969
     4         C          1.4874      1.0921      0.2242
     5         C         -2.2214     -0.0325      0.4713
     6         C          1.9999     -0.0801     -0.5761
     7         C          1.2164     -1.1028     -0.9578
     8         H         -0.9283      0.8222     -1.0234
     9         H          0.2584      0.1583      1.7545
    10         H         -0.3065      1.7837      1.2239
    11         H          2.2205      1.3309      1.0239
    12         H          1.4148      1.9735     -0.4485
    13         H         -0.3564     -1.9584      0.2030
    14         H         -0.8104     -1.5450     -1.4877
    15         H         -2.8992     -0.5073     -0.2699
    16         H         -2.1724     -0.6750      1.3768
    17         H         -2.6513      0.9521      0.7537
    18         H          3.0410     -0.0752     -0.8841
    19         H          1.6585     -1.9194     -1.5206

  H: (PM3): J. J. P. STEWART, J. COMP. CHEM. 10, 209 (1989).
  C: (PM3): J. J. P. STEWART, J. COMP. CHEM. 10, 209 (1989).

           Empirical Formula: C7 H12  =    19 atoms



      MOLECULAR POINT GROUP   :   C1  


      RHF CALCULATION, NO. OF DOUBLY OCCUPIED LEVELS = 20


          Geometry optimization using EF

          DIAGONAL MATRIX USED AS START HESSIAN

 CYCLE:     1 TIME:   0.020 TIME LEFT:  2.00D  GRAD.:    55.638 HEAT: -9.085290
 CYCLE:     2 TIME:   0.039 TIME LEFT:  2.00D  GRAD.:    38.478 HEAT: -10.01557
 CYCLE:     3 TIME:   0.031 TIME LEFT:  2.00D  GRAD.:    33.212 HEAT: -10.32794
 CYCLE:     4 TIME:   0.023 TIME LEFT:  2.00D  GRAD.:    21.104 HEAT: -10.51604
 CYCLE:     5 TIME:   0.020 TIME LEFT:  2.00D  GRAD.:    24.207 HEAT: -10.54337
 CYCLE:     6 TIME:   0.023 TIME LEFT:  2.00D  GRAD.:    23.945 HEAT: -10.58188
 CYCLE:     7 TIME:   0.031 TIME LEFT:  2.00D  GRAD.:    10.716 HEAT: -10.72915
 CYCLE:     8 TIME:   0.027 TIME LEFT:  2.00D  GRAD.:     8.464 HEAT: -10.74950
 CYCLE:     9 TIME:   0.023 TIME LEFT:  2.00D  GRAD.:     9.666 HEAT: -10.75960
 CYCLE:    10 TIME:   0.023 TIME LEFT:  2.00D  GRAD.:     7.530 HEAT: -10.77839
 CYCLE:    11 TIME:   0.023 TIME LEFT:  2.00D  GRAD.:     8.331 HEAT: -10.78296
 CYCLE:    12 TIME:   0.023 TIME LEFT:  2.00D  GRAD.:     6.874 HEAT: -10.79515
 CYCLE:    13 TIME:   0.027 TIME LEFT:  2.00D  GRAD.:     3.116 HEAT: -10.80867
 CYCLE:    14 TIME:   0.023 TIME LEFT:  2.00D  GRAD.:     6.896 HEAT: -10.79977
 CYCLE:    15 TIME:   0.020 TIME LEFT:  2.00D  GRAD.:     3.129 HEAT: -10.81386
 CYCLE:    16 TIME:   0.023 TIME LEFT:  2.00D  GRAD.:     4.644 HEAT: -10.81180
 CYCLE:    17 TIME:   0.023 TIME LEFT:  2.00D  GRAD.:     2.000 HEAT: -10.81799
 CYCLE:    18 TIME:   0.023 TIME LEFT:  2.00D  GRAD.:     3.382 HEAT: -10.81654
 CYCLE:    19 TIME:   0.023 TIME LEFT:  2.00D  GRAD.:     1.364 HEAT: -10.82032
 CYCLE:    20 TIME:   0.023 TIME LEFT:  2.00D  GRAD.:     2.561 HEAT: -10.81953
 CYCLE:    21 TIME:   0.023 TIME LEFT:  2.00D  GRAD.:     0.801 HEAT: -10.82188
 CYCLE:    22 TIME:   0.020 TIME LEFT:  2.00D  GRAD.:     1.132 HEAT: -10.82231
 CYCLE:    23 TIME:   0.023 TIME LEFT:  2.00D  GRAD.:     0.983 HEAT: -10.82297
 CYCLE:    24 TIME:   0.023 TIME LEFT:  2.00D  GRAD.:     0.783 HEAT: -10.82340
 CYCLE:    25 TIME:   0.023 TIME LEFT:  2.00D  GRAD.:     0.416 HEAT: -10.82370
 CYCLE:    26 TIME:   0.023 TIME LEFT:  2.00D  GRAD.:     0.872 HEAT: -10.82378
 CYCLE:    27 TIME:   0.023 TIME LEFT:  2.00D  GRAD.:     0.388 HEAT: -10.82404
 CYCLE:    28 TIME:   0.020 TIME LEFT:  2.00D  GRAD.:     0.343 HEAT: -10.82411
 CYCLE:    29 TIME:   0.023 TIME LEFT:  2.00D  GRAD.:     0.214 HEAT: -10.82420
 CYCLE:    30 TIME:   0.023 TIME LEFT:  2.00D  GRAD.:     0.275 HEAT: -10.82427
 CYCLE:    31 TIME:   0.023 TIME LEFT:  2.00D  GRAD.:     0.281 HEAT: -10.82436
 CYCLE:    32 TIME:   0.023 TIME LEFT:  2.00D  GRAD.:     0.231 HEAT: -10.82445
 CYCLE:    33 TIME:   0.023 TIME LEFT:  2.00D  GRAD.:     0.274 HEAT: -10.82458
 CYCLE:    34 TIME:   0.023 TIME LEFT:  2.00D  GRAD.:     0.199 HEAT: -10.82463
 CYCLE:    35 TIME:   0.020 TIME LEFT:  2.00D  GRAD.:     0.158 HEAT: -10.82474
 CYCLE:    36 TIME:   0.023 TIME LEFT:  2.00D  GRAD.:     0.208 HEAT: -10.82481
 CYCLE:    37 TIME:   0.023 TIME LEFT:  2.00D  GRAD.:     0.184 HEAT: -10.82488
 CYCLE:    38 TIME:   0.023 TIME LEFT:  2.00D  GRAD.:     0.127 HEAT: -10.82495
 CYCLE:    39 TIME:   0.023 TIME LEFT:  2.00D  GRAD.:     0.104 HEAT: -10.82497
 CYCLE:    40 TIME:   0.023 TIME LEFT:  2.00D  GRAD.:     0.104 HEAT: -10.82500
 CYCLE:    41 TIME:   0.023 TIME LEFT:  2.00D  GRAD.:     0.106 HEAT: -10.82502
 CYCLE:    42 TIME:   0.020 TIME LEFT:  2.00D  GRAD.:     0.072 HEAT: -10.82506
 CYCLE:    43 TIME:   0.023 TIME LEFT:  2.00D  GRAD.:     0.054 HEAT: -10.82508
 CYCLE:    44 TIME:   0.023 TIME LEFT:  2.00D  GRAD.:     0.055 HEAT: -10.82509
 CYCLE:    45 TIME:   0.023 TIME LEFT:  2.00D  GRAD.:     0.037 HEAT: -10.82509

     GRADIENT =  0.03697  IS LESS THAN CUTOFF =  0.05000



 -------------------------------------------------------------------------------
 pm3  precise nosym THREADS=1
 InChI=1S/C7H12/c1-7-5-3-2-4-6-7/h2-3,7H,4-6H2,1H3



     GEOMETRY OPTIMISED USING EIGENVECTOR FOLLOWING (EF).     
     SCF FIELD WAS ACHIEVED                                   


                              PM3 CALCULATION
                                                       MOPAC2016 (Version: 18.184L)
                                                       Thu Jun 13 16:12:37 2019
                                                       No. of days remaining =  20




          FINAL HEAT OF FORMATION =        -10.82509 KCAL/MOL =     -45.29218 KJ/MOL


          TOTAL ENERGY            =      -1014.94448 EV
          ELECTRONIC ENERGY       =      -4991.14650 EV  POINT GROUP:     C1  
          CORE-CORE REPULSION     =       3976.20203 EV
          COSMO AREA              =        146.81 SQUARE ANGSTROMS
          COSMO VOLUME            =        143.49 CUBIC ANGSTROMS

          GRADIENT NORM           =          0.03697 = 0.00848 PER ATOM
          IONIZATION POTENTIAL    =          9.593912 EV
          HOMO LUMO ENERGIES (EV) =         -9.594  1.166
          NO. OF FILLED LEVELS    =         20
          MOLECULAR WEIGHT        =         96.1718

          MOLECULAR DIMENSIONS (Angstroms)

            Atom       Atom       Distance
            H    18    H    17     5.98743
            H    14    H    11     4.54954
            H    13    H    12     3.03228


          SCF CALCULATIONS        =         52
 
          WALL-CLOCK TIME         =          1.117 SECONDS
          COMPUTATION TIME        =          0.341 SECONDS




   ATOM   CHEMICAL          X               Y               Z
  NUMBER   SYMBOL      (ANGSTROMS)     (ANGSTROMS)     (ANGSTROMS)
 
     1       C         -0.82078989  *   0.15742397  *  -0.14150414  *
     2       C          0.12699513  *   0.81746640  *   0.85679195  *
     3       C         -0.24212861  *  -1.18060973  *  -0.60228084  *
     4       C          1.48381163  *   1.08002756  *   0.22169999  *
     5       C         -2.19769132  *  -0.03791292  *   0.46765643  *
     6       C          1.98192452  *  -0.07826272  *  -0.56584680  *
     7       C          1.20143712  *  -1.09131551  *  -0.94507512  *
     8       H         -0.91524105  *   0.82798733  *  -1.03066977  *
     9       H          0.24040856  *   0.16918489  *   1.74850774  *
    10       H         -0.30862467  *   1.76568161  *   1.22735928  *
    11       H          2.22215484  *   1.34216251  *   1.00463764  *
    12       H          1.43207321  *   1.95926610  *  -0.45245671  *
    13       H         -0.36472257  *  -1.94837030  *   0.18959270  *
    14       H         -0.81158557  *  -1.55391603  *  -1.47628029  *
    15       H         -2.88209938  *  -0.51824562  *  -0.24361883  *
    16       H         -2.16030259  *  -0.66959468  *   1.36574783  *
    17       H         -2.64383384  *   0.92152144  *   0.76028921  *
    18       H          3.04255006  *  -0.05535905  *  -0.83973049  *
    19       H          1.61012619  *  -1.92517724  *  -1.52672125  *

                             CARTESIAN COORDINATES

   1    C       -0.820789887     0.157423974    -0.141504144
   2    C        0.126995129     0.817466403     0.856791946
   3    C       -0.242128611    -1.180609731    -0.602280837
   4    C        1.483811633     1.080027555     0.221699991
   5    C       -2.197691321    -0.037912920     0.467656428
   6    C        1.981924517    -0.078262724    -0.565846801
   7    C        1.201437119    -1.091315507    -0.945075123
   8    H       -0.915241052     0.827987333    -1.030669773
   9    H        0.240408564     0.169184892     1.748507737
  10    H       -0.308624668     1.765681608     1.227359277
  11    H        2.222154840     1.342162512     1.004637642
  12    H        1.432073208     1.959266098    -0.452456707
  13    H       -0.364722571    -1.948370302     0.189592697
  14    H       -0.811585568    -1.553916034    -1.476280285
  15    H       -2.882099380    -0.518245619    -0.243618828
  16    H       -2.160302591    -0.669594677     1.365747833
  17    H       -2.643833835     0.921521437     0.760289210
  18    H        3.042550059    -0.055359047    -0.839730489
  19    H        1.610126195    -1.925177244    -1.526721248


           Empirical Formula: C7 H12  =    19 atoms



      MOLECULAR POINT GROUP   :   C1  


                  EIGENVALUES  
 -40.94094 -32.70281 -30.50112 -25.71708 -22.26741 -20.64311 -18.01299 -17.07218
 -15.56081 -15.13367 -14.73300 -14.02661 -13.69075 -13.41566 -13.13356 -12.52274
 -11.83814 -11.57412 -11.38309  -9.59391   1.16553   3.41099   3.52726   3.60599
   3.75018   3.87545   3.92073   4.01088   4.15886   4.28505   4.36411   4.48872
   4.53333   4.66337   4.82297   5.02604   5.07881   5.21103   5.77910   6.00673


              NET ATOMIC CHARGES AND DIPOLE CONTRIBUTIONS

  ATOM NO.   TYPE          CHARGE      No. of ELECS.   s-Pop       p-Pop       
    1          C          -0.077956        4.0780     1.17463     2.90332
    2          C          -0.097127        4.0971     1.16221     2.93492
    3          C          -0.059504        4.0595     1.14952     2.90999
    4          C          -0.057014        4.0570     1.14601     2.91100
    5          C          -0.109895        4.1099     1.14140     2.96849
    6          C          -0.149895        4.1499     1.19396     2.95594
    7          C          -0.147362        4.1474     1.19371     2.95366
    8          H           0.065306        0.9347     0.93469
    9          H           0.053378        0.9466     0.94662
   10          H           0.050171        0.9498     0.94983
   11          H           0.052769        0.9472     0.94723
   12          H           0.054420        0.9456     0.94558
   13          H           0.058103        0.9419     0.94190
   14          H           0.053775        0.9462     0.94622
   15          H           0.038956        0.9610     0.96104
   16          H           0.039928        0.9601     0.96007
   17          H           0.039184        0.9608     0.96082
   18          H           0.096473        0.9035     0.90353
   19          H           0.096289        0.9037     0.90371
 DIPOLE           X         Y         Z       TOTAL
 POINT-CHG.    -0.177     0.118     0.087     0.230
 HYBRID         0.031    -0.043    -0.006     0.053
 SUM           -0.146     0.075     0.081     0.183


          ATOMIC ORBITAL ELECTRON POPULATIONS

     Atom    s        px        py        pz   
    1  C   1.17463   0.94709   0.97042   0.98581
    2  C   1.16221   0.95406   1.00416   0.97670
    3  C   1.14952   0.93969   0.96597   1.00432
    4  C   1.14601   0.96346   0.96446   0.98308
    5  C   1.14140   0.95910   1.00892   1.00048
    6  C   1.19396   0.98452   0.96992   1.00149
    7  C   1.19371   0.96192   0.98550   1.00624
    8  H   0.93469
    9  H   0.94662
   10  H   0.94983
   11  H   0.94723
   12  H   0.94558
   13  H   0.94190
   14  H   0.94622
   15  H   0.96104
   16  H   0.96007
   17  H   0.96082
   18  H   0.90353
   19  H   0.90371
 *******************************************************************************
 ** Site#: 14399        For non-commercial use only    Version 18.184L 64BITS **
 *******************************************************************************
 ** Cite this program as: MOPAC2016, Version: 18.184L, James J. P. Stewart,   **
 ** Stewart Computational Chemistry, web: HTTP://OpenMOPAC.net. Days left:  20**
 *******************************************************************************
 **                                                                           **
 **                                MOPAC2016                                  **
 **                                                                           **
 *******************************************************************************

                              PM3 CALCULATION RESULTS

 *******************************************************************************
 *  CALCULATION DONE:                                Thu Jun 13 16:12:37 2019  *
 *  PM3        - The PM3 Hamiltonian to be used
 *  OLDGEO     - PREVIOUS GEOMETRY TO BE USED
 *  PRECISE    - CRITERIA TO BE INCREASED BY 100 TIMES
 *  NOSYM      - POINT-GROUP SYMMETRY SET TO C1
 *  THREADS=1  - MULTI-THREADING NOT USED
 *  T=         - A TIME OF 172800.0 SECONDS REQUESTED
 *  DUMP=N     - RESTART FILE WRITTEN EVERY  7200.000 SECONDS
 *  THERMO     - THERMODYNAMIC QUANTITIES TO BE CALCULATED
 *******************************************************************************
oldgeo thermo nosym precise THREADS=1  pm3
 InChI=1S/C7H12/c1-7-5-3-2-4-6-7/h2-3,7H,4-6H2,1H3

   ATOM   CHEMICAL          X               Y               Z
  NUMBER   SYMBOL      (ANGSTROMS)     (ANGSTROMS)     (ANGSTROMS)
 
     1       C         -0.82078989  *   0.15742397  *  -0.14150414  *
     2       C          0.12699513  *   0.81746640  *   0.85679195  *
     3       C         -0.24212861  *  -1.18060973  *  -0.60228084  *
     4       C          1.48381163  *   1.08002756  *   0.22169999  *
     5       C         -2.19769132  *  -0.03791292  *   0.46765643  *
     6       C          1.98192452  *  -0.07826272  *  -0.56584680  *
     7       C          1.20143712  *  -1.09131551  *  -0.94507512  *
     8       H         -0.91524105  *   0.82798733  *  -1.03066977  *
     9       H          0.24040856  *   0.16918489  *   1.74850774  *
    10       H         -0.30862467  *   1.76568161  *   1.22735928  *
    11       H          2.22215484  *   1.34216251  *   1.00463764  *
    12       H          1.43207321  *   1.95926610  *  -0.45245671  *
    13       H         -0.36472257  *  -1.94837030  *   0.18959270  *
    14       H         -0.81158557  *  -1.55391603  *  -1.47628029  *
    15       H         -2.88209938  *  -0.51824562  *  -0.24361883  *
    16       H         -2.16030259  *  -0.66959468  *   1.36574783  *
    17       H         -2.64383384  *   0.92152144  *   0.76028921  *
    18       H          3.04255006  *  -0.05535905  *  -0.83973049  *
    19       H          1.61012619  *  -1.92517724  *  -1.52672125  *
 


          CARTESIAN COORDINATES 

    NO.       ATOM           X           Y           Z

     1         C         -0.8208      0.1574     -0.1415
     2         C          0.1270      0.8175      0.8568
     3         C         -0.2421     -1.1806     -0.6023
     4         C          1.4838      1.0800      0.2217
     5         C         -2.1977     -0.0379      0.4677
     6         C          1.9819     -0.0783     -0.5658
     7         C          1.2014     -1.0913     -0.9451
     8         H         -0.9152      0.8280     -1.0307
     9         H          0.2404      0.1692      1.7485
    10         H         -0.3086      1.7657      1.2274
    11         H          2.2222      1.3422      1.0046
    12         H          1.4321      1.9593     -0.4525
    13         H         -0.3647     -1.9484      0.1896
    14         H         -0.8116     -1.5539     -1.4763
    15         H         -2.8821     -0.5182     -0.2436
    16         H         -2.1603     -0.6696      1.3657
    17         H         -2.6438      0.9215      0.7603
    18         H          3.0426     -0.0554     -0.8397
    19         H          1.6101     -1.9252     -1.5267

  H: (PM3): J. J. P. STEWART, J. COMP. CHEM. 10, 209 (1989).
  C: (PM3): J. J. P. STEWART, J. COMP. CHEM. 10, 209 (1989).

           Empirical Formula: C7 H12  =    19 atoms



      MOLECULAR POINT GROUP   :   C1  


      RHF CALCULATION, NO. OF DOUBLY OCCUPIED LEVELS = 20



          HEAT OF FORMATION =     -10.825091 KCALS/MOLE


          CARTESIAN COORDINATE DERIVATIVES

   NUMBER  ATOM         X            Y            Z

     1       C      0.000069     0.004679     0.003827
     2       C     -0.001226    -0.003783    -0.001817
     3       C      0.004864     0.004511     0.001407
     4       C      0.002575    -0.002751     0.000691
     5       C     -0.003627     0.004107     0.000583
     6       C     -0.000494    -0.004098    -0.006382
     7       C     -0.004342     0.005576    -0.000280
     8       H     -0.001246    -0.000617    -0.000923
     9       H      0.006131     0.002443     0.006725
    10       H      0.001869    -0.008504     0.000132
    11       H      0.003055     0.000594     0.004662
    12       H      0.009890     0.015403     0.004513
    13       H      0.005076    -0.000908     0.003907
    14       H      0.001357     0.000404    -0.002708
    15       H     -0.009905    -0.009928    -0.003341
    16       H     -0.007070     0.002867    -0.006561
    17       H      0.001882     0.001194    -0.001835
    18       H     -0.008344    -0.008930    -0.007044
    19       H     -0.000512    -0.002260     0.004445
 


          GRADIENT NORM =   0.03744


          TIME FOR SCF CALCULATION =    0.02

          TIME FOR DERIVATIVES     =    0.01

          MOLECULAR WEIGHT =   96.17



          ROTATIONAL CONSTANTS IN CM(-1)

          A =    0.15070462   B =    0.07823836   C =    0.05545783



           PRINCIPAL MOMENTS OF INERTIA IN UNITS OF 10**(-40)*GRAM-CM**2

          A =      185.7460   B =      357.7884   C =      504.7578


          ORIENTATION OF MOLECULE IN FORCE CALCULATION

    NO.       ATOM         X         Y         Z

     1          C      -0.5735   -0.7714   -0.3322
     2          C       0.9531   -0.7714   -0.3322
     3          C      -1.0941    0.6661   -0.3322
     4          C       1.4937   -0.0703    0.9045
     5          C      -1.1144   -1.5350   -1.5278
     6          C       0.7872    1.2049    1.1954
     7          C      -0.3834    1.5313    0.6454
     8          H      -0.9237   -1.2754    0.6019
     9          H       1.3264   -0.2730   -1.2491
    10          H       1.3350   -1.8099   -0.3773
    11          H       2.5774    0.1244    0.7840
    12          H       1.4009   -0.7271    1.7935
    13          H      -0.9843    1.1173   -1.3402
    14          H      -2.1805    0.6710   -0.1153
    15          H      -2.2121   -1.5329   -1.5367
    16          H      -0.7771   -1.0977   -2.4775
    17          H      -0.7852   -2.5822   -1.5141
    18          H       1.2764    1.8755    1.9105
    19          H      -0.8705    2.4820    0.8894


    FIRST DERIVATIVES WILL BE USED IN THE CALCULATION OF SECOND DERIVATIVES

          ESTIMATED TIME TO COMPLETE CALCULATION =        6.23 SECONDS

    FOR POINT-GROUP C1   THERE ARE   1 UNIQUE SYMMETRY FUNCTIONS.

 STEP:   1 TIME =     0.04 SECS, INTEGRAL =      0.04 TIME LEFT: 172799.93
 STEP:   2 TIME =     0.03 SECS, INTEGRAL =      0.07 TIME LEFT: 172799.90
 STEP:   3 TIME =     0.03 SECS, INTEGRAL =      0.10 TIME LEFT: 172799.87
 STEP:   4 TIME =     0.04 SECS, INTEGRAL =      0.14 TIME LEFT: 172799.84
 STEP:   5 TIME =     0.04 SECS, INTEGRAL =      0.17 TIME LEFT: 172799.80
 STEP:   6 TIME =     0.03 SECS, INTEGRAL =      0.20 TIME LEFT: 172799.77
 STEP:   7 TIME =     0.04 SECS, INTEGRAL =      0.24 TIME LEFT: 172799.73
 STEP:   8 TIME =     0.04 SECS, INTEGRAL =      0.27 TIME LEFT: 172799.70
 STEP:   9 TIME =     0.04 SECS, INTEGRAL =      0.31 TIME LEFT: 172799.66
 STEP:  10 TIME =     0.04 SECS, INTEGRAL =      0.34 TIME LEFT: 172799.63
 STEP:  11 TIME =     0.04 SECS, INTEGRAL =      0.38 TIME LEFT: 172799.59
 STEP:  12 TIME =     0.04 SECS, INTEGRAL =      0.41 TIME LEFT: 172799.56
 STEP:  13 TIME =     0.03 SECS, INTEGRAL =      0.45 TIME LEFT: 172799.53
 STEP:  14 TIME =     0.04 SECS, INTEGRAL =      0.48 TIME LEFT: 172799.49
 STEP:  15 TIME =     0.04 SECS, INTEGRAL =      0.52 TIME LEFT: 172799.46
 STEP:  16 TIME =     0.04 SECS, INTEGRAL =      0.55 TIME LEFT: 172799.42
 STEP:  17 TIME =     0.04 SECS, INTEGRAL =      0.59 TIME LEFT: 172799.39
 STEP:  18 TIME =     0.04 SECS, INTEGRAL =      0.62 TIME LEFT: 172799.35
 STEP:  19 TIME =     0.04 SECS, INTEGRAL =      0.66 TIME LEFT: 172799.32
 STEP:  20 TIME =     0.04 SECS, INTEGRAL =      0.69 TIME LEFT: 172799.28
 STEP:  21 TIME =     0.04 SECS, INTEGRAL =      0.73 TIME LEFT: 172799.25
 STEP:  22 TIME =     0.04 SECS, INTEGRAL =      0.76 TIME LEFT: 172799.21
 STEP:  23 TIME =     0.03 SECS, INTEGRAL =      0.79 TIME LEFT: 172799.18
 STEP:  24 TIME =     0.04 SECS, INTEGRAL =      0.83 TIME LEFT: 172799.14
 STEP:  25 TIME =     0.04 SECS, INTEGRAL =      0.86 TIME LEFT: 172799.11
 STEP:  26 TIME =     0.04 SECS, INTEGRAL =      0.90 TIME LEFT: 172799.07
 STEP:  27 TIME =     0.04 SECS, INTEGRAL =      0.93 TIME LEFT: 172799.04
 STEP:  28 TIME =     0.04 SECS, INTEGRAL =      0.97 TIME LEFT: 172799.00
 STEP:  29 TIME =     0.03 SECS, INTEGRAL =      1.00 TIME LEFT: 172798.97
 STEP:  30 TIME =     0.04 SECS, INTEGRAL =      1.04 TIME LEFT: 172798.94
 STEP:  31 TIME =     0.04 SECS, INTEGRAL =      1.07 TIME LEFT: 172798.90
 STEP:  32 TIME =     0.04 SECS, INTEGRAL =      1.11 TIME LEFT: 172798.87
 STEP:  33 TIME =     0.04 SECS, INTEGRAL =      1.14 TIME LEFT: 172798.83
 STEP:  34 TIME =     0.04 SECS, INTEGRAL =      1.18 TIME LEFT: 172798.80
 STEP:  35 TIME =     0.04 SECS, INTEGRAL =      1.21 TIME LEFT: 172798.76
 STEP:  36 TIME =     0.04 SECS, INTEGRAL =      1.25 TIME LEFT: 172798.73
 STEP:  37 TIME =     0.04 SECS, INTEGRAL =      1.28 TIME LEFT: 172798.69
 STEP:  38 TIME =     0.04 SECS, INTEGRAL =      1.32 TIME LEFT: 172798.66
 STEP:  39 TIME =     0.04 SECS, INTEGRAL =      1.35 TIME LEFT: 172798.62
 STEP:  40 TIME =     0.04 SECS, INTEGRAL =      1.39 TIME LEFT: 172798.59
 STEP:  41 TIME =     0.04 SECS, INTEGRAL =      1.42 TIME LEFT: 172798.55
 STEP:  42 TIME =     0.04 SECS, INTEGRAL =      1.46 TIME LEFT: 172798.52
 STEP:  43 TIME =     0.03 SECS, INTEGRAL =      1.49 TIME LEFT: 172798.48
 STEP:  44 TIME =     0.04 SECS, INTEGRAL =      1.52 TIME LEFT: 172798.45
 STEP:  45 TIME =     0.03 SECS, INTEGRAL =      1.55 TIME LEFT: 172798.42
 STEP:  46 TIME =     0.04 SECS, INTEGRAL =      1.59 TIME LEFT: 172798.38
 STEP:  47 TIME =     0.04 SECS, INTEGRAL =      1.62 TIME LEFT: 172798.35
 STEP:  48 TIME =     0.03 SECS, INTEGRAL =      1.66 TIME LEFT: 172798.32
 STEP:  49 TIME =     0.03 SECS, INTEGRAL =      1.69 TIME LEFT: 172798.29
 STEP:  50 TIME =     0.04 SECS, INTEGRAL =      1.72 TIME LEFT: 172798.25
 STEP:  51 TIME =     0.04 SECS, INTEGRAL =      1.76 TIME LEFT: 172798.21
 STEP:  52 TIME =     0.04 SECS, INTEGRAL =      1.79 TIME LEFT: 172798.18
 STEP:  53 TIME =     0.04 SECS, INTEGRAL =      1.83 TIME LEFT: 172798.14
 STEP:  54 TIME =     0.04 SECS, INTEGRAL =      1.86 TIME LEFT: 172798.11
 STEP:  55 TIME =     0.04 SECS, INTEGRAL =      1.90 TIME LEFT: 172798.07
 STEP:  56 TIME =     0.04 SECS, INTEGRAL =      1.93 TIME LEFT: 172798.04
 STEP:  57 TIME =     0.04 SECS, INTEGRAL =      1.97 TIME LEFT: 172798.00

(To convert to Hartree/Bohr^2, multiply by (10^(-21) x N x a0^2)/(4.184 x 627.51) =  0.0642)


           FORCE MATRIX IN MILLIDYNES/ANGSTROM


                  C  1       C  2       C  3       C  4       C  5       C  6
 ------------------------------------------------------------------------------
     C    1  14.450149
     C    2   3.961796  14.411345
     C    3   3.903321   0.662223  14.718233
     C    4   0.659342   4.169209   0.098936  14.733861
     C    5   4.245842   0.651035   0.652188   0.053858  14.396597
     C    6   0.064191   0.688806   0.837923   4.994443   0.004579  18.198482
     C    7   0.670228   0.065350   4.998034   0.841865   0.053446  10.686791
     H    8   4.215569   0.425971   0.422954   0.029554   0.417316   0.007393
     H    9   0.450341   4.452936   0.023166   0.440945   0.024767   0.009238
     H   10   0.443430   4.480563   0.049732   0.432922   0.031270   0.050827
     H   11   0.048009   0.430649   0.008922   4.464105   0.009245   0.430718
     H   12   0.014177   0.444568   0.013828   4.406203   0.001077   0.412588
     H   13   0.452832   0.012823   4.385586   0.013747   0.040497   0.029939
     H   14   0.435124   0.047999   4.454977   0.009178   0.019438   0.043374
     H   15   0.454835   0.049973   0.026921   0.009459   4.741465   0.001353
     H   16   0.467243   0.023040   0.023863   0.001624   4.708396   0.000775
     H   17   0.453879   0.025850   0.049058   0.002137   4.739301   0.001465
     H   18   0.003789   0.042883   0.120108   0.425730   0.001059   4.825872
     H   19   0.041989   0.003469   0.425757   0.121353   0.008012   0.444851


                  C  7       H  8       H  9       H 10       H 11       H 12
 ------------------------------------------------------------------------------
     C    7  18.202855
     H    8   0.012332   4.691686
     H    9   0.006867   0.043649   5.067151
     H   10   0.004504   0.027244   0.566233   5.100610
     H   11   0.042947   0.001959   0.035985   0.023484   5.061898
     H   12   0.031182   0.010307   0.043114   0.034902   0.568510   5.004788
     H   13   0.410859   0.042037   0.008784   0.001469   0.001013   0.001991
     H   14   0.431266   0.036047   0.002318   0.008084   0.000438   0.001053
     H   15   0.002120   0.028746   0.001604   0.001819   0.001780   0.000438
     H   16   0.001900   0.044384   0.017348   0.001661   0.000401   0.000509
     H   17   0.009122   0.030906   0.001474   0.021635   0.000399   0.000265
     H   18   0.444166   0.000512   0.001298   0.007081   0.034978   0.019896
     H   19   4.822618   0.001157   0.000464   0.000814   0.013914   0.016978


                  H 13       H 14       H 15       H 16       H 17       H 18
 ------------------------------------------------------------------------------
     H   13   4.992045
     H   14   0.566640   5.053680
     H   15   0.002652   0.013014   5.476619
     H   16   0.024491   0.001252   0.572051   5.452672
     H   17   0.002284   0.001066   0.569643   0.572123   5.476293
     H   18   0.016524   0.013600   0.000293   0.000215   0.000308   5.202395
     H   19   0.019095   0.035421   0.000493   0.000368   0.001599   0.068079


                  H 19
 ------------------
     H   19   5.197891


          HEAT OF FORMATION =     -10.825091 KCALS/MOLE

          ZERO POINT ENERGY     107.572 KCAL/MOL


           NORMAL COORDINATE ANALYSIS (Total motion = 1 Angstrom)


   Root No.       1         2         3         4         5         6         7         8

                 1 A       2 A       3 A       4 A       5 A       6 A       7 A       8 A   

                 129.9     185.8     203.4     338.9     373.3     445.4     471.5     518.2
  
           1   -0.0029    0.0097   -0.0066   -0.0352   -0.0035    0.0305    0.0010    0.0124
           2   -0.0131    0.0066   -0.0022    0.0216   -0.0016    0.0417    0.0053   -0.0238
           3    0.0033   -0.0064    0.0022    0.0050   -0.0058   -0.0228    0.0591    0.0260
           4   -0.0030    0.0099   -0.0067   -0.0361   -0.0035    0.0305    0.0025    0.0009
           5   -0.0034    0.0334   -0.0246    0.0070   -0.0014   -0.0314    0.0029   -0.0346
           6    0.0117   -0.0259    0.0206   -0.0028   -0.0045   -0.0064   -0.0040   -0.0400
           7   -0.0283    0.0017    0.0053   -0.0195    0.0161   -0.0263   -0.0155    0.0394
           8   -0.0216    0.0043    0.0022    0.0287    0.0052    0.0220   -0.0043   -0.0048
           9    0.0402   -0.0055   -0.0046    0.0061   -0.0017    0.0040   -0.0199    0.0298
          10   -0.0128   -0.0210    0.0078    0.0016   -0.0184   -0.0035    0.0107   -0.0538
          11   -0.0094   -0.0234    0.0097   -0.0118   -0.0039   -0.0147   -0.0247    0.0011
          12    0.0184    0.0201   -0.0050   -0.0164    0.0021   -0.0049   -0.0052   -0.0418
          13    0.0167   -0.0075    0.0003    0.0537    0.0026    0.0091    0.0291    0.0206
          14    0.0186   -0.0189    0.0109   -0.0339   -0.0110    0.0039    0.0512    0.0046
          15   -0.0271    0.0197   -0.0106   -0.0000   -0.0030    0.0197    0.0327    0.0080
          16    0.0206   -0.0005    0.0006    0.0111    0.0314   -0.0143   -0.0141   -0.0224
          17    0.0192   -0.0077    0.0044   -0.0123    0.0338   -0.0155   -0.0286    0.0115
          18   -0.0283    0.0062   -0.0028    0.0021   -0.0384   -0.0194   -0.0370    0.0154
          19    0.0134    0.0119   -0.0027    0.0126   -0.0254   -0.0210   -0.0220   -0.0035
          20    0.0095    0.0069   -0.0004    0.0077   -0.0171    0.0074   -0.0169    0.0551
          21   -0.0184   -0.0131    0.0023    0.0088    0.0517    0.0081   -0.0174    0.0085
          22   -0.0029    0.0341   -0.0228   -0.0535   -0.0102    0.0412    0.0087    0.0269
          23   -0.0468    0.0115   -0.0025    0.0332    0.0028    0.0569    0.0197   -0.0335
          24   -0.0150    0.0060   -0.0044    0.0039   -0.0059   -0.0071    0.0674    0.0253
          25   -0.0001   -0.0045    0.0073   -0.0453    0.0019    0.0964   -0.0378   -0.0144
          26    0.0059    0.0971   -0.0676    0.0079    0.0017   -0.1034    0.0462   -0.0642
          27    0.0180    0.0033    0.0030   -0.0071   -0.0005   -0.0163    0.0019   -0.0621
          28    0.0021    0.0352   -0.0237   -0.0492   -0.0007   -0.0309    0.0097    0.0167
          29   -0.0014    0.0457   -0.0332    0.0021   -0.0004   -0.0585    0.0088   -0.0312
          30    0.0062   -0.0863    0.0631   -0.0161   -0.0034    0.0621   -0.0626   -0.0091
          31   -0.0018   -0.0085    0.0020   -0.0013    0.0024    0.0004    0.0117   -0.0517
          32   -0.0527   -0.0581    0.0244   -0.0136   -0.0904   -0.0160   -0.0237    0.0015
          33    0.0488    0.0816   -0.0356   -0.0482    0.0621    0.0320    0.0088   -0.0142
          34   -0.0658   -0.0913    0.0409    0.0272   -0.1229   -0.0338    0.0003   -0.0811
          35    0.0075   -0.0443    0.0244   -0.0176    0.0239   -0.0069   -0.0252   -0.0140
          36    0.0254   -0.0025    0.0093   -0.0183    0.0132   -0.0011   -0.0066   -0.0547
          37   -0.1113   -0.0132    0.0240   -0.0256    0.1143   -0.1002    0.0450    0.0635
          38   -0.0229    0.0021    0.0039    0.0292    0.0302    0.0520   -0.0323   -0.0307
          39    0.0305   -0.0079   -0.0021    0.0065    0.0191    0.0112   -0.0274    0.0205
          40   -0.0133    0.0048    0.0020   -0.0161   -0.0017   -0.0172   -0.0270    0.0361
          41   -0.0445    0.0012    0.0091    0.0475    0.0191   -0.0368    0.0114   -0.0019
          42    0.1179    0.0095   -0.0219    0.0211   -0.0979    0.0583   -0.0822    0.0088
          43    0.0169   -0.0082   -0.0007    0.0554    0.0028    0.0087    0.0298    0.0216
          44    0.0140   -0.1033   -0.1525   -0.1002   -0.0164   -0.0000    0.0535    0.0062
          45   -0.0427    0.0917    0.0891   -0.0610   -0.0086    0.0482    0.0006   -0.0132
          46    0.0281   -0.1023   -0.1511    0.0820    0.0057   -0.0148    0.0572    0.0399
          47    0.0480    0.0177    0.1364   -0.0443   -0.0180   -0.0346    0.1032    0.0301
          48   -0.0098    0.0032   -0.0068    0.0051   -0.0049   -0.0056    0.0645    0.0255
          49    0.0214    0.0734    0.1571    0.1155    0.0073    0.0109    0.0310    0.0215
          50    0.0198    0.0057    0.0582   -0.0153   -0.0097    0.0044    0.0522    0.0044
          51   -0.0537   -0.0135   -0.1251    0.0501    0.0083    0.0572   -0.0143   -0.0153
          52    0.0473    0.0026   -0.0015    0.0210    0.0799   -0.0064   -0.0139   -0.0011
          53    0.0460   -0.0103    0.0051   -0.0255    0.0657   -0.0203   -0.0155   -0.0402
          54   -0.0719    0.0061   -0.0018    0.0079   -0.1020   -0.0195   -0.0495    0.0488
          55    0.0340    0.0271   -0.0089    0.0321   -0.0709   -0.0136   -0.0152   -0.0022
          56    0.0291    0.0196   -0.0053    0.0141   -0.0573    0.0032   -0.0184    0.0649
          57   -0.0527   -0.0322    0.0089    0.0235    0.1161    0.0394    0.0002   -0.0307


   Root No.       9        10        11        12        13        14        15        16

                 9 A      10 A      11 A      12 A      13 A      14 A      15 A      16 A   

                 708.9     772.9     831.4     915.2     940.3     947.0     953.0     991.3
  
           1   -0.0057    0.0003   -0.0139    0.0108   -0.0038    0.0002    0.0180   -0.0041
           2    0.0016   -0.0145   -0.0059    0.0140    0.0013   -0.0059   -0.0154   -0.0054
           3    0.0088    0.0038    0.0084   -0.0134    0.0048    0.0053    0.0007    0.0050
           4   -0.0076    0.0051    0.0189   -0.0242   -0.0231    0.0035   -0.0158    0.0090
           5    0.0052   -0.0113    0.0131    0.0233    0.0390    0.0264    0.0114   -0.0098
           6   -0.0072    0.0193   -0.0048    0.0099    0.0081   -0.0108    0.0170    0.0048
           7   -0.0016    0.0135   -0.0239    0.0054    0.0555   -0.0103   -0.0164   -0.0095
           8   -0.0073    0.0162    0.0031   -0.0254   -0.0089    0.0012    0.0168    0.0058
           9   -0.0196    0.0030    0.0209    0.0254   -0.0079    0.0023   -0.0154    0.0020
          10   -0.0051    0.0170    0.0355   -0.0107    0.0274   -0.0175   -0.0047   -0.0007
          11    0.0186   -0.0112    0.0109   -0.0085    0.0013   -0.0101    0.0053    0.0099
          12   -0.0155    0.0074   -0.0052   -0.0005   -0.0073    0.0144   -0.0147   -0.0088
          13    0.0042   -0.0068   -0.0117    0.0150   -0.0027   -0.0032    0.0299    0.0097
          14    0.0093   -0.0129   -0.0116    0.0181    0.0005   -0.0128   -0.0216    0.0146
          15    0.0096   -0.0118   -0.0122    0.0007   -0.0031   -0.0001    0.0000   -0.0070
          16    0.0193   -0.0059   -0.0050    0.0050   -0.0255    0.0010    0.0034   -0.0097
          17    0.0176   -0.0065   -0.0131   -0.0024   -0.0313   -0.0064   -0.0086   -0.0135
          18    0.0135   -0.0390   -0.0087   -0.0210   -0.0056    0.0007    0.0003    0.0149
          19    0.0215   -0.0076   -0.0037    0.0024   -0.0177    0.0145   -0.0020    0.0112
          20   -0.0271    0.0468    0.0131    0.0014    0.0126    0.0140    0.0024    0.0017
          21   -0.0167   -0.0050   -0.0003   -0.0110    0.0080   -0.0149    0.0132   -0.0130
          22   -0.0036   -0.0229    0.0024    0.0169   -0.0310    0.0633    0.0041   -0.0550
          23    0.0165   -0.0200   -0.0325   -0.0496    0.0083   -0.0202   -0.0126   -0.0548
          24    0.0182   -0.0093   -0.0018   -0.0420    0.0003    0.0204   -0.0031   -0.0412
          25   -0.0007   -0.0409    0.0380    0.0192   -0.0176    0.0840   -0.0438   -0.0553
          26   -0.0528    0.0841   -0.0584   -0.0053   -0.0514   -0.0561   -0.0010   -0.0020
          27   -0.0343    0.0501   -0.0327    0.0122   -0.0362   -0.0202   -0.0015   -0.0176
          28   -0.0236    0.0520   -0.0090   -0.0760   -0.0802   -0.0485    0.0022    0.0775
          29   -0.0046    0.0124   -0.0012    0.0020    0.0133    0.0013    0.0164    0.0157
          30    0.0518   -0.0726    0.0634    0.0390    0.0934    0.0779    0.0418    0.0074
          31    0.0144    0.0180    0.0559   -0.0137    0.0428   -0.0333    0.0034    0.0002
          32   -0.0643   -0.0140   -0.0396   -0.0223   -0.0489    0.0632   -0.0475    0.0309
          33    0.0524    0.0036    0.1122   -0.0555    0.0607   -0.0234   -0.0241    0.0409
          34   -0.1179    0.0208   -0.0843    0.0235   -0.0474    0.0652   -0.0376   -0.0373
          35    0.0240    0.0282    0.0009    0.0038   -0.0345   -0.0557    0.0194   -0.0100
          36   -0.0201    0.0369   -0.0213    0.0119   -0.0382   -0.0115   -0.0063   -0.0267
          37   -0.0767   -0.0421    0.0908    0.0902   -0.0656    0.0194   -0.0285    0.0059
          38   -0.0223   -0.0070   -0.0188   -0.0357   -0.0214   -0.0402    0.0326   -0.0489
          39   -0.0331   -0.0113    0.0216    0.0281   -0.0238   -0.0135   -0.0090   -0.0213
          40    0.0111    0.0235   -0.0405   -0.0078    0.0778   -0.0125   -0.0166   -0.0079
          41   -0.0102   -0.0002    0.0649   -0.0233   -0.0717    0.0412    0.0072    0.0725
          42    0.0536    0.0549   -0.0757   -0.0498    0.1119   -0.0160   -0.0167    0.0063
          43    0.0046   -0.0071   -0.0112    0.0130   -0.0026   -0.0026    0.0253    0.0077
          44    0.0086   -0.0057   -0.0250    0.0198   -0.0076    0.0085    0.1290    0.0093
          45   -0.0033   -0.0094   -0.0425    0.0893   -0.0079   -0.0233    0.1453    0.0671
          46    0.0156   -0.0093    0.0054   -0.0516   -0.0021    0.0208   -0.0495   -0.0527
          47    0.0245   -0.0064   -0.0026   -0.0720   -0.0055    0.0398    0.0305   -0.0742
          48    0.0198   -0.0095   -0.0023   -0.0610   -0.0056    0.0309   -0.0040   -0.0669
          49    0.0080   -0.0161   -0.0025    0.0088    0.0051   -0.0205   -0.1104    0.0078
          50    0.0107   -0.0160   -0.0091    0.0160    0.0030   -0.0181   -0.0637    0.0136
          51   -0.0007   -0.0275   -0.0186    0.0829    0.0071   -0.0639   -0.1396    0.0721
          52   -0.0689   -0.0739   -0.0519   -0.0453    0.0359    0.0483    0.0337    0.0489
          53   -0.0467   -0.0961   -0.0442   -0.0643    0.0328    0.0130   -0.0376    0.0424
          54    0.1337    0.0923    0.0530    0.0703   -0.1098   -0.0495    0.0074   -0.0773
          55   -0.0605   -0.0871    0.0527   -0.0210   -0.0333   -0.0427    0.0717   -0.0098
          56   -0.0950   -0.0376    0.0507   -0.0126    0.0109   -0.0526    0.0445   -0.0336
          57    0.0842    0.1659   -0.0331   -0.0065   -0.0164    0.1285   -0.0048    0.0809


   Root No.      17        18        19        20        21        22        23        24

                17 A      18 A      19 A      20 A      21 A      22 A      23 A      24 A   

                1000.0    1042.0    1063.6    1065.8    1103.8    1109.3    1121.9    1145.7
  
           1    0.0031    0.0085    0.0075   -0.0008   -0.0019   -0.0091    0.0060    0.0171
           2    0.0062   -0.0021    0.0063    0.0033    0.0137    0.0033    0.0180    0.0005
           3    0.0031    0.0028   -0.0144    0.0009    0.0065   -0.0155    0.0166    0.0076
           4   -0.0110    0.0028   -0.0091   -0.0010   -0.0022    0.0160    0.0124   -0.0165
           5   -0.0173    0.0063   -0.0050   -0.0033   -0.0072    0.0031    0.0049   -0.0090
           6   -0.0150    0.0146    0.0082   -0.0094    0.0045    0.0227    0.0095    0.0362
           7   -0.0138   -0.0177   -0.0020    0.0055    0.0008   -0.0008    0.0009    0.0008
           8   -0.0063   -0.0081   -0.0057    0.0042   -0.0170   -0.0071   -0.0075    0.0137
           9   -0.0019   -0.0219    0.0208    0.0013    0.0026    0.0058    0.0188   -0.0020
          10    0.0364   -0.0011    0.0049    0.0012   -0.0034   -0.0012   -0.0085   -0.0035
          11   -0.0155   -0.0020    0.0126    0.0070    0.0161   -0.0022   -0.0081    0.0081
          12    0.0115   -0.0120   -0.0143   -0.0038   -0.0084   -0.0273   -0.0057   -0.0222
          13    0.0113   -0.0141   -0.0039    0.0017    0.0021    0.0004   -0.0027   -0.0088
          14   -0.0036    0.0094   -0.0060   -0.0015   -0.0047   -0.0035   -0.0097   -0.0002
          15   -0.0066   -0.0038    0.0089   -0.0021   -0.0108    0.0187   -0.0313   -0.0136
          16   -0.0027    0.0059   -0.0183   -0.0112    0.0038   -0.0018   -0.0021   -0.0022
          17    0.0308   -0.0005   -0.0224   -0.0095   -0.0093    0.0067   -0.0003    0.0033
          18    0.0318    0.0165    0.0190    0.0061   -0.0017    0.0059   -0.0000   -0.0028
          19   -0.0047   -0.0017    0.0187   -0.0047    0.0081   -0.0040   -0.0017   -0.0001
          20    0.0255    0.0233    0.0053   -0.0093    0.0021    0.0016   -0.0061   -0.0115
          21   -0.0057    0.0131   -0.0324    0.0051    0.0028   -0.0031   -0.0056   -0.0042
          22    0.0145    0.0490    0.0220    0.0750   -0.0347   -0.1201    0.0035    0.2142
          23    0.0054   -0.0184    0.0295   -0.0340    0.0987   -0.0150    0.2269   -0.0489
          24    0.0073    0.0092    0.0045    0.0086    0.0411   -0.0672    0.1272    0.0559
          25   -0.0205    0.0086   -0.0161    0.0880    0.0387    0.1291   -0.0366    0.0032
          26   -0.0149    0.0130    0.0330    0.0322    0.0448    0.0665   -0.0040    0.0572
          27   -0.0175    0.0202    0.0247    0.0455    0.0501    0.1028   -0.0159    0.0816
          28   -0.1085    0.0435    0.0037   -0.0812   -0.0990    0.0057    0.0880   -0.0309
          29   -0.0513    0.0196    0.0020   -0.0302   -0.0371    0.0005    0.0316   -0.0130
          30   -0.0939    0.0393   -0.0149   -0.0607   -0.0819   -0.0066    0.0525   -0.0232
          31    0.0493    0.0111    0.0178    0.0089   -0.0148    0.0077   -0.0046   -0.0002
          32   -0.0864   -0.0953   -0.0722   -0.0657    0.1412   -0.0383   -0.0651    0.0079
          33    0.0169   -0.0671   -0.0275   -0.0506    0.1023   -0.0212   -0.0668    0.0196
          34    0.0274   -0.0086   -0.0555   -0.0225   -0.0440   -0.0146    0.0067   -0.0390
          35   -0.0707    0.0260    0.1032    0.1563    0.0221   -0.0808   -0.0126   -0.1250
          36   -0.0298    0.0093    0.0462    0.1023   -0.0095   -0.0864   -0.0065   -0.1234
          37    0.0001   -0.0434    0.0652    0.0004    0.0023    0.0119    0.0291    0.0099
          38   -0.0483   -0.0844    0.1298   -0.1185   -0.0568   -0.0212   -0.0500    0.0364
          39   -0.0205   -0.0602    0.0892   -0.0545   -0.0153    0.0001    0.0031    0.0100
          40   -0.0243   -0.0303   -0.0156    0.0218   -0.0078    0.0025    0.0019    0.0084
          41   -0.0314   -0.0996   -0.0739    0.1463   -0.0730    0.0691    0.0682    0.0376
          42   -0.0487   -0.0774   -0.0503    0.0726   -0.0351    0.0246    0.0263    0.0241
          43    0.0097   -0.0127   -0.0028    0.0022    0.0011    0.0001   -0.0034   -0.0073
          44    0.0303   -0.0470   -0.0024    0.0002    0.0070    0.0166    0.0002   -0.0342
          45    0.0493   -0.0549   -0.0276    0.0043    0.0113    0.0051   -0.0045   -0.0341
          46   -0.0276    0.0124    0.0298    0.0002   -0.0191    0.0231   -0.0405    0.0012
          47   -0.0152   -0.0174    0.0410   -0.0039   -0.0100    0.0471   -0.0376   -0.0279
          48   -0.0254   -0.0070    0.0415   -0.0040   -0.0207    0.0498   -0.0581   -0.0226
          49   -0.0278    0.0363   -0.0005   -0.0009   -0.0192   -0.0071   -0.0243    0.0131
          50   -0.0157    0.0246   -0.0046   -0.0028   -0.0109   -0.0055   -0.0150    0.0055
          51   -0.0253    0.0482   -0.0237   -0.0091   -0.0232   -0.0248   -0.0310    0.0149
          52   -0.0127    0.1168    0.0184   -0.0044    0.0717    0.0583    0.0038   -0.0527
          53    0.0840   -0.0669    0.0405    0.0221   -0.0573   -0.0348   -0.0075    0.0456
          54   -0.0107    0.0052   -0.0666   -0.0287   -0.0007    0.0025    0.0006   -0.0099
          55   -0.1004    0.0240   -0.0398    0.0234    0.0385   -0.0899   -0.0751    0.0370
          56   -0.0209    0.0328   -0.0478    0.0074    0.0068   -0.0256   -0.0309    0.0019
          57   -0.0070    0.0236    0.0554   -0.0035    0.0361   -0.0641   -0.0537    0.0176


   Root No.      25        26        27        28        29        30        31        32

                25 A      26 A      27 A      28 A      29 A      30 A      31 A      32 A   

                1172.5    1177.8    1233.5    1240.2    1306.0    1359.1    1369.8    1388.8
  
           1    0.0102   -0.0140    0.0165   -0.0305   -0.0364    0.0433    0.0132    0.0212
           2    0.0094   -0.0216    0.0346   -0.0015    0.0419    0.0014   -0.0244   -0.0249
           3   -0.0173    0.0402    0.0296   -0.0107    0.0096    0.0146   -0.0050   -0.0011
           4   -0.0016    0.0184    0.0145   -0.0186    0.0018   -0.0389   -0.0183   -0.0138
           5   -0.0016    0.0110    0.0053   -0.0083   -0.0136   -0.0102   -0.0065    0.0006
           6    0.0042   -0.0096    0.0103   -0.0105   -0.0080   -0.0240   -0.0095   -0.0052
           7    0.0025    0.0030    0.0032    0.0023    0.0135   -0.0035    0.0122   -0.0320
           8   -0.0116    0.0081    0.0255    0.0079   -0.0003    0.0069    0.0386    0.0390
           9    0.0094   -0.0097    0.0100    0.0025    0.0045    0.0036    0.0292   -0.0131
          10   -0.0042   -0.0069   -0.0124    0.0057    0.0005   -0.0020   -0.0076    0.0086
          11    0.0015   -0.0034   -0.0072   -0.0103    0.0163   -0.0039    0.0503    0.0025
          12   -0.0034   -0.0066   -0.0101   -0.0105    0.0129   -0.0119    0.0295    0.0103
          13   -0.0031    0.0032   -0.0079    0.0097    0.0083   -0.0033   -0.0036   -0.0080
          14   -0.0030    0.0051   -0.0143    0.0013   -0.0095    0.0042    0.0011    0.0029
          15    0.0100   -0.0196   -0.0054    0.0012   -0.0005    0.0069   -0.0041   -0.0045
          16   -0.0026   -0.0022    0.0083    0.0114   -0.0135   -0.0040   -0.0031    0.0036
          17    0.0006    0.0038   -0.0108   -0.0120    0.0117    0.0110   -0.0205   -0.0019
          18   -0.0021    0.0033   -0.0010    0.0009   -0.0023    0.0042   -0.0150    0.0005
          19    0.0016    0.0012    0.0102    0.0101   -0.0105   -0.0059    0.0068    0.0006
          20    0.0007   -0.0018   -0.0102    0.0103   -0.0165   -0.0083   -0.0152   -0.0038
          21    0.0030   -0.0034    0.0030    0.0129   -0.0161   -0.0084   -0.0038   -0.0004
          22   -0.0913   -0.0762   -0.0443    0.0751    0.0552   -0.0645   -0.0226   -0.0442
          23    0.0679    0.0007   -0.1109    0.0063   -0.0688    0.0003    0.0316    0.0324
          24   -0.0244    0.0310   -0.0730    0.0340   -0.0158   -0.0266    0.0117    0.0053
          25   -0.0014    0.1593   -0.0413    0.0924    0.0367    0.0366    0.0543    0.0303
          26    0.0132    0.0137   -0.0066    0.0337   -0.0239    0.0725   -0.0433   -0.0120
          27    0.0110    0.0498   -0.0197    0.0588   -0.0022    0.0565   -0.0050    0.0038
          28    0.0235   -0.0391   -0.0218    0.1171    0.0942    0.0336    0.0083   -0.0006
          29    0.0077   -0.0113   -0.0066    0.0390    0.0192    0.0158    0.0012    0.0036
          30    0.0064   -0.0077   -0.0128    0.0677   -0.0253    0.1011   -0.0732   -0.0107
          31   -0.0007   -0.0029   -0.0252    0.0019    0.0189    0.0316    0.0127   -0.0075
          32   -0.0498   -0.0536    0.0338    0.0540   -0.0707   -0.0369   -0.0813    0.0319
          33   -0.0461   -0.0593   -0.0336    0.0534    0.0039    0.1484   -0.0207   -0.0458
          34   -0.0030    0.0105   -0.0349   -0.0036    0.0491    0.1282    0.0292   -0.0582
          35   -0.0462    0.0046    0.0287    0.0334   -0.0377    0.0191   -0.0607   -0.0078
          36   -0.0392   -0.0001    0.0111    0.0213   -0.0180    0.0309   -0.0457   -0.0103
          37    0.0130   -0.0276   -0.0181   -0.0194    0.0654    0.0053   -0.0936    0.2340
          38   -0.1183    0.1140   -0.0604   -0.0509   -0.0247    0.0031   -0.0527   -0.0698
          39   -0.0377    0.0366   -0.0326   -0.0273    0.0034    0.0029   -0.0311   -0.0115
          40   -0.0026    0.0018   -0.0094   -0.0080    0.0273   -0.0024   -0.0234    0.0274
          41   -0.0317   -0.0686   -0.0807   -0.0732   -0.0863    0.0283   -0.0160   -0.1344
          42   -0.0196   -0.0091   -0.0452   -0.0396    0.0542    0.0050   -0.1117    0.1951
          43   -0.0026    0.0009   -0.0101    0.0099    0.0061   -0.0052   -0.0007   -0.0040
          44    0.0045   -0.0116   -0.0328    0.0373    0.0205   -0.0449   -0.0003   -0.0048
          45   -0.0160    0.0265   -0.0601    0.0531    0.0112   -0.0715    0.0315    0.0306
          46    0.0206   -0.0484   -0.0168    0.0005   -0.0208   -0.0196    0.0327    0.0449
          47    0.0347   -0.0638   -0.0218    0.0107   -0.0051   -0.0507    0.0078   -0.0069
          48    0.0340   -0.0664   -0.0147    0.0035   -0.0103   -0.0292    0.0144    0.0117
          49    0.0021   -0.0112   -0.0354   -0.0009   -0.0350   -0.0147    0.0226    0.0327
          50   -0.0007   -0.0003   -0.0264    0.0000   -0.0234   -0.0051    0.0097    0.0150
          51   -0.0206    0.0319   -0.0736    0.0068   -0.0560   -0.0531    0.0278    0.0170
          52   -0.1464   -0.0517   -0.0590   -0.0811    0.0697    0.0261    0.0196    0.0105
          53    0.1197    0.0478    0.0467    0.0696   -0.0615   -0.0136   -0.0437   -0.0073
          54   -0.0169   -0.0050   -0.0109   -0.0129    0.0099    0.0075   -0.0117    0.0016
          55    0.1558    0.0505   -0.0696   -0.0666    0.0657    0.0162   -0.0355   -0.0283
          56    0.0475    0.0133   -0.0333   -0.0116    0.0049   -0.0016   -0.0293   -0.0109
          57    0.1235    0.0362   -0.0687   -0.0512    0.0442    0.0091   -0.0407   -0.0263


   Root No.      33        34        35        36        37        38        39        40

                33 A      34 A      35 A      36 A      37 A      38 A      39 A      40 A   

                1392.8    1407.6    1409.2    1411.1    1414.6    1445.3    1879.8    2876.7
  
           1   -0.0127    0.0028    0.0008    0.0044    0.0249   -0.0135    0.0044    0.0189
           2   -0.0047   -0.0008    0.0076    0.0073    0.0157   -0.0343    0.0012    0.0272
           3   -0.0027    0.0046    0.0079    0.0044    0.0191   -0.0253    0.0026   -0.0506
           4    0.0320   -0.0002    0.0030   -0.0077   -0.0252    0.0090   -0.0043    0.0005
           5    0.0036    0.0019   -0.0120    0.0105    0.0059    0.0196    0.0021   -0.0034
           6    0.0069    0.0027   -0.0226    0.0173    0.0060    0.0220   -0.0006    0.0021
           7   -0.0008   -0.0005    0.0098    0.0002    0.0037    0.0184   -0.0237   -0.0040
           8    0.0151    0.0027    0.0065   -0.0107   -0.0009    0.0484   -0.0148   -0.0010
           9    0.0036    0.0003    0.0107   -0.0036    0.0036    0.0356   -0.0234    0.0042
          10   -0.0238   -0.0021    0.0173   -0.0048    0.0098    0.0137    0.0234    0.0002
          11    0.0019   -0.0003   -0.0080   -0.0098   -0.0214   -0.0480   -0.0273    0.0003
          12   -0.0207   -0.0026    0.0129   -0.0136   -0.0085   -0.0251   -0.0016   -0.0003
          13   -0.0062   -0.0166   -0.0138   -0.0240   -0.0079    0.0103   -0.0008   -0.0011
          14   -0.0094   -0.0342   -0.0062    0.0062   -0.0266    0.0136    0.0007   -0.0016
          15   -0.0181    0.0148   -0.0132   -0.0055   -0.0366    0.0203   -0.0004    0.0009
          16   -0.0003   -0.0000   -0.0078    0.0011   -0.0048   -0.0205   -0.2136   -0.0000
          17    0.0004    0.0003    0.0124    0.0023    0.0147    0.0395    0.0921    0.0000
          18    0.0005    0.0003    0.0018    0.0026    0.0058    0.0107   -0.0814    0.0000
          19    0.0034    0.0003   -0.0085   -0.0000   -0.0083   -0.0186    0.2139    0.0001
          20   -0.0058   -0.0010   -0.0095    0.0029   -0.0066   -0.0297   -0.0271    0.0000
          21   -0.0010   -0.0005   -0.0108    0.0012   -0.0087   -0.0293    0.1200   -0.0000
          22    0.0140   -0.0039   -0.0071   -0.0075   -0.0283    0.0242   -0.0029   -0.2318
          23   -0.0012   -0.0051   -0.0146   -0.0017   -0.0232    0.0441   -0.0018   -0.3317
          24    0.0086    0.0008   -0.0068   -0.0049   -0.0218    0.0307   -0.0014    0.6145
          25   -0.0825    0.0105   -0.0389    0.0415    0.0646   -0.0006    0.0027    0.0075
          26    0.0553   -0.0124    0.1164   -0.0980   -0.0759   -0.0523   -0.0012    0.0152
          27   -0.0044   -0.0017    0.0424   -0.0327   -0.0114   -0.0251    0.0002   -0.0289
          28   -0.0834   -0.0056   -0.0330    0.0498    0.0721   -0.0098    0.0090   -0.0062
          29   -0.0338   -0.0010   -0.0215    0.0276    0.0365    0.0105    0.0059    0.0248
          30    0.0428   -0.0191    0.1321   -0.0967   -0.0583   -0.0319    0.0124    0.0005
          31    0.0165    0.0011   -0.0098    0.0035   -0.0014   -0.0018    0.0197    0.0012
          32   -0.0779   -0.0047    0.0459   -0.0019    0.0422    0.0564   -0.0316    0.0004
          33    0.1112    0.0112   -0.0792    0.0485    0.0121    0.0190   -0.0093   -0.0000
          34    0.1437    0.0115   -0.0876    0.0362   -0.0228   -0.0212    0.0020    0.0003
          35    0.0151    0.0030   -0.0123    0.0216    0.0227    0.0403   -0.0162   -0.0028
          36    0.0208    0.0024   -0.0108    0.0179    0.0182    0.0339   -0.0025    0.0041
          37    0.0270   -0.0001   -0.0371   -0.0117   -0.0207   -0.0329   -0.0015    0.0061
          38   -0.0285    0.0045   -0.0024    0.0205    0.0073   -0.0627   -0.0095    0.0160
          39   -0.0107    0.0014   -0.0022    0.0085    0.0022   -0.0232   -0.0125   -0.0444
          40    0.0030   -0.0013   -0.0029   -0.0010   -0.0015   -0.0032   -0.0203    0.0386
          41   -0.0488   -0.0058    0.0042    0.0209    0.0254   -0.0557   -0.0233    0.0036
          42    0.0135   -0.0014   -0.0366   -0.0047   -0.0149   -0.0563   -0.0241   -0.0081
          43   -0.0016   -0.0043   -0.0049   -0.0099   -0.0061    0.0060   -0.0009    0.0093
          44    0.0316    0.3573    0.0238   -0.0132    0.0375   -0.0208   -0.0004   -0.0018
          45    0.0840   -0.1317    0.0928    0.1344    0.0427   -0.0449   -0.0009   -0.0028
          46    0.0499   -0.1293    0.0972    0.1864   -0.0066   -0.0351    0.0002    0.0071
          47    0.0636   -0.0494   -0.0236   -0.1257    0.1652   -0.0350    0.0003    0.0093
          48    0.0438   -0.0580    0.0217    0.0084    0.0669   -0.0240   -0.0003   -0.0117
          49    0.0277    0.3170    0.0590    0.0854   -0.0013   -0.0202    0.0006   -0.0048
          50    0.0079    0.0895    0.0159    0.0289   -0.0077   -0.0010    0.0017    0.0090
          51    0.0748   -0.0350   -0.0192   -0.1191    0.1698   -0.0303    0.0020   -0.0034
          52   -0.0115   -0.0005    0.0332   -0.0093    0.0199    0.0543   -0.0191    0.0002
          53    0.0104    0.0008   -0.0231    0.0121   -0.0053   -0.0228   -0.1176    0.0002
          54   -0.0025   -0.0000    0.0081    0.0007    0.0088    0.0189   -0.0789    0.0003
          55   -0.0013   -0.0005    0.0238    0.0050    0.0237    0.0555    0.0185   -0.0007
          56   -0.0074   -0.0013   -0.0001    0.0044    0.0032   -0.0077   -0.1258    0.0009
          57   -0.0068   -0.0014    0.0152    0.0060    0.0166    0.0286   -0.0649    0.0002


   Root No.      41        42        43        44        45        46        47        48

                41 A      42 A      43 A      44 A      45 A      46 A      47 A      48 A   

                2942.5    2944.0    2961.3    3022.3    3025.5    3038.2    3046.1    3066.3
  
           1    0.0011   -0.0006   -0.0007   -0.0004    0.0003    0.0006    0.0001    0.0001
           2    0.0016   -0.0008   -0.0012    0.0006    0.0000   -0.0001    0.0002    0.0002
           3   -0.0029    0.0010    0.0020    0.0001    0.0002   -0.0002    0.0001    0.0002
           4   -0.0002   -0.0006   -0.0007    0.0002    0.0042    0.0182    0.0013   -0.0006
           5   -0.0035   -0.0116   -0.0365   -0.0007   -0.0028   -0.0159   -0.0013    0.0010
           6    0.0022    0.0076    0.0222    0.0002   -0.0063   -0.0214   -0.0015    0.0006
           7    0.0290   -0.0041   -0.0009   -0.0324   -0.0005   -0.0002    0.0029    0.0030
           8    0.0132   -0.0019   -0.0004    0.0112    0.0001    0.0000   -0.0009   -0.0009
           9   -0.0347    0.0050    0.0012   -0.0180   -0.0003    0.0001    0.0011    0.0013
          10    0.0040    0.0241   -0.0100    0.0005   -0.0264    0.0068    0.0034   -0.0034
          11    0.0034    0.0200   -0.0074   -0.0001    0.0088   -0.0018   -0.0007    0.0009
          12   -0.0041   -0.0242    0.0088    0.0003   -0.0157    0.0026    0.0016   -0.0016
          13    0.0002   -0.0000    0.0000    0.0002    0.0000    0.0000    0.0000   -0.0000
          14    0.0000   -0.0000   -0.0002    0.0001    0.0000   -0.0001   -0.0001   -0.0000
          15   -0.0000    0.0001    0.0001   -0.0002   -0.0000    0.0000    0.0000    0.0000
          16    0.0001   -0.0004    0.0001    0.0002    0.0025   -0.0019    0.0128   -0.0195
          17   -0.0000   -0.0000    0.0001    0.0003    0.0037   -0.0024    0.0180   -0.0191
          18   -0.0002   -0.0003    0.0002    0.0003    0.0038   -0.0026    0.0189   -0.0238
          19   -0.0004    0.0002   -0.0000    0.0028    0.0003   -0.0006    0.0140    0.0185
          20    0.0004    0.0001   -0.0001   -0.0058   -0.0006    0.0014   -0.0273   -0.0283
          21   -0.0001   -0.0000    0.0000   -0.0016   -0.0002    0.0004   -0.0070   -0.0048
          22   -0.0107    0.0053    0.0115   -0.0001    0.0000   -0.0007   -0.0001    0.0002
          23   -0.0214    0.0076    0.0116    0.0015    0.0005   -0.0012   -0.0003    0.0002
          24    0.0330   -0.0141   -0.0221   -0.0022   -0.0013    0.0010    0.0004   -0.0003
          25    0.0113    0.0428    0.1175    0.0013   -0.0288   -0.1015   -0.0065    0.0017
          26    0.0160    0.0552    0.1507    0.0020   -0.0457   -0.1689   -0.0111    0.0034
          27   -0.0284   -0.0970   -0.2852   -0.0036    0.0733    0.2675    0.0175   -0.0050
          28   -0.0108   -0.0324   -0.1093   -0.0013   -0.0269   -0.1209   -0.0085    0.0039
          29    0.0283    0.0839    0.2864    0.0043    0.0759    0.3612    0.0257   -0.0116
          30    0.0015    0.0045    0.0181    0.0002   -0.0040   -0.0047   -0.0002   -0.0000
          31   -0.0439   -0.2611    0.1128   -0.0078    0.3670   -0.0943   -0.0486    0.0426
          32   -0.0071   -0.0431    0.0190   -0.0017    0.0806   -0.0221   -0.0085    0.0069
          33    0.0040    0.0234   -0.0095    0.0013   -0.0599    0.0122    0.0082   -0.0073
          34   -0.0044   -0.0267    0.0071    0.0010   -0.0499    0.0113    0.0057   -0.0050
          35   -0.0341   -0.1994    0.0673    0.0037   -0.1859    0.0377    0.0212   -0.0185
          36    0.0457    0.2697   -0.0973   -0.0050    0.2503   -0.0515   -0.0266    0.0230
          37   -0.0378    0.0055    0.0012   -0.0653   -0.0007    0.0004    0.0052    0.0046
          38   -0.1661    0.0243    0.0068   -0.1491   -0.0019    0.0006    0.0101    0.0090
          39    0.3656   -0.0530   -0.0141    0.3340    0.0041   -0.0016   -0.0258   -0.0226
          40   -0.3095    0.0426    0.0056    0.4547    0.0055    0.0012   -0.0420   -0.0372
          41    0.0061   -0.0010   -0.0002    0.0079    0.0001    0.0002   -0.0024   -0.0022
          42    0.0542   -0.0074   -0.0006   -0.1177   -0.0014   -0.0001    0.0090    0.0078
          43   -0.0012   -0.0001   -0.0002   -0.0006    0.0008    0.0029   -0.0001   -0.0002
          44   -0.0005    0.0001    0.0000    0.0008    0.0000   -0.0000   -0.0001   -0.0001
          45   -0.0006    0.0001    0.0002    0.0003    0.0000    0.0000   -0.0000   -0.0000
          46   -0.0002   -0.0001   -0.0001   -0.0012    0.0000    0.0003    0.0003    0.0002
          47    0.0005   -0.0001    0.0001   -0.0009   -0.0001   -0.0001    0.0003    0.0002
          48    0.0013   -0.0005   -0.0016    0.0032    0.0004    0.0007   -0.0007   -0.0005
          49   -0.0005    0.0002    0.0002   -0.0008    0.0001   -0.0002   -0.0002   -0.0000
          50    0.0017    0.0001    0.0014    0.0028    0.0002    0.0024    0.0007    0.0001
          51   -0.0002    0.0002    0.0005   -0.0001    0.0000    0.0002    0.0000    0.0000
          52    0.0010    0.0033   -0.0008   -0.0004   -0.0305    0.0219   -0.1523    0.1762
          53    0.0012    0.0032   -0.0002   -0.0019   -0.0384    0.0300   -0.2160    0.2419
          54    0.0003    0.0027    0.0000   -0.0015   -0.0429    0.0320   -0.2267    0.2575
          55    0.0041   -0.0004   -0.0005   -0.0350   -0.0024    0.0078   -0.1635   -0.1645
          56   -0.0044    0.0008    0.0007    0.0644    0.0057   -0.0159    0.3262    0.3208
          57   -0.0019   -0.0002    0.0004    0.0148    0.0018   -0.0043    0.0862    0.0824


   Root No.      49        50        51

                49 A      50 A      51 A   

                3076.9    3083.4    3177.9
  
           1    0.0004   -0.0003   -0.0003
           2    0.0007    0.0002   -0.0004
           3   -0.0012    0.0000   -0.0004
           4   -0.0001    0.0003   -0.0001
           5   -0.0003    0.0001    0.0001
           6   -0.0001    0.0003    0.0002
           7   -0.0000   -0.0001    0.0001
           8   -0.0002   -0.0002   -0.0000
           9    0.0001   -0.0005    0.0002
          10    0.0000    0.0000    0.0000
          11   -0.0000   -0.0000    0.0000
          12    0.0000   -0.0000    0.0000
          13    0.0220   -0.0469   -0.0097
          14    0.0329    0.0322   -0.0135
          15   -0.0324    0.0009   -0.0181
          16    0.0000    0.0000    0.0000
          17    0.0000    0.0000    0.0000
          18    0.0000    0.0000   -0.0000
          19    0.0000    0.0001    0.0000
          20   -0.0001   -0.0001    0.0000
          21    0.0000    0.0000   -0.0000
          22   -0.0032   -0.0010    0.0002
          23   -0.0046    0.0008    0.0003
          24    0.0155   -0.0002   -0.0026
          25   -0.0005    0.0006    0.0004
          26    0.0001    0.0008    0.0010
          27   -0.0014   -0.0010   -0.0021
          28   -0.0007    0.0007    0.0005
          29    0.0031    0.0010   -0.0026
          30    0.0001    0.0006   -0.0002
          31   -0.0000   -0.0004    0.0001
          32   -0.0000   -0.0001    0.0000
          33    0.0000    0.0001    0.0000
          34    0.0001    0.0000   -0.0000
          35    0.0002    0.0001   -0.0000
          36   -0.0002   -0.0003    0.0000
          37    0.0005   -0.0006    0.0003
          38   -0.0001   -0.0017    0.0005
          39   -0.0032    0.0029   -0.0023
          40   -0.0002    0.0003   -0.0018
          41    0.0003   -0.0006   -0.0003
          42    0.0002   -0.0006    0.0003
          43   -0.2029    0.4571    0.3284
          44    0.0201    0.0096   -0.0108
          45   -0.0142   -0.0057   -0.0123
          46   -0.1487   -0.0160   -0.1027
          47   -0.1908    0.0266   -0.1337
          48    0.4110   -0.0207    0.2549
          49    0.0894    0.1187   -0.1072
          50   -0.2219   -0.4200    0.3092
          51   -0.0084    0.0160   -0.0193
          52   -0.0001   -0.0001   -0.0000
          53   -0.0001   -0.0002   -0.0000
          54   -0.0001   -0.0002   -0.0000
          55   -0.0003   -0.0004    0.0000
          56    0.0007    0.0008    0.0001
          57    0.0002    0.0002    0.0000


           MASS-WEIGHTED COORDINATE ANALYSIS (NORMAL COORDINATES)


   Root No.       1         2         3         4         5         6         7         8

                 1 A       2 A       3 A       4 A       5 A       6 A       7 A       8 A   

                 129.9     185.8     203.4     338.9     373.3     445.4     471.5     518.2
  
           1   -0.0251    0.0906   -0.0581   -0.2923   -0.0275    0.2598    0.0074    0.0887
           2   -0.1150    0.0617   -0.0192    0.1792   -0.0123    0.3548    0.0402   -0.1700
           3    0.0293   -0.0601    0.0192    0.0411   -0.0452   -0.1943    0.4462    0.1858
           4   -0.0260    0.0922   -0.0595   -0.2991   -0.0272    0.2593    0.0190    0.0065
           5   -0.0297    0.3119   -0.2179    0.0580   -0.0108   -0.2670    0.0221   -0.2472
           6    0.1030   -0.2414    0.1819   -0.0234   -0.0358   -0.0546   -0.0303   -0.2859
           7   -0.2487    0.0161    0.0468   -0.1618    0.1270   -0.2241   -0.1169    0.2814
           8   -0.1901    0.0397    0.0191    0.2378    0.0408    0.1876   -0.0323   -0.0344
           9    0.3533   -0.0510   -0.0407    0.0508   -0.0137    0.0343   -0.1504    0.2129
          10   -0.1123   -0.1959    0.0689    0.0130   -0.1451   -0.0296    0.0805   -0.3844
          11   -0.0827   -0.2181    0.0856   -0.0976   -0.0303   -0.1253   -0.1867    0.0076
          12    0.1612    0.1872   -0.0442   -0.1361    0.0162   -0.0418   -0.0391   -0.2986
          13    0.1470   -0.0695    0.0024    0.4452    0.0207    0.0777    0.2196    0.1471
          14    0.1638   -0.1760    0.0962   -0.2813   -0.0866    0.0329    0.3867    0.0329
          15   -0.2381    0.1841   -0.0939   -0.0002   -0.0235    0.1675    0.2467    0.0572
          16    0.1806   -0.0050    0.0053    0.0920    0.2469   -0.1220   -0.1066   -0.1598
          17    0.1691   -0.0717    0.0392   -0.1024    0.2660   -0.1318   -0.2161    0.0825
          18   -0.2482    0.0574   -0.0248    0.0173   -0.3020   -0.1647   -0.2792    0.1102
          19    0.1179    0.1112   -0.0240    0.1041   -0.2001   -0.1789   -0.1660   -0.0250
          20    0.0831    0.0645   -0.0034    0.0637   -0.1347    0.0632   -0.1278    0.3938
          21   -0.1613   -0.1223    0.0205    0.0732    0.4069    0.0688   -0.1312    0.0606
          22   -0.0074    0.0921   -0.0585   -0.1286   -0.0233    0.1016    0.0189    0.0557
          23   -0.1190    0.0311   -0.0065    0.0798    0.0064    0.1403    0.0430   -0.0694
          24   -0.0381    0.0163   -0.0113    0.0095   -0.0135   -0.0175    0.1475    0.0523
          25   -0.0002   -0.0120    0.0188   -0.1089    0.0043    0.2377   -0.0826   -0.0297
          26    0.0151    0.2623   -0.1733    0.0189    0.0040   -0.2550    0.1010   -0.1329
          27    0.0459    0.0089    0.0077   -0.0170   -0.0012   -0.0401    0.0041   -0.1286
          28    0.0053    0.0951   -0.0608   -0.1182   -0.0017   -0.0762    0.0211    0.0345
          29   -0.0034    0.1236   -0.0850    0.0051   -0.0010   -0.1442    0.0192   -0.0647
          30    0.0158   -0.2333    0.1618   -0.0386   -0.0078    0.1531   -0.1367   -0.0189
          31   -0.0046   -0.0229    0.0052   -0.0032    0.0056    0.0010    0.0257   -0.1071
          32   -0.1341   -0.1570    0.0627   -0.0327   -0.2059   -0.0394   -0.0518    0.0030
          33    0.1243    0.2204   -0.0912   -0.1159    0.1416    0.0789    0.0193   -0.0294
          34   -0.1673   -0.2466    0.1049    0.0654   -0.2800   -0.0833    0.0006   -0.1679
          35    0.0192   -0.1196    0.0625   -0.0423    0.0544   -0.0169   -0.0552   -0.0289
          36    0.0646   -0.0068    0.0238   -0.0440    0.0302   -0.0027   -0.0144   -0.1132
          37   -0.2833   -0.0356    0.0616   -0.0616    0.2604   -0.2470    0.0985    0.1313
          38   -0.0582    0.0058    0.0099    0.0701    0.0688    0.1281   -0.0705   -0.0636
          39    0.0776   -0.0214   -0.0055    0.0155    0.0435    0.0276   -0.0600    0.0424
          40   -0.0337    0.0130    0.0052   -0.0387   -0.0039   -0.0424   -0.0591    0.0747
          41   -0.1133    0.0031    0.0234    0.1142    0.0435   -0.0908    0.0249   -0.0039
          42    0.2999    0.0257   -0.0562    0.0507   -0.2230    0.1437   -0.1796    0.0182
          43    0.0430   -0.0221   -0.0018    0.1332    0.0064    0.0215    0.0651    0.0448
          44    0.0356   -0.2790   -0.3908   -0.2408   -0.0374   -0.0000    0.1169    0.0129
          45   -0.1085    0.2476    0.2283   -0.1466   -0.0197    0.1189    0.0012   -0.0273
          46    0.0715   -0.2764   -0.3872    0.1970    0.0130   -0.0365    0.1251    0.0826
          47    0.1220    0.0478    0.3495   -0.1064   -0.0411   -0.0854    0.2256    0.0623
          48   -0.0249    0.0087   -0.0173    0.0123   -0.0112   -0.0138    0.1411    0.0528
          49    0.0544    0.1983    0.4026    0.2777    0.0167    0.0268    0.0678    0.0445
          50    0.0503    0.0155    0.1491   -0.0367   -0.0220    0.0108    0.1141    0.0092
          51   -0.1367   -0.0364   -0.3206    0.1204    0.0190    0.1409   -0.0312   -0.0316
          52    0.1202    0.0070   -0.0039    0.0505    0.1822   -0.0158   -0.0304   -0.0024
          53    0.1171   -0.0277    0.0131   -0.0614    0.1498   -0.0500   -0.0338   -0.0831
          54   -0.1829    0.0165   -0.0046    0.0189   -0.2325   -0.0480   -0.1081    0.1011
          55    0.0865    0.0733   -0.0229    0.0771   -0.1616   -0.0334   -0.0332   -0.0045
          56    0.0740    0.0530   -0.0135    0.0338   -0.1306    0.0079   -0.0402    0.1342
          57   -0.1341   -0.0871    0.0229    0.0565    0.2647    0.0971    0.0004   -0.0635


   Root No.       9        10        11        12        13        14        15        16

                 9 A      10 A      11 A      12 A      13 A      14 A      15 A      16 A   

                 708.9     772.9     831.4     915.2     940.3     947.0     953.0     991.3
  
           1   -0.0543    0.0026   -0.1367    0.1067   -0.0311    0.0017    0.1627   -0.0463
           2    0.0149   -0.1250   -0.0578    0.1383    0.0108   -0.0626   -0.1398   -0.0617
           3    0.0837    0.0330    0.0831   -0.1329    0.0393    0.0567    0.0063    0.0571
           4   -0.0718    0.0437    0.1858   -0.2398   -0.1888    0.0373   -0.1427    0.1023
           5    0.0490   -0.0971    0.1295    0.2308    0.3183    0.2816    0.1030   -0.1113
           6   -0.0685    0.1666   -0.0471    0.0981    0.0661   -0.1145    0.1543    0.0545
           7   -0.0152    0.1167   -0.2352    0.0532    0.4530   -0.1102   -0.1489   -0.1088
           8   -0.0697    0.1391    0.0309   -0.2521   -0.0728    0.0125    0.1522    0.0656
           9   -0.1860    0.0261    0.2058    0.2513   -0.0645    0.0240   -0.1393    0.0230
          10   -0.0487    0.1462    0.3490   -0.1060    0.2235   -0.1858   -0.0426   -0.0084
          11    0.1764   -0.0962    0.1071   -0.0846    0.0104   -0.1077    0.0476    0.1131
          12   -0.1469    0.0635   -0.0515   -0.0050   -0.0594    0.1537   -0.1334   -0.1002
          13    0.0402   -0.0589   -0.1149    0.1483   -0.0224   -0.0336    0.2703    0.1106
          14    0.0878   -0.1110   -0.1145    0.1798    0.0042   -0.1368   -0.1959    0.1661
          15    0.0911   -0.1016   -0.1205    0.0067   -0.0255   -0.0007    0.0002   -0.0792
          16    0.1835   -0.0508   -0.0491    0.0498   -0.2083    0.0105    0.0306   -0.1105
          17    0.1674   -0.0561   -0.1293   -0.0239   -0.2553   -0.0681   -0.0782   -0.1536
          18    0.1285   -0.3356   -0.0854   -0.2082   -0.0458    0.0070    0.0031    0.1698
          19    0.2038   -0.0655   -0.0369    0.0241   -0.1449    0.1542   -0.0184    0.1281
          20   -0.2573    0.4029    0.1289    0.0142    0.1026    0.1487    0.0220    0.0192
          21   -0.1585   -0.0429   -0.0028   -0.1087    0.0655   -0.1587    0.1199   -0.1477
          22   -0.0099   -0.0571    0.0069    0.0486   -0.0733    0.1952    0.0109   -0.1816
          23    0.0455   -0.0499   -0.0926   -0.1422    0.0197   -0.0625   -0.0331   -0.1808
          24    0.0500   -0.0231   -0.0051   -0.1205    0.0006    0.0629   -0.0081   -0.1359
          25   -0.0021   -0.1020    0.1084    0.0552   -0.0417    0.2592   -0.1149   -0.1826
          26   -0.1452    0.2097   -0.1664   -0.0153   -0.1215   -0.1730   -0.0027   -0.0066
          27   -0.0943    0.1250   -0.0932    0.0349   -0.0857   -0.0623   -0.0040   -0.0581
          28   -0.0649    0.1297   -0.0258   -0.2183   -0.1898   -0.1497    0.0058    0.2556
          29   -0.0126    0.0309   -0.0034    0.0056    0.0315    0.0041    0.0431    0.0519
          30    0.1424   -0.1811    0.1808    0.1120    0.2209    0.2402    0.1097    0.0246
          31    0.0397    0.0448    0.1593   -0.0393    0.1013   -0.1027    0.0088    0.0005
          32   -0.1767   -0.0349   -0.1129   -0.0641   -0.1157    0.1951   -0.1247    0.1020
          33    0.1442    0.0089    0.3201   -0.1594    0.1435   -0.0722   -0.0633    0.1351
          34   -0.3241    0.0518   -0.2403    0.0675   -0.1121    0.2010   -0.0986   -0.1230
          35    0.0661    0.0704    0.0027    0.0110   -0.0816   -0.1717    0.0509   -0.0329
          36   -0.0552    0.0922   -0.0608    0.0340   -0.0904   -0.0354   -0.0166   -0.0881
          37   -0.2111   -0.1051    0.2590    0.2589   -0.1552    0.0599   -0.0749    0.0193
          38   -0.0613   -0.0176   -0.0536   -0.1026   -0.0506   -0.1240    0.0856   -0.1615
          39   -0.0911   -0.0282    0.0616    0.0806   -0.0564   -0.0415   -0.0237   -0.0704
          40    0.0304    0.0586   -0.1154   -0.0223    0.1841   -0.0387   -0.0434   -0.0262
          41   -0.0279   -0.0005    0.1850   -0.0669   -0.1695    0.1271    0.0188    0.2393
          42    0.1475    0.1371   -0.2159   -0.1430    0.2648   -0.0494   -0.0439    0.0208
          43    0.0127   -0.0177   -0.0320    0.0374   -0.0062   -0.0081    0.0664    0.0255
          44    0.0236   -0.0141   -0.0713    0.0569   -0.0179    0.0261    0.3384    0.0306
          45   -0.0092   -0.0236   -0.1213    0.2564   -0.0187   -0.0717    0.3812    0.2213
          46    0.0428   -0.0232    0.0155   -0.1481   -0.0049    0.0643   -0.1300   -0.1739
          47    0.0673   -0.0159   -0.0073   -0.2066   -0.0131    0.1228    0.0800   -0.2448
          48    0.0544   -0.0237   -0.0067   -0.1752   -0.0133    0.0954   -0.0105   -0.2207
          49    0.0220   -0.0403   -0.0070    0.0252    0.0121   -0.0634   -0.2897    0.0258
          50    0.0295   -0.0400   -0.0261    0.0459    0.0071   -0.0558   -0.1670    0.0449
          51   -0.0018   -0.0685   -0.0530    0.2378    0.0169   -0.1971   -0.3661    0.2379
          52   -0.1895   -0.1844   -0.1480   -0.1301    0.0849    0.1490    0.0884    0.1613
          53   -0.1285   -0.2398   -0.1260   -0.1844    0.0777    0.0402   -0.0988    0.1398
          54    0.3677    0.2303    0.1512    0.2016   -0.2598   -0.1526    0.0195   -0.2552
          55   -0.1664   -0.2175    0.1502   -0.0603   -0.0787   -0.1317    0.1880   -0.0325
          56   -0.2614   -0.0938    0.1445   -0.0360    0.0258   -0.1621    0.1168   -0.1108
          57    0.2316    0.4139   -0.0945   -0.0187   -0.0387    0.3963   -0.0126    0.2671


   Root No.      17        18        19        20        21        22        23        24

                17 A      18 A      19 A      20 A      21 A      22 A      23 A      24 A   

                1000.0    1042.0    1063.6    1065.8    1103.8    1109.3    1121.9    1145.7
  
           1    0.0285    0.0865    0.0718   -0.0082   -0.0197   -0.0890    0.0535    0.1530
           2    0.0575   -0.0211    0.0601    0.0320    0.1440    0.0323    0.1615    0.0045
           3    0.0286    0.0282   -0.1372    0.0093    0.0683   -0.1510    0.1494    0.0681
           4   -0.1024    0.0289   -0.0872   -0.0099   -0.0227    0.1559    0.1117   -0.1475
           5   -0.1612    0.0646   -0.0473   -0.0321   -0.0760    0.0299    0.0444   -0.0808
           6   -0.1394    0.1498    0.0782   -0.0918    0.0471    0.2214    0.0852    0.3248
           7   -0.1282   -0.1815   -0.0193    0.0541    0.0079   -0.0082    0.0081    0.0067
           8   -0.0586   -0.0834   -0.0542    0.0407   -0.1789   -0.0691   -0.0671    0.1223
           9   -0.0173   -0.2237    0.1986    0.0124    0.0269    0.0563    0.1691   -0.0178
          10    0.3381   -0.0109    0.0472    0.0120   -0.0356   -0.0121   -0.0767   -0.0310
          11   -0.1442   -0.0208    0.1201    0.0679    0.1687   -0.0216   -0.0725    0.0727
          12    0.1073   -0.1228   -0.1367   -0.0370   -0.0881   -0.2662   -0.0513   -0.1986
          13    0.1047   -0.1443   -0.0369    0.0166    0.0218    0.0044   -0.0241   -0.0790
          14   -0.0331    0.0961   -0.0576   -0.0143   -0.0491   -0.0345   -0.0874   -0.0021
          15   -0.0618   -0.0388    0.0846   -0.0204   -0.1131    0.1824   -0.2811   -0.1221
          16   -0.0247    0.0607   -0.1750   -0.1095    0.0397   -0.0174   -0.0187   -0.0195
          17    0.2863   -0.0054   -0.2141   -0.0929   -0.0971    0.0649   -0.0025    0.0295
          18    0.2956    0.1689    0.1810    0.0592   -0.0183    0.0570   -0.0004   -0.0248
          19   -0.0439   -0.0170    0.1781   -0.0461    0.0847   -0.0390   -0.0149   -0.0008
          20    0.2365    0.2389    0.0505   -0.0910    0.0219    0.0158   -0.0550   -0.1033
[...]
 FREQ.      1359.06         C  1 -- C  2         +19.3% ( 55.1%)     80.6%
 T-DIPOLE    0.0433         C  2 -- H 10         +12.4% ( 44.3%)      0.0%
 TRAVEL      0.0993         C  2 -- H  9         +11.7% ( 42.9%)      0.1%
 RED. MASS   0.8335         C  1 -- H  8         +10.0% ( 39.8%)      0.0%
 EFF. MASS   5.0302

 VIBRATION   31   31A         ATOM PAIR      ENERGY CONTRIBUTION    RADIAL
 FREQ.      1369.85         C  4 -- C  6         +12.9% ( 51.6%)     73.0%
 T-DIPOLE    0.0272         C  4 -- H 11         +11.2% ( 48.1%)      0.1%
 TRAVEL      0.0814         C  4 -- H 12         +10.9% ( 47.5%)      0.3%
 RED. MASS   1.3365         C  2 -- C  4         +10.6% ( 46.9%)     78.3%
 EFF. MASS   7.4260

 VIBRATION   32   32A         ATOM PAIR      ENERGY CONTRIBUTION    RADIAL
 FREQ.      1388.76         C  3 -- H 13         +27.2% ( 58.9%)      3.9%
 T-DIPOLE    0.0592         C  3 -- H 14         +25.6% ( 57.1%)      5.4%
 TRAVEL      0.1132         C  1 -- C  3         +15.5% ( 44.5%)     86.6%
 RED. MASS   0.6273         C  3 -- C  7          +8.5% ( 33.0%)      0.0%
 EFF. MASS   3.7883

 VIBRATION   33   33A         ATOM PAIR      ENERGY CONTRIBUTION    RADIAL
 FREQ.      1392.80         C  4 -- H 12         +14.3% ( 43.4%)      4.2%
 T-DIPOLE    0.0380         C  4 -- H 11         +12.5% ( 40.5%)      7.6%
 TRAVEL      0.1124         C  2 -- C  4         +11.6% ( 39.2%)     47.9%
 RED. MASS   0.3555         C  2 -- H 10         +10.0% ( 36.3%)      1.4%
 EFF. MASS   3.8354

 VIBRATION   34   34A         ATOM PAIR      ENERGY CONTRIBUTION    RADIAL
 FREQ.      1407.63         C  5 -- H 15         +47.9% ( 60.3%)      1.0%
 T-DIPOLE    0.0470         C  5 -- H 17         +36.8% ( 52.8%)      3.9%
 TRAVEL      0.1729         C  5 -- H 16          +9.0% ( 26.1%)     45.5%
 RED. MASS   0.4318         C  1 -- C  5          +5.3% ( 20.1%)     15.4%
 EFF. MASS   1.6021

 VIBRATION   35   35A         ATOM PAIR      ENERGY CONTRIBUTION    RADIAL
 FREQ.      1409.20         C  2 -- H 10         +13.7% ( 41.1%)      3.8%
 T-DIPOLE    0.0399         C  2 -- H  9         +12.3% ( 39.0%)      4.9%
 TRAVEL      0.1144         C  5 -- H 16          +7.6% ( 30.6%)      0.8%
 RED. MASS   0.2324         C  2 -- C  4          +7.6% ( 30.6%)     86.4%
 EFF. MASS   3.6562

 VIBRATION   36   36A         ATOM PAIR      ENERGY CONTRIBUTION    RADIAL
 FREQ.      1411.14         C  5 -- H 16         +29.5% ( 52.5%)      0.0%
 T-DIPOLE    0.0572         C  5 -- H 17         +13.8% ( 35.9%)      4.6%
 TRAVEL      0.1423         C  5 -- H 15         +11.1% ( 32.3%)     18.4%
 RED. MASS   0.2496         C  2 -- H  9          +9.4% ( 29.6%)      4.9%
 EFF. MASS   2.3588

 VIBRATION   37   37A         ATOM PAIR      ENERGY CONTRIBUTION    RADIAL
 FREQ.      1414.57         C  5 -- H 16         +16.9% ( 51.3%)      3.3%
 T-DIPOLE    0.0361         C  5 -- H 17         +15.5% ( 49.1%)      4.9%
 TRAVEL      0.0967         C  1 -- C  5         +13.7% ( 46.2%)     98.9%
 RED. MASS   0.5936         C  5 -- H 15          +8.0% ( 35.2%)      1.1%
 EFF. MASS   5.0997

 VIBRATION   38   38A         ATOM PAIR      ENERGY CONTRIBUTION    RADIAL
 FREQ.      1445.25         C  3 -- C  7         +13.1% ( 55.6%)     95.9%
 T-DIPOLE    0.1047         C  4 -- C  6         +11.4% ( 51.9%)     95.6%
 TRAVEL      0.0692         C  1 -- C  3          +9.9% ( 48.5%)     38.8%
 RED. MASS   1.4086         C  3 -- H 14          +7.0% ( 40.8%)      1.0%
 EFF. MASS   9.7452

 VIBRATION   39   39A         ATOM PAIR      ENERGY CONTRIBUTION    RADIAL
 FREQ.      1879.77         C  6 -- C  7         +44.4% ( 98.1%)    100.0%
 T-DIPOLE    0.1298         C  3 -- C  7         +14.3% ( 55.6%)     52.2%
 TRAVEL      0.0550         C  4 -- C  6         +14.2% ( 55.5%)     51.8%
 RED. MASS   5.4210         C  7 -- H 19         +13.1% ( 53.4%)      4.6%
 EFF. MASS  11.8691         C  6 -- H 18         +13.1% ( 53.3%)      4.6%

 VIBRATION   40   40A         ATOM PAIR      ENERGY CONTRIBUTION    RADIAL
 FREQ.      2876.71         C  1 -- H  8         +95.7% ( 99.4%)    100.0%
 T-DIPOLE    0.0322         C  1 -- C  3          +1.0% ( 10.4%)      8.1%
 TRAVEL      0.1274         C  1 -- C  2          +1.0% ( 10.3%)      8.3%
 RED. MASS   0.9088         C  1 -- C  5          +1.0% ( 10.3%)      9.3%
 EFF. MASS   1.4442

 VIBRATION   41   41A         ATOM PAIR      ENERGY CONTRIBUTION    RADIAL
 FREQ.      2942.47         C  3 -- H 13         +57.9% ( 78.9%)     97.6%
 T-DIPOLE    0.0247         C  3 -- H 14         +36.7% ( 62.8%)     95.1%
 TRAVEL      0.1223         C  4 -- H 12          +1.2% ( 11.2%)     97.6%
 RED. MASS   0.5064         C  3 -- C  7          +1.1% ( 10.8%)      0.1%
 EFF. MASS   1.5320

 VIBRATION   42   42A         ATOM PAIR      ENERGY CONTRIBUTION    RADIAL
 FREQ.      2944.00         C  4 -- H 12         +51.4% ( 74.5%)     97.5%
 T-DIPOLE    0.0130         C  4 -- H 11         +33.3% ( 60.0%)     95.1%
 TRAVEL      0.1218         C  2 -- H  9          +6.5% ( 26.6%)     97.3%
 RED. MASS   0.4129         C  2 -- H 10          +3.9% ( 20.5%)     94.5%
 EFF. MASS   1.5427

 VIBRATION   43   43A         ATOM PAIR      ENERGY CONTRIBUTION    RADIAL
 FREQ.      2961.26         C  2 -- H  9         +47.6% ( 71.5%)     97.1%
 T-DIPOLE    0.0146         C  2 -- H 10         +38.8% ( 64.6%)     96.0%
 TRAVEL      0.1217         C  4 -- H 12          +5.6% ( 24.6%)     97.0%
 RED. MASS   0.4146         C  4 -- H 11          +5.3% ( 24.0%)     96.7%
 EFF. MASS   1.5372

 VIBRATION   44   44A         ATOM PAIR      ENERGY CONTRIBUTION    RADIAL
 FREQ.      3022.26         C  3 -- H 14         +60.3% ( 76.6%)     98.8%
 T-DIPOLE    0.0566         C  3 -- H 13         +36.6% ( 59.7%)     95.8%
 TRAVEL      0.1318         C  7 -- H 19          +1.7% ( 12.8%)    100.0%
 RED. MASS   0.4922         C  3 -- C  7          +0.7% (  8.1%)     17.5%
 EFF. MASS   1.2843

 VIBRATION   45   45A         ATOM PAIR      ENERGY CONTRIBUTION    RADIAL
 FREQ.      3025.55         C  4 -- H 11         +54.6% ( 72.9%)     98.6%
 T-DIPOLE    0.0474         C  4 -- H 12         +36.7% ( 59.8%)     96.2%
 TRAVEL      0.1317         C  2 -- H  9          +3.1% ( 17.4%)     98.0%
 RED. MASS   0.4310         C  2 -- H 10          +2.4% ( 15.4%)     97.0%
 EFF. MASS   1.2850

 VIBRATION   46   46A         ATOM PAIR      ENERGY CONTRIBUTION    RADIAL
 FREQ.      3038.23         C  2 -- H 10         +53.0% ( 71.8%)     98.4%
 T-DIPOLE    0.0341         C  2 -- H  9         +39.7% ( 62.1%)     96.7%
 TRAVEL      0.1319         C  4 -- H 11          +3.5% ( 18.4%)     99.1%
 RED. MASS   0.4359         C  4 -- H 12          +1.5% ( 12.0%)     94.2%
 EFF. MASS   1.2755

 VIBRATION   47   47A         ATOM PAIR      ENERGY CONTRIBUTION    RADIAL
 FREQ.      3046.11         C  7 -- H 19         +51.1% ( 72.5%)    100.0%
 T-DIPOLE    0.2902         C  6 -- H 18         +44.1% ( 67.3%)    100.0%
 TRAVEL      0.1235         C  6 -- C  7          +1.1% ( 10.4%)      0.1%
 RED. MASS   0.4426         C  4 -- H 11          +0.8% (  9.3%)     99.0%
 EFF. MASS   1.4506

 VIBRATION   48   48A         ATOM PAIR      ENERGY CONTRIBUTION    RADIAL
 FREQ.      3066.29         C  6 -- H 18         +50.6% ( 72.1%)     99.9%
 T-DIPOLE    0.2643         C  7 -- H 19         +44.3% ( 67.5%)     99.9%
 TRAVEL      0.1178         C  6 -- C  7          +2.0% ( 14.3%)     99.8%
 RED. MASS   0.4530         C  4 -- C  6          +0.8% (  9.3%)     16.5%
 EFF. MASS   1.5848

 VIBRATION   49   49A         ATOM PAIR      ENERGY CONTRIBUTION    RADIAL
 FREQ.      3076.89         C  5 -- H 16         +67.8% ( 85.0%)     99.0%
 T-DIPOLE    0.0015         C  5 -- H 17         +17.9% ( 43.6%)     85.8%
 TRAVEL      0.1208         C  5 -- H 15         +13.2% ( 37.6%)     80.4%
 RED. MASS   0.5374         C  1 -- C  5          +1.0% ( 10.3%)      0.0%
 EFF. MASS   1.5030

 VIBRATION   50   50A         ATOM PAIR      ENERGY CONTRIBUTION    RADIAL
 FREQ.      3083.36         C  5 -- H 15         +51.1% ( 73.8%)     97.4%
 T-DIPOLE    0.0069         C  5 -- H 17         +46.7% ( 70.5%)     96.7%
 TRAVEL      0.1204         C  5 -- H 16          +1.1% ( 10.9%)      3.5%
 RED. MASS   0.5097         C  1 -- C  5          +1.0% ( 10.5%)      0.0%
 EFF. MASS   1.5081

 VIBRATION   51   51A         ATOM PAIR      ENERGY CONTRIBUTION    RADIAL
 FREQ.      3177.92         C  5 -- H 15         +35.0% ( 57.0%)     97.4%
 T-DIPOLE    0.0261         C  5 -- H 17         +34.8% ( 56.8%)     97.3%
 TRAVEL      0.1367         C  5 -- H 16         +29.9% ( 52.6%)     96.5%
 RED. MASS   0.3284         C  1 -- C  5          +0.3% (  5.1%)     99.5%
 EFF. MASS   1.1358

      SYMMETRY NUMBER FOR POINT-GROUP C1  =  1


          SYSTEM IS A GROUND STATE



 InChI=1S/C7H12/c1-7-5-3-2-4-6-7/h2-3,7H,4-6H2,1H3


          MOLECULE IS NOT LINEAR

          THERE ARE 51 GENUINE VIBRATIONS IN THIS SYSTEM
          THIS THERMODYNAMICS CALCULATION IS LIMITED TO
          MOLECULES WHICH HAVE NO INTERNAL ROTATIONS




                    CALCULATED THERMODYNAMIC PROPERTIES
                                          *
   TEMP. (K)   PARTITION FUNCTION   H.O.F.    ENTHALPY  HEAT CAPACITY ENTROPY
                                   KCAL/MOL   CAL/MOLE    CAL/K/MOL  CAL/K/MOL


 298.00  VIB.     0.1441D+02                  2573.1895    21.2313    13.9360
         ROT.     0.2066D+06                   888.2813     2.9808    27.3014
         INT.     0.2976D+07                  3461.4708    24.2121    41.2374
         TRA.     0.9118D+27                  1480.4688     4.9680    39.5994
         TOT.                      -10.825    4941.9397    29.1801    80.8368

 200.00  VIB.     0.3865D+01                   969.7675    11.8701     7.5353
         ROT.     0.1136D+06                   596.1620     2.9808    26.1128
         INT.     0.4390D+06                  1565.9294    14.8509    33.6480
         TRA.     0.5013D+27                   993.6033     4.9680    37.6183
         TOT.                      -13.207    2559.5327    19.8189    71.2663

 210.00  VIB.     0.4372D+01                  1092.6408    12.7096     8.1346
         ROT.     0.1222D+06                   625.9700     2.9808    26.2582
         INT.     0.5344D+06                  1718.6108    15.6904    34.3928
         TRA.     0.5394D+27                  1043.2834     4.9680    37.8607
         TOT.                      -13.005    2761.8943    20.6584    72.2534

 220.00  VIB.     0.4959D+01                  1224.0595    13.5792     8.7458
         ROT.     0.1311D+06                   655.7781     2.9808    26.3969
         INT.     0.6499D+06                  1879.8376    16.5600    35.1426
         TRA.     0.5784D+27                  1092.9636     4.9680    38.0918
         TOT.                      -12.794    2972.8012    21.5280    73.2344

 230.00  VIB.     0.5639D+01                  1364.3244    14.4787     9.3691
         ROT.     0.1401D+06                   685.5862     2.9808    26.5294
         INT.     0.7900D+06                  2049.9106    17.4595    35.8985
         TRA.     0.6182D+27                  1142.6437     4.9680    38.3126
         TOT.                      -12.574    3192.5544    22.4275    74.2111

 240.00  VIB.     0.6428D+01                  1513.7282    15.4067    10.0049
         ROT.     0.1493D+06                   715.3943     2.9808    26.6562
         INT.     0.9600D+06                  2229.1226    18.3875    36.6611
         TRA.     0.6590D+27                  1192.3239     4.9680    38.5241
         TOT.                      -12.346    3421.4465    23.3556    75.1851

 250.00  VIB.     0.7346D+01                  1672.5481    16.3615    10.6531
         ROT.     0.1588D+06                   745.2024     2.9808    26.7779
         INT.     0.1166D+07                  2417.7505    19.3423    37.4310
         TRA.     0.7006D+27                  1242.0041     4.9680    38.7269
         TOT.                      -12.107    3659.7546    24.3103    76.1578

 260.00  VIB.     0.8415D+01                  1841.0394    17.3406    11.3138
         ROT.     0.1684D+06                   775.0105     2.9808    26.8948
         INT.     0.1417D+07                  2616.0499    20.3214    38.2086
         TRA.     0.7431D+27                  1291.6842     4.9680    38.9217
         TOT.                      -11.859    3907.7342    25.2894    77.1303

 270.00  VIB.     0.9663D+01                  2019.4317    18.3412    11.9869
         ROT.     0.1782D+06                   804.8186     2.9808    27.0073
         INT.     0.1722D+07                  2824.2503    21.3220    38.9942
         TRA.     0.7864D+27                  1341.3644     4.9680    39.1092
         TOT.                      -11.601    4165.6147    26.2900    78.1034

 280.00  VIB.     0.1112D+02                  2207.9254    19.3603    12.6723
         ROT.     0.1882D+06                   834.6267     2.9808    27.1157
         INT.     0.2093D+07                  3042.5521    22.3412    39.7880
         TRA.     0.8304D+27                  1391.0445     4.9680    39.2899
         TOT.                      -11.333    4433.5966    27.3092    79.0779

 290.00  VIB.     0.1283D+02                  2406.6897    20.3948    13.3697
         ROT.     0.1983D+06                   864.4348     2.9808    27.2203
         INT.     0.2545D+07                  3271.1245    23.3756    40.5900
         TRA.     0.8753D+27                  1440.7247     4.9680    39.4642
         TOT.                      -11.055    4711.8492    28.3436    80.0542

 300.00  VIB.     0.1483D+02                  2615.8622    21.4414    14.0787
         ROT.     0.2087D+06                   894.2429     2.9808    27.3214
         INT.     0.3096D+07                  3510.1051    24.4223    41.4001
         TRA.     0.9210D+27                  1490.4049     4.9680    39.6326
         TOT.                      -10.767    5000.5100    29.3903    81.0327

 310.00  VIB.     0.1719D+02                  2835.5487    22.4971    14.7990
         ROT.     0.2192D+06                   924.0510     2.9808    27.4191
         INT.     0.3768D+07                  3759.5997    25.4779    42.2181
         TRA.     0.9674D+27                  1540.0850     4.9680    39.7955
         TOT.                      -10.467    5299.6847    30.4459    82.0136

 320.00  VIB.     0.1996D+02                  3065.8240    23.5587    15.5300
         ROT.     0.2299D+06                   953.8591     2.9808    27.5137
         INT.     0.4589D+07                  4019.6831    26.5395    43.0437
         TRA.     0.1015D+28                  1589.7652     4.9680    39.9533
         TOT.                      -10.158    5609.4483    31.5075    82.9970

 330.00  VIB.     0.2323D+02                  3306.7334    24.6234    16.2712
         ROT.     0.2408D+06                   983.6672     2.9808    27.6055
         INT.     0.5594D+07                  4290.4006    27.6043    43.8767
         TRA.     0.1063D+28                  1639.4454     4.9680    40.1062
         TOT.                       -9.837    5929.8459    32.5723    83.9828

 340.00  VIB.     0.2710D+02                  3558.2942    25.6886    17.0221
         ROT.     0.2518D+06                  1013.4753     2.9808    27.6945
         INT.     0.6823D+07                  4571.7695    28.6694    44.7166
         TRA.     0.1111D+28                  1689.1255     4.9680    40.2545
         TOT.                       -9.506    6260.8950    33.6374    84.9710

 350.00  VIB.     0.3167D+02                  3820.4980    26.7517    17.7821
         ROT.     0.2630D+06                  1043.2834     2.9808    27.7809
         INT.     0.8328D+07                  4863.7814    29.7325    45.5630
         TRA.     0.1161D+28                  1738.8057     4.9680    40.3985
         TOT.                       -9.164    6602.5871    34.7005    85.9614

 360.00  VIB.     0.3709D+02                  4093.3128    27.8104    18.5506
         ROT.     0.2743D+06                  1073.0915     2.9808    27.8648
         INT.     0.1017D+08                  5166.4043    30.7912    46.4154
         TRA.     0.1211D+28                  1788.4859     4.9680    40.5384
         TOT.                       -8.812    6954.8902    35.7592    86.9538

 370.00  VIB.     0.4352D+02                  4376.6851    28.8628    19.3269
         ROT.     0.2858D+06                  1102.8996     2.9808    27.9465
         INT.     0.1244D+08                  5479.5847    31.8437    47.2734
         TRA.     0.1261D+28                  1838.1660     4.9680    40.6745
         TOT.                       -8.449    7317.7507    36.8117    87.9480

 380.00  VIB.     0.5116D+02                  4670.5426    29.9072    20.1105
         ROT.     0.2975D+06                  1132.7077     2.9808    28.0260
         INT.     0.1522D+08                  5803.2503    32.8880    48.1365
         TRA.     0.1313D+28                  1887.8462     4.9680    40.8070
         TOT.                       -8.076    7691.0964    37.8560    88.9436

 390.00  VIB.     0.6026D+02                  4974.7959    30.9418    20.9008
         ROT.     0.3093D+06                  1162.5158     2.9808    28.1034
         INT.     0.1864D+08                  6137.3117    33.9226    49.0042
         TRA.     0.1365D+28                  1937.5263     4.9680    40.9361
         TOT.                       -7.692    8074.8381    38.8906    89.9403

 400.00  VIB.     0.7110D+02                  5289.3414    31.9654    21.6971
         ROT.     0.3213D+06                  1192.3239     2.9808    28.1789
         INT.     0.2285D+08                  6481.6653    34.9462    49.8760
         TRA.     0.1418D+28                  1987.2065     4.9680    41.0619
         TOT.                       -7.298    8468.8718    39.9142    90.9378

   *: NOTE: HEATS OF FORMATION ARE RELATIVE TO THE
            ELEMENTS IN THEIR STANDARD STATE AT 298K
              (=  Standard Enthalpy of Formation).

            Hvib:  Zero-point energy is not included.
                   frequencies of less than zero cm-1 are not included.
            Hrot = (3/2)RT
            Htra = (3/2)RT + pV = (5/2)RT

            Heat capacity is Cp, not Cv

          For more information, see: HTTP://OpenMOPAC.net/Manual/thermochemistry.html


           FORCE CONSTANT IN CARTESIAN COORDINATES (Millidynes/A)

    ATOM   CHEMICAL       X               Y               Z
   NUMBER   SYMBOL  FORCE CONSTANT  FORCE CONSTANT  FORCE CONSTANT

      1       C        8.184593        8.263196        8.562630
      2       C        8.060491        8.571822        8.310453
      3       C        8.747514        8.324979        8.365330
      4       C        8.779130        8.573097        8.128450
      5       C        8.408938        8.391383        8.132181
      6       C       12.301625        8.368704        6.590078
      7       C       12.310262        8.580424        6.374360
      8       H        1.112922        1.506018        3.411703
      9       H        1.190404        1.636286        3.574127
     10       H        1.211647        4.513266        0.719333
     11       H        4.738942        0.829773        0.780513
     12       H        0.701661        2.157596        3.399903
     13       H        0.715749        1.414271        4.132064
     14       H        4.751153        0.731642        0.861813
     15       H        5.386147        0.683958        0.709678
     16       H        1.157645        1.500599        4.116376
     17       H        1.136296        4.935895        0.717744
     18       H        1.531856        2.339760        2.387837
     19       H        1.523696        3.978772        0.749020

 **********************
 *                    *
 * JOB ENDED NORMALLY *
 *                    *
 **********************



 TOTAL JOB TIME:             4.93 SECONDS

 == MOPAC DONE ==
