 *******************************************************************************
 ** Site#: 14399        For non-commercial use only    Version 18.184L 64BITS **
 *******************************************************************************
 ** Cite this program as: MOPAC2016, Version: 18.184L, James J. P. Stewart,   **
 ** Stewart Computational Chemistry, web: HTTP://OpenMOPAC.net. Days left:  20**
 *******************************************************************************
 **                                                                           **
 **                                MOPAC2016                                  **
 **                                                                           **
 *******************************************************************************

                              PM3 CALCULATION RESULTS

 *******************************************************************************
 *  CALCULATION DONE:                                Thu Jun 13 15:48:35 2019  *
 *  PM3        - The PM3 Hamiltonian to be used
 *  PRECISE    - CRITERIA TO BE INCREASED BY 100 TIMES
 *  NOSYM      - POINT-GROUP SYMMETRY SET TO C1
 *  THREADS=1  - MULTI-THREADING NOT USED
 *  T=         - A TIME OF 172800.0 SECONDS REQUESTED
 *  DUMP=N     - RESTART FILE WRITTEN EVERY  7200.000 SECONDS
 *******************************************************************************
pm3  precise nosym THREADS=1
 InChI=1S/C6H10/c1-6-4-2-3-5-6/h2-3,6H,4-5H2,1H3

   ATOM   CHEMICAL          X               Y               Z
  NUMBER   SYMBOL      (ANGSTROMS)     (ANGSTROMS)     (ANGSTROMS)
 
     1       C          0.57700000  *  -0.14350000  *   0.34410000  *
     2       C         -0.43260000  *  -1.20580000  *  -0.12870000  *
     3       C         -0.19200000  *   1.19050000  *   0.36630000  *
     4       C          1.81650000  *  -0.08210000  *  -0.55530000  *
     5       C         -1.72140000  *  -0.47310000  *  -0.22410000  *
     6       C         -1.59210000  *   0.81450000  *   0.04190000  *
     7       H          0.90430000  *  -0.39020000  *   1.37940000  *
     8       H         -0.17620000  *  -1.62860000  *  -1.12450000  *
     9       H         -0.51900000  *  -2.02790000  *   0.61390000  *
    10       H         -0.14920000  *   1.65530000  *   1.37470000  *
    11       H          0.17930000  *   1.91280000  *  -0.39300000  *
    12       H          1.53140000  *   0.16260000  *  -1.60130000  *
    13       H          2.51670000  *   0.69500000  *  -0.18170000  *
    14       H          2.34030000  *  -1.06160000  *  -0.54450000  *
    15       H         -2.66460000  *  -0.93500000  *  -0.49700000  *
    16       H         -2.41840000  *   1.51710000  *   0.00960000  *
 


          CARTESIAN COORDINATES 

    NO.       ATOM           X           Y           Z

     1         C          0.5770     -0.1435      0.3441
     2         C         -0.4326     -1.2058     -0.1287
     3         C         -0.1920      1.1905      0.3663
     4         C          1.8165     -0.0821     -0.5553
     5         C         -1.7214     -0.4731     -0.2241
     6         C         -1.5921      0.8145      0.0419
     7         H          0.9043     -0.3902      1.3794
     8         H         -0.1762     -1.6286     -1.1245
     9         H         -0.5190     -2.0279      0.6139
    10         H         -0.1492      1.6553      1.3747
    11         H          0.1793      1.9128     -0.3930
    12         H          1.5314      0.1626     -1.6013
    13         H          2.5167      0.6950     -0.1817
    14         H          2.3403     -1.0616     -0.5445
    15         H         -2.6646     -0.9350     -0.4970
    16         H         -2.4184      1.5171      0.0096

  H: (PM3): J. J. P. STEWART, J. COMP. CHEM. 10, 209 (1989).
  C: (PM3): J. J. P. STEWART, J. COMP. CHEM. 10, 209 (1989).

           Empirical Formula: C6 H10  =    16 atoms



      MOLECULAR POINT GROUP   :   C1  


      RHF CALCULATION, NO. OF DOUBLY OCCUPIED LEVELS = 17


          Geometry optimization using EF

          DIAGONAL MATRIX USED AS START HESSIAN

 CYCLE:     1 TIME:   0.023 TIME LEFT:  2.00D  GRAD.:    50.615 HEAT: -1.296266
 CYCLE:     2 TIME:   0.035 TIME LEFT:  2.00D  GRAD.:    54.226 HEAT: -1.766761
 CYCLE:     3 TIME:   0.016 TIME LEFT:  2.00D  GRAD.:    26.023 HEAT: -2.385393
 CYCLE:     4 TIME:   0.027 TIME LEFT:  2.00D  GRAD.:    21.551 HEAT: -2.591917
 CYCLE:     5 TIME:   0.020 TIME LEFT:  2.00D  GRAD.:    27.693 HEAT: -2.685335
 CYCLE:     6 TIME:   0.023 TIME LEFT:  2.00D  GRAD.:    25.502 HEAT: -2.826122
 CYCLE:     7 TIME:   0.027 TIME LEFT:  2.00D  GRAD.:    10.119 HEAT: -2.989495
 CYCLE:     8 TIME:   0.023 TIME LEFT:  2.00D  GRAD.:     9.716 HEAT: -3.009026
 CYCLE:     9 TIME:   0.016 TIME LEFT:  2.00D  GRAD.:     6.490 HEAT: -3.039649
 CYCLE:    10 TIME:   0.035 TIME LEFT:  2.00D  GRAD.:     5.500 HEAT: -3.049489
 CYCLE:    11 TIME:   0.027 TIME LEFT:  2.00D  GRAD.:     6.507 HEAT: -3.050293
 CYCLE:    12 TIME:   0.020 TIME LEFT:  2.00D  GRAD.:     6.519 HEAT: -3.053334
 CYCLE:    13 TIME:   0.023 TIME LEFT:  2.00D  GRAD.:     6.067 HEAT: -3.055386
 CYCLE:    14 TIME:   0.023 TIME LEFT:  2.00D  GRAD.:     3.729 HEAT: -3.062882
 CYCLE:    15 TIME:   0.023 TIME LEFT:  2.00D  GRAD.:     5.040 HEAT: -3.060884
 CYCLE:    16 TIME:   0.023 TIME LEFT:  2.00D  GRAD.:     2.377 HEAT: -3.066909
 CYCLE:    17 TIME:   0.035 TIME LEFT:  2.00D  GRAD.:     2.138 HEAT: -3.067679
 CYCLE:    18 TIME:   0.023 TIME LEFT:  2.00D  GRAD.:     1.251 HEAT: -3.069295
 CYCLE:    19 TIME:   0.023 TIME LEFT:  2.00D  GRAD.:     1.163 HEAT: -3.069981
 CYCLE:    20 TIME:   0.020 TIME LEFT:  2.00D  GRAD.:     0.697 HEAT: -3.070880
 CYCLE:    21 TIME:   0.023 TIME LEFT:  2.00D  GRAD.:     0.752 HEAT: -3.072043
 CYCLE:    22 TIME:   0.023 TIME LEFT:  2.00D  GRAD.:     0.676 HEAT: -3.072625
 CYCLE:    23 TIME:   0.023 TIME LEFT:  2.00D  GRAD.:     0.473 HEAT: -3.073153
 CYCLE:    24 TIME:   0.023 TIME LEFT:  2.00D  GRAD.:     0.669 HEAT: -3.073763
 CYCLE:    25 TIME:   0.023 TIME LEFT:  2.00D  GRAD.:     0.671 HEAT: -3.074147
 CYCLE:    26 TIME:   0.020 TIME LEFT:  2.00D  GRAD.:     0.460 HEAT: -3.074489
 CYCLE:    27 TIME:   0.023 TIME LEFT:  2.00D  GRAD.:     0.540 HEAT: -3.074940
 CYCLE:    28 TIME:   0.023 TIME LEFT:  2.00D  GRAD.:     0.668 HEAT: -3.075524
 CYCLE:    29 TIME:   0.023 TIME LEFT:  2.00D  GRAD.:     0.833 HEAT: -3.076565
 CYCLE:    30 TIME:   0.023 TIME LEFT:  2.00D  GRAD.:     0.729 HEAT: -3.077370
 CYCLE:    31 TIME:   0.023 TIME LEFT:  2.00D  GRAD.:     0.836 HEAT: -3.078559
 CYCLE:    32 TIME:   0.023 TIME LEFT:  2.00D  GRAD.:     1.212 HEAT: -3.080652
 CYCLE:    33 TIME:   0.023 TIME LEFT:  2.00D  GRAD.:     1.380 HEAT: -3.083512
 CYCLE:    34 TIME:   0.020 TIME LEFT:  2.00D  GRAD.:     0.845 HEAT: -3.085596
 CYCLE:    35 TIME:   0.023 TIME LEFT:  2.00D  GRAD.:     0.378 HEAT: -3.086253
 CYCLE:    36 TIME:   0.023 TIME LEFT:  2.00D  GRAD.:     0.280 HEAT: -3.086436
 CYCLE:    37 TIME:   0.023 TIME LEFT:  2.00D  GRAD.:     0.260 HEAT: -3.086559
 CYCLE:    38 TIME:   0.023 TIME LEFT:  2.00D  GRAD.:     0.171 HEAT: -3.086658
 CYCLE:    39 TIME:   0.023 TIME LEFT:  2.00D  GRAD.:     0.095 HEAT: -3.086700
 CYCLE:    40 TIME:   0.020 TIME LEFT:  2.00D  GRAD.:     0.074 HEAT: -3.086719
 CYCLE:    41 TIME:   0.023 TIME LEFT:  2.00D  GRAD.:     0.055 HEAT: -3.086727
 CYCLE:    42 TIME:   0.023 TIME LEFT:  2.00D  GRAD.:     0.036 HEAT: -3.086731

     GRADIENT =  0.03573  IS LESS THAN CUTOFF =  0.05000



 -------------------------------------------------------------------------------
 pm3  precise nosym THREADS=1
 InChI=1S/C6H10/c1-6-4-2-3-5-6/h2-3,6H,4-5H2,1H3



     GEOMETRY OPTIMISED USING EIGENVECTOR FOLLOWING (EF).     
     SCF FIELD WAS ACHIEVED                                   


                              PM3 CALCULATION
                                                       MOPAC2016 (Version: 18.184L)
                                                       Thu Jun 13 15:48:36 2019
                                                       No. of days remaining =  20




          FINAL HEAT OF FORMATION =         -3.08673 KCAL/MOL =     -12.91488 KJ/MOL


          TOTAL ENERGY            =       -865.30314 EV
          ELECTRONIC ENERGY       =      -3860.29979 EV  POINT GROUP:     C1  
          CORE-CORE REPULSION     =       2994.99666 EV
          COSMO AREA              =        131.71 SQUARE ANGSTROMS
          COSMO VOLUME            =        123.42 CUBIC ANGSTROMS

          GRADIENT NORM           =          0.03573 = 0.00893 PER ATOM
          IONIZATION POTENTIAL    =          9.536900 EV
          HOMO LUMO ENERGIES (EV) =         -9.537  1.148
          NO. OF FILLED LEVELS    =         17
          MOLECULAR WEIGHT        =         82.1450

          MOLECULAR DIMENSIONS (Angstroms)

            Atom       Atom       Distance
            H    15    H    13     5.41477
            H     9    H    16     4.05726
            H    12    H    10     3.30246


          SCF CALCULATIONS        =         49
 
          WALL-CLOCK TIME         =          1.051 SECONDS
          COMPUTATION TIME        =          0.386 SECONDS




   ATOM   CHEMICAL          X               Y               Z
  NUMBER   SYMBOL      (ANGSTROMS)     (ANGSTROMS)     (ANGSTROMS)
 
     1       C          0.58782149  *  -0.14662311  *   0.35463443  *
     2       C         -0.43314012  *  -1.21094715  *  -0.10362487  *
     3       C         -0.19268081  *   1.18551233  *   0.39130357  *
     4       C          1.78752095  *  -0.07683832  *  -0.56708133  *
     5       C         -1.72585335  *  -0.47574061  *  -0.25011370  *
     6       C         -1.59510756  *   0.82782776  *   0.01934668  *
     7       H          0.94531604  *  -0.39434134  *   1.38067420  *
     8       H         -0.14248403  *  -1.68468832  *  -1.06054250  *
     9       H         -0.52819054  *  -2.03274336  *   0.62932893  *
    10       H         -0.15772020  *   1.65568998  *   1.39095376  *
    11       H          0.21997987  *   1.93178300  *  -0.31394661  *
    12       H          1.49762098  *   0.16642825  *  -1.59837738  *
    13       H          2.49859723  *   0.69152628  *  -0.23674384  *
    14       H          2.32377723  *  -1.03435071  *  -0.59468641  *
    15       H         -2.63881352  *  -0.99089249  *  -0.54695781  *
    16       H         -2.38083130  *   1.58179949  *  -0.01501637  *

                             CARTESIAN COORDINATES

   1    C        0.587821491    -0.146623107     0.354634431
   2    C       -0.433140118    -1.210947147    -0.103624873
   3    C       -0.192680811     1.185512333     0.391303571
   4    C        1.787520951    -0.076838322    -0.567081334
   5    C       -1.725853350    -0.475740612    -0.250113704
   6    C       -1.595107559     0.827827761     0.019346684
   7    H        0.945316036    -0.394341337     1.380674197
   8    H       -0.142484035    -1.684688322    -1.060542502
   9    H       -0.528190543    -2.032743361     0.629328934
  10    H       -0.157720203     1.655689981     1.390953759
  11    H        0.219979866     1.931782999    -0.313946606
  12    H        1.497620977     0.166428247    -1.598377375
  13    H        2.498597233     0.691526283    -0.236743845
  14    H        2.323777234    -1.034350712    -0.594686411
  15    H       -2.638813524    -0.990892490    -0.546957807
  16    H       -2.380831296     1.581799492    -0.015016370


           Empirical Formula: C6 H10  =    16 atoms



      MOLECULAR POINT GROUP   :   C1  


                  EIGENVALUES  
 -40.49178 -31.14883 -28.11239 -24.40572 -19.62094 -18.59806 -17.46252 -16.03376
 -14.18418 -13.88636 -13.71025 -13.40779 -12.61396 -12.57912 -12.00361 -11.79859
  -9.53690   1.14767   3.43064   3.51661   3.77269   3.82269   3.88466   3.97391
   4.13369   4.34117   4.39049   4.53165   4.55749   4.74812   5.19328   5.28205
   5.62811   6.01582


              NET ATOMIC CHARGES AND DIPOLE CONTRIBUTIONS

  ATOM NO.   TYPE          CHARGE      No. of ELECS.   s-Pop       p-Pop       
    1          C          -0.078539        4.0785     1.18224     2.89629
    2          C          -0.067505        4.0675     1.15752     2.90999
    3          C          -0.067485        4.0675     1.15751     2.90998
    4          C          -0.107572        4.1076     1.14129     2.96629
    5          C          -0.155221        4.1552     1.20197     2.95325
    6          C          -0.155222        4.1552     1.20197     2.95325
    7          H           0.061866        0.9381     0.93813
    8          H           0.060007        0.9400     0.93999
    9          H           0.055047        0.9450     0.94495
   10          H           0.055050        0.9449     0.94495
   11          H           0.059998        0.9400     0.94000
   12          H           0.042340        0.9577     0.95766
   13          H           0.038392        0.9616     0.96161
   14          H           0.038402        0.9616     0.96160
   15          H           0.110219        0.8898     0.88978
   16          H           0.110223        0.8898     0.88978
 DIPOLE           X         Y         Z       TOTAL
 POINT-CHG.     0.192    -0.021     0.010     0.193
 HYBRID        -0.011     0.006    -0.025     0.028
 SUM            0.181    -0.015    -0.014     0.182


          ATOMIC ORBITAL ELECTRON POPULATIONS

     Atom    s        px        py        pz   
    1  C   1.18224   0.95237   0.95214   0.99178
    2  C   1.15752   0.93644   0.96678   1.00677
    3  C   1.15751   0.93900   0.96385   1.00712
    4  C   1.14129   0.96939   1.00749   0.98941
    5  C   1.20197   0.97858   0.96195   1.01273
    6  C   1.20197   0.97400   0.96795   1.01130
    7  H   0.93813
    8  H   0.93999
    9  H   0.94495
   10  H   0.94495
   11  H   0.94000
   12  H   0.95766
   13  H   0.96161
   14  H   0.96160
   15  H   0.88978
   16  H   0.88978
 *******************************************************************************
 ** Site#: 14399        For non-commercial use only    Version 18.184L 64BITS **
 *******************************************************************************
 ** Cite this program as: MOPAC2016, Version: 18.184L, James J. P. Stewart,   **
 ** Stewart Computational Chemistry, web: HTTP://OpenMOPAC.net. Days left:  20**
 *******************************************************************************
 **                                                                           **
 **                                MOPAC2016                                  **
 **                                                                           **
 *******************************************************************************

                              PM3 CALCULATION RESULTS

 *******************************************************************************
 *  CALCULATION DONE:                                Thu Jun 13 15:48:36 2019  *
 *  PM3        - The PM3 Hamiltonian to be used
 *  OLDGEO     - PREVIOUS GEOMETRY TO BE USED
 *  PRECISE    - CRITERIA TO BE INCREASED BY 100 TIMES
 *  NOSYM      - POINT-GROUP SYMMETRY SET TO C1
 *  THREADS=1  - MULTI-THREADING NOT USED
 *  T=         - A TIME OF 172800.0 SECONDS REQUESTED
 *  DUMP=N     - RESTART FILE WRITTEN EVERY  7200.000 SECONDS
 *  THERMO     - THERMODYNAMIC QUANTITIES TO BE CALCULATED
 *******************************************************************************
oldgeo thermo nosym precise THREADS=1  pm3
 InChI=1S/C6H10/c1-6-4-2-3-5-6/h2-3,6H,4-5H2,1H3

   ATOM   CHEMICAL          X               Y               Z
  NUMBER   SYMBOL      (ANGSTROMS)     (ANGSTROMS)     (ANGSTROMS)
 
     1       C          0.58782149  *  -0.14662311  *   0.35463443  *
     2       C         -0.43314012  *  -1.21094715  *  -0.10362487  *
     3       C         -0.19268081  *   1.18551233  *   0.39130357  *
     4       C          1.78752095  *  -0.07683832  *  -0.56708133  *
     5       C         -1.72585335  *  -0.47574061  *  -0.25011370  *
     6       C         -1.59510756  *   0.82782776  *   0.01934668  *
     7       H          0.94531604  *  -0.39434134  *   1.38067420  *
     8       H         -0.14248403  *  -1.68468832  *  -1.06054250  *
     9       H         -0.52819054  *  -2.03274336  *   0.62932893  *
    10       H         -0.15772020  *   1.65568998  *   1.39095376  *
    11       H          0.21997987  *   1.93178300  *  -0.31394661  *
    12       H          1.49762098  *   0.16642825  *  -1.59837738  *
    13       H          2.49859723  *   0.69152628  *  -0.23674384  *
    14       H          2.32377723  *  -1.03435071  *  -0.59468641  *
    15       H         -2.63881352  *  -0.99089249  *  -0.54695781  *
    16       H         -2.38083130  *   1.58179949  *  -0.01501637  *
 


          CARTESIAN COORDINATES 

    NO.       ATOM           X           Y           Z

     1         C          0.5878     -0.1466      0.3546
     2         C         -0.4331     -1.2109     -0.1036
     3         C         -0.1927      1.1855      0.3913
     4         C          1.7875     -0.0768     -0.5671
     5         C         -1.7259     -0.4757     -0.2501
     6         C         -1.5951      0.8278      0.0193
     7         H          0.9453     -0.3943      1.3807
     8         H         -0.1425     -1.6847     -1.0605
     9         H         -0.5282     -2.0327      0.6293
    10         H         -0.1577      1.6557      1.3910
    11         H          0.2200      1.9318     -0.3139
    12         H          1.4976      0.1664     -1.5984
    13         H          2.4986      0.6915     -0.2367
    14         H          2.3238     -1.0344     -0.5947
    15         H         -2.6388     -0.9909     -0.5470
    16         H         -2.3808      1.5818     -0.0150

  H: (PM3): J. J. P. STEWART, J. COMP. CHEM. 10, 209 (1989).
  C: (PM3): J. J. P. STEWART, J. COMP. CHEM. 10, 209 (1989).

           Empirical Formula: C6 H10  =    16 atoms



      MOLECULAR POINT GROUP   :   C1  


      RHF CALCULATION, NO. OF DOUBLY OCCUPIED LEVELS = 17



          HEAT OF FORMATION =      -3.086731 KCALS/MOLE


          CARTESIAN COORDINATE DERIVATIVES

   NUMBER  ATOM         X            Y            Z

     1       C     -0.007231    -0.001440    -0.000267
     2       C      0.006080    -0.000077     0.001295
     3       C      0.006090     0.001033    -0.002629
     4       C     -0.003394    -0.007517    -0.000090
     5       C     -0.004772     0.005512     0.004121
     6       C     -0.004333    -0.001031    -0.004250
     7       H     -0.007793    -0.001662     0.000966
     8       H     -0.009663    -0.012634     0.001777
     9       H      0.002136     0.003955     0.000747
    10       H     -0.003497    -0.007498     0.004768
    11       H      0.009464     0.009603    -0.002197
    12       H     -0.000637     0.004450    -0.000896
    13       H     -0.001533    -0.000470     0.001235
    14       H      0.014736    -0.000533    -0.005314
    15       H      0.000821    -0.000492     0.003885
    16       H      0.003525     0.008801    -0.003152
 


          GRADIENT NORM =   0.03633


          TIME FOR SCF CALCULATION =    0.02

          TIME FOR DERIVATIVES     =    0.01

          MOLECULAR WEIGHT =   82.14



          ROTATIONAL CONSTANTS IN CM(-1)

          A =    0.20988707   B =    0.11163298   C =    0.08292313



           PRINCIPAL MOMENTS OF INERTIA IN UNITS OF 10**(-40)*GRAM-CM**2

          A =      133.3706   B =      250.7572   C =      337.5750


          ORIENTATION OF MOLECULE IN FORCE CALCULATION

    NO.       ATOM         X         Y         Z

     1          C      -0.5322   -0.6999   -0.2003
     2          C       1.0122   -0.6999   -0.2003
     3          C      -0.9451    0.7882   -0.2003
     4          C      -1.0999   -1.4469    0.9886
     5          C       1.4036    0.7412   -0.2557
     6          C       0.3388    1.5507   -0.2559
     7          H      -0.9023   -1.1866   -1.1320
     8          H       1.4305   -1.1839    0.7027
     9          H       1.4239   -1.2534   -1.0639
    10          H      -1.5889    1.0368   -1.0637
    11          H      -1.5230    1.0621    0.7029
    12          H      -0.7699   -1.0109    1.9414
    13          H      -2.1975   -1.4285    0.9826
    14          H      -0.7863   -2.4990    0.9836
    15          H       2.4502    1.0420   -0.2883
    16          H       0.3489    2.6397   -0.2889


    FIRST DERIVATIVES WILL BE USED IN THE CALCULATION OF SECOND DERIVATIVES

          ESTIMATED TIME TO COMPLETE CALCULATION =        6.75 SECONDS

    FOR POINT-GROUP C1   THERE ARE   1 UNIQUE SYMMETRY FUNCTIONS.

 STEP:   1 TIME =     0.04 SECS, INTEGRAL =      0.04 TIME LEFT: 172799.93
 STEP:   2 TIME =     0.03 SECS, INTEGRAL =      0.07 TIME LEFT: 172799.89
 STEP:   3 TIME =     0.03 SECS, INTEGRAL =      0.10 TIME LEFT: 172799.87
 STEP:   4 TIME =     0.03 SECS, INTEGRAL =      0.13 TIME LEFT: 172799.84
 STEP:   5 TIME =     0.03 SECS, INTEGRAL =      0.16 TIME LEFT: 172799.81
 STEP:   6 TIME =     0.03 SECS, INTEGRAL =      0.18 TIME LEFT: 172799.78
 STEP:   7 TIME =     0.02 SECS, INTEGRAL =      0.21 TIME LEFT: 172799.76
 STEP:   8 TIME =     0.02 SECS, INTEGRAL =      0.23 TIME LEFT: 172799.73
 STEP:   9 TIME =     0.02 SECS, INTEGRAL =      0.25 TIME LEFT: 172799.71
 STEP:  10 TIME =     0.02 SECS, INTEGRAL =      0.28 TIME LEFT: 172799.69
 STEP:  11 TIME =     0.02 SECS, INTEGRAL =      0.30 TIME LEFT: 172799.66
 STEP:  12 TIME =     0.02 SECS, INTEGRAL =      0.32 TIME LEFT: 172799.64
 STEP:  13 TIME =     0.02 SECS, INTEGRAL =      0.35 TIME LEFT: 172799.62
 STEP:  14 TIME =     0.02 SECS, INTEGRAL =      0.37 TIME LEFT: 172799.59
 STEP:  15 TIME =     0.02 SECS, INTEGRAL =      0.39 TIME LEFT: 172799.57
 STEP:  16 TIME =     0.02 SECS, INTEGRAL =      0.42 TIME LEFT: 172799.55
 STEP:  17 TIME =     0.03 SECS, INTEGRAL =      0.45 TIME LEFT: 172799.52
 STEP:  18 TIME =     0.03 SECS, INTEGRAL =      0.47 TIME LEFT: 172799.49
 STEP:  19 TIME =     0.02 SECS, INTEGRAL =      0.50 TIME LEFT: 172799.47
 STEP:  20 TIME =     0.02 SECS, INTEGRAL =      0.52 TIME LEFT: 172799.45
 STEP:  21 TIME =     0.02 SECS, INTEGRAL =      0.54 TIME LEFT: 172799.42
 STEP:  22 TIME =     0.03 SECS, INTEGRAL =      0.57 TIME LEFT: 172799.39
 STEP:  23 TIME =     0.02 SECS, INTEGRAL =      0.59 TIME LEFT: 172799.37
 STEP:  24 TIME =     0.02 SECS, INTEGRAL =      0.62 TIME LEFT: 172799.35
 STEP:  25 TIME =     0.02 SECS, INTEGRAL =      0.64 TIME LEFT: 172799.32
 STEP:  26 TIME =     0.03 SECS, INTEGRAL =      0.67 TIME LEFT: 172799.30
 STEP:  27 TIME =     0.02 SECS, INTEGRAL =      0.69 TIME LEFT: 172799.27
 STEP:  28 TIME =     0.02 SECS, INTEGRAL =      0.71 TIME LEFT: 172799.25
 STEP:  29 TIME =     0.02 SECS, INTEGRAL =      0.74 TIME LEFT: 172799.23
 STEP:  30 TIME =     0.02 SECS, INTEGRAL =      0.76 TIME LEFT: 172799.20
 STEP:  31 TIME =     0.02 SECS, INTEGRAL =      0.79 TIME LEFT: 172799.18
 STEP:  32 TIME =     0.02 SECS, INTEGRAL =      0.81 TIME LEFT: 172799.16
 STEP:  33 TIME =     0.04 SECS, INTEGRAL =      0.84 TIME LEFT: 172799.12
 STEP:  34 TIME =     0.03 SECS, INTEGRAL =      0.88 TIME LEFT: 172799.09
 STEP:  35 TIME =     0.03 SECS, INTEGRAL =      0.91 TIME LEFT: 172799.06
 STEP:  36 TIME =     0.03 SECS, INTEGRAL =      0.93 TIME LEFT: 172799.03
 STEP:  37 TIME =     0.03 SECS, INTEGRAL =      0.96 TIME LEFT: 172799.00
 STEP:  38 TIME =     0.03 SECS, INTEGRAL =      0.99 TIME LEFT: 172798.97
 STEP:  39 TIME =     0.03 SECS, INTEGRAL =      1.02 TIME LEFT: 172798.95
 STEP:  40 TIME =     0.02 SECS, INTEGRAL =      1.04 TIME LEFT: 172798.92
 STEP:  41 TIME =     0.02 SECS, INTEGRAL =      1.07 TIME LEFT: 172798.90
 STEP:  42 TIME =     0.02 SECS, INTEGRAL =      1.09 TIME LEFT: 172798.88
 STEP:  43 TIME =     0.02 SECS, INTEGRAL =      1.11 TIME LEFT: 172798.85
 STEP:  44 TIME =     0.02 SECS, INTEGRAL =      1.14 TIME LEFT: 172798.83
 STEP:  45 TIME =     0.02 SECS, INTEGRAL =      1.16 TIME LEFT: 172798.80
 STEP:  46 TIME =     0.02 SECS, INTEGRAL =      1.18 TIME LEFT: 172798.78
 STEP:  47 TIME =     0.02 SECS, INTEGRAL =      1.20 TIME LEFT: 172798.76
 STEP:  48 TIME =     0.03 SECS, INTEGRAL =      1.23 TIME LEFT: 172798.73

(To convert to Hartree/Bohr^2, multiply by (10^(-21) x N x a0^2)/(4.184 x 627.51) =  0.0642)


           FORCE MATRIX IN MILLIDYNES/ANGSTROM


                  C  1       C  2       C  3       C  4       C  5       C  6
 ------------------------------------------------------------------------------
     C    1  14.294893
     C    2   3.499621  14.623526
     C    3   3.500117   0.721422  14.625137
     C    4   4.364611   0.606918   0.606522  14.436540
     C    5   0.862463   4.754079   1.185041   0.033410  18.385714
     C    6   0.862550   1.184722   4.754568   0.033500  10.582205  18.386153
     H    7   4.315332   0.424011   0.423783   0.422712   0.025111   0.025189
     H    8   0.447659   4.483703   0.025331   0.061310   0.428526   0.037198
     H    9   0.435493   4.529730   0.029668   0.026601   0.431478   0.038855
     H   10   0.435436   0.029672   4.530032   0.026523   0.038821   0.431482
     H   11   0.447761   0.025409   4.483868   0.061130   0.037223   0.428391
     H   12   0.466963   0.020774   0.020970   4.716168   0.001480   0.001569
     H   13   0.451485   0.048002   0.019896   4.740295   0.005353   0.001888
     H   14   0.451399   0.020098   0.047744   4.738822   0.001823   0.005352
     H   15   0.042478   0.412565   0.115626   0.004455   5.021553   0.449898
     H   16   0.042446   0.115819   0.412524   0.004665   0.450074   5.021317


                  H  7       H  8       H  9       H 10       H 11       H 12
 ------------------------------------------------------------------------------
     H    7   4.768964
     H    8   0.027310   5.105374
     H    9   0.028780   0.570475   5.133229
     H   10   0.028781   0.003597   0.001161   5.133439
     H   11   0.027343   0.001279   0.003614   0.570487   5.105343
     H   12   0.046208   0.023051   0.001433   0.001469   0.023129   5.459734
     H   13   0.030834   0.002717   0.004234   0.001610   0.016902   0.572546
     H   14   0.030806   0.017126   0.001623   0.004173   0.002704   0.571964
     H   15   0.002722   0.014193   0.014944   0.015611   0.015631   0.000463
     H   16   0.002733   0.015560   0.015615   0.015071   0.014222   0.000491


                  H 13       H 14       H 15       H 16
 ------------------------------------------------------
     H   13   5.476075
     H   14   0.569564   5.475389
     H   15   0.001020   0.000502   5.418446
     H   16   0.000543   0.001019   0.048158   5.418849


          HEAT OF FORMATION =      -3.086731 KCALS/MOLE

          ZERO POINT ENERGY      90.036 KCAL/MOL


           NORMAL COORDINATE ANALYSIS (Total motion = 1 Angstrom)


   Root No.       1         2         3         4         5         6         7         8

                 1 A       2 A       3 A       4 A       5 A       6 A       7 A       8 A   

                  88.6     215.7     349.4     388.6     445.3     651.4     745.1     766.9
  
           1    0.0054    0.0059   -0.0214   -0.0197    0.0015    0.0356    0.0080    0.0416
           2    0.0074   -0.0043    0.0162    0.0150    0.0018    0.0469    0.0109   -0.0315
           3    0.0110   -0.0001    0.0000    0.0000    0.0567    0.0336    0.0141    0.0002
           4    0.0052    0.0061   -0.0224   -0.0213    0.0017    0.0373    0.0110   -0.0064
           5    0.0077    0.0038   -0.0026   -0.0011    0.0159   -0.0346   -0.0065   -0.0588
           6    0.0391    0.0092    0.0042    0.0259   -0.0197    0.0079   -0.0151    0.0014
           7    0.0061   -0.0020   -0.0034   -0.0046    0.0148   -0.0433   -0.0095    0.0547
           8    0.0073   -0.0068    0.0223    0.0209    0.0057    0.0267    0.0087    0.0220
           9    0.0392   -0.0076   -0.0043   -0.0260   -0.0198    0.0079   -0.0151   -0.0017
          10   -0.0225   -0.0005    0.0327    0.0309   -0.0344    0.0155   -0.0013    0.0109
          11   -0.0298   -0.0000   -0.0249   -0.0235   -0.0452    0.0204   -0.0016   -0.0083
          12   -0.0267   -0.0006    0.0001    0.0000    0.0173   -0.0218    0.0061    0.0000
          13    0.0042   -0.0023   -0.0016   -0.0031    0.0122   -0.0204   -0.0031   -0.1020
          14    0.0054    0.0065   -0.0086   -0.0105    0.0169   -0.0309   -0.0054   -0.0210
          15   -0.0330    0.0071    0.0515   -0.0244   -0.0066    0.0014   -0.0200    0.0024
          16    0.0042   -0.0070    0.0079    0.0093    0.0129   -0.0244   -0.0043   -0.0071
          17    0.0055    0.0005    0.0038    0.0058    0.0163   -0.0279   -0.0050    0.1038
          18   -0.0330   -0.0081   -0.0514    0.0245   -0.0066    0.0014   -0.0200   -0.0028
          19    0.0270    0.0104   -0.0362   -0.0218   -0.0068    0.0545    0.0033    0.0204
          20    0.0358   -0.0069    0.0274    0.0165   -0.0092    0.0716    0.0046   -0.0154
          21   -0.0128   -0.0005    0.0001    0.0000    0.0627    0.0113    0.0192    0.0002
          22   -0.0119    0.0045   -0.0251   -0.0443    0.0561    0.0741    0.0075    0.0223
          23    0.0624    0.0069   -0.0577    0.0591   -0.0305   -0.0864    0.0683   -0.0466
          24    0.0766    0.0116   -0.0243    0.0711   -0.0726   -0.0382    0.0290   -0.0028
          25    0.0220    0.0147   -0.0307   -0.0063   -0.0580   -0.0167    0.0126    0.0318
          26   -0.0441    0.0054    0.0383   -0.0685    0.0609   -0.0102   -0.0815   -0.0426
          27    0.0806    0.0122   -0.0270    0.0776   -0.0787   -0.0364    0.0359    0.0065
          28   -0.0483   -0.0036   -0.0448    0.0644    0.0741   -0.0054   -0.0821    0.0481
          29    0.0098   -0.0149    0.0192    0.0243   -0.0398   -0.0188   -0.0095   -0.0194
          30    0.0808   -0.0087    0.0266   -0.0778   -0.0787   -0.0364    0.0359   -0.0060
          31    0.0634   -0.0030    0.0487   -0.0690   -0.0445   -0.1031    0.0636    0.0519
          32    0.0055   -0.0065    0.0398    0.0269    0.0457    0.0483    0.0257   -0.0086
          33    0.0767   -0.0083    0.0239   -0.0713   -0.0727   -0.0382    0.0289    0.0033
          34   -0.0482    0.2170    0.0498    0.0581   -0.0742   -0.0228   -0.0237   -0.0138
          35   -0.0587   -0.1653   -0.0379   -0.0442   -0.0994   -0.0298   -0.0314    0.0100
          36   -0.0045   -0.0003    0.0001    0.0001    0.0535    0.0129    0.0266    0.0002
          37   -0.0224    0.0023    0.0327    0.0311   -0.0349    0.0155   -0.0016    0.0115
          38   -0.0321    0.2384   -0.0680   -0.0558   -0.0454    0.0212   -0.0029    0.0382
          39   -0.0544    0.1449    0.0394    0.0471   -0.0280   -0.0719   -0.0183   -0.0493
          40   -0.0195   -0.2285    0.0741    0.0620   -0.0367    0.0164   -0.0022   -0.0338
          41   -0.0287   -0.0666   -0.0134   -0.0151   -0.0463    0.0205   -0.0022   -0.0213
          42   -0.0514   -0.1468   -0.0394   -0.0470   -0.0292   -0.0716   -0.0187    0.0490
          43    0.0033   -0.0039    0.0049    0.0008    0.0139   -0.0328   -0.0009   -0.0875
          44    0.0039    0.0129   -0.0230   -0.0285    0.0114    0.0077    0.0144   -0.0732
          45   -0.0758    0.0152    0.1265   -0.0660   -0.0049   -0.0468    0.2286    0.0038
          46    0.0032   -0.0135    0.0235    0.0276    0.0070    0.0164    0.0136    0.0473
          47    0.0042    0.0002    0.0013    0.0069    0.0165   -0.0296    0.0023    0.1039
          48   -0.0756   -0.0178   -0.1264    0.0660   -0.0048   -0.0467    0.2288   -0.0002


   Root No.       9        10        11        12        13        14        15        16

                 9 A      10 A      11 A      12 A      13 A      14 A      15 A      16 A   

                 867.3     896.7     930.8     952.8     992.0    1022.5    1032.5    1075.4
  
           1    0.0006   -0.0095   -0.0088    0.0174    0.0048   -0.0037    0.0051   -0.0200
           2   -0.0004   -0.0125   -0.0115   -0.0134   -0.0036   -0.0048   -0.0039   -0.0256
           3    0.0000   -0.0175   -0.0055   -0.0000   -0.0000   -0.0166   -0.0000    0.0052
           4    0.0022    0.0524    0.0108   -0.0277   -0.0043    0.0020    0.0005    0.0031
           5   -0.0026   -0.0126   -0.0004    0.0244    0.0074    0.0019    0.0174    0.0131
           6   -0.0359   -0.0226    0.0247   -0.0013    0.0186    0.0150   -0.0130    0.0077
           7    0.0031   -0.0261   -0.0031   -0.0310   -0.0083    0.0014   -0.0166    0.0121
           8   -0.0015    0.0470    0.0102    0.0203    0.0021    0.0024   -0.0052    0.0064
           9    0.0359   -0.0226    0.0247    0.0015   -0.0185    0.0150    0.0130    0.0065
          10    0.0017   -0.0236   -0.0117    0.0309   -0.0048    0.0080   -0.0162    0.0106
          11   -0.0013   -0.0310   -0.0152   -0.0237    0.0037    0.0105    0.0123    0.0135
          12   -0.0000    0.0284   -0.0117   -0.0000    0.0000    0.0170    0.0000   -0.0192
          13    0.0008   -0.0023   -0.0004    0.0078   -0.0031   -0.0035   -0.0074   -0.0176
          14    0.0020   -0.0018    0.0006   -0.0078   -0.0059   -0.0028   -0.0143   -0.0123
          15   -0.0040    0.0122   -0.0183    0.0017   -0.0379   -0.0170    0.0079    0.0010
          16   -0.0017   -0.0012    0.0006    0.0096    0.0049   -0.0017    0.0118   -0.0071
          17   -0.0013   -0.0026   -0.0001   -0.0055    0.0046   -0.0041    0.0110   -0.0203
          18    0.0040    0.0122   -0.0182   -0.0019    0.0378   -0.0173   -0.0079    0.0058
          19   -0.0490   -0.0120    0.0348    0.0530    0.0828   -0.0323    0.0637   -0.0839
          20    0.0372   -0.0158    0.0460   -0.0400   -0.0630   -0.0419   -0.0484   -0.1051
          21    0.0001   -0.0095   -0.0513   -0.0002    0.0000    0.0150   -0.0000    0.0707
          22   -0.0447    0.0150    0.0606   -0.0336    0.0852   -0.0635    0.0091    0.1107
          23    0.1031    0.0306   -0.0533    0.0274    0.0062   -0.0840    0.0668    0.1018
          24    0.0462    0.0191   -0.0295    0.0034   -0.0259   -0.0014    0.0098    0.0026
          25    0.0532    0.1513   -0.0185   -0.0146   -0.0887    0.0975    0.0860    0.0160
          26   -0.0988   -0.0135    0.0633    0.0389    0.0149    0.1126    0.0601    0.0673
          27    0.0540    0.0264   -0.0324   -0.0049   -0.0287   -0.0110    0.0005   -0.0181
          28    0.1093   -0.0533    0.0662   -0.0409   -0.0379    0.0828   -0.0351    0.0501
          29   -0.0250    0.1422   -0.0010    0.0042    0.0817    0.1245   -0.0992    0.0086
          30   -0.0540    0.0264   -0.0325    0.0047    0.0287   -0.0111   -0.0004   -0.0184
          31   -0.1113    0.0255   -0.0675   -0.0358    0.0164   -0.0643   -0.0621    0.0794
          32    0.0154    0.0225    0.0441    0.0254   -0.0845   -0.0842   -0.0271    0.1554
          33   -0.0462    0.0191   -0.0295   -0.0036    0.0259   -0.0013   -0.0098    0.0014
          34   -0.0104    0.0021    0.0742   -0.0426    0.0109   -0.0603    0.0214   -0.0013
          35    0.0078    0.0023    0.0973    0.0330   -0.0085   -0.0794   -0.0164   -0.0010
          36    0.0000    0.0054   -0.0894   -0.0004    0.0002    0.0791    0.0002   -0.0109
          37    0.0013   -0.0243   -0.0105    0.0311   -0.0045    0.0067   -0.0162    0.0107
          38    0.0189   -0.0381   -0.0109    0.1250   -0.0206    0.0026   -0.0576    0.0222
          39   -0.0186    0.0780    0.0874   -0.1422    0.0215   -0.0553    0.0674   -0.0530
          40   -0.0178   -0.0302   -0.0069   -0.1119    0.0186    0.0007    0.0510    0.0182
          41   -0.0063   -0.0334   -0.0125   -0.0635    0.0099    0.0071    0.0310    0.0157
          42    0.0185    0.0773    0.0863    0.1431   -0.0218   -0.0552   -0.0675   -0.0525
          43    0.0019   -0.0238   -0.0026    0.0284    0.0112   -0.0050    0.0253   -0.0386
          44    0.0144    0.0692    0.0193   -0.0778   -0.0331    0.0088   -0.1257    0.0574
          45    0.1476   -0.0621    0.0714   -0.0094    0.1582    0.0438   -0.0195    0.0018
          46   -0.0133    0.0731    0.0188    0.0831    0.0353    0.0096    0.1283    0.0641
          47   -0.0057   -0.0044    0.0027   -0.0065   -0.0019   -0.0024    0.0093   -0.0222
          48   -0.1475   -0.0624    0.0711    0.0101   -0.1579    0.0446    0.0196   -0.0076


   Root No.      17        18        19        20        21        22        23        24

                17 A      18 A      19 A      20 A      21 A      22 A      23 A      24 A   

                1076.7    1100.5    1122.8    1126.1    1163.8    1241.6    1267.7    1284.1
  
           1    0.0040   -0.0069    0.0126    0.0107    0.0190    0.0211    0.0769   -0.0284
           2   -0.0065   -0.0090   -0.0099    0.0138    0.0250   -0.0160   -0.0583   -0.0376
           3    0.0005   -0.0073   -0.0001   -0.0009    0.0424   -0.0000   -0.0001    0.0493
           4   -0.0008    0.0034   -0.0187   -0.0237   -0.0103    0.0139   -0.0463   -0.0145
           5    0.0035   -0.0129   -0.0046    0.0193    0.0086    0.0135   -0.0073   -0.0256
           6   -0.0079    0.0075   -0.0150   -0.0076   -0.0111    0.0007    0.0044   -0.0094
           7   -0.0015   -0.0133   -0.0011    0.0250    0.0110   -0.0093   -0.0053   -0.0208
           8    0.0009   -0.0003    0.0196   -0.0173   -0.0076   -0.0170    0.0466   -0.0207
           9    0.0090    0.0074    0.0152   -0.0073   -0.0111   -0.0007   -0.0043   -0.0094
          10   -0.0022    0.0036   -0.0060   -0.0024   -0.0067   -0.0051   -0.0159    0.0069
          11    0.0035    0.0047    0.0047   -0.0031   -0.0088    0.0039    0.0121    0.0092
          12   -0.0017   -0.0063   -0.0002    0.0194   -0.0329   -0.0000    0.0000   -0.0055
          13   -0.0019    0.0131    0.0054   -0.0212   -0.0088   -0.0025    0.0148    0.0153
          14   -0.0001    0.0159    0.0058   -0.0159   -0.0086    0.0269    0.0021    0.0192
          15    0.0326   -0.0017    0.0031    0.0021   -0.0013   -0.0017   -0.0013   -0.0005
          16   -0.0016    0.0117   -0.0038   -0.0099   -0.0060   -0.0265    0.0019    0.0145
          17   -0.0016    0.0169   -0.0061   -0.0248   -0.0108   -0.0047   -0.0149    0.0199
          18   -0.0319   -0.0017   -0.0031    0.0020   -0.0013    0.0017    0.0013   -0.0005
          19    0.0283   -0.0619    0.2305    0.1216   -0.0551   -0.0654   -0.1359    0.0756
          20   -0.0359   -0.0793   -0.1780    0.1554   -0.0728    0.0497    0.1031    0.1000
          21    0.0061    0.0496    0.0012   -0.1188    0.1258    0.0001    0.0001   -0.0644
          22    0.1336   -0.0377   -0.1071   -0.0341   -0.1076   -0.0818   -0.0150    0.0195
          23    0.1218   -0.0757   -0.0556    0.0470   -0.0145   -0.0887    0.0558   -0.0091
          24   -0.0081   -0.0062    0.0009    0.0093    0.0234   -0.0065    0.0223   -0.0129
          25   -0.1460   -0.0769   -0.0186   -0.0083    0.0702   -0.0682   -0.0209    0.1101
          26   -0.1109   -0.0750   -0.0570    0.0426    0.0403   -0.0768    0.0631    0.0056
          27   -0.0038    0.0087    0.0162   -0.0134    0.0093    0.0175   -0.0256    0.0275
          28    0.0768   -0.0518    0.0488    0.0446    0.0200    0.0557   -0.0664   -0.0243
          29    0.1734   -0.0941    0.0324    0.0043    0.0782    0.0864    0.0027    0.1076
          30    0.0007    0.0088   -0.0160   -0.0138    0.0092   -0.0175    0.0255    0.0276
          31   -0.0686   -0.0628    0.0234    0.0551    0.0149    0.0633   -0.0577   -0.0141
          32   -0.1360   -0.0573    0.1180   -0.0176   -0.1072    0.1024   -0.0005    0.0164
          33    0.0086   -0.0061   -0.0012    0.0093    0.0234    0.0064   -0.0222   -0.0130
          34    0.0042   -0.0039    0.0182   -0.0131    0.0695    0.0027    0.0207    0.0476
          35   -0.0029   -0.0049   -0.0139   -0.0177    0.0915   -0.0020   -0.0160    0.0627
          36   -0.0012   -0.0000   -0.0000    0.0307   -0.1021    0.0000    0.0002   -0.0495
          37   -0.0024    0.0028   -0.0048   -0.0015   -0.0061   -0.0050   -0.0151    0.0136
          38   -0.0035    0.0028   -0.0328   -0.0046    0.0022   -0.0173   -0.0543    0.0600
          39    0.0003   -0.0149    0.0354    0.0107    0.0465    0.0230    0.0587   -0.0974
          40    0.0059    0.0016    0.0303   -0.0035    0.0040    0.0150    0.0478    0.0546
          41    0.0059    0.0033    0.0135   -0.0024   -0.0051    0.0094    0.0289    0.0294
          42   -0.0089   -0.0144   -0.0361    0.0100    0.0464   -0.0230   -0.0586   -0.0976
          43   -0.0024   -0.0344   -0.0131   -0.0741   -0.0200    0.0442   -0.0041    0.0142
          44   -0.0092    0.1826    0.0650    0.1570    0.0261   -0.1334    0.0669    0.0296
          45   -0.0639   -0.0008   -0.0084   -0.0077    0.0003    0.0040   -0.0013   -0.0032
          46    0.0193    0.1853   -0.0677    0.1698    0.0303    0.1398   -0.0656    0.0246
          47    0.0010    0.0157   -0.0041   -0.0296   -0.0123   -0.0068   -0.0140    0.0216
          48    0.0633   -0.0005    0.0085   -0.0074    0.0003   -0.0039    0.0013   -0.0032


   Root No.      25        26        27        28        29        30        31        32

                25 A      26 A      27 A      28 A      29 A      30 A      31 A      32 A   

                1371.8    1371.9    1405.9    1406.9    1410.4    1414.5    1420.4    1829.8
  
           1   -0.0106   -0.0194   -0.0025    0.0016    0.0088   -0.0073    0.0328    0.0056
           2   -0.0027   -0.0283   -0.0032    0.0021   -0.0067    0.0055    0.0432    0.0074
           3    0.0024    0.0098    0.0024   -0.0049    0.0000    0.0000   -0.0401   -0.0020
           4   -0.0222    0.0398    0.0183   -0.0005   -0.0022    0.0067   -0.0185    0.0065
           5   -0.0126    0.0416   -0.0352    0.0021    0.0322   -0.0204   -0.0133   -0.0182
           6    0.0002   -0.0037    0.0005    0.0004   -0.0007    0.0003    0.0064    0.0004
           7    0.0192    0.0233   -0.0386    0.0021   -0.0317    0.0217   -0.0080   -0.0193
           8    0.0451    0.0326    0.0082    0.0001   -0.0064   -0.0010   -0.0214    0.0014
           9   -0.0019   -0.0032    0.0005    0.0004    0.0007   -0.0003    0.0064    0.0004
          10   -0.0026   -0.0049   -0.0013   -0.0230   -0.0145   -0.0154   -0.0292   -0.0007
          11   -0.0007   -0.0071   -0.0018   -0.0304    0.0110    0.0117   -0.0383   -0.0009
          12    0.0044    0.0177    0.0026   -0.0182   -0.0001   -0.0001    0.0586    0.0012
          13    0.0109   -0.0162    0.0094   -0.0005   -0.0051    0.0018    0.0035   -0.1683
          14    0.0345   -0.0240    0.0078   -0.0007   -0.0268    0.0151    0.0023    0.1601
          15   -0.0010    0.0010   -0.0006   -0.0001    0.0009   -0.0006   -0.0005   -0.0011
          16   -0.0357   -0.0028    0.0048   -0.0006    0.0245   -0.0140    0.0014    0.1993
          17   -0.0278   -0.0105    0.0111   -0.0007    0.0122   -0.0058    0.0040   -0.1193
          18    0.0013    0.0004   -0.0006   -0.0001   -0.0009    0.0006   -0.0005   -0.0010
          19    0.0238    0.0090    0.0089   -0.0044   -0.0340    0.0161   -0.0444    0.0009
          20   -0.0108    0.0221    0.0115   -0.0058    0.0259   -0.0122   -0.0583    0.0011
          21   -0.0068   -0.0272   -0.0098    0.0006   -0.0000   -0.0000    0.0429    0.0052
          22    0.0987   -0.1153   -0.1054    0.0063    0.0309   -0.0427    0.0624   -0.0182
          23   -0.0482   -0.0375    0.1140   -0.0092   -0.0653    0.0503    0.0182   -0.0281
          24   -0.0663    0.0237    0.1206   -0.0075   -0.0586    0.0533   -0.0132    0.0013
          25    0.0934   -0.0893   -0.0922    0.0022    0.0300   -0.0348    0.0148   -0.0185
          26   -0.0468   -0.0325    0.1081   -0.0072   -0.0597    0.0477    0.0132   -0.0300
          27    0.0673   -0.0143   -0.1255    0.0064    0.0639   -0.0546    0.0032    0.0015
          28    0.0587   -0.0385    0.1281   -0.0075    0.0660   -0.0558    0.0089   -0.0240
          29   -0.1130   -0.0486   -0.0596    0.0003   -0.0132    0.0210    0.0178   -0.0259
          30   -0.0665    0.0180   -0.1249    0.0064   -0.0644    0.0551    0.0030    0.0015
          31    0.0622   -0.0378    0.1373   -0.0104    0.0716   -0.0604    0.0010   -0.0221
          32   -0.1295   -0.0698   -0.0707    0.0037   -0.0127    0.0279    0.0649   -0.0250
          33    0.0700   -0.0091    0.1199   -0.0075    0.0590   -0.0537   -0.0131    0.0014
          34    0.0403    0.0495    0.0093   -0.0809    0.1227    0.1718    0.1073    0.0010
          35   -0.0018    0.0786    0.0120   -0.1040   -0.0936   -0.1309    0.1404    0.0013
          36   -0.0123   -0.0496   -0.0070    0.0640    0.0003    0.0003   -0.0904   -0.0004
          37    0.0013    0.0029    0.0011   -0.0026   -0.0063   -0.0034   -0.0126   -0.0004
          38    0.0088    0.0513    0.0228    0.3578   -0.0389   -0.0455    0.0626    0.0008
          39   -0.0515   -0.0961   -0.0151    0.1028   -0.0808   -0.1257   -0.1471   -0.0001
          40    0.0158    0.0471    0.0218    0.3455    0.0365    0.0438    0.0642    0.0009
          41    0.0046    0.0163    0.0073    0.0941    0.0169    0.0159    0.0048   -0.0002
          42    0.0007   -0.1086   -0.0149    0.1011    0.0814    0.1264   -0.1462   -0.0001
          43    0.0389   -0.0185    0.0144   -0.0007   -0.0259    0.0142    0.0005   -0.1392
          44   -0.0607   -0.0203   -0.0023   -0.0003    0.0436   -0.0271    0.0123   -0.0967
          45    0.0008    0.0010   -0.0001    0.0000   -0.0007    0.0006    0.0006    0.0063
          46    0.0541   -0.0442   -0.0057    0.0000   -0.0490    0.0299    0.0116   -0.0561
          47   -0.0297   -0.0110    0.0132   -0.0008    0.0133   -0.0065    0.0038   -0.1599
          48   -0.0002    0.0012   -0.0001    0.0001    0.0006   -0.0005    0.0006    0.0062


   Root No.      33        34        35        36        37        38        39        40

                33 A      34 A      35 A      36 A      37 A      38 A      39 A      40 A   

                2904.1    2972.4    2973.6    3051.0    3051.9    3078.3    3083.4    3116.1
  
           1   -0.0201   -0.0002   -0.0013    0.0006    0.0001   -0.0006   -0.0003   -0.0001
           2   -0.0264    0.0001   -0.0017   -0.0005    0.0001   -0.0007    0.0002    0.0001
           3   -0.0502   -0.0001   -0.0034   -0.0000   -0.0004   -0.0014   -0.0000   -0.0000
           4   -0.0009   -0.0011   -0.0011    0.0135    0.0125    0.0004    0.0001    0.0002
           5    0.0004    0.0000    0.0001   -0.0173   -0.0159   -0.0003    0.0003   -0.0001
           6    0.0053   -0.0310   -0.0283   -0.0017   -0.0016   -0.0003   -0.0005   -0.0001
           7    0.0006   -0.0003    0.0004    0.0191   -0.0198   -0.0004   -0.0003    0.0001
           8   -0.0007    0.0010   -0.0011   -0.0079    0.0083    0.0003   -0.0002   -0.0002
           9    0.0053    0.0298   -0.0294    0.0016   -0.0017   -0.0003    0.0005    0.0001
          10    0.0013    0.0000    0.0000   -0.0002    0.0003   -0.0229   -0.0458   -0.0001
          11    0.0017   -0.0000    0.0000    0.0001    0.0004   -0.0312    0.0342    0.0000
          12    0.0010    0.0000    0.0003    0.0000    0.0006   -0.0317   -0.0005   -0.0000
          13    0.0002    0.0000    0.0000   -0.0007   -0.0009   -0.0001   -0.0000    0.0366
          14    0.0001    0.0000    0.0001   -0.0004   -0.0006   -0.0000   -0.0000    0.0106
          15   -0.0000    0.0001   -0.0002    0.0000    0.0000   -0.0000    0.0000   -0.0011
          16    0.0001   -0.0000    0.0001    0.0002   -0.0004   -0.0000    0.0000   -0.0005
          17    0.0002   -0.0000    0.0000    0.0007   -0.0011   -0.0001    0.0000   -0.0379
          18   -0.0000   -0.0001   -0.0002   -0.0000    0.0000   -0.0000   -0.0000    0.0011
          19    0.2405    0.0030    0.0170    0.0011    0.0025    0.0043   -0.0011   -0.0001
          20    0.3163   -0.0016    0.0225   -0.0007    0.0034    0.0056    0.0009    0.0001
          21    0.6066    0.0008    0.0383    0.0002    0.0059    0.0178    0.0002    0.0000
          22   -0.0115    0.0989    0.0905   -0.0779   -0.0703   -0.0001    0.0029   -0.0004
          23    0.0162   -0.1127   -0.1032    0.0873    0.0790    0.0009   -0.0012    0.0026
          24   -0.0299    0.2057    0.1880   -0.1917   -0.1736   -0.0035    0.0033   -0.0034
          25    0.0115   -0.0840   -0.0765   -0.0888   -0.0806   -0.0024    0.0002   -0.0007
          26   -0.0221    0.1126    0.1023    0.1202    0.1092    0.0030    0.0001    0.0034
          27   -0.0334    0.1676    0.1520    0.2120    0.1925    0.0054   -0.0002    0.0039
          28   -0.0244   -0.1260    0.1239   -0.1318    0.1346    0.0037   -0.0001   -0.0034
          29    0.0052    0.0489   -0.0481    0.0504   -0.0513   -0.0015   -0.0002   -0.0003
          30   -0.0334   -0.1612    0.1581   -0.1999    0.2042    0.0055    0.0001   -0.0039
          31    0.0187    0.1298   -0.1285   -0.0989    0.1006    0.0009    0.0019   -0.0026
          32   -0.0068   -0.0627    0.0620    0.0488   -0.0495    0.0002   -0.0024   -0.0003
          33   -0.0299   -0.1980    0.1956    0.1808   -0.1841   -0.0035   -0.0033    0.0035
          34   -0.0074   -0.0004   -0.0010    0.0001   -0.0025    0.1408   -0.0214   -0.0000
          35   -0.0098    0.0003   -0.0014   -0.0002   -0.0033    0.1855    0.0204    0.0001
          36   -0.0135   -0.0000   -0.0012   -0.0001   -0.0075    0.4005    0.0056    0.0000
          37   -0.0108   -0.0027   -0.0029    0.0021   -0.0015    0.2151    0.4516    0.0006
          38    0.0023    0.0002   -0.0001   -0.0003    0.0005   -0.0228    0.0036    0.0000
          39   -0.0031    0.0000   -0.0000    0.0002    0.0002   -0.0103    0.0129    0.0000
          40    0.0051   -0.0009    0.0007    0.0009    0.0009   -0.0821    0.1164    0.0001
          41   -0.0098    0.0025   -0.0030   -0.0020   -0.0014    0.2097   -0.4317   -0.0004
          42   -0.0031   -0.0001   -0.0000   -0.0002    0.0002   -0.0102   -0.0128   -0.0000
          43    0.0022    0.0001   -0.0002    0.0046    0.0151    0.0010    0.0005   -0.4340
          44    0.0010    0.0000   -0.0000    0.0005    0.0033    0.0003    0.0001   -0.1280
          45   -0.0000   -0.0003   -0.0010   -0.0001   -0.0005   -0.0000   -0.0000    0.0136
          46    0.0004   -0.0000    0.0000    0.0007   -0.0009   -0.0000    0.0000    0.0073
          47    0.0023   -0.0002   -0.0003   -0.0037    0.0158    0.0009   -0.0004    0.4499
          48   -0.0000    0.0003   -0.0010    0.0001   -0.0005   -0.0000    0.0000   -0.0136


   Root No.      41        42

                41 A      42 A   

                3135.1    3178.8
  
           1    0.0006   -0.0003
           2    0.0008   -0.0004
           3    0.0001    0.0003
           4   -0.0012   -0.0000
           5    0.0018    0.0001
           6    0.0000   -0.0002
           7    0.0021    0.0001
           8   -0.0007   -0.0000
           9    0.0000   -0.0002
          10    0.0000   -0.0099
          11    0.0000   -0.0129
          12    0.0001    0.0184
          13   -0.0401   -0.0000
          14   -0.0062   -0.0000
          15    0.0011    0.0000
          16    0.0047    0.0000
          17   -0.0405   -0.0000
          18    0.0011    0.0000
          19   -0.0007    0.0003
          20   -0.0010    0.0004
          21   -0.0019    0.0028
          22    0.0039    0.0002
          23   -0.0062   -0.0014
          24    0.0116    0.0027
          25    0.0044    0.0002
          26   -0.0080   -0.0003
          27   -0.0122   -0.0007
          28   -0.0089   -0.0004
          29    0.0021    0.0001
          30   -0.0123   -0.0007
          31   -0.0070   -0.0014
          32    0.0021   -0.0001
          33    0.0117    0.0028
          34   -0.0001   -0.1027
          35   -0.0001   -0.1355
          36   -0.0003   -0.2603
          37   -0.0007    0.3259
          38    0.0000   -0.0154
          39    0.0000    0.0172
          40    0.0002   -0.1021
          41   -0.0006    0.3088
          42    0.0000    0.0169
          43    0.4076    0.0002
          44    0.1175    0.0001
          45   -0.0127   -0.0000
          46    0.0044    0.0000
          47    0.4266    0.0002
          48   -0.0128    0.0000


           MASS-WEIGHTED COORDINATE ANALYSIS (NORMAL COORDINATES)


   Root No.       1         2         3         4         5         6         7         8

                 1 A       2 A       3 A       4 A       5 A       6 A       7 A       8 A   

                  88.6     215.7     349.4     388.6     445.3     651.4     745.1     766.9
  
           1    0.0469    0.0419   -0.1764   -0.1815    0.0119    0.2593    0.0692    0.2211
           2    0.0637   -0.0305    0.1340    0.1380    0.0147    0.3413    0.0936   -0.1672
           3    0.0954   -0.0007    0.0004    0.0002    0.4569    0.2450    0.1218    0.0008
           4    0.0454    0.0432   -0.1847   -0.1961    0.0138    0.2717    0.0946   -0.0339
           5    0.0667    0.0268   -0.0218   -0.0104    0.1277   -0.2520   -0.0559   -0.3122
           6    0.3385    0.0650    0.0344    0.2379   -0.1589    0.0573   -0.1297    0.0073
           7    0.0525   -0.0141   -0.0282   -0.0424    0.1194   -0.3157   -0.0818    0.2907
           8    0.0636   -0.0478    0.1838    0.1918    0.0462    0.1943    0.0749    0.1169
           9    0.3396   -0.0538   -0.0357   -0.2387   -0.1592    0.0574   -0.1298   -0.0089
          10   -0.1953   -0.0033    0.2700    0.2841   -0.2773    0.1129   -0.0113    0.0577
          11   -0.2580   -0.0001   -0.2053   -0.2160   -0.3636    0.1485   -0.0142   -0.0439
          12   -0.2309   -0.0042    0.0005    0.0003    0.1393   -0.1591    0.0523    0.0003
          13    0.0365   -0.0165   -0.0128   -0.0286    0.0986   -0.1483   -0.0264   -0.5418
          14    0.0467    0.0462   -0.0707   -0.0964    0.1359   -0.2254   -0.0462   -0.1117
          15   -0.2862    0.0502    0.4250   -0.2247   -0.0535    0.0104   -0.1727    0.0130
          16    0.0368   -0.0491    0.0649    0.0853    0.1038   -0.1774   -0.0373   -0.0377
          17    0.0478    0.0033    0.0312    0.0535    0.1312   -0.2035   -0.0434    0.5514
          18   -0.2855   -0.0574   -0.4243    0.2252   -0.0534    0.0104   -0.1726   -0.0147
          19    0.0677    0.0212   -0.0865   -0.0580   -0.0160    0.1150    0.0082    0.0314
          20    0.0899   -0.0141    0.0656    0.0440   -0.0214    0.1511    0.0114   -0.0237
          21   -0.0322   -0.0011    0.0002    0.0001    0.1462    0.0238    0.0479    0.0003
          22   -0.0300    0.0092   -0.0600   -0.1180    0.1309    0.1564    0.0187    0.0344
          23    0.1565    0.0141   -0.1380    0.1574   -0.0712   -0.1823    0.1703   -0.0717
          24    0.1922    0.0237   -0.0580    0.1896   -0.1694   -0.0807    0.0723   -0.0043
          25    0.0552    0.0300   -0.0734   -0.0167   -0.1352   -0.0351    0.0315    0.0490
          26   -0.1108    0.0111    0.0915   -0.1825    0.1420   -0.0214   -0.2034   -0.0655
          27    0.2022    0.0250   -0.0644    0.2068   -0.1835   -0.0768    0.0895    0.0101
          28   -0.1213   -0.0074   -0.1071    0.1717    0.1728   -0.0114   -0.2049    0.0741
          29    0.0246   -0.0305    0.0460    0.0648   -0.0928   -0.0396   -0.0238   -0.0299
          30    0.2027   -0.0178    0.0636   -0.2074   -0.1836   -0.0768    0.0895   -0.0092
          31    0.1592   -0.0061    0.1164   -0.1838   -0.1038   -0.2176    0.1587    0.0799
          32    0.0137   -0.0134    0.0951    0.0717    0.1067    0.1020    0.0642   -0.0133
          33    0.1925   -0.0169    0.0571   -0.1901   -0.1695   -0.0806    0.0721    0.0050
          34   -0.1209    0.4442    0.1191    0.1549   -0.1730   -0.0482   -0.0591   -0.0213
          35   -0.1472   -0.3384   -0.0907   -0.1178   -0.2319   -0.0628   -0.0784    0.0154
          36   -0.0113   -0.0006    0.0002    0.0002    0.1249    0.0272    0.0663    0.0004
          37   -0.0561    0.0048    0.0782    0.0828   -0.0814    0.0326   -0.0039    0.0176
          38   -0.0806    0.4880   -0.1624   -0.1486   -0.1060    0.0447   -0.0072    0.0588
          39   -0.1366    0.2966    0.0942    0.1254   -0.0653   -0.1518   -0.0456   -0.0759
          40   -0.0490   -0.4678    0.1772    0.1652   -0.0856    0.0346   -0.0055   -0.0520
          41   -0.0721   -0.1362   -0.0320   -0.0401   -0.1081    0.0434   -0.0054   -0.0328
          42   -0.1290   -0.3005   -0.0941   -0.1253   -0.0681   -0.1512   -0.0467    0.0753
          43    0.0083   -0.0080    0.0118    0.0021    0.0325   -0.0693   -0.0023   -0.1346
          44    0.0097    0.0263   -0.0549   -0.0758    0.0266    0.0162    0.0359   -0.1127
          45   -0.1902    0.0310    0.3024   -0.1758   -0.0113   -0.0987    0.5705    0.0059
          46    0.0081   -0.0276    0.0562    0.0737    0.0164    0.0345    0.0339    0.0727
          47    0.0106    0.0005    0.0032    0.0183    0.0384   -0.0625    0.0058    0.1599
          48   -0.1898   -0.0364   -0.3021    0.1758   -0.0112   -0.0986    0.5709   -0.0003


   Root No.       9        10        11        12        13        14        15        16

                 9 A      10 A      11 A      12 A      13 A      14 A      15 A      16 A   

                 867.3     896.7     930.8     952.8     992.0    1022.5    1032.5    1075.4
  
           1    0.0055   -0.0724   -0.0896    0.1494    0.0433   -0.0373    0.0527   -0.1861
           2   -0.0040   -0.0953   -0.1172   -0.1147   -0.0327   -0.0485   -0.0396   -0.2373
           3    0.0001   -0.1337   -0.0556   -0.0002   -0.0002   -0.1663   -0.0002    0.0480
           4    0.0204    0.3993    0.1103   -0.2378   -0.0391    0.0197    0.0052    0.0287
           5   -0.0239   -0.0964   -0.0039    0.2097    0.0675    0.0189    0.1789    0.1215
           6   -0.3295   -0.1721    0.2510   -0.0112    0.1681    0.1498   -0.1339    0.0716
           7    0.0285   -0.1994   -0.0313   -0.2659   -0.0755    0.0138   -0.1708    0.1125
           8   -0.0135    0.3584    0.1043    0.1745    0.0192    0.0236   -0.0534    0.0592
           9    0.3293   -0.1720    0.2513    0.0127   -0.1677    0.1503    0.1338    0.0603
          10    0.0156   -0.1803   -0.1188    0.2651   -0.0435    0.0802   -0.1662    0.0984
          11   -0.0118   -0.2362   -0.1543   -0.2032    0.0335    0.1056    0.1267    0.1256
          12   -0.0000    0.2165   -0.1191   -0.0001    0.0004    0.1700    0.0003   -0.1778
          13    0.0076   -0.0172   -0.0038    0.0671   -0.0276   -0.0352   -0.0760   -0.1636
          14    0.0182   -0.0138    0.0059   -0.0669   -0.0535   -0.0277   -0.1466   -0.1146
          15   -0.0365    0.0929   -0.1859    0.0143   -0.3431   -0.1704    0.0809    0.0097
          16   -0.0154   -0.0090    0.0062    0.0825    0.0442   -0.0175    0.1212   -0.0655
          17   -0.0120   -0.0200   -0.0014   -0.0469    0.0413   -0.0414    0.1127   -0.1882
          18    0.0365    0.0932   -0.1856   -0.0161    0.3423   -0.1730   -0.0812    0.0536
          19   -0.1303   -0.0264    0.1027    0.1316    0.2174   -0.0936    0.1896   -0.2256
          20    0.0989   -0.0349    0.1357   -0.0995   -0.1654   -0.1215   -0.1441   -0.2825
          21    0.0001   -0.0210   -0.1514   -0.0005    0.0000    0.0434   -0.0001    0.1901
          22   -0.1189    0.0331    0.1788   -0.0836    0.2236   -0.1841    0.0271    0.2977
          23    0.2742    0.0677   -0.1572    0.0680    0.0163   -0.2435    0.1989    0.2738
          24    0.1230    0.0421   -0.0871    0.0085   -0.0679   -0.0039    0.0293    0.0071
          25    0.1416    0.3342   -0.0544   -0.0364   -0.2329    0.2828    0.2558    0.0431
          26   -0.2629   -0.0298    0.1867    0.0967    0.0390    0.3265    0.1790    0.1810
          27    0.1436    0.0584   -0.0956   -0.0121   -0.0754   -0.0318    0.0015   -0.0486
          28    0.2908   -0.1178    0.1952   -0.1015   -0.0995    0.2401   -0.1045    0.1348
          29   -0.0664    0.3141   -0.0029    0.0104    0.2144    0.3611   -0.2952    0.0232
          30   -0.1435    0.0584   -0.0958    0.0116    0.0753   -0.0321   -0.0012   -0.0496
          31   -0.2961    0.0564   -0.1989   -0.0889    0.0432   -0.1863   -0.1849    0.2134
          32    0.0409    0.0497    0.1301    0.0632   -0.2217   -0.2442   -0.0808    0.4178
          33   -0.1228    0.0421   -0.0871   -0.0089    0.0679   -0.0039   -0.0292    0.0037
          34   -0.0278    0.0046    0.2188   -0.1058    0.0285   -0.1750    0.0638   -0.0034
          35    0.0208    0.0052    0.2870    0.0819   -0.0224   -0.2302   -0.0489   -0.0026
          36    0.0001    0.0119   -0.2635   -0.0011    0.0005    0.2295    0.0005   -0.0293
          37    0.0034   -0.0536   -0.0310    0.0772   -0.0118    0.0194   -0.0481    0.0287
          38    0.0503   -0.0842   -0.0321    0.3105   -0.0541    0.0075   -0.1714    0.0597
          39   -0.0494    0.1723    0.2576   -0.3534    0.0564   -0.1603    0.2005   -0.1424
          40   -0.0474   -0.0666   -0.0202   -0.2781    0.0489    0.0019    0.1519    0.0489
          41   -0.0167   -0.0737   -0.0369   -0.1579    0.0260    0.0205    0.0922    0.0423
          42    0.0491    0.1708    0.2544    0.3556   -0.0572   -0.1600   -0.2009   -0.1412
          43    0.0051   -0.0526   -0.0077    0.0704    0.0294   -0.0145    0.0752   -0.1037
          44    0.0382    0.1528    0.0568   -0.1932   -0.0870    0.0255   -0.3742    0.1542
          45    0.3925   -0.1373    0.2104   -0.0233    0.4154    0.1271   -0.0579    0.0049
          46   -0.0353    0.1615    0.0554    0.2064    0.0927    0.0278    0.3819    0.1723
          47   -0.0152   -0.0098    0.0080   -0.0162   -0.0051   -0.0071    0.0276   -0.0598
          48   -0.3924   -0.1378    0.2097    0.0252   -0.4143    0.1292    0.0585   -0.0205


   Root No.      17        18        19        20        21        22        23        24

                17 A      18 A      19 A      20 A      21 A      22 A      23 A      24 A   

                1076.7    1100.5    1122.8    1126.1    1163.8    1241.6    1267.7    1284.1
  
           1    0.0341   -0.0640    0.1101    0.0882    0.1692    0.1990    0.5379   -0.2316
           2   -0.0555   -0.0831   -0.0863    0.1137    0.2224   -0.1510   -0.4080   -0.3066
           3    0.0046   -0.0673   -0.0007   -0.0073    0.3772   -0.0001   -0.0008    0.4026
           4   -0.0069    0.0314   -0.1637   -0.1956   -0.0914    0.1312   -0.3234   -0.1183
           5    0.0296   -0.1197   -0.0406    0.1596    0.0762    0.1271   -0.0508   -0.2089
           6   -0.0674    0.0699   -0.1310   -0.0631   -0.0987    0.0066    0.0306   -0.0770
           7   -0.0127   -0.1229   -0.0097    0.2064    0.0980   -0.0879   -0.0369   -0.1699
           8    0.0080   -0.0029    0.1713   -0.1430   -0.0672   -0.1607    0.3258   -0.1689
           9    0.0769    0.0687    0.1331   -0.0605   -0.0985   -0.0063   -0.0304   -0.0770
          10   -0.0191    0.0334   -0.0529   -0.0202   -0.0596   -0.0481   -0.1114    0.0564
          11    0.0298    0.0432    0.0414   -0.0254   -0.0782    0.0368    0.0847    0.0747
          12   -0.0147   -0.0581   -0.0013    0.1600   -0.2930   -0.0000    0.0002   -0.0453
          13   -0.0164    0.1219    0.0470   -0.1748   -0.0779   -0.0233    0.1036    0.1252
          14   -0.0009    0.1472    0.0503   -0.1317   -0.0769    0.2535    0.0144    0.1570
          15    0.2775   -0.0157    0.0271    0.0172   -0.0118   -0.0164   -0.0088   -0.0037
          16   -0.0139    0.1087   -0.0335   -0.0818   -0.0534   -0.2501    0.0134    0.1182
          17   -0.0138    0.1569   -0.0536   -0.2049   -0.0958   -0.0446   -0.1043    0.1624
          18   -0.2718   -0.0162   -0.0275    0.0167   -0.0115    0.0162    0.0089   -0.0037
          19    0.0699   -0.1661    0.5843    0.2911   -0.1420   -0.1788   -0.2752    0.1789
          20   -0.0885   -0.2130   -0.4513    0.3719   -0.1877    0.1357    0.2088    0.2364
          21    0.0151    0.1333    0.0030   -0.2843    0.3242    0.0002    0.0002   -0.1524
          22    0.3296   -0.1013   -0.2715   -0.0817   -0.2773   -0.2236   -0.0305    0.0460
          23    0.3005   -0.2032   -0.1411    0.1125   -0.0374   -0.2423    0.1129   -0.0215
          24   -0.0201   -0.0166    0.0023    0.0224    0.0603   -0.0179    0.0451   -0.0305
          25   -0.3603   -0.2064   -0.0472   -0.0199    0.1810   -0.1864   -0.0423    0.2604
          26   -0.2735   -0.2013   -0.1445    0.1019    0.1038   -0.2099    0.1279    0.0132
          27   -0.0094    0.0233    0.0412   -0.0321    0.0240    0.0479   -0.0518    0.0650
          28    0.1896   -0.1392    0.1238    0.1067    0.0516    0.1522   -0.1344   -0.0575
          29    0.4279   -0.2528    0.0822    0.0103    0.2016    0.2360    0.0055    0.2544
          30    0.0017    0.0236   -0.0405   -0.0331    0.0238   -0.0479    0.0516    0.0652
          31   -0.1692   -0.1686    0.0592    0.1320    0.0385    0.1731   -0.1169   -0.0334
          32   -0.3357   -0.1539    0.2992   -0.0422   -0.2761    0.2797   -0.0010    0.0387
          33    0.0211   -0.0164   -0.0031    0.0223    0.0603    0.0176   -0.0450   -0.0307
          34    0.0105   -0.0104    0.0461   -0.0314    0.1790    0.0073    0.0419    0.1124
          35   -0.0072   -0.0132   -0.0353   -0.0424    0.2357   -0.0056   -0.0324    0.1482
          36   -0.0031   -0.0000   -0.0001    0.0736   -0.2631    0.0000    0.0004   -0.1169
          37   -0.0058    0.0076   -0.0121   -0.0035   -0.0157   -0.0138   -0.0305    0.0321
          38   -0.0085    0.0076   -0.0832   -0.0111    0.0057   -0.0472   -0.1100    0.1419
          39    0.0007   -0.0400    0.0898    0.0257    0.1199    0.0629    0.1189   -0.2302
          40    0.0144    0.0044    0.0768   -0.0084    0.0103    0.0410    0.0969    0.1292
          41    0.0146    0.0088    0.0342   -0.0057   -0.0132    0.0257    0.0585    0.0694
          42   -0.0220   -0.0387   -0.0914    0.0239    0.1195   -0.0629   -0.1186   -0.2307
          43   -0.0059   -0.0923   -0.0332   -0.1774   -0.0516    0.1207   -0.0084    0.0335
          44   -0.0228    0.4904    0.1647    0.3757    0.0671   -0.3646    0.1354    0.0701
          45   -0.1577   -0.0022   -0.0213   -0.0185    0.0008    0.0109   -0.0026   -0.0077
          46    0.0475    0.4978   -0.1716    0.4064    0.0780    0.3821   -0.1328    0.0581
          47    0.0025    0.0421   -0.0103   -0.0708   -0.0318   -0.0186   -0.0283    0.0510
          48    0.1563   -0.0014    0.0216   -0.0177    0.0008   -0.0107    0.0026   -0.0076


   Root No.      25        26        27        28        29        30        31        32

                25 A      26 A      27 A      28 A      29 A      30 A      31 A      32 A   

                1371.8    1371.9    1405.9    1406.9    1410.4    1414.5    1420.4    1829.8
  
           1   -0.0882   -0.1643   -0.0198    0.0099    0.0838   -0.0689    0.2294    0.0167
           2   -0.0223   -0.2392   -0.0254    0.0125   -0.0644    0.0519    0.3017    0.0220
           3    0.0204    0.0828    0.0192   -0.0300    0.0004    0.0002   -0.2799   -0.0058
           4   -0.1853    0.3367    0.1438   -0.0031   -0.0209    0.0634   -0.1292    0.0192
           5   -0.1052    0.3519   -0.2774    0.0125    0.3083   -0.1923   -0.0932   -0.0539
           6    0.0014   -0.0315    0.0036    0.0026   -0.0066    0.0027    0.0444    0.0013
           7    0.1607    0.1970   -0.3037    0.0130   -0.3037    0.2038   -0.0556   -0.0571
           8    0.3766    0.2757    0.0644    0.0007   -0.0616   -0.0096   -0.1496    0.0040
           9   -0.0159   -0.0273    0.0037    0.0026    0.0066   -0.0029    0.0445    0.0013
          10   -0.0218   -0.0417   -0.0106   -0.1400   -0.1393   -0.1453   -0.2038   -0.0020
          11   -0.0060   -0.0603   -0.0139   -0.1855    0.1058    0.1100   -0.2673   -0.0027
          12    0.0365    0.1495    0.0204   -0.1106   -0.0009   -0.0010    0.4093    0.0036
          13    0.0911   -0.1368    0.0744   -0.0028   -0.0493    0.0170    0.0243   -0.4985
          14    0.2883   -0.2027    0.0615   -0.0043   -0.2570    0.1417    0.0164    0.4742
          15   -0.0083    0.0083   -0.0045   -0.0004    0.0082   -0.0055   -0.0037   -0.0031
          16   -0.2979   -0.0239    0.0379   -0.0036    0.2345   -0.1321    0.0097    0.5903
          17   -0.2321   -0.0889    0.0875   -0.0040    0.1165   -0.0548    0.0280   -0.3535
          18    0.0112    0.0036   -0.0046   -0.0003   -0.0082    0.0056   -0.0037   -0.0028
          19    0.0575    0.0222    0.0204   -0.0077   -0.0943    0.0439   -0.0898    0.0007
          20   -0.0261    0.0541    0.0262   -0.0102    0.0719   -0.0333   -0.1179    0.0010
          21   -0.0164   -0.0667   -0.0223    0.0010   -0.0001   -0.0000    0.0867    0.0044
          22    0.2388   -0.2825   -0.2404    0.0110    0.0857   -0.1163    0.1263   -0.0157
          23   -0.1166   -0.0920    0.2600   -0.0162   -0.1811    0.1371    0.0368   -0.0241
          24   -0.1604    0.0582    0.2751   -0.0133   -0.1625    0.1453   -0.0267    0.0011
          25    0.2259   -0.2188   -0.2103    0.0039    0.0832   -0.0949    0.0299   -0.0159
          26   -0.1131   -0.0797    0.2467   -0.0127   -0.1657    0.1300    0.0267   -0.0258
          27    0.1628   -0.0351   -0.2864    0.0112    0.1774   -0.1488    0.0064    0.0013
          28    0.1421   -0.0943    0.2923   -0.0132    0.1830   -0.1520    0.0180   -0.0206
          29   -0.2734   -0.1192   -0.1360    0.0006   -0.0366    0.0574    0.0360   -0.0222
          30   -0.1609    0.0441   -0.2850    0.0113   -0.1788    0.1502    0.0061    0.0012
          31    0.1506   -0.0927    0.3132   -0.0184    0.1988   -0.1647    0.0020   -0.0190
          32   -0.3133   -0.1710   -0.1614    0.0065   -0.0351    0.0759    0.1314   -0.0215
          33    0.1693   -0.0224    0.2735   -0.0133    0.1636   -0.1465   -0.0265    0.0012
          34    0.0975    0.1214    0.0212   -0.1429    0.3405    0.4682    0.2172    0.0008
          35   -0.0043    0.1926    0.0274   -0.1835   -0.2597   -0.3566    0.2840    0.0011
          36   -0.0297   -0.1216   -0.0160    0.1129    0.0008    0.0009   -0.1829   -0.0003
          37    0.0031    0.0070    0.0026   -0.0045   -0.0175   -0.0094   -0.0255   -0.0003
          38    0.0212    0.1258    0.0521    0.6317   -0.1079   -0.1239    0.1266    0.0007
          39   -0.1245   -0.2355   -0.0345    0.1814   -0.2241   -0.3427   -0.2975   -0.0001
          40    0.0382    0.1153    0.0498    0.6099    0.1013    0.1195    0.1300    0.0008
          41    0.0112    0.0399    0.0166    0.1661    0.0468    0.0434    0.0097   -0.0001
          42    0.0018   -0.2662   -0.0340    0.1785    0.2258    0.3445   -0.2958   -0.0001
          43    0.0941   -0.0454    0.0329   -0.0012   -0.0718    0.0386    0.0010   -0.1195
          44   -0.1468   -0.0497   -0.0053   -0.0006    0.1211   -0.0740    0.0248   -0.0829
          45    0.0019    0.0025   -0.0003    0.0001   -0.0018    0.0015    0.0011    0.0054
          46    0.1309   -0.1084   -0.0130    0.0001   -0.1359    0.0815    0.0234   -0.0481
          47   -0.0720   -0.0269    0.0301   -0.0014    0.0370   -0.0176    0.0077   -0.1372
          48   -0.0005    0.0030   -0.0002    0.0001    0.0017   -0.0015    0.0012    0.0054


   Root No.      33        34        35        36        37        38        39        40

                33 A      34 A      35 A      36 A      37 A      38 A      39 A      40 A   

                2904.1    2972.4    2973.6    3051.0    3051.9    3078.3    3083.4    3116.1
  
           1   -0.0914   -0.0011   -0.0096    0.0045    0.0005   -0.0033   -0.0014   -0.0004
           2   -0.1202    0.0005   -0.0127   -0.0034    0.0009   -0.0043    0.0010    0.0003
           3   -0.2281   -0.0005   -0.0251   -0.0001   -0.0033   -0.0082   -0.0001   -0.0000
           4   -0.0039   -0.0077   -0.0079    0.0966    0.0928    0.0023    0.0006    0.0012
           5    0.0016    0.0002    0.0006   -0.1234   -0.1182   -0.0018    0.0016   -0.0005
           6    0.0240   -0.2190   -0.2093   -0.0122   -0.0117   -0.0018   -0.0024   -0.0003
           7    0.0026   -0.0021    0.0027    0.1364   -0.1470   -0.0024   -0.0014    0.0007
           8   -0.0033    0.0071   -0.0078   -0.0566    0.0612    0.0018   -0.0011   -0.0010
           9    0.0240    0.2107   -0.2177    0.0115   -0.0124   -0.0019    0.0024    0.0003
          10    0.0059    0.0003    0.0001   -0.0011    0.0022   -0.1353   -0.2373   -0.0004
          11    0.0077   -0.0002    0.0002    0.0010    0.0031   -0.1841    0.1770    0.0002
          12    0.0047    0.0000    0.0020    0.0001    0.0041   -0.1868   -0.0025   -0.0000
          13    0.0009    0.0001    0.0000   -0.0050   -0.0067   -0.0003   -0.0001    0.1900
          14    0.0006    0.0002    0.0004   -0.0028   -0.0047   -0.0002   -0.0001    0.0550
          15   -0.0002    0.0006   -0.0015    0.0002    0.0002   -0.0000    0.0001   -0.0059
          16    0.0003   -0.0002    0.0004    0.0012   -0.0028   -0.0000    0.0001   -0.0024
          17    0.0011   -0.0002    0.0002    0.0052   -0.0081   -0.0003    0.0001   -0.1965
          18   -0.0002   -0.0007   -0.0014   -0.0002    0.0002   -0.0000   -0.0001    0.0059
          19    0.3168    0.0062    0.0365    0.0024    0.0055    0.0073   -0.0016   -0.0002
          20    0.4166   -0.0032    0.0482   -0.0014    0.0073    0.0095    0.0014    0.0002
          21    0.7990    0.0016    0.0821    0.0004    0.0127    0.0304    0.0003    0.0001
          22   -0.0152    0.2023    0.1941   -0.1613   -0.1511   -0.0002    0.0044   -0.0006
          23    0.0214   -0.2306   -0.2214    0.1807    0.1697    0.0015   -0.0018    0.0039
          24   -0.0393    0.4209    0.4035   -0.3967   -0.3728   -0.0061    0.0050   -0.0052
          25    0.0152   -0.1718   -0.1640   -0.1839   -0.1730   -0.0040    0.0004   -0.0010
          26   -0.0291    0.2303    0.2196    0.2489    0.2346    0.0052    0.0001    0.0051
          27   -0.0440    0.3429    0.3262    0.4388    0.4135    0.0093   -0.0003    0.0059
          28   -0.0321   -0.2577    0.2658   -0.2728    0.2891    0.0062   -0.0001   -0.0052
          29    0.0068    0.0999   -0.1033    0.1043   -0.1102   -0.0025   -0.0003   -0.0004
          30   -0.0440   -0.3297    0.3392   -0.4138    0.4385    0.0095    0.0001   -0.0059
          31    0.0246    0.2656   -0.2757   -0.2046    0.2160    0.0015    0.0029   -0.0039
          32   -0.0090   -0.1283    0.1331    0.1011   -0.1064    0.0003   -0.0037   -0.0005
          33   -0.0394   -0.4050    0.4198    0.3742   -0.3953   -0.0061   -0.0049    0.0052
          34   -0.0098   -0.0009   -0.0022    0.0003   -0.0055    0.2405   -0.0321   -0.0001
          35   -0.0129    0.0006   -0.0030   -0.0004   -0.0072    0.3169    0.0306    0.0001
          36   -0.0178   -0.0000   -0.0026   -0.0003   -0.0161    0.6841    0.0084    0.0001
          37   -0.0142   -0.0056   -0.0063    0.0043   -0.0031    0.3675    0.6777    0.0009
          38    0.0030    0.0004   -0.0002   -0.0006    0.0011   -0.0389    0.0054    0.0000
          39   -0.0041    0.0001   -0.0001    0.0003    0.0004   -0.0176    0.0193    0.0000
          40    0.0067   -0.0019    0.0016    0.0018    0.0020   -0.1402    0.1747    0.0001
          41   -0.0129    0.0051   -0.0064   -0.0041   -0.0030    0.3583   -0.6477   -0.0006
          42   -0.0041   -0.0001   -0.0001   -0.0003    0.0004   -0.0175   -0.0191   -0.0001
          43    0.0028    0.0003   -0.0005    0.0096    0.0324    0.0016    0.0008   -0.6527
          44    0.0013    0.0001   -0.0001    0.0010    0.0070    0.0004    0.0002   -0.1925
          45   -0.0000   -0.0007   -0.0020   -0.0003   -0.0010   -0.0001   -0.0000    0.0205
          46    0.0005   -0.0000    0.0000    0.0015   -0.0020   -0.0000    0.0000    0.0110
          47    0.0030   -0.0004   -0.0006   -0.0076    0.0339    0.0015   -0.0007    0.6767
          48   -0.0000    0.0006   -0.0021    0.0003   -0.0011   -0.0000    0.0000   -0.0205


   Root No.      41        42

                41 A      42 A   

                3135.1    3178.8
  
           1    0.0034   -0.0018
           2    0.0044   -0.0023
           3    0.0006    0.0018
           4   -0.0066   -0.0003
           5    0.0101    0.0008
           6    0.0002   -0.0009
           7    0.0115    0.0009
           8   -0.0037   -0.0000
           9    0.0002   -0.0010
          10    0.0002   -0.0607
          11    0.0002   -0.0791
          12    0.0003    0.1130
          13   -0.2179   -0.0001
          14   -0.0339   -0.0000
          15    0.0059    0.0000
          16    0.0255    0.0001
          17   -0.2202   -0.0001
          18    0.0060    0.0000
          19   -0.0012    0.0006
          20   -0.0015    0.0008
          21   -0.0030    0.0050
          22    0.0062    0.0004
          23   -0.0098   -0.0025
          24    0.0183    0.0048
          25    0.0069    0.0004
          26   -0.0126   -0.0006
          27   -0.0193   -0.0013
          28   -0.0141   -0.0007
          29    0.0033    0.0002
          30   -0.0194   -0.0013
          31   -0.0111   -0.0025
          32    0.0034   -0.0002
          33    0.0184    0.0049
          34   -0.0001   -0.1825
          35   -0.0002   -0.2408
          36   -0.0005   -0.4625
          37   -0.0010    0.5792
          38    0.0000   -0.0274
          39    0.0000    0.0306
          40    0.0003   -0.1815
          41   -0.0009    0.5487
          42    0.0001    0.0300
          43    0.6423    0.0004
          44    0.1852    0.0002
          45   -0.0199   -0.0000
          46    0.0069    0.0000
          47    0.6723    0.0003
          48   -0.0202    0.0000


          DESCRIPTION OF VIBRATIONS


 VIBRATION    1    1A         ATOM PAIR      ENERGY CONTRIBUTION    RADIAL
 FREQ.        88.64         C  1 -- C  4         +11.1% (528.0%)      0.0%
 T-DIPOLE    0.0385         C  3 -- C  6         +10.0% (502.1%)      0.0%
 TRAVEL      0.0430         C  2 -- C  5         +10.0% (500.9%)      0.0%
 RED. MASS   0.8528         C  4 -- H 13          +8.1% (452.9%)     31.3%
 EFF. MASS 411.1729

 VIBRATION    2    2A         ATOM PAIR      ENERGY CONTRIBUTION    RADIAL
 FREQ.       215.73         C  4 -- H 14         +31.4% (281.6%)      0.0%
 T-DIPOLE    0.0062         C  4 -- H 13         +31.4% (281.5%)      0.0%
 TRAVEL      0.3255         C  4 -- H 12         +30.5% (277.6%)      0.0%
 RED. MASS   0.3151         C  2 -- C  5          +0.9% ( 46.4%)      0.3%
 EFF. MASS   2.9501

 VIBRATION    3    3A         ATOM PAIR      ENERGY CONTRIBUTION    RADIAL
 FREQ.       349.37         C  1 -- C  4         +14.6% (131.2%)      0.0%
 T-DIPOLE    0.0349         C  5 -- C  6         +13.4% (125.9%)      0.0%
 TRAVEL      0.0898         C  4 -- H 12          +9.2% (104.0%)      0.0%
 RED. MASS   1.0693         C  4 -- H 13          +8.2% ( 98.4%)     77.7%
 EFF. MASS  23.9349

 VIBRATION    4    4A         ATOM PAIR      ENERGY CONTRIBUTION    RADIAL
 FREQ.       388.63         C  1 -- C  4         +11.9% (123.3%)      0.0%
 T-DIPOLE    0.0312         C  4 -- H 12          +7.9% (100.6%)      0.0%
 TRAVEL      0.0863         C  3 -- H 11          +7.8% ( 99.5%)     19.1%
 RED. MASS   0.5657         C  2 -- H  8          +7.7% ( 99.3%)     19.0%
 EFF. MASS  23.2964

 VIBRATION    5    5A         ATOM PAIR      ENERGY CONTRIBUTION    RADIAL
 FREQ.       445.27         C  1 -- C  4         +15.0% (140.6%)      0.6%
 T-DIPOLE    0.1143         C  1 -- C  3         +12.5% (128.4%)      0.0%
 TRAVEL      0.0846         C  1 -- C  2         +12.5% (128.4%)      0.0%
 RED. MASS   1.2446         C  4 -- H 12         +11.3% (122.2%)     17.8%
 EFF. MASS  21.1653

 VIBRATION    6    6A         ATOM PAIR      ENERGY CONTRIBUTION    RADIAL
[...]
 RED. MASS   0.3327         C  3 -- C  6          +8.4% ( 37.2%)     85.7%
 EFF. MASS   4.7121

 VIBRATION   21   21A         ATOM PAIR      ENERGY CONTRIBUTION    RADIAL
 FREQ.      1163.76         C  1 -- C  4         +17.6% ( 57.3%)     14.4%
 T-DIPOLE    0.0620         C  1 -- H  7         +13.1% ( 49.3%)     39.8%
 TRAVEL      0.1012         C  1 -- C  2         +12.7% ( 48.7%)     21.5%
 RED. MASS   0.7787         C  1 -- C  3         +12.7% ( 48.7%)     21.4%
 EFF. MASS   5.6573

 VIBRATION   22   22A         ATOM PAIR      ENERGY CONTRIBUTION    RADIAL
 FREQ.      1241.56         C  5 -- H 15         +15.8% ( 46.7%)      0.3%
 T-DIPOLE    0.0065         C  6 -- H 16         +15.7% ( 46.5%)      0.3%
 TRAVEL      0.1379         C  2 -- H  8          +9.5% ( 36.1%)      0.0%
 RED. MASS   0.2586         C  3 -- H 11          +9.4% ( 36.1%)      0.0%
 EFF. MASS   2.8578

 VIBRATION   23   23A         ATOM PAIR      ENERGY CONTRIBUTION    RADIAL
 FREQ.      1267.74         C  1 -- H  7         +19.7% ( 67.7%)      0.0%
 T-DIPOLE    0.0006         C  1 -- C  3         +19.2% ( 66.7%)     85.2%
 TRAVEL      0.0786         C  1 -- C  2         +19.2% ( 66.7%)     85.2%
 RED. MASS   2.8015         C  1 -- C  4         +13.6% ( 56.3%)      0.0%
 EFF. MASS   8.6062

 VIBRATION   24   24A         ATOM PAIR      ENERGY CONTRIBUTION    RADIAL
 FREQ.      1284.05         C  1 -- H  7         +19.1% ( 61.1%)      1.1%
 T-DIPOLE    0.0239         C  1 -- C  4         +14.2% ( 52.7%)     97.8%
 TRAVEL      0.0894         C  1 -- C  2         +13.3% ( 51.0%)      5.1%
 RED. MASS   1.3259         C  1 -- C  3         +13.3% ( 51.0%)      5.3%
 EFF. MASS   6.5705

 VIBRATION   25   25A         ATOM PAIR      ENERGY CONTRIBUTION    RADIAL
 FREQ.      1371.83         C  3 -- C  6         +18.2% ( 53.5%)     85.6%
 T-DIPOLE    0.0642         C  3 -- H 11         +14.6% ( 47.9%)      0.0%
 TRAVEL      0.0920         C  3 -- H 10         +12.7% ( 44.6%)      0.1%
 RED. MASS   0.7663         C  5 -- C  6         +11.3% ( 42.1%)      0.0%
 EFF. MASS   5.8087

 VIBRATION   26   26A         ATOM PAIR      ENERGY CONTRIBUTION    RADIAL
 FREQ.      1371.92         C  2 -- C  5         +13.7% ( 50.5%)     81.7%
 T-DIPOLE    0.0776         C  2 -- H  8         +13.1% ( 49.4%)      0.2%
 TRAVEL      0.0868         C  1 -- C  2         +12.9% ( 49.1%)     40.9%
 RED. MASS   1.0255         C  2 -- H  9         +11.1% ( 45.6%)      0.0%
 EFF. MASS   6.5205

 VIBRATION   27   27A         ATOM PAIR      ENERGY CONTRIBUTION    RADIAL
 FREQ.      1405.90         C  2 -- H  8         +18.4% ( 45.9%)      4.9%
 T-DIPOLE    0.0513         C  3 -- H 11         +18.2% ( 45.7%)      4.9%
 TRAVEL      0.1226         C  2 -- H  9         +17.1% ( 44.3%)      5.8%
 RED. MASS   0.3787         C  3 -- H 10         +16.9% ( 44.0%)      5.8%
 EFF. MASS   3.1911

 VIBRATION   28   28A         ATOM PAIR      ENERGY CONTRIBUTION    RADIAL
 FREQ.      1406.93         C  4 -- H 14         +43.0% ( 57.1%)      2.0%
 T-DIPOLE    0.0410         C  4 -- H 13         +43.0% ( 57.1%)      2.0%
 TRAVEL      0.1735         C  4 -- H 12          +8.0% ( 24.6%)     75.1%
 RED. MASS   0.4330         C  1 -- C  4          +5.4% ( 20.2%)     12.0%
 EFF. MASS   1.5930

 VIBRATION   29   29A         ATOM PAIR      ENERGY CONTRIBUTION    RADIAL
 FREQ.      1410.44         C  3 -- C  6         +11.2% ( 40.2%)     95.4%
 T-DIPOLE    0.0602         C  2 -- C  5         +11.2% ( 40.1%)     95.4%
 TRAVEL      0.0985         C  4 -- H 12         +10.2% ( 38.4%)      0.0%
 RED. MASS   0.4070         C  3 -- H 11          +8.0% ( 33.9%)      5.9%
 EFF. MASS   4.9245

 VIBRATION   30   30A         ATOM PAIR      ENERGY CONTRIBUTION    RADIAL
 FREQ.      1414.55         C  4 -- H 12         +25.5% ( 50.1%)      0.0%
 T-DIPOLE    0.0038         C  4 -- H 14         +10.0% ( 31.4%)      9.8%
 TRAVEL      0.1345         C  4 -- H 13          +9.9% ( 31.2%)     10.0%
 RED. MASS   0.2327         C  3 -- H 11          +6.8% ( 25.9%)      5.7%
 EFF. MASS   2.6362

 VIBRATION   31   31A         ATOM PAIR      ENERGY CONTRIBUTION    RADIAL
 FREQ.      1420.36         C  1 -- C  4         +22.6% ( 66.1%)     98.2%
 T-DIPOLE    0.0348         C  4 -- H 12         +16.2% ( 56.0%)      3.4%
 TRAVEL      0.0836         C  4 -- H 13         +13.6% ( 51.3%)      4.1%
 RED. MASS   1.6048         C  4 -- H 14         +13.6% ( 51.2%)      4.1%
 EFF. MASS   6.7946

 VIBRATION   32   32A         ATOM PAIR      ENERGY CONTRIBUTION    RADIAL
 FREQ.      1829.80         C  5 -- C  6         +45.8% (100.0%)    100.0%
 T-DIPOLE    0.0880         C  3 -- C  6         +13.9% ( 55.1%)     25.6%
 TRAVEL      0.0557         C  2 -- C  5         +13.9% ( 55.1%)     25.6%
 RED. MASS   5.3842         C  6 -- H 16         +13.0% ( 53.2%)      9.7%
 EFF. MASS  11.8694         C  5 -- H 15         +13.0% ( 53.2%)      9.7%

 VIBRATION   33   33A         ATOM PAIR      ENERGY CONTRIBUTION    RADIAL
 FREQ.      2904.08         C  1 -- H  7         +95.4% ( 99.4%)    100.0%
 T-DIPOLE    0.0413         C  1 -- C  3          +1.1% ( 10.5%)      8.9%
 TRAVEL      0.1264         C  1 -- C  2          +1.1% ( 10.5%)      8.9%
 RED. MASS   0.9062         C  1 -- C  4          +1.1% ( 10.5%)      8.7%
 EFF. MASS   1.4537

 VIBRATION   34   34A         ATOM PAIR      ENERGY CONTRIBUTION    RADIAL
 FREQ.      2972.35         C  2 -- H  8         +28.9% ( 55.8%)     97.4%
 T-DIPOLE    0.0166         C  3 -- H 11         +26.7% ( 53.7%)     97.4%
 TRAVEL      0.1214         C  2 -- H  9         +21.9% ( 48.5%)     95.7%
 RED. MASS   0.2640         C  3 -- H 10         +20.2% ( 46.7%)     95.7%
 EFF. MASS   1.5381

 VIBRATION   35   35A         ATOM PAIR      ENERGY CONTRIBUTION    RADIAL
 FREQ.      2973.63         C  3 -- H 11         +28.8% ( 55.6%)     97.4%
 T-DIPOLE    0.0564         C  2 -- H  8         +26.6% ( 53.5%)     97.4%
 TRAVEL      0.1216         C  3 -- H 10         +21.5% ( 48.1%)     95.7%
 RED. MASS   0.2585         C  2 -- H  9         +19.9% ( 46.2%)     95.7%
 EFF. MASS   1.5335

 VIBRATION   36   36A         ATOM PAIR      ENERGY CONTRIBUTION    RADIAL
 FREQ.      3051.01         C  2 -- H  9         +30.1% ( 54.1%)     98.4%
 T-DIPOLE    0.1087         C  3 -- H 10         +26.7% ( 51.0%)     98.4%
 TRAVEL      0.1316         C  2 -- H  8         +22.1% ( 46.4%)     96.5%
 RED. MASS   0.2475         C  3 -- H 11         +19.7% ( 43.8%)     96.5%
 EFF. MASS   1.2758

 VIBRATION   37   37A         ATOM PAIR      ENERGY CONTRIBUTION    RADIAL
 FREQ.      3051.95         C  3 -- H 10         +30.0% ( 54.1%)     98.3%
 T-DIPOLE    0.0570         C  2 -- H  9         +26.7% ( 51.0%)     98.3%
 TRAVEL      0.1308         C  3 -- H 11         +22.0% ( 46.3%)     96.4%
 RED. MASS   0.2465         C  2 -- H  8         +19.5% ( 43.6%)     96.4%
 EFF. MASS   1.2910

 VIBRATION   38   38A         ATOM PAIR      ENERGY CONTRIBUTION    RADIAL
 FREQ.      3078.28         C  4 -- H 12         +66.9% ( 84.4%)     99.0%
 T-DIPOLE    0.0129         C  4 -- H 14         +16.6% ( 42.0%)     84.4%
 TRAVEL      0.1207         C  4 -- H 13         +15.4% ( 40.4%)     83.0%
 RED. MASS   0.5274         C  1 -- C  4          +1.0% ( 10.3%)      0.0%
 EFF. MASS   1.5036

 VIBRATION   39   39A         ATOM PAIR      ENERGY CONTRIBUTION    RADIAL
 FREQ.      3083.43         C  4 -- H 13         +49.5% ( 72.6%)     97.2%
 T-DIPOLE    0.0095         C  4 -- H 14         +48.5% ( 71.9%)     97.0%
 TRAVEL      0.1204         C  1 -- C  4          +1.0% ( 10.5%)      0.0%
 RED. MASS   0.5098         C  4 -- H 12          +1.0% ( 10.2%)      0.3%
 EFF. MASS   1.5079

 VIBRATION   40   40A         ATOM PAIR      ENERGY CONTRIBUTION    RADIAL
 FREQ.      3116.05         C  5 -- H 15         +49.0% ( 71.1%)    100.0%
 T-DIPOLE    0.3691         C  6 -- H 16         +48.4% ( 70.7%)    100.0%
 TRAVEL      0.1217         C  5 -- C  6          +1.1% ( 10.7%)      0.0%
 RED. MASS   0.4648         C  2 -- C  5          +0.7% (  8.6%)     27.4%
 EFF. MASS   1.4621

 VIBRATION   41   41A         ATOM PAIR      ENERGY CONTRIBUTION    RADIAL
 FREQ.      3135.09         C  6 -- H 16         +48.0% ( 70.6%)     99.9%
 T-DIPOLE    0.3392         C  5 -- H 15         +47.4% ( 70.2%)     99.9%
 TRAVEL      0.1141         C  5 -- C  6          +2.5% ( 16.0%)    100.0%
 RED. MASS   0.4655         C  3 -- C  6          +0.9% (  9.9%)     20.6%
 EFF. MASS   1.6512

 VIBRATION   42   42A         ATOM PAIR      ENERGY CONTRIBUTION    RADIAL
 FREQ.      3178.84         C  4 -- H 13         +34.5% ( 56.5%)     97.3%
 T-DIPOLE    0.0256         C  4 -- H 14         +34.3% ( 56.3%)     97.3%
 TRAVEL      0.1367         C  4 -- H 12         +30.9% ( 53.5%)     96.7%
 RED. MASS   0.3276         C  1 -- C  4          +0.3% (  5.1%)     99.8%
 EFF. MASS   1.1359

      SYMMETRY NUMBER FOR POINT-GROUP C1  =  1


          SYSTEM IS A GROUND STATE



 InChI=1S/C6H10/c1-6-4-2-3-5-6/h2-3,6H,4-5H2,1H3


          MOLECULE IS NOT LINEAR

          THERE ARE 42 GENUINE VIBRATIONS IN THIS SYSTEM
          THIS THERMODYNAMICS CALCULATION IS LIMITED TO
          MOLECULES WHICH HAVE NO INTERNAL ROTATIONS




                    CALCULATED THERMODYNAMIC PROPERTIES
                                          *
   TEMP. (K)   PARTITION FUNCTION   H.O.F.    ENTHALPY  HEAT CAPACITY ENTROPY
                                   KCAL/MOL   CAL/MOLE    CAL/K/MOL  CAL/K/MOL


 298.00  VIB.     0.9005D+01                  1949.3464    16.5015    10.9088
         ROT.     0.1199D+06                   888.2813     2.9808    26.2194
         INT.     0.1079D+07                  2837.6277    19.4823    37.1282
         TRA.     0.7198D+27                  1480.4688     4.9680    39.1295
         TOT.                       -3.087    4318.0966    24.4504    76.2577

 200.00  VIB.     0.3345D+01                   730.3000     8.7428     6.0510
         ROT.     0.6590D+05                   596.1620     2.9808    25.0307
         INT.     0.2204D+06                  1326.4619    11.7236    31.0817
         TRA.     0.3957D+27                   993.6033     4.9680    37.1484
         TOT.                       -5.085    2320.0652    16.6916    68.2301

 210.00  VIB.     0.3670D+01                   821.0883     9.4202     6.4938
         ROT.     0.7091D+05                   625.9700     2.9808    25.1762
         INT.     0.2602D+06                  1447.0584    12.4010    31.6700
         TRA.     0.4258D+27                  1043.2834     4.9680    37.3907
         TOT.                       -4.914    2490.3418    17.3690    69.0607

 220.00  VIB.     0.4034D+01                   918.8078    10.1288     6.9483
         ROT.     0.7603D+05                   655.7781     2.9808    25.3148
         INT.     0.3067D+06                  1574.5859    13.1096    32.2631
         TRA.     0.4566D+27                  1092.9636     4.9680    37.6219
         TOT.                       -4.737    2667.5495    18.0777    69.8850

 230.00  VIB.     0.4443D+01                  1023.7650    10.8675     7.4147
         ROT.     0.8127D+05                   685.5862     2.9808    25.4473
         INT.     0.3611D+06                  1709.3513    13.8483    32.8621
         TRA.     0.4880D+27                  1142.6437     4.9680    37.8427
         TOT.                       -4.553    2851.9950    18.8163    70.7048

 240.00  VIB.     0.4902D+01                  1136.2514    11.6343     7.8934
         ROT.     0.8663D+05                   715.3943     2.9808    25.5742
         INT.     0.4247D+06                  1851.6457    14.6151    33.4675
         TRA.     0.5202D+27                  1192.3239     4.9680    38.0541
         TOT.                       -4.361    3043.9696    19.5831    71.5217

 250.00  VIB.     0.5419D+01                  1256.5371    12.4269     8.3843
         ROT.     0.9210D+05                   745.2024     2.9808    25.6959
         INT.     0.4991D+06                  2001.7395    15.4077    34.0801
         TRA.     0.5531D+27                  1242.0041     4.9680    38.2569
         TOT.                       -4.161    3243.7436    20.3758    72.3371

 260.00  VIB.     0.6001D+01                  1384.8673    13.2427     8.8875
         ROT.     0.9768D+05                   775.0105     2.9808    25.8128
         INT.     0.5862D+06                  2159.8778    16.2235    34.7003
         TRA.     0.5866D+27                  1291.6842     4.9680    38.4518
         TOT.                       -3.953    3451.5621    21.1916    73.1521

 270.00  VIB.     0.6660D+01                  1521.4591    14.0788     9.4029
         ROT.     0.1034D+06                   804.8186     2.9808    25.9253
         INT.     0.6884D+06                  2326.2778    17.0596    35.3282
         TRA.     0.6208D+27                  1341.3644     4.9680    38.6393
         TOT.                       -3.737    3667.6422    22.0276    73.9675

 280.00  VIB.     0.7404D+01                  1666.5000    14.9320     9.9303
         ROT.     0.1092D+06                   834.6267     2.9808    26.0337
         INT.     0.8083D+06                  2501.1268    17.9128    35.9640
         TRA.     0.6556D+27                  1391.0445     4.9680    38.8200
         TOT.                       -3.513    3892.1713    22.8808    74.7839

 290.00  VIB.     0.8248D+01                  1820.1468    15.7994    10.4694
         ROT.     0.1151D+06                   864.4348     2.9808    26.1383
         INT.     0.9491D+06                  2684.5816    18.7802    36.6076
         TRA.     0.6910D+27                  1440.7247     4.9680    38.9943
         TOT.                       -3.280    4125.3063    23.7483    75.6019

 300.00  VIB.     0.9206D+01                  1982.5259    16.6780    11.0198
         ROT.     0.1211D+06                   894.2429     2.9808    26.2393
         INT.     0.1115D+07                  2876.7688    19.6588    37.2591
         TRA.     0.7270D+27                  1490.4049     4.9680    39.1627
         TOT.                       -3.038    4367.1737    24.6268    76.4218

 310.00  VIB.     0.1030D+02                  2153.7339    17.5648    11.5811
         ROT.     0.1272D+06                   924.0510     2.9808    26.3371
         INT.     0.1309D+07                  3077.7849    20.5456    37.9181
         TRA.     0.7637D+27                  1540.0850     4.9680    39.3256
         TOT.                       -2.787    4617.8700    25.5136    77.2438

 320.00  VIB.     0.1154D+02                  2333.8390    18.4569    12.1528
         ROT.     0.1334D+06                   953.8591     2.9808    26.4317
         INT.     0.1539D+07                  3287.6981    21.4378    38.5845
         TRA.     0.8009D+27                  1589.7652     4.9680    39.4834
         TOT.                       -2.527    4877.4633    26.4058    78.0679

 330.00  VIB.     0.1295D+02                  2522.8823    19.3520    12.7345
         ROT.     0.1397D+06                   983.6672     2.9808    26.5234
         INT.     0.1809D+07                  3506.5495    22.3328    39.2579
         TRA.     0.8388D+27                  1639.4454     4.9680    39.6362
         TOT.                       -2.259    5145.9949    27.3008    78.8941

 340.00  VIB.     0.1456D+02                  2720.8800    20.2474    13.3255
         ROT.     0.1461D+06                  1013.4753     2.9808    26.6124
         INT.     0.2127D+07                  3734.3553    23.2282    39.9379
         TRA.     0.8772D+27                  1689.1255     4.9680    39.7845
         TOT.                       -1.981    5423.4809    28.1963    79.7224

 350.00  VIB.     0.1641D+02                  2927.8252    21.1411    13.9253
         ROT.     0.1526D+06                  1043.2834     2.9808    26.6988
         INT.     0.2504D+07                  3971.1086    24.1219    40.6241
         TRA.     0.9162D+27                  1738.8057     4.9680    39.9285
         TOT.                       -1.695    5709.9143    29.0900    80.5527

 360.00  VIB.     0.1852D+02                  3143.6902    22.0311    14.5333
         ROT.     0.1592D+06                  1073.0915     2.9808    26.7828
         INT.     0.2948D+07                  4216.7817    25.0119    41.3161
         TRA.     0.9557D+27                  1788.4859     4.9680    40.0685
         TOT.                       -1.400    6005.2675    29.9799    81.3846

 370.00  VIB.     0.2095D+02                  3368.4284    22.9155    15.1490
         ROT.     0.1658D+06                  1102.8996     2.9808    26.8645
         INT.     0.3474D+07                  4471.3280    25.8963    42.0135
         TRA.     0.9958D+27                  1838.1660     4.9680    40.2046
         TOT.                       -1.095    6309.4940    30.8643    82.2181

 380.00  VIB.     0.2373D+02                  3601.9770    23.7929    15.7718
         ROT.     0.1726D+06                  1132.7077     2.9808    26.9440
         INT.     0.4096D+07                  4734.6847    26.7737    42.7158
         TRA.     0.1036D+28                  1887.8462     4.9680    40.3371
         TOT.                       -0.782    6622.5308    31.7417    83.0529

 390.00  VIB.     0.2693D+02                  3844.2582    24.6619    16.4011
         ROT.     0.1795D+06                  1162.5158     2.9808    27.0214
         INT.     0.4832D+07                  5006.7740    27.6427    43.4225
         TRA.     0.1078D+28                  1937.5263     4.9680    40.4662
         TOT.                       -0.461    6944.3004    32.6107    83.8887

 400.00  VIB.     0.3060D+02                  4095.1822    25.5212    17.0364
         ROT.     0.1864D+06                  1192.3239     2.9808    27.0969
         INT.     0.5704D+07                  5287.5061    28.5021    44.1332
         TRA.     0.1119D+28                  1987.2065     4.9680    40.5919
         TOT.                       -0.130    7274.7126    33.4701    84.7252

   *: NOTE: HEATS OF FORMATION ARE RELATIVE TO THE
            ELEMENTS IN THEIR STANDARD STATE AT 298K
              (=  Standard Enthalpy of Formation).

            Hvib:  Zero-point energy is not included.
                   frequencies of less than zero cm-1 are not included.
            Hrot = (3/2)RT
            Htra = (3/2)RT + pV = (5/2)RT

            Heat capacity is Cp, not Cv

          For more information, see: HTTP://OpenMOPAC.net/Manual/thermochemistry.html


           FORCE CONSTANT IN CARTESIAN COORDINATES (Millidynes/A)

    ATOM   CHEMICAL       X               Y               Z
   NUMBER   SYMBOL  FORCE CONSTANT  FORCE CONSTANT  FORCE CONSTANT

      1       C        7.785000        8.297146        8.554030
      2       C        7.673927        9.372025        8.129610
      3       C        9.619547        7.428063        8.130793
      4       C        8.415486        8.398082        8.189188
      5       C       14.566685       10.537417        2.351652
      6       C       11.927838       13.176464        2.351573
      7       H        1.147308        1.466964        3.476610
      8       H        1.351052        1.419583        3.644024
      9       H        1.274083        1.685654        3.434954
     10       H        2.056606        0.904401        3.433831
     11       H        1.760244        1.008324        3.645285
     12       H        1.147043        1.494109        4.138903
     13       H        5.380952        0.686882        0.709629
     14       H        1.094072        4.975604        0.709287
     15       H        4.991549        1.075977        0.356110
     16       H        0.712314        5.355035        0.356068

 **********************
 *                    *
 * JOB ENDED NORMALLY *
 *                    *
 **********************



 TOTAL JOB TIME:             3.93 SECONDS

 == MOPAC DONE ==
