 *******************************************************************************
 ** Site#: 14399        For non-commercial use only    Version 18.184L 64BITS **
 *******************************************************************************
 ** Cite this program as: MOPAC2016, Version: 18.184L, James J. P. Stewart,   **
 ** Stewart Computational Chemistry, web: HTTP://OpenMOPAC.net. Days left:  20**
 *******************************************************************************
 **                                                                           **
 **                                MOPAC2016                                  **
 **                                                                           **
 *******************************************************************************

                              PM3 CALCULATION RESULTS

 *******************************************************************************
 *  CALCULATION DONE:                                Thu Jun 13 18:43:59 2019  *
 *  PM3        - The PM3 Hamiltonian to be used
 *  PRECISE    - CRITERIA TO BE INCREASED BY 100 TIMES
 *  NOSYM      - POINT-GROUP SYMMETRY SET TO C1
 *  THREADS=1  - MULTI-THREADING NOT USED
 *  T=         - A TIME OF 172800.0 SECONDS REQUESTED
 *  DUMP=N     - RESTART FILE WRITTEN EVERY  7200.000 SECONDS
 *******************************************************************************
pm3  precise nosym THREADS=1
 InChI=1S/C7H12/c1-3-4-7-5-6(7)2/h3,6-7H,1,4-5H2,2H3

   ATOM   CHEMICAL          X               Y               Z
  NUMBER   SYMBOL      (ANGSTROMS)     (ANGSTROMS)     (ANGSTROMS)
 
     1       C         -0.07070000  *  -0.50860000  *   0.62100000  *
     2       C         -1.17290000  *   0.02350000  *  -0.28870000  *
     3       C         -1.31080000  *  -1.35450000  *   0.34730000  *
     4       C          1.19850000  *  -1.00230000  *  -0.08490000  *
     5       C         -2.04820000  *   1.11370000  *   0.32780000  *
     6       C          2.26750000  *   0.05240000  *  -0.04600000  *
     7       C          2.15550000  *   1.19400000  *  -0.73170000  *
     8       H         -0.97930000  *   0.02330000  *  -1.38290000  *
     9       H         -0.01030000  *  -0.11160000  *   1.65790000  *
    10       H         -1.17380000  *  -2.19630000  *  -0.36490000  *
    11       H         -2.01490000  *  -1.42150000  *   1.20420000  *
    12       H          1.00760000  *  -1.29800000  *  -1.14050000  *
    13       H          1.56680000  *  -1.90060000  *   0.45460000  *
    14       H         -3.05190000  *   1.08550000  *  -0.14460000  *
    15       H         -2.16760000  *   0.99280000  *   1.42640000  *
    16       H         -1.58820000  *   2.10360000  *   0.12790000  *
    17       H          3.16430000  *  -0.12690000  *   0.53970000  *
    18       H          2.94940000  *   1.93240000  *  -0.68960000  *
    19       H          1.27900000  *   1.39910000  *  -1.33850000  *
 


          CARTESIAN COORDINATES 

    NO.       ATOM           X           Y           Z

     1         C         -0.0707     -0.5086      0.6210
     2         C         -1.1729      0.0235     -0.2887
     3         C         -1.3108     -1.3545      0.3473
     4         C          1.1985     -1.0023     -0.0849
     5         C         -2.0482      1.1137      0.3278
     6         C          2.2675      0.0524     -0.0460
     7         C          2.1555      1.1940     -0.7317
     8         H         -0.9793      0.0233     -1.3829
     9         H         -0.0103     -0.1116      1.6579
    10         H         -1.1738     -2.1963     -0.3649
    11         H         -2.0149     -1.4215      1.2042
    12         H          1.0076     -1.2980     -1.1405
    13         H          1.5668     -1.9006      0.4546
    14         H         -3.0519      1.0855     -0.1446
    15         H         -2.1676      0.9928      1.4264
    16         H         -1.5882      2.1036      0.1279
    17         H          3.1643     -0.1269      0.5397
    18         H          2.9494      1.9324     -0.6896
    19         H          1.2790      1.3991     -1.3385

  H: (PM3): J. J. P. STEWART, J. COMP. CHEM. 10, 209 (1989).
  C: (PM3): J. J. P. STEWART, J. COMP. CHEM. 10, 209 (1989).

           Empirical Formula: C7 H12  =    19 atoms



      MOLECULAR POINT GROUP   :   C1  


      RHF CALCULATION, NO. OF DOUBLY OCCUPIED LEVELS = 20


          Geometry optimization using EF

          DIAGONAL MATRIX USED AS START HESSIAN

 CYCLE:     1 TIME:   0.016 TIME LEFT:  2.00D  GRAD.:    87.232 HEAT:  28.66417
 CYCLE:     2 TIME:   0.039 TIME LEFT:  2.00D  GRAD.:   131.560 HEAT:  27.98690
 CYCLE:     3 TIME:   0.023 TIME LEFT:  2.00D  GRAD.:    98.262 HEAT:  25.57643
 CYCLE:     4 TIME:   0.031 TIME LEFT:  2.00D  GRAD.:    71.927 HEAT:  24.52760
 CYCLE:     5 TIME:   0.016 TIME LEFT:  2.00D  GRAD.:    41.882 HEAT:  23.49821
 CYCLE:     6 TIME:   0.031 TIME LEFT:  2.00D  GRAD.:    28.124 HEAT:  22.99235
 CYCLE:     7 TIME:   0.023 TIME LEFT:  2.00D  GRAD.:    35.200 HEAT:  22.69202
 CYCLE:     8 TIME:   0.031 TIME LEFT:  2.00D  GRAD.:    25.831 HEAT:  22.38181
 CYCLE:     9 TIME:   0.031 TIME LEFT:  2.00D  GRAD.:    27.964 HEAT:  22.32683
 CYCLE:    10 TIME:   0.023 TIME LEFT:  2.00D  GRAD.:    30.418 HEAT:  22.26882
 CYCLE:    11 TIME:   0.023 TIME LEFT:  2.00D  GRAD.:    21.658 HEAT:  22.15935
 CYCLE:    12 TIME:   0.031 TIME LEFT:  2.00D  GRAD.:     8.493 HEAT:  22.02971
 CYCLE:    13 TIME:   0.039 TIME LEFT:  2.00D  GRAD.:     8.427 HEAT:  22.01567
 CYCLE:    14 TIME:   0.023 TIME LEFT:  2.00D  GRAD.:     6.878 HEAT:  21.98972
 CYCLE:    15 TIME:   0.031 TIME LEFT:  2.00D  GRAD.:    10.538 HEAT:  21.98162
 CYCLE:    16 TIME:   0.023 TIME LEFT:  2.00D  GRAD.:     7.943 HEAT:  21.94659
 CYCLE:    17 TIME:   0.031 TIME LEFT:  2.00D  GRAD.:     6.304 HEAT:  21.92346
 CYCLE:    18 TIME:   0.023 TIME LEFT:  2.00D  GRAD.:     6.439 HEAT:  21.90886
 CYCLE:    19 TIME:   0.023 TIME LEFT:  2.00D  GRAD.:     5.438 HEAT:  21.89961
 CYCLE:    20 TIME:   0.031 TIME LEFT:  2.00D  GRAD.:     4.921 HEAT:  21.89218
 CYCLE:    21 TIME:   0.016 TIME LEFT:  2.00D  GRAD.:     3.428 HEAT:  21.88558
 CYCLE:    22 TIME:   0.023 TIME LEFT:  2.00D  GRAD.:     4.108 HEAT:  21.87753
 CYCLE:    23 TIME:   0.023 TIME LEFT:  2.00D  GRAD.:     2.215 HEAT:  21.86961
 CYCLE:    24 TIME:   0.031 TIME LEFT:  2.00D  GRAD.:     4.141 HEAT:  21.86488
 CYCLE:    25 TIME:   0.023 TIME LEFT:  2.00D  GRAD.:     2.209 HEAT:  21.85837
 CYCLE:    26 TIME:   0.023 TIME LEFT:  2.00D  GRAD.:     1.804 HEAT:  21.85405
 CYCLE:    27 TIME:   0.023 TIME LEFT:  2.00D  GRAD.:     2.373 HEAT:  21.84475
 CYCLE:    28 TIME:   0.023 TIME LEFT:  2.00D  GRAD.:     2.665 HEAT:  21.83653
 CYCLE:    29 TIME:   0.016 TIME LEFT:  2.00D  GRAD.:     2.455 HEAT:  21.82648
 CYCLE:    30 TIME:   0.023 TIME LEFT:  2.00D  GRAD.:     2.452 HEAT:  21.81468
 CYCLE:    31 TIME:   0.023 TIME LEFT:  2.00D  GRAD.:     2.174 HEAT:  21.80611
 CYCLE:    32 TIME:   0.023 TIME LEFT:  2.00D  GRAD.:     2.069 HEAT:  21.80009
 CYCLE:    33 TIME:   0.023 TIME LEFT:  2.00D  GRAD.:     1.758 HEAT:  21.79463
 CYCLE:    34 TIME:   0.023 TIME LEFT:  2.00D  GRAD.:     1.646 HEAT:  21.78921
 CYCLE:    35 TIME:   0.023 TIME LEFT:  2.00D  GRAD.:     1.530 HEAT:  21.78426
 CYCLE:    36 TIME:   0.031 TIME LEFT:  2.00D  GRAD.:     1.412 HEAT:  21.77952
 CYCLE:    37 TIME:   0.031 TIME LEFT:  2.00D  GRAD.:     1.422 HEAT:  21.77421
 CYCLE:    38 TIME:   0.023 TIME LEFT:  2.00D  GRAD.:     1.308 HEAT:  21.77019
 CYCLE:    39 TIME:   0.031 TIME LEFT:  2.00D  GRAD.:     1.028 HEAT:  21.76756
 CYCLE:    40 TIME:   0.023 TIME LEFT:  2.00D  GRAD.:     0.994 HEAT:  21.76534
 CYCLE:    41 TIME:   0.023 TIME LEFT:  2.00D  GRAD.:     1.192 HEAT:  21.76228
 CYCLE:    42 TIME:   0.023 TIME LEFT:  2.00D  GRAD.:     1.561 HEAT:  21.75757
 CYCLE:    43 TIME:   0.023 TIME LEFT:  2.00D  GRAD.:     1.463 HEAT:  21.75148
 CYCLE:    44 TIME:   0.023 TIME LEFT:  2.00D  GRAD.:     1.660 HEAT:  21.74786
 CYCLE:    45 TIME:   0.023 TIME LEFT:  2.00D  GRAD.:     1.605 HEAT:  21.74039
 CYCLE:    46 TIME:   0.023 TIME LEFT:  2.00D  GRAD.:     1.966 HEAT:  21.73262
 CYCLE:    47 TIME:   0.023 TIME LEFT:  2.00D  GRAD.:     4.152 HEAT:  21.70135
 CYCLE:    48 TIME:   0.023 TIME LEFT:  2.00D  GRAD.:     5.779 HEAT:  21.66977
 CYCLE:    49 TIME:   0.023 TIME LEFT:  2.00D  GRAD.:     7.884 HEAT:  21.63763
 CYCLE:    50 TIME:   0.016 TIME LEFT:  2.00D  GRAD.:     7.044 HEAT:  21.57548
 CYCLE:    51 TIME:   0.023 TIME LEFT:  2.00D  GRAD.:     4.467 HEAT:  21.53288
 CYCLE:    52 TIME:   0.023 TIME LEFT:  2.00D  GRAD.:     5.337 HEAT:  21.48987
 CYCLE:    53 TIME:   0.023 TIME LEFT:  2.00D  GRAD.:     4.056 HEAT:  21.46433
 CYCLE:    54 TIME:   0.031 TIME LEFT:  2.00D  GRAD.:     8.162 HEAT:  21.43944
 CYCLE:    55 TIME:   0.023 TIME LEFT:  2.00D  GRAD.:     4.679 HEAT:  21.41575
 CYCLE:    56 TIME:   0.023 TIME LEFT:  2.00D  GRAD.:     3.132 HEAT:  21.38700
 CYCLE:    57 TIME:   0.031 TIME LEFT:  2.00D  GRAD.:     5.829 HEAT:  21.35899
 CYCLE:    58 TIME:   0.023 TIME LEFT:  2.00D  GRAD.:     3.471 HEAT:  21.32329
 CYCLE:    59 TIME:   0.023 TIME LEFT:  2.00D  GRAD.:     7.302 HEAT:  21.29547
 CYCLE:    60 TIME:   0.031 TIME LEFT:  2.00D  GRAD.:     4.274 HEAT:  21.27104
 CYCLE:    61 TIME:   0.023 TIME LEFT:  2.00D  GRAD.:     3.066 HEAT:  21.24875
 CYCLE:    62 TIME:   0.023 TIME LEFT:  2.00D  GRAD.:     3.224 HEAT:  21.23102
 CYCLE:    63 TIME:   0.023 TIME LEFT:  2.00D  GRAD.:     3.810 HEAT:  21.21952
 CYCLE:    64 TIME:   0.016 TIME LEFT:  2.00D  GRAD.:     2.886 HEAT:  21.20828
 CYCLE:    65 TIME:   0.023 TIME LEFT:  2.00D  GRAD.:     6.564 HEAT:  21.19559
 CYCLE:    66 TIME:   0.023 TIME LEFT:  2.00D  GRAD.:     4.272 HEAT:  21.17877
 CYCLE:    67 TIME:   0.023 TIME LEFT:  2.00D  GRAD.:     2.208 HEAT:  21.16235
 CYCLE:    68 TIME:   0.023 TIME LEFT:  2.00D  GRAD.:     3.321 HEAT:  21.14857
 CYCLE:    69 TIME:   0.031 TIME LEFT:  2.00D  GRAD.:     3.842 HEAT:  21.13652
 CYCLE:    70 TIME:   0.023 TIME LEFT:  2.00D  GRAD.:     2.417 HEAT:  21.12787
 CYCLE:    71 TIME:   0.023 TIME LEFT:  2.00D  GRAD.:     2.637 HEAT:  21.12210
 CYCLE:    72 TIME:   0.016 TIME LEFT:  2.00D  GRAD.:     3.491 HEAT:  21.11546
 CYCLE:    73 TIME:   0.023 TIME LEFT:  2.00D  GRAD.:     2.438 HEAT:  21.10755
 CYCLE:    74 TIME:   0.023 TIME LEFT:  2.00D  GRAD.:     2.231 HEAT:  21.09302
 CYCLE:    75 TIME:   0.023 TIME LEFT:  2.00D  GRAD.:     2.368 HEAT:  21.08459
 CYCLE:    76 TIME:   0.039 TIME LEFT:  2.00D  GRAD.:     2.735 HEAT:  21.06946
 CYCLE:    77 TIME:   0.031 TIME LEFT:  2.00D  GRAD.:     5.375 HEAT:  21.06343
 CYCLE:    78 TIME:   0.031 TIME LEFT:  2.00D  GRAD.:     4.610 HEAT:  21.04950
 CYCLE:    79 TIME:   0.031 TIME LEFT:  2.00D  GRAD.:     3.466 HEAT:  21.03791
 CYCLE:    80 TIME:   0.016 TIME LEFT:  2.00D  GRAD.:     1.438 HEAT:  21.02652
 CYCLE:    81 TIME:   0.023 TIME LEFT:  2.00D  GRAD.:     2.397 HEAT:  21.01822
 CYCLE:    82 TIME:   0.031 TIME LEFT:  2.00D  GRAD.:     2.354 HEAT:  21.01196
 CYCLE:    83 TIME:   0.023 TIME LEFT:  2.00D  GRAD.:     2.736 HEAT:  21.00288
 CYCLE:    84 TIME:   0.023 TIME LEFT:  2.00D  GRAD.:     2.025 HEAT:  20.99647
 CYCLE:    85 TIME:   0.023 TIME LEFT:  2.00D  GRAD.:     1.718 HEAT:  20.98930
 CYCLE:    86 TIME:   0.023 TIME LEFT:  2.00D  GRAD.:     1.548 HEAT:  20.98253
 CYCLE:    87 TIME:   0.016 TIME LEFT:  2.00D  GRAD.:     1.924 HEAT:  20.97641
 CYCLE:    88 TIME:   0.023 TIME LEFT:  2.00D  GRAD.:     2.439 HEAT:  20.95679
 CYCLE:    89 TIME:   0.023 TIME LEFT:  2.00D  GRAD.:     3.612 HEAT:  20.93808
 CYCLE:    90 TIME:   0.023 TIME LEFT:  2.00D  GRAD.:     3.679 HEAT:  20.92615
 CYCLE:    91 TIME:   0.023 TIME LEFT:  2.00D  GRAD.:     3.349 HEAT:  20.91590
 CYCLE:    92 TIME:   0.031 TIME LEFT:  2.00D  GRAD.:     6.374 HEAT:  20.91094
 CYCLE:    93 TIME:   0.023 TIME LEFT:  2.00D  GRAD.:     3.008 HEAT:  20.89506
 CYCLE:    94 TIME:   0.023 TIME LEFT:  2.00D  GRAD.:     1.586 HEAT:  20.88792
 CYCLE:    95 TIME:   0.023 TIME LEFT:  2.00D  GRAD.:     2.048 HEAT:  20.88134
 CYCLE:    96 TIME:   0.031 TIME LEFT:  2.00D  GRAD.:     1.714 HEAT:  20.87783
 CYCLE:    97 TIME:   0.023 TIME LEFT:  2.00D  GRAD.:     1.651 HEAT:  20.87352
 CYCLE:    98 TIME:   0.031 TIME LEFT:  2.00D  GRAD.:     1.788 HEAT:  20.86767
 CYCLE:    99 TIME:   0.031 TIME LEFT:  2.00D  GRAD.:     1.670 HEAT:  20.86091
 CYCLE:   100 TIME:   0.023 TIME LEFT:  2.00D  GRAD.:     3.295 HEAT:  20.85595
 CYCLE:   101 TIME:   0.023 TIME LEFT:  2.00D  GRAD.:     1.913 HEAT:  20.85267
 CYCLE:   102 TIME:   0.023 TIME LEFT:  2.00D  GRAD.:     1.952 HEAT:  20.84903
 CYCLE:   103 TIME:   0.023 TIME LEFT:  2.00D  GRAD.:     1.852 HEAT:  20.84540
 CYCLE:   104 TIME:   0.023 TIME LEFT:  2.00D  GRAD.:     1.432 HEAT:  20.84248
 CYCLE:   105 TIME:   0.023 TIME LEFT:  2.00D  GRAD.:     1.738 HEAT:  20.83778
 CYCLE:   106 TIME:   0.016 TIME LEFT:  2.00D  GRAD.:     1.608 HEAT:  20.83472
 CYCLE:   107 TIME:   0.023 TIME LEFT:  2.00D  GRAD.:     1.969 HEAT:  20.82690
 CYCLE:   108 TIME:   0.023 TIME LEFT:  2.00D  GRAD.:     1.882 HEAT:  20.82300
 CYCLE:   109 TIME:   0.023 TIME LEFT:  2.00D  GRAD.:     2.260 HEAT:  20.80973
 CYCLE:   110 TIME:   0.023 TIME LEFT:  2.00D  GRAD.:     1.715 HEAT:  20.80451
 CYCLE:   111 TIME:   0.023 TIME LEFT:  2.00D  GRAD.:     1.249 HEAT:  20.79778
 CYCLE:   112 TIME:   0.023 TIME LEFT:  2.00D  GRAD.:     1.420 HEAT:  20.79404
 CYCLE:   113 TIME:   0.023 TIME LEFT:  2.00D  GRAD.:     2.111 HEAT:  20.79011
 CYCLE:   114 TIME:   0.023 TIME LEFT:  2.00D  GRAD.:     1.914 HEAT:  20.78467
 CYCLE:   115 TIME:   0.023 TIME LEFT:  2.00D  GRAD.:     1.641 HEAT:  20.77894
 CYCLE:   116 TIME:   0.023 TIME LEFT:  2.00D  GRAD.:     2.499 HEAT:  20.77303
 CYCLE:   117 TIME:   0.016 TIME LEFT:  2.00D  GRAD.:     0.783 HEAT:  20.77016
 CYCLE:   118 TIME:   0.023 TIME LEFT:  2.00D  GRAD.:     0.839 HEAT:  20.76893
 CYCLE:   119 TIME:   0.023 TIME LEFT:  2.00D  GRAD.:     0.837 HEAT:  20.76799
 CYCLE:   120 TIME:   0.023 TIME LEFT:  2.00D  GRAD.:     0.804 HEAT:  20.76696
 CYCLE:   121 TIME:   0.023 TIME LEFT:  2.00D  GRAD.:     0.460 HEAT:  20.76645
 CYCLE:   122 TIME:   0.023 TIME LEFT:  2.00D  GRAD.:     0.394 HEAT:  20.76580
 CYCLE:   123 TIME:   0.023 TIME LEFT:  2.00D  GRAD.:     0.220 HEAT:  20.76557
 CYCLE:   124 TIME:   0.023 TIME LEFT:  2.00D  GRAD.:     0.214 HEAT:  20.76533
 CYCLE:   125 TIME:   0.023 TIME LEFT:  2.00D  GRAD.:     0.189 HEAT:  20.76517
 CYCLE:   126 TIME:   0.023 TIME LEFT:  2.00D  GRAD.:     0.168 HEAT:  20.76509
 CYCLE:   127 TIME:   0.023 TIME LEFT:  2.00D  GRAD.:     0.153 HEAT:  20.76505
 CYCLE:   128 TIME:   0.031 TIME LEFT:  2.00D  GRAD.:     0.163 HEAT:  20.76503
 CYCLE:   129 TIME:   0.031 TIME LEFT:  2.00D  GRAD.:     0.110 HEAT:  20.76502
 CYCLE:   130 TIME:   0.023 TIME LEFT:  2.00D  GRAD.:     0.098 HEAT:  20.76501
 CYCLE:   131 TIME:   0.031 TIME LEFT:  2.00D  GRAD.:     0.068 HEAT:  20.76501
 CYCLE:   132 TIME:   0.023 TIME LEFT:  2.00D  GRAD.:     0.081 HEAT:  20.76499
 CYCLE:   133 TIME:   0.016 TIME LEFT:  2.00D  GRAD.:     0.082 HEAT:  20.76497
 CYCLE:   134 TIME:   0.023 TIME LEFT:  2.00D  GRAD.:     0.088 HEAT:  20.76496
 CYCLE:   135 TIME:   0.023 TIME LEFT:  2.00D  GRAD.:     0.095 HEAT:  20.76494
 CYCLE:   136 TIME:   0.023 TIME LEFT:  2.00D  GRAD.:     0.093 HEAT:  20.76493
 CYCLE:   137 TIME:   0.023 TIME LEFT:  2.00D  GRAD.:     0.414 HEAT:  20.76500
 CYCLE:   138 TIME:   0.031 TIME LEFT:  2.00D  GRAD.:     0.134 HEAT:  20.76481
 CYCLE:   139 TIME:   0.023 TIME LEFT:  2.00D  GRAD.:     0.108 HEAT:  20.76479
 CYCLE:   140 TIME:   0.031 TIME LEFT:  2.00D  GRAD.:     0.109 HEAT:  20.76476
 CYCLE:   141 TIME:   0.016 TIME LEFT:  2.00D  GRAD.:     0.103 HEAT:  20.76474
 CYCLE:   142 TIME:   0.023 TIME LEFT:  2.00D  GRAD.:     0.034 HEAT:  20.76471

     GRADIENT =  0.03351  IS LESS THAN CUTOFF =  0.05000



 -------------------------------------------------------------------------------
 pm3  precise nosym THREADS=1
 InChI=1S/C7H12/c1-3-4-7-5-6(7)2/h3,6-7H,1,4-5H2,2H3



     GEOMETRY OPTIMISED USING EIGENVECTOR FOLLOWING (EF).     
     SCF FIELD WAS ACHIEVED                                   


                              PM3 CALCULATION
                                                       MOPAC2016 (Version: 18.184L)
                                                       Thu Jun 13 18:44:02 2019
                                                       No. of days remaining =  20




          FINAL HEAT OF FORMATION =         20.76471 KCAL/MOL =      86.87955 KJ/MOL


          TOTAL ENERGY            =      -1013.57461 EV
          ELECTRONIC ENERGY       =      -4778.51793 EV  POINT GROUP:     C1  
          CORE-CORE REPULSION     =       3764.94332 EV
          COSMO AREA              =        159.61 SQUARE ANGSTROMS
          COSMO VOLUME            =        153.69 CUBIC ANGSTROMS

          GRADIENT NORM           =          0.03351 = 0.00769 PER ATOM
          IONIZATION POTENTIAL    =         10.091195 EV
          HOMO LUMO ENERGIES (EV) =        -10.091  1.176
          NO. OF FILLED LEVELS    =         20
          MOLECULAR WEIGHT        =         96.1718

          MOLECULAR DIMENSIONS (Angstroms)

            Atom       Atom       Distance
            H    18    H    14     6.73864
            H    16    H    10     4.36318
            H    19    H     9     3.27840


          SCF CALCULATIONS        =        154
 
          WALL-CLOCK TIME         =          3.555 SECONDS
          COMPUTATION TIME        =          1.432 SECONDS




   ATOM   CHEMICAL          X               Y               Z
  NUMBER   SYMBOL      (ANGSTROMS)     (ANGSTROMS)     (ANGSTROMS)
 
     1       C         -0.14043418  *  -0.55917285  *   0.58584120  *
     2       C         -1.31791847  *   0.05700241  *  -0.13090852  *
     3       C         -1.34539570  *  -1.39445592  *   0.25700365  *
     4       C          1.14634614  *  -0.80050470  *  -0.15721753  *
     5       C         -2.19066008  *   1.03574526  *   0.58893225  *
     6       C          2.08512100  *   0.34448146  *   0.00009837  *
     7       C          2.73985345  *   0.89019566  *  -1.01793583  *
     8       H         -1.20150544  *   0.30611491  *  -1.20246345  *
     9       H          0.02780650  *  -0.27894613  *   1.64312032  *
    10       H         -1.28232492  *  -2.16496864  *  -0.51961035  *
    11       H         -2.00546972  *  -1.73344288  *   1.06336771  *
    12       H          0.94731583  *  -1.01217067  *  -1.22781511  *
    13       H          1.63048818  *  -1.71279421  *   0.24673250  *
    14       H         -3.19316130  *   1.06480190  *   0.14302522  *
    15       H         -2.30942815  *   0.78605760  *   1.65199309  *
    16       H         -1.76990335  *   2.04785435  *   0.53233677  *
    17       H          2.21636260  *   0.71964070  *   1.02246952  *
    18       H          3.43357956  *   1.71572362  *  -0.89229786  *
    19       H          2.63228558  *   0.55374982  *  -2.04561570  *

                             CARTESIAN COORDINATES

   1    C       -0.140434179    -0.559172849     0.585841201
   2    C       -1.317918466     0.057002408    -0.130908524
   3    C       -1.345395697    -1.394455917     0.257003646
   4    C        1.146346136    -0.800504702    -0.157217533
   5    C       -2.190660077     1.035745259     0.588932253
   6    C        2.085120996     0.344481459     0.000098367
   7    C        2.739853451     0.890195658    -1.017935834
   8    H       -1.201505443     0.306114911    -1.202463450
   9    H        0.027806503    -0.278946135     1.643120315
  10    H       -1.282324917    -2.164968637    -0.519610353
  11    H       -2.005469721    -1.733442881     1.063367712
  12    H        0.947315828    -1.012170674    -1.227815110
  13    H        1.630488177    -1.712794214     0.246732505
  14    H       -3.193161299     1.064801905     0.143025217
  15    H       -2.309428145     0.786057595     1.651993087
  16    H       -1.769903346     2.047854348     0.532336772
  17    H        2.216362601     0.719640702     1.022469524
  18    H        3.433579561     1.715723620    -0.892297863
  19    H        2.632285579     0.553749821    -2.045615701


           Empirical Formula: C7 H12  =    19 atoms



      MOLECULAR POINT GROUP   :   C1  


                  EIGENVALUES  
 -40.57075 -34.40537 -29.16299 -26.03431 -20.98742 -20.27837 -19.72022 -16.87052
 -16.29208 -15.54528 -14.89743 -14.18170 -13.90007 -13.15672 -12.62824 -12.26837
 -12.19469 -11.26490 -10.94356 -10.09119   1.17635   2.85923   3.14135   3.26203
   3.53472   3.63535   3.91388   3.95317   4.01299   4.15902   4.34349   4.39007
   4.46949   4.65885   4.97870   5.02194   5.12008   5.15317   5.63342   5.89444


              NET ATOMIC CHARGES AND DIPOLE CONTRIBUTIONS

  ATOM NO.   TYPE          CHARGE      No. of ELECS.   s-Pop       p-Pop       
    1          C          -0.134932        4.1349     1.17865     2.95629
    2          C          -0.131326        4.1313     1.17579     2.95553
    3          C          -0.154703        4.1547     1.16468     2.99003
    4          C          -0.039380        4.0394     1.14225     2.89713
    5          C          -0.080362        4.0804     1.13041     2.94995
    6          C          -0.132288        4.1323     1.19498     2.93731
    7          C          -0.169421        4.1694     1.18250     2.98693
    8          H           0.095603        0.9044     0.90440
    9          H           0.097146        0.9029     0.90285
   10          H           0.078345        0.9217     0.92166
   11          H           0.079146        0.9209     0.92085
   12          H           0.055901        0.9441     0.94410
   13          H           0.057894        0.9421     0.94211
   14          H           0.040359        0.9596     0.95964
   15          H           0.038774        0.9612     0.96123
   16          H           0.041751        0.9582     0.95825
   17          H           0.097102        0.9029     0.90290
   18          H           0.079230        0.9208     0.92077
   19          H           0.081161        0.9188     0.91884
 DIPOLE           X         Y         Z       TOTAL
 POINT-CHG.    -0.117    -0.072     0.087     0.163
 HYBRID        -0.000    -0.013     0.008     0.015
 SUM           -0.118    -0.085     0.095     0.174


          ATOMIC ORBITAL ELECTRON POPULATIONS

     Atom    s        px        py        pz   
    1  C   1.17865   0.90762   1.04849   1.00018
    2  C   1.17579   1.00533   0.95086   0.99934
    3  C   1.16468   1.01245   0.94351   1.03407
    4  C   1.14225   0.93643   0.96473   0.99597
    5  C   1.13041   0.98195   0.97857   0.98944
    6  C   1.19498   0.97514   0.97573   0.98643
    7  C   1.18250   1.00379   1.00328   0.97986
    8  H   0.90440
    9  H   0.90285
   10  H   0.92166
   11  H   0.92085
   12  H   0.94410
   13  H   0.94211
   14  H   0.95964
   15  H   0.96123
   16  H   0.95825
   17  H   0.90290
   18  H   0.92077
   19  H   0.91884
 *******************************************************************************
 ** Site#: 14399        For non-commercial use only    Version 18.184L 64BITS **
 *******************************************************************************
 ** Cite this program as: MOPAC2016, Version: 18.184L, James J. P. Stewart,   **
 ** Stewart Computational Chemistry, web: HTTP://OpenMOPAC.net. Days left:  20**
 *******************************************************************************
 **                                                                           **
 **                                MOPAC2016                                  **
 **                                                                           **
 *******************************************************************************

                              PM3 CALCULATION RESULTS

 *******************************************************************************
 *  CALCULATION DONE:                                Thu Jun 13 18:44:02 2019  *
 *  PM3        - The PM3 Hamiltonian to be used
 *  OLDGEO     - PREVIOUS GEOMETRY TO BE USED
 *  PRECISE    - CRITERIA TO BE INCREASED BY 100 TIMES
 *  NOSYM      - POINT-GROUP SYMMETRY SET TO C1
 *  THREADS=1  - MULTI-THREADING NOT USED
 *  T=         - A TIME OF 172800.0 SECONDS REQUESTED
 *  DUMP=N     - RESTART FILE WRITTEN EVERY  7200.000 SECONDS
 *  THERMO     - THERMODYNAMIC QUANTITIES TO BE CALCULATED
 *******************************************************************************
oldgeo thermo nosym precise THREADS=1  pm3
 InChI=1S/C7H12/c1-3-4-7-5-6(7)2/h3,6-7H,1,4-5H2,2H3

   ATOM   CHEMICAL          X               Y               Z
  NUMBER   SYMBOL      (ANGSTROMS)     (ANGSTROMS)     (ANGSTROMS)
 
     1       C         -0.14043418  *  -0.55917285  *   0.58584120  *
     2       C         -1.31791847  *   0.05700241  *  -0.13090852  *
     3       C         -1.34539570  *  -1.39445592  *   0.25700365  *
     4       C          1.14634614  *  -0.80050470  *  -0.15721753  *
     5       C         -2.19066008  *   1.03574526  *   0.58893225  *
     6       C          2.08512100  *   0.34448146  *   0.00009837  *
     7       C          2.73985345  *   0.89019566  *  -1.01793583  *
     8       H         -1.20150544  *   0.30611491  *  -1.20246345  *
     9       H          0.02780650  *  -0.27894613  *   1.64312032  *
    10       H         -1.28232492  *  -2.16496864  *  -0.51961035  *
    11       H         -2.00546972  *  -1.73344288  *   1.06336771  *
    12       H          0.94731583  *  -1.01217067  *  -1.22781511  *
    13       H          1.63048818  *  -1.71279421  *   0.24673250  *
    14       H         -3.19316130  *   1.06480190  *   0.14302522  *
    15       H         -2.30942815  *   0.78605760  *   1.65199309  *
    16       H         -1.76990335  *   2.04785435  *   0.53233677  *
    17       H          2.21636260  *   0.71964070  *   1.02246952  *
    18       H          3.43357956  *   1.71572362  *  -0.89229786  *
    19       H          2.63228558  *   0.55374982  *  -2.04561570  *
 


          CARTESIAN COORDINATES 

    NO.       ATOM           X           Y           Z

     1         C         -0.1404     -0.5592      0.5858
     2         C         -1.3179      0.0570     -0.1309
     3         C         -1.3454     -1.3945      0.2570
     4         C          1.1463     -0.8005     -0.1572
     5         C         -2.1907      1.0357      0.5889
     6         C          2.0851      0.3445      0.0001
     7         C          2.7399      0.8902     -1.0179
     8         H         -1.2015      0.3061     -1.2025
     9         H          0.0278     -0.2789      1.6431
    10         H         -1.2823     -2.1650     -0.5196
    11         H         -2.0055     -1.7334      1.0634
    12         H          0.9473     -1.0122     -1.2278
    13         H          1.6305     -1.7128      0.2467
    14         H         -3.1932      1.0648      0.1430
    15         H         -2.3094      0.7861      1.6520
    16         H         -1.7699      2.0479      0.5323
    17         H          2.2164      0.7196      1.0225
    18         H          3.4336      1.7157     -0.8923
    19         H          2.6323      0.5537     -2.0456

  H: (PM3): J. J. P. STEWART, J. COMP. CHEM. 10, 209 (1989).
  C: (PM3): J. J. P. STEWART, J. COMP. CHEM. 10, 209 (1989).

           Empirical Formula: C7 H12  =    19 atoms



      MOLECULAR POINT GROUP   :   C1  


      RHF CALCULATION, NO. OF DOUBLY OCCUPIED LEVELS = 20



          HEAT OF FORMATION =      20.764710 KCALS/MOLE


          CARTESIAN COORDINATE DERIVATIVES

   NUMBER  ATOM         X            Y            Z

     1       C     -0.001620    -0.003156    -0.001641
     2       C      0.002830     0.001219     0.008810
     3       C     -0.001049     0.002285    -0.002879
     4       C      0.001551    -0.000952    -0.003058
     5       C     -0.011030     0.001375     0.001259
     6       C     -0.006631    -0.012259    -0.007108
     7       C     -0.011527     0.008180     0.005544
     8       H      0.002728     0.002367    -0.004905
     9       H      0.002103     0.001534     0.004341
    10       H      0.001894     0.000750    -0.002433
    11       H      0.002001     0.002378     0.003521
    12       H      0.000324     0.003804     0.000285
    13       H      0.002306     0.004539     0.000491
    14       H      0.002351     0.002893    -0.003795
    15       H      0.000737     0.002191     0.004037
    16       H     -0.002090    -0.007371    -0.001492
    17       H      0.008844    -0.003390     0.001976
    18       H      0.000730    -0.004153    -0.000234
    19       H      0.005548    -0.002234    -0.002718
 


          GRADIENT NORM =   0.03363


          TIME FOR SCF CALCULATION =    0.02

          TIME FOR DERIVATIVES     =    0.01

          MOLECULAR WEIGHT =   96.17



          ROTATIONAL CONSTANTS IN CM(-1)

          A =    0.16836365   B =    0.04794556   C =    0.04144567



           PRINCIPAL MOMENTS OF INERTIA IN UNITS OF 10**(-40)*GRAM-CM**2

          A =      166.2638   B =      583.8450   C =      675.4089


          ORIENTATION OF MOLECULE IN FORCE CALCULATION

    NO.       ATOM         X         Y         Z

     1          C      -0.2787    0.5809    0.4777
     2          C       1.2312    0.5809    0.4777
     3          C       0.4762    1.8801    0.4777
     4          C      -1.0280    0.1660   -0.7604
     5          C       1.9695    0.1499    1.7052
     6          C      -1.3675   -1.2834   -0.7273
     7          C      -1.1721   -2.0973   -1.7580
     8          H       1.7507    0.2821   -0.4522
     9          H      -0.7975    0.2785    1.4072
    10          H       0.4812    2.5106   -0.4186
    11          H       0.4698    2.5098    1.3744
    12          H      -0.4509    0.4224   -1.6725
    13          H      -1.9696    0.7484   -0.8243
    14          H       2.9748    0.5897    1.7295
    15          H       1.4556    0.4501    2.6284
    16          H       2.0813   -0.9417    1.7294
    17          H      -1.8020   -1.6526    0.2097
    18          H      -1.4359   -3.1500   -1.7303
    19          H      -0.7377   -1.7735   -2.7000


    FIRST DERIVATIVES WILL BE USED IN THE CALCULATION OF SECOND DERIVATIVES

          ESTIMATED TIME TO COMPLETE CALCULATION =        7.12 SECONDS

    FOR POINT-GROUP C1   THERE ARE   1 UNIQUE SYMMETRY FUNCTIONS.

 STEP:   1 TIME =     0.05 SECS, INTEGRAL =      0.05 TIME LEFT: 172799.92
 STEP:   2 TIME =     0.03 SECS, INTEGRAL =      0.08 TIME LEFT: 172799.89
 STEP:   3 TIME =     0.04 SECS, INTEGRAL =      0.12 TIME LEFT: 172799.85
 STEP:   4 TIME =     0.03 SECS, INTEGRAL =      0.15 TIME LEFT: 172799.82
 STEP:   5 TIME =     0.03 SECS, INTEGRAL =      0.18 TIME LEFT: 172799.79
 STEP:   6 TIME =     0.04 SECS, INTEGRAL =      0.22 TIME LEFT: 172799.75
 STEP:   7 TIME =     0.05 SECS, INTEGRAL =      0.27 TIME LEFT: 172799.70
 STEP:   8 TIME =     0.04 SECS, INTEGRAL =      0.30 TIME LEFT: 172799.66
 STEP:   9 TIME =     0.03 SECS, INTEGRAL =      0.34 TIME LEFT: 172799.63
 STEP:  10 TIME =     0.03 SECS, INTEGRAL =      0.37 TIME LEFT: 172799.60
 STEP:  11 TIME =     0.03 SECS, INTEGRAL =      0.40 TIME LEFT: 172799.57
 STEP:  12 TIME =     0.03 SECS, INTEGRAL =      0.43 TIME LEFT: 172799.54
 STEP:  13 TIME =     0.03 SECS, INTEGRAL =      0.46 TIME LEFT: 172799.51
 STEP:  14 TIME =     0.03 SECS, INTEGRAL =      0.49 TIME LEFT: 172799.48
 STEP:  15 TIME =     0.03 SECS, INTEGRAL =      0.52 TIME LEFT: 172799.45
 STEP:  16 TIME =     0.03 SECS, INTEGRAL =      0.55 TIME LEFT: 172799.41
 STEP:  17 TIME =     0.03 SECS, INTEGRAL =      0.59 TIME LEFT: 172799.38
 STEP:  18 TIME =     0.03 SECS, INTEGRAL =      0.62 TIME LEFT: 172799.35
 STEP:  19 TIME =     0.04 SECS, INTEGRAL =      0.66 TIME LEFT: 172799.31
 STEP:  20 TIME =     0.04 SECS, INTEGRAL =      0.70 TIME LEFT: 172799.27
 STEP:  21 TIME =     0.03 SECS, INTEGRAL =      0.73 TIME LEFT: 172799.24
 STEP:  22 TIME =     0.03 SECS, INTEGRAL =      0.76 TIME LEFT: 172799.21
 STEP:  23 TIME =     0.04 SECS, INTEGRAL =      0.80 TIME LEFT: 172799.17
 STEP:  24 TIME =     0.04 SECS, INTEGRAL =      0.84 TIME LEFT: 172799.13
 STEP:  25 TIME =     0.03 SECS, INTEGRAL =      0.87 TIME LEFT: 172799.10
 STEP:  26 TIME =     0.04 SECS, INTEGRAL =      0.91 TIME LEFT: 172799.06
 STEP:  27 TIME =     0.03 SECS, INTEGRAL =      0.94 TIME LEFT: 172799.03
 STEP:  28 TIME =     0.03 SECS, INTEGRAL =      0.97 TIME LEFT: 172799.00
 STEP:  29 TIME =     0.03 SECS, INTEGRAL =      1.00 TIME LEFT: 172798.97
 STEP:  30 TIME =     0.05 SECS, INTEGRAL =      1.05 TIME LEFT: 172798.91
 STEP:  31 TIME =     0.04 SECS, INTEGRAL =      1.09 TIME LEFT: 172798.88
 STEP:  32 TIME =     0.04 SECS, INTEGRAL =      1.13 TIME LEFT: 172798.84
 STEP:  33 TIME =     0.03 SECS, INTEGRAL =      1.16 TIME LEFT: 172798.80
 STEP:  34 TIME =     0.03 SECS, INTEGRAL =      1.20 TIME LEFT: 172798.77
 STEP:  35 TIME =     0.04 SECS, INTEGRAL =      1.23 TIME LEFT: 172798.73
 STEP:  36 TIME =     0.03 SECS, INTEGRAL =      1.27 TIME LEFT: 172798.70
 STEP:  37 TIME =     0.03 SECS, INTEGRAL =      1.30 TIME LEFT: 172798.67
 STEP:  38 TIME =     0.03 SECS, INTEGRAL =      1.33 TIME LEFT: 172798.64
 STEP:  39 TIME =     0.04 SECS, INTEGRAL =      1.37 TIME LEFT: 172798.60
 STEP:  40 TIME =     0.03 SECS, INTEGRAL =      1.40 TIME LEFT: 172798.57
 STEP:  41 TIME =     0.04 SECS, INTEGRAL =      1.44 TIME LEFT: 172798.53
 STEP:  42 TIME =     0.03 SECS, INTEGRAL =      1.47 TIME LEFT: 172798.50
 STEP:  43 TIME =     0.03 SECS, INTEGRAL =      1.50 TIME LEFT: 172798.47
 STEP:  44 TIME =     0.03 SECS, INTEGRAL =      1.53 TIME LEFT: 172798.44
 STEP:  45 TIME =     0.02 SECS, INTEGRAL =      1.55 TIME LEFT: 172798.41
 STEP:  46 TIME =     0.03 SECS, INTEGRAL =      1.59 TIME LEFT: 172798.38
 STEP:  47 TIME =     0.03 SECS, INTEGRAL =      1.62 TIME LEFT: 172798.35
 STEP:  48 TIME =     0.02 SECS, INTEGRAL =      1.64 TIME LEFT: 172798.33
 STEP:  49 TIME =     0.03 SECS, INTEGRAL =      1.67 TIME LEFT: 172798.30
 STEP:  50 TIME =     0.03 SECS, INTEGRAL =      1.70 TIME LEFT: 172798.27
 STEP:  51 TIME =     0.05 SECS, INTEGRAL =      1.76 TIME LEFT: 172798.21
 STEP:  52 TIME =     0.05 SECS, INTEGRAL =      1.80 TIME LEFT: 172798.16
 STEP:  53 TIME =     0.04 SECS, INTEGRAL =      1.84 TIME LEFT: 172798.12
 STEP:  54 TIME =     0.04 SECS, INTEGRAL =      1.88 TIME LEFT: 172798.09
 STEP:  55 TIME =     0.03 SECS, INTEGRAL =      1.91 TIME LEFT: 172798.05
 STEP:  56 TIME =     0.07 SECS, INTEGRAL =      1.98 TIME LEFT: 172797.98
 STEP:  57 TIME =     0.05 SECS, INTEGRAL =      2.03 TIME LEFT: 172797.94

(To convert to Hartree/Bohr^2, multiply by (10^(-21) x N x a0^2)/(4.184 x 627.51) =  0.0642)


           FORCE MATRIX IN MILLIDYNES/ANGSTROM


                  C  1       C  2       C  3       C  4       C  5       C  6
 ------------------------------------------------------------------------------
     C    1  15.484372
     C    2   4.579181  15.544116
     C    3   4.898001   4.889794  15.339247
     C    4   4.521781   0.534969   0.544222  14.882040
     C    5   0.548971   4.872335   0.555777   0.045267  14.612797
     C    6   0.720161   0.016687   0.053527   4.940822   0.003201  18.194712
     C    7   0.043257   0.002873   0.008646   0.833816   0.001716  11.083244
     H    8   0.446230   4.543275   0.441087   0.023076   0.415959   0.002668
     H    9   4.529292   0.445336   0.439434   0.424746   0.022920   0.034459
     H   10   0.464295   0.454212   4.824287   0.023607   0.044391   0.003432
     H   11   0.456555   0.464117   4.825296   0.042952   0.023597   0.008548
     H   12   0.450217   0.026662   0.024889   4.417196   0.001430   0.457888
     H   13   0.435550   0.047074   0.014566   4.413347   0.008702   0.413751
     H   14   0.049105   0.449539   0.013832   0.008377   4.741582   0.000854
     H   15   0.023045   0.471861   0.021638   0.001137   4.715091   0.000868
     H   16   0.013934   0.450316   0.050950   0.002969   4.746789   0.000815
     H   17   0.029286   0.003269   0.002558   0.433939   0.000644   4.787948
     H   18   0.017479   0.001296   0.003056   0.135862   0.000503   0.462033
     H   19   0.010738   0.001166   0.001943   0.096163   0.000551   0.489769


                  C  7       H  8       H  9       H 10       H 11       H 12
 ------------------------------------------------------------------------------
     C    7  18.043859
     H    8   0.001821   5.072252
     H    9   0.002588   0.034480   5.064753
     H   10   0.001037   0.021264   0.038447   5.432890
     H   11   0.001692   0.038582   0.021245   0.491230   5.433161
     H   12   0.047414   0.021550   0.038861   0.013767   0.001064   5.024862
     H   13   0.032995   0.003496   0.022826   0.002778   0.002607   0.558409
     H   14   0.000493   0.027902   0.003622   0.002438   0.001927   0.000443
     H   15   0.000334   0.041643   0.017158   0.001616   0.014279   0.000497
     H   16   0.000605   0.027673   0.002051   0.008072   0.004132   0.000204
     H   17   0.453771   0.000745   0.026456   0.000761   0.000600   0.038583
     H   18   5.109164   0.000551   0.000668   0.000387   0.000611   0.003337
     H   19   5.072340   0.000596   0.000639   0.000388   0.000492   0.028866


                  H 13       H 14       H 15       H 16       H 17       H 18
 ------------------------------------------------------------------------------
     H   13   4.995609
     H   14   0.001749   5.461750
     H   15   0.000370   0.569648   5.448646
     H   16   0.000567   0.566988   0.569249   5.464205
     H   17   0.016663   0.000296   0.000333   0.000311   5.161905
     H   18   0.017750   0.000199   0.000184   0.000169   0.079309   5.498849
     H   19   0.011813   0.000205   0.000166   0.000274   0.117061   0.423574


                  H 19
 ------------------
     H   19   5.469477


          HEAT OF FORMATION =      20.764710 KCALS/MOLE

          ZERO POINT ENERGY     106.314 KCAL/MOL


           NORMAL COORDINATE ANALYSIS (Total motion = 1 Angstrom)


   Root No.       1         2         3         4         5         6         7         8

                 1 A       2 A       3 A       4 A       5 A       6 A       7 A       8 A   

                  58.7     105.3     156.9     170.1     300.4     352.1     416.2     459.6
  
           1   -0.0180    0.0002   -0.0011   -0.0055    0.0429    0.0028    0.0020   -0.0039
           2    0.0206   -0.0046    0.0026    0.0274   -0.0182   -0.0171   -0.0344    0.0216
           3    0.0055   -0.0097   -0.0007   -0.0129   -0.0225   -0.0236    0.0104   -0.0041
           4   -0.0182    0.0002   -0.0007   -0.0067    0.0426    0.0045   -0.0025   -0.0063
           5   -0.0242    0.0122   -0.0134    0.0210    0.0310   -0.0229   -0.0167   -0.0144
           6   -0.0125   -0.0092    0.0008   -0.0045   -0.0208   -0.0094   -0.0296   -0.0340
           7    0.0203   -0.0148    0.0130   -0.0015    0.0013    0.0061   -0.0259    0.0380
           8   -0.0018    0.0037   -0.0057    0.0246    0.0069   -0.0226   -0.0268    0.0061
           9   -0.0242    0.0290   -0.0140    0.0162   -0.0063    0.0258   -0.0127    0.0389
          10   -0.0420    0.0078   -0.0086    0.0128   -0.0224   -0.0273    0.0312    0.0059
          11    0.0176    0.0121    0.0027    0.0015   -0.0073    0.0298    0.0051   -0.0214
          12    0.0212   -0.0202    0.0039   -0.0141    0.0177   -0.0243   -0.0073    0.0054
          13   -0.0170    0.0045    0.0003   -0.0263   -0.0343    0.0018   -0.0261   -0.0259
          14   -0.0283   -0.0220    0.0047   -0.0421   -0.0065    0.0216    0.0068    0.0244
          15   -0.0148   -0.0242    0.0069   -0.0161    0.0154    0.0105   -0.0107   -0.0140
          16    0.0115   -0.0330   -0.0035    0.0496   -0.0175    0.0173    0.0119   -0.0093
          17    0.0047    0.0215    0.0016   -0.0075   -0.0096    0.0202    0.0178   -0.0239
          18    0.0119   -0.0051    0.0023    0.0194    0.0069   -0.0096    0.0365    0.0118
          19    0.0622    0.0316   -0.0007   -0.0173    0.0019   -0.0036    0.0076    0.0006
          20    0.0144   -0.0181    0.0047   -0.0135    0.0052   -0.0131    0.0441    0.0015
          21    0.0139    0.0386    0.0004    0.0119   -0.0012    0.0145    0.0179   -0.0084
          22   -0.0386    0.0036   -0.0010   -0.0026    0.0843    0.0155   -0.0021   -0.0226
          23   -0.0543    0.0475   -0.0262    0.0455    0.0713   -0.0144   -0.0204   -0.0252
          24   -0.0142   -0.0188    0.0049   -0.0105   -0.0082   -0.0045   -0.0271   -0.0379
          25   -0.0163    0.0030   -0.0057   -0.0116    0.0831    0.0045    0.0152   -0.0034
          26    0.0497   -0.0341    0.0175    0.0244   -0.0530   -0.0460   -0.0645    0.0229
          27    0.0159   -0.0176    0.0018   -0.0164   -0.0089   -0.0307    0.0072   -0.0031
          28    0.0291   -0.0208    0.0208    0.0112   -0.0179    0.0112   -0.0788    0.0412
          29   -0.0161    0.0305   -0.0156    0.0425    0.0138    0.0143   -0.0334    0.0724
          30   -0.0343    0.0479   -0.0210    0.0291   -0.0017    0.0527   -0.0180    0.0884
          31    0.0496   -0.0234    0.0202   -0.0094   -0.0239    0.0053   -0.0032    0.0892
          32    0.0126   -0.0234    0.0039    0.0059    0.0000   -0.0592   -0.0215   -0.0602
          33   -0.0341    0.0480   -0.0209    0.0293   -0.0017    0.0526   -0.0168    0.0886
          34   -0.0771    0.0312   -0.0161    0.0133   -0.0822   -0.0685    0.0810    0.0240
          35    0.0507   -0.0147    0.0071   -0.0030    0.0173    0.0634   -0.0363   -0.0479
          36    0.0083   -0.0127    0.0005   -0.0145   -0.0123   -0.0390    0.0105    0.0086
          37   -0.0632    0.0268   -0.0110   -0.0010   -0.0313   -0.0418    0.0587    0.0071
          38   -0.0131    0.0401   -0.0001   -0.0232   -0.0124    0.0122    0.0418   -0.0245
          39    0.0574   -0.0418    0.0125   -0.0320    0.0931    0.0306   -0.0618   -0.0328
          40   -0.0059   -0.0015   -0.0958   -0.0246   -0.0229   -0.0048   -0.0297   -0.0348
          41   -0.0531   -0.0093    0.2189   -0.0485   -0.0387    0.0382    0.0126    0.0441
          42   -0.0298   -0.0064    0.1282    0.0241    0.0927   -0.0038    0.0095   -0.0088
          43   -0.0005   -0.0011   -0.1312   -0.0403   -0.0853   -0.0055   -0.0531   -0.0518
          44   -0.0048   -0.0633   -0.2090   -0.0902   -0.0114    0.0552    0.0210    0.0557
          45   -0.0133   -0.0139    0.0032   -0.0083   -0.0104   -0.0039   -0.0295   -0.0370
          46   -0.0440    0.0193    0.2344   -0.0320   -0.0717    0.0175   -0.0238   -0.0112
          47   -0.0308   -0.0215    0.0262   -0.0442   -0.0109    0.0249    0.0077    0.0280
          48   -0.0032   -0.0645   -0.1054   -0.0739   -0.0003    0.0596    0.0122    0.0351
          49    0.0104   -0.1166   -0.0009    0.1314   -0.0266    0.0775    0.0427   -0.0400
          50   -0.0130    0.0619   -0.0016   -0.0118   -0.0203    0.0227    0.0181   -0.0269
          51    0.0043   -0.0277    0.0021    0.0561   -0.0018    0.0206    0.0499   -0.0048
          52    0.1035    0.0085    0.0041    0.0041    0.0099    0.0419    0.0385   -0.0272
          53    0.0039   -0.0120    0.0035   -0.0180    0.0028   -0.0229    0.0368    0.0072
          54    0.0073    0.0555   -0.0019    0.0439   -0.0216    0.0823   -0.0069   -0.0623
          55    0.0665    0.1131   -0.0028   -0.0996    0.0129   -0.0707   -0.0239    0.0404
          56    0.0332   -0.0603    0.0089   -0.0145    0.0230   -0.0398    0.0864    0.0279
          57    0.0223    0.0616    0.0008   -0.0261    0.0098   -0.0247    0.0173    0.0183


   Root No.       9        10        11        12        13        14        15        16

                 9 A      10 A      11 A      12 A      13 A      14 A      15 A      16 A   

                 479.4     620.8     837.6     874.0     885.1     922.7     934.2     937.4
  
           1    0.0044    0.0019    0.0212   -0.0065    0.0013    0.0206    0.0016   -0.0003
           2   -0.0049    0.0032   -0.0091   -0.0045    0.0216    0.0045    0.0170   -0.0007
           3    0.0461    0.0219   -0.0101    0.0003   -0.0077   -0.0118    0.0023    0.0111
           4   -0.0009    0.0058   -0.0225    0.0060    0.0179   -0.0108    0.0046    0.0047
           5   -0.0009    0.0089   -0.0121    0.0001   -0.0134   -0.0094   -0.0120   -0.0002
           6   -0.0243   -0.0040    0.0089   -0.0025   -0.0166    0.0005   -0.0090   -0.0011
           7    0.0007    0.0133   -0.0025    0.0049   -0.0279   -0.0073   -0.0094   -0.0022
           8    0.0001    0.0075    0.0112   -0.0131   -0.0015    0.0247    0.0109   -0.0041
           9   -0.0042    0.0028   -0.0012    0.0022   -0.0175   -0.0040    0.0133    0.0013
          10    0.0182   -0.0012    0.0376   -0.0242    0.0048   -0.0052   -0.0030    0.0100
          11    0.0171   -0.0029   -0.0124    0.0048   -0.0056    0.0026    0.0107    0.0152
          12    0.0303    0.0105    0.0140    0.0203    0.0170    0.0072   -0.0015   -0.0064
          13   -0.0257   -0.0036   -0.0209   -0.0032    0.0218   -0.0091    0.0054    0.0060
          14    0.0061    0.0022   -0.0005    0.0023   -0.0126   -0.0163   -0.0270    0.0036
          15   -0.0121   -0.0019   -0.0155   -0.0107    0.0104    0.0095   -0.0009   -0.0072
          16    0.0239   -0.0459   -0.0036    0.0030    0.0006   -0.0135    0.0086   -0.0169
          17    0.0171   -0.0005    0.0065    0.0037    0.0047   -0.0003   -0.0062   -0.0016
          18   -0.0359   -0.0238   -0.0023   -0.0025   -0.0025   -0.0035    0.0017   -0.0098
          19   -0.0079    0.0066   -0.0013    0.0053    0.0022    0.0005   -0.0017   -0.0143
          20   -0.0300   -0.0137    0.0050    0.0065    0.0071    0.0017   -0.0143   -0.0263
          21   -0.0054   -0.0075    0.0021   -0.0054   -0.0036   -0.0056    0.0033    0.0059
          22   -0.0229   -0.0018   -0.0308    0.0396   -0.0218   -0.0098    0.0225   -0.0290
          23   -0.0224    0.0028   -0.0157    0.0782   -0.0634   -0.0455    0.0717   -0.0161
          24   -0.0285   -0.0060    0.0031   -0.0098   -0.0208    0.0132   -0.0250   -0.0152
          25    0.0301    0.0145    0.0027    0.0153   -0.0442    0.0603    0.0327   -0.0325
          26   -0.0182    0.0082    0.0160    0.0158    0.1288   -0.0472   -0.0240    0.0517
          27    0.0546    0.0294   -0.0098    0.0203    0.0027   -0.0056    0.0062    0.0103
          28   -0.0632   -0.0085    0.1308    0.1569   -0.0707   -0.0771   -0.0191    0.0359
          29   -0.0166    0.0005    0.0203   -0.0280    0.0962    0.0386   -0.0531   -0.0036
          30   -0.0169   -0.0024    0.0074   -0.0082    0.0556    0.0062   -0.0360    0.0020
          31    0.0624    0.0473   -0.1403   -0.1306   -0.0939    0.0249   -0.0291   -0.0623
          32    0.0165    0.0158   -0.0027    0.0026   -0.0954    0.0108    0.0817   -0.0032
          33   -0.0159   -0.0028    0.0074   -0.0106    0.0532    0.0063   -0.0400    0.0005
          34    0.0170    0.0706   -0.0418    0.0690    0.0102    0.0047    0.0131   -0.0049
          35    0.0636   -0.0595    0.0435   -0.0618   -0.0156   -0.0548    0.0176    0.0590
          36    0.0432    0.0381   -0.0182    0.0578    0.0173   -0.0038    0.0101   -0.0031
          37    0.0084    0.0502    0.0268    0.0140    0.0051    0.0391   -0.0119    0.0228
          38    0.0045    0.0700   -0.0133    0.0517   -0.0055    0.0723   -0.0074    0.0426
          39    0.0535   -0.0509    0.1404   -0.0843    0.0098    0.0087   -0.0308    0.0430
          40   -0.0263   -0.0003   -0.0379   -0.0069    0.0234   -0.0307   -0.0253    0.0123
          41    0.0039   -0.0073    0.0438    0.0104   -0.0210    0.0427    0.0477   -0.0167
          42    0.0179    0.0161   -0.0904   -0.0017    0.0824   -0.0859   -0.0168    0.0500
          43   -0.0537   -0.0138    0.0137   -0.0231   -0.0435    0.0464   -0.0384   -0.0412
          44    0.0097   -0.0017    0.0144    0.0215    0.0181    0.0034    0.0650    0.0108
          45   -0.0278   -0.0059   -0.0020   -0.0274   -0.0337    0.0331   -0.0526   -0.0346
          46   -0.0326   -0.0151    0.0204   -0.0005    0.0173    0.0605    0.0827   -0.0210
          47    0.0056    0.0008    0.0052    0.0039   -0.0122   -0.0075   -0.0134    0.0008
          48   -0.0057   -0.0100    0.0065    0.0112    0.0689    0.0571    0.1539   -0.0023
          49   -0.0108    0.0396   -0.0489    0.0619   -0.0185    0.1247   -0.0712    0.1381
          50    0.0264   -0.0331    0.0231   -0.0459   -0.0053   -0.0615    0.0291    0.0062
          51   -0.0461    0.0026   -0.0164    0.0054   -0.0152    0.0363   -0.0218    0.0645
          52   -0.0860    0.2577    0.0548   -0.0574    0.0038   -0.0255    0.0163    0.0410
          53   -0.0104   -0.0742   -0.0079    0.0221    0.0074    0.0078   -0.0200   -0.0422
          54    0.0540    0.0880    0.0373    0.0415    0.0494    0.0125   -0.0616   -0.1306
          55    0.0265   -0.1652   -0.0452    0.0372   -0.0135    0.0787   -0.0463    0.0946
          56   -0.1163    0.0227    0.0084   -0.0663   -0.0344   -0.0488    0.0548    0.0800
          57   -0.0175   -0.0741   -0.0164   -0.0144   -0.0240    0.0134    0.0049    0.0894


   Root No.      17        18        19        20        21        22        23        24

                17 A      18 A      19 A      20 A      21 A      22 A      23 A      24 A   

                 966.2     994.2    1011.8    1048.3    1069.5    1110.2    1149.4    1155.5
  
           1   -0.0075   -0.0044    0.0049    0.0053   -0.0200   -0.0205   -0.0381   -0.0054
           2    0.0022   -0.0030   -0.0055    0.0037   -0.0091    0.0591    0.0219    0.0065
           3    0.0029   -0.0024   -0.0034   -0.0104    0.0003   -0.0204    0.0199    0.0215
           4    0.0017    0.0047   -0.0024    0.0005   -0.0248    0.0008    0.0410    0.0095
           5   -0.0000   -0.0014   -0.0015   -0.0065    0.0048   -0.0387    0.0501    0.0012
           6    0.0008   -0.0019    0.0068    0.0030    0.0032   -0.0237   -0.0046   -0.0272
           7    0.0013    0.0001    0.0013   -0.0006   -0.0105   -0.0214    0.0107   -0.0139
           8   -0.0049   -0.0201   -0.0035   -0.0053    0.0079   -0.0172   -0.0342   -0.0061
           9    0.0148   -0.0146    0.0126    0.0118   -0.0300    0.0121   -0.0097    0.0049
          10    0.0165    0.0037    0.0012   -0.0095    0.0072    0.0264    0.0144   -0.0059
          11   -0.0218    0.0031    0.0032    0.0165   -0.0003    0.0037    0.0101   -0.0143
          12   -0.0094    0.0106   -0.0028    0.0058    0.0025    0.0177   -0.0121   -0.0168
          13    0.0052   -0.0191    0.0015   -0.0007    0.0191    0.0057   -0.0145   -0.0042
          14   -0.0052   -0.0033    0.0029    0.0075   -0.0088    0.0185   -0.0173   -0.0005
          15   -0.0070    0.0057   -0.0091   -0.0043    0.0042    0.0142    0.0016    0.0244
          16   -0.0160    0.0022   -0.0084    0.0350    0.0057   -0.0138   -0.0070    0.0068
          17    0.0072    0.0030   -0.0055   -0.0160   -0.0026    0.0001   -0.0104    0.0023
          18   -0.0015   -0.0042    0.0022    0.0172    0.0034   -0.0023    0.0098   -0.0026
          19   -0.0073   -0.0052    0.0303   -0.0365   -0.0039    0.0054    0.0011    0.0012
          20    0.0231   -0.0072   -0.0059    0.0031    0.0007   -0.0047    0.0020    0.0015
          21   -0.0069    0.0025    0.0054   -0.0178   -0.0008    0.0027   -0.0006   -0.0076
          22    0.0150    0.1390   -0.0054    0.0026    0.0017    0.0949   -0.0302   -0.0700
          23    0.0790    0.1573    0.0343   -0.0088    0.1174    0.0400   -0.0817    0.0342
          24   -0.0172    0.0224   -0.0071    0.0045   -0.0171    0.0051   -0.0017   -0.0831
          25   -0.0555   -0.0583   -0.0924   -0.0487    0.0151    0.0657   -0.0468    0.0949
          26    0.0406    0.1317    0.0833    0.0267   -0.1012   -0.1121   -0.0968    0.0674
          27   -0.0120    0.0118   -0.0293   -0.0335   -0.0090   -0.0268   -0.0259    0.0997
          28   -0.0206   -0.0517   -0.0402   -0.0378    0.1146    0.0073    0.0201    0.0746
          29   -0.0618    0.0273   -0.0447   -0.0449    0.0882   -0.0673   -0.0174   -0.0156
          30   -0.0284    0.0206   -0.0182   -0.0178    0.0299   -0.0259    0.0024   -0.0013
          31    0.0470    0.0533    0.0311   -0.0068    0.1326   -0.0203   -0.0433    0.0044
          32    0.0533   -0.0715    0.0349    0.0287   -0.0673    0.0214   -0.0664    0.0060
          33   -0.0283    0.0240   -0.0160   -0.0141    0.0267   -0.0182    0.0141   -0.0036
          34   -0.0455    0.0260   -0.0486   -0.0199   -0.0039    0.0064   -0.0406   -0.0814
          35    0.0054    0.0327   -0.0581   -0.0635    0.0056    0.0166    0.0256   -0.1099
          36   -0.0391    0.0333   -0.0514   -0.0245   -0.0023    0.0097   -0.0422   -0.0917
          37   -0.0276    0.0023    0.0759    0.0664    0.0476    0.0206    0.0241    0.0235
          38   -0.0859    0.0012    0.1352    0.1429    0.0727   -0.0004    0.0355    0.0383
          39    0.0391    0.0097    0.0888    0.0348    0.0681    0.0704    0.0473    0.0244
          40   -0.0008   -0.0327    0.0026    0.0054    0.0217    0.0323   -0.0384    0.0005
          41    0.0066    0.0397   -0.0030   -0.0085   -0.0185   -0.0425    0.0472   -0.0063
          42    0.0240   -0.1125    0.0182    0.0069    0.0757    0.0358   -0.0860   -0.0112
          43   -0.0404    0.0711   -0.0305   -0.0059   -0.0350    0.0460    0.0250    0.0647
          44    0.0318   -0.0120    0.0139   -0.0054    0.0196   -0.0479    0.0162   -0.0344
          45   -0.0429    0.0560   -0.0300   -0.0036   -0.0321    0.0563    0.0119    0.0739
          46    0.0117    0.0315   -0.0134   -0.0223    0.0162   -0.0382    0.0558    0.0173
          47   -0.0024    0.0024    0.0020    0.0044   -0.0078    0.0095   -0.0073    0.0003
          48    0.0461   -0.0074   -0.0026   -0.0334    0.0632   -0.0821    0.0590    0.0015
          49    0.0712    0.0032    0.0125   -0.1060   -0.0101    0.0239   -0.0105    0.0019
          50   -0.0200    0.0221   -0.0385   -0.0249   -0.0128   -0.0602   -0.0965    0.1367
          51    0.0288    0.0038   -0.0017   -0.0524   -0.0079   -0.0086   -0.0261    0.0482
          52    0.0370    0.0210   -0.1248    0.1370    0.0114   -0.0106   -0.0031    0.0055
          53    0.0147   -0.0140    0.0308   -0.0401   -0.0031   -0.0019    0.0020    0.0011
          54    0.1013   -0.0292   -0.0346    0.0347    0.0049   -0.0117    0.0085   -0.0066
          55    0.0816    0.0082   -0.1053    0.1133    0.0116   -0.0195   -0.0028    0.0079
          56   -0.0682    0.0280   -0.0017   -0.0423   -0.0035   -0.0008   -0.0236   -0.0064
          57    0.0047    0.0200   -0.0556    0.0349    0.0051   -0.0073   -0.0107   -0.0089


   Root No.      25        26        27        28        29        30        31        32

                25 A      26 A      27 A      28 A      29 A      30 A      31 A      32 A   

                1167.1    1183.0    1203.8    1213.7    1262.4    1274.8    1324.8    1368.7
  
           1   -0.0131   -0.0156   -0.0044   -0.0123   -0.0077   -0.0233    0.0124   -0.0097
           2   -0.0015    0.0188   -0.0046   -0.0018    0.0078   -0.0181    0.0159    0.0001
           3    0.0193   -0.0025   -0.0285   -0.0205   -0.0338    0.0026    0.0188    0.0073
           4   -0.0253    0.0005    0.0022    0.0007   -0.0032   -0.0108    0.0193    0.0185
           5   -0.0144    0.0049    0.0163    0.0099    0.0138    0.0106   -0.0191   -0.0121
           6    0.0006    0.0268   -0.0108   -0.0088    0.0261   -0.0320    0.0103   -0.0008
           7    0.0658    0.0105    0.0127    0.0084    0.0034    0.0139   -0.0107   -0.0026
           8    0.0061   -0.0111   -0.0061   -0.0012   -0.0247    0.0152    0.0035    0.0011
           9   -0.0175   -0.0050    0.0040    0.0080    0.0048    0.0109   -0.0065   -0.0005
          10    0.0037   -0.0063   -0.0041   -0.0063   -0.0011   -0.0080   -0.0090   -0.0139
          11    0.0019   -0.0191   -0.0169   -0.0093   -0.0145   -0.0260   -0.0092   -0.0196
          12   -0.0142    0.0119    0.0407   -0.0019   -0.0031   -0.0119   -0.0069   -0.0196
          13    0.0057    0.0008    0.0001    0.0014    0.0010    0.0022    0.0007    0.0104
          14    0.0048   -0.0014   -0.0027   -0.0018   -0.0016   -0.0017   -0.0000   -0.0069
          15    0.0098   -0.0257    0.0170    0.0059   -0.0043    0.0020    0.0055    0.0177
          16   -0.0021    0.0077    0.0123   -0.0104    0.0069    0.0121    0.0020    0.0060
          17   -0.0060    0.0120    0.0284   -0.0345    0.0102    0.0121   -0.0166    0.0150
          18    0.0054   -0.0120   -0.0225    0.0164   -0.0093   -0.0142   -0.0123    0.0001
          19    0.0010    0.0009   -0.0043    0.0091   -0.0039   -0.0046    0.0018   -0.0032
          20    0.0025   -0.0024   -0.0065    0.0071    0.0002    0.0013   -0.0060    0.0073
          21   -0.0020   -0.0040    0.0103   -0.0223    0.0100    0.0109   -0.0097    0.0117
          22   -0.0447    0.1098   -0.1372   -0.0276   -0.1105    0.1118   -0.0185   -0.0013
          23    0.1607   -0.0488    0.0317   -0.0223    0.0221   -0.0733    0.0324    0.0038
          24   -0.0685    0.1088   -0.0979   -0.0151   -0.0374    0.0661   -0.0287   -0.0184
          25    0.0320    0.0459   -0.1337   -0.0055    0.1775   -0.0037   -0.0436   -0.0117
          26   -0.0683   -0.0636   -0.0741   -0.0029    0.0787    0.0291   -0.0459   -0.0142
          27    0.0225    0.0075   -0.1267   -0.0179    0.0949    0.0297   -0.0338    0.0017
          28   -0.1826   -0.0555   -0.0192   -0.0234   -0.0471    0.0007    0.0121    0.0033
          29    0.0513    0.0011   -0.0347   -0.0218   -0.0540    0.0126    0.0342    0.0961
          30    0.0137    0.0052   -0.0187   -0.0090   -0.0151    0.0070    0.0149    0.0617
          31   -0.2049   -0.0209    0.0044   -0.0064    0.0339   -0.0373    0.0031   -0.0014
          32   -0.0309   -0.0404    0.0105    0.0274   -0.0355    0.0600    0.0034    0.0927
          33    0.0073    0.0172   -0.0105   -0.0133    0.0116   -0.0202   -0.0048   -0.0597
          34   -0.0326   -0.0266    0.0381    0.1011    0.0476    0.0251   -0.0289    0.0692
          35    0.0012   -0.1174   -0.0950    0.1837    0.0366    0.0098    0.0360   -0.0065
          36   -0.0378   -0.0256    0.0479    0.1212    0.0406    0.0201   -0.0106    0.0431
          37    0.0080    0.0120   -0.0087    0.0472    0.0215    0.0303    0.0208    0.0003
          38    0.0122    0.0126   -0.0294    0.0848    0.0239    0.0418    0.0413    0.0056
          39    0.0077    0.0437    0.0202    0.0514    0.0398    0.0613   -0.0380    0.0849
          40    0.0132   -0.0083    0.0017    0.0040   -0.0101    0.0203   -0.0176   -0.0258
          41   -0.0152    0.0165   -0.0040   -0.0056    0.0195   -0.0348    0.0344    0.0637
          42    0.0340   -0.0046   -0.0039    0.0075   -0.0076    0.0508   -0.0597   -0.0759
          43    0.0064   -0.0583    0.0311    0.0159   -0.0306    0.0476   -0.0376   -0.0510
          44   -0.0092    0.0375   -0.0156   -0.0073    0.0223   -0.0260    0.0195    0.0361
          45    0.0159   -0.0714    0.0386    0.0161   -0.0289    0.0376   -0.0264   -0.0368
          46   -0.0122   -0.0115    0.0180    0.0132   -0.0153    0.0428   -0.0417   -0.0648
          47    0.0027   -0.0009   -0.0009   -0.0010   -0.0008   -0.0006   -0.0018   -0.0093
          48   -0.0106    0.0011    0.0169    0.0148   -0.0055    0.0525   -0.0610   -0.0822
          49   -0.0061    0.0213    0.0263    0.0028   -0.0036   -0.0003    0.0025   -0.0016
          50   -0.0168    0.1694    0.0618    0.1831   -0.0734   -0.0508    0.0180   -0.0196
          51   -0.0008    0.0573   -0.0030    0.1127   -0.0492   -0.0468    0.0011   -0.0178
          52   -0.0021    0.0056    0.0067   -0.0164   -0.0109   -0.0229   -0.0663    0.0257
          53    0.0031   -0.0026   -0.0077    0.0147    0.0048    0.0116    0.0237   -0.0042
          54    0.0072   -0.0160   -0.0206    0.0500    0.0335    0.0661    0.1859   -0.0747
          55    0.0009    0.0042   -0.0008    0.0077    0.0010    0.0069    0.0192   -0.0066
          56   -0.0139    0.0162    0.0628   -0.0558    0.0608    0.0995    0.1801   -0.0630
          57   -0.0076    0.0021    0.0353   -0.0437    0.0357    0.0538    0.0701   -0.0165


   Root No.      33        34        35        36        37        38        39        40

                33 A      34 A      35 A      36 A      37 A      38 A      39 A      40 A   

                1397.6    1398.6    1404.2    1412.6    1429.1    1617.7    1861.5    2939.4
  
           1    0.0089   -0.0008   -0.0022   -0.0149   -0.0209   -0.1167   -0.0017    0.0015
           2    0.0013    0.0025   -0.0037   -0.0114   -0.0226   -0.0677   -0.0034    0.0011
           3    0.0100   -0.0010   -0.0043   -0.0207   -0.0165   -0.0381   -0.0002   -0.0032
           4    0.0010    0.0078   -0.0029   -0.0015   -0.0228    0.1186    0.0011    0.0000
           5   -0.0020   -0.0047    0.0019    0.0076    0.0181   -0.0679   -0.0005    0.0003
           6    0.0036    0.0095   -0.0010    0.0053   -0.0304    0.0415    0.0002    0.0007
           7   -0.0025   -0.0011    0.0006    0.0035    0.0088   -0.0005    0.0007    0.0001
           8    0.0035   -0.0078   -0.0049   -0.0338    0.0126    0.1085    0.0017   -0.0000
           9   -0.0030   -0.0007    0.0003    0.0015    0.0060   -0.0004    0.0002    0.0002
          10   -0.0077   -0.0010    0.0052    0.0205    0.0197    0.0245   -0.0071   -0.0483
          11    0.0416   -0.0104    0.0121    0.0339    0.0268    0.0218   -0.0369    0.0104
          12   -0.0316    0.0032    0.0043    0.0214    0.0195    0.0263   -0.0097    0.0267
          13   -0.0084   -0.0287   -0.0143    0.0011    0.0287   -0.0250   -0.0002    0.0000
          14    0.0063    0.0129   -0.0313    0.0050   -0.0154    0.0153    0.0001   -0.0000
          15   -0.0026    0.0098   -0.0019   -0.0097    0.0501   -0.0303   -0.0001   -0.0000
          16   -0.0052    0.0017   -0.0024   -0.0071   -0.0053   -0.0012   -0.0172    0.0007
          17   -0.0184    0.0048   -0.0054   -0.0142   -0.0100   -0.0031    0.1727    0.0010
          18    0.0063   -0.0014    0.0013    0.0034    0.0031    0.0021    0.1577   -0.0016
          19    0.0028   -0.0008    0.0011    0.0033    0.0023    0.0006    0.0279   -0.0002
          20   -0.0050    0.0016   -0.0026   -0.0080   -0.0058   -0.0022   -0.1258   -0.0003
          21   -0.0120    0.0033   -0.0043   -0.0122   -0.0087   -0.0025   -0.1540    0.0001
          22   -0.0110   -0.0153   -0.0030   -0.0133    0.0415   -0.0349    0.0000    0.0037
          23    0.0098    0.0081   -0.0083   -0.0072   -0.0355    0.0118   -0.0001   -0.0020
          24   -0.0075   -0.0072    0.0022    0.0034    0.0240   -0.0782   -0.0008   -0.0050
          25   -0.0059    0.0071    0.0031    0.0374    0.0216    0.0338   -0.0033   -0.0247
          26    0.0043   -0.0057    0.0067    0.0240    0.0355    0.0118   -0.0036   -0.0133
          27    0.0024    0.0010    0.0018    0.0215    0.0280    0.0803    0.0001    0.0358
          28    0.0055   -0.0051   -0.0009   -0.0110    0.0046   -0.0183   -0.0002   -0.0001
          29   -0.0250    0.0503    0.0217    0.1568   -0.0561   -0.0147    0.0000    0.0016
          30   -0.0209    0.0379    0.0177    0.1261   -0.0407   -0.0854   -0.0009   -0.0013
          31   -0.0022    0.0060    0.0020    0.0101   -0.0080    0.0198    0.0003    0.0002
          32   -0.0381    0.0441    0.0236    0.1659   -0.0265   -0.0163    0.0007   -0.0001
          33    0.0247   -0.0341   -0.0183   -0.1302    0.0302    0.0856    0.0011   -0.0002
          34    0.1872   -0.0276    0.0028   -0.0269   -0.0316   -0.0359    0.0055    0.2136
          35   -0.1645    0.0312   -0.0232   -0.0501   -0.0337   -0.0278    0.0422    0.1011
          36    0.0573   -0.0057   -0.0058   -0.0320   -0.0313   -0.0271    0.0212   -0.3474
          37   -0.0893    0.0167   -0.0112   -0.0204   -0.0110    0.0030    0.0003    0.3665
          38   -0.1031    0.0208   -0.0165   -0.0368   -0.0258   -0.0089   -0.0114   -0.2292
          39    0.2102   -0.0322    0.0055   -0.0178   -0.0191    0.0055    0.0084    0.0295
          40    0.0240    0.0933   -0.0567    0.0003    0.0075   -0.0125   -0.0001    0.0001
          41   -0.0608   -0.2311    0.1003    0.0018    0.0184   -0.0033   -0.0000    0.0000
          42   -0.0086   -0.0570    0.2037    0.0046   -0.1234    0.0006   -0.0001    0.0000
          43   -0.0115   -0.0702    0.1856    0.0032   -0.1254    0.0444    0.0002   -0.0001
          44   -0.0095    0.0784    0.2864   -0.0601    0.0630   -0.0260   -0.0002    0.0001
          45   -0.0020   -0.0566    0.0090    0.0174   -0.0781    0.0258    0.0002    0.0001
          46    0.0576    0.2634    0.0605   -0.0255   -0.0166   -0.0047   -0.0000   -0.0000
          47    0.0089    0.0317   -0.0074    0.0001   -0.0149    0.0135    0.0001    0.0002
          48    0.0072   -0.0933   -0.1762    0.0629   -0.1132   -0.0009   -0.0000    0.0000
          49   -0.0081    0.0012   -0.0004    0.0001    0.0001    0.0007   -0.0545   -0.0100
          50    0.0008   -0.0019    0.0047    0.0146    0.0092    0.0043   -0.1043   -0.0050
          51    0.0132   -0.0046    0.0066    0.0191    0.0140    0.0068    0.0746    0.0203
          52   -0.0239    0.0061   -0.0067   -0.0169   -0.0103   -0.0005   -0.0515   -0.0008
          53    0.0051   -0.0010    0.0003   -0.0005   -0.0013   -0.0022   -0.1301   -0.0020
          54    0.0628   -0.0166    0.0196    0.0504    0.0318    0.0042    0.0583   -0.0004
          55    0.0095   -0.0021    0.0021    0.0046    0.0027   -0.0002    0.0613    0.0014
          56    0.0463   -0.0124    0.0153    0.0398    0.0244    0.0032    0.1128   -0.0000
          57    0.0104   -0.0025    0.0028    0.0061    0.0026   -0.0011   -0.0913   -0.0029


   Root No.      41        42        43        44        45        46        47        48

                41 A      42 A      43 A      44 A      45 A      46 A      47 A      48 A   

                2995.1    3001.8    3016.3    3042.1    3076.7    3081.8    3089.7    3130.5
  
           1    0.0197    0.0123    0.0010   -0.0001   -0.0003    0.0000    0.0012    0.0010
           2    0.0117    0.0068    0.0007    0.0001   -0.0000   -0.0002    0.0007    0.0001
           3   -0.0328   -0.0214   -0.0026    0.0005    0.0000    0.0004   -0.0027   -0.0001
           4   -0.0133    0.0186   -0.0009   -0.0001    0.0017   -0.0000    0.0013   -0.0010
           5    0.0080   -0.0105    0.0007    0.0001   -0.0010   -0.0002   -0.0008    0.0001
           6    0.0219   -0.0321    0.0017    0.0001   -0.0025   -0.0000   -0.0028    0.0001
           7    0.0001    0.0004   -0.0001   -0.0000   -0.0001   -0.0002    0.0004    0.0000
           8   -0.0007    0.0001    0.0001   -0.0000   -0.0003   -0.0000    0.0000   -0.0428
           9    0.0008    0.0042   -0.0001   -0.0002    0.0013    0.0024   -0.0541   -0.0000
          10    0.0036    0.0015   -0.0096    0.0014   -0.0000    0.0000    0.0002    0.0001
          11   -0.0023   -0.0002    0.0239    0.0014   -0.0000   -0.0000    0.0003    0.0002
          12   -0.0000   -0.0010   -0.0284   -0.0036    0.0001   -0.0000    0.0001   -0.0002
          13    0.0016   -0.0021    0.0002    0.0000    0.0355   -0.0251   -0.0001   -0.0006
          14   -0.0010    0.0012   -0.0001   -0.0000   -0.0171   -0.0483   -0.0027    0.0005
          15   -0.0012    0.0016   -0.0001   -0.0000   -0.0293   -0.0021   -0.0009    0.0002
          16    0.0001    0.0001   -0.0012    0.0258   -0.0000   -0.0000   -0.0000    0.0000
          17   -0.0001    0.0000   -0.0004    0.0184   -0.0000   -0.0000   -0.0001    0.0000
          18   -0.0005   -0.0004    0.0028   -0.0580    0.0000    0.0000    0.0001    0.0000
          19    0.0000    0.0000    0.0002   -0.0021   -0.0000   -0.0000    0.0000    0.0002
          20    0.0000    0.0000    0.0001   -0.0026    0.0000    0.0000    0.0000    0.0001
          21    0.0000    0.0000   -0.0006    0.0039    0.0000    0.0000   -0.0000   -0.0005
          22    0.1532   -0.2258    0.0113    0.0010   -0.0154   -0.0007   -0.0180    0.0007
          23   -0.0896    0.1276   -0.0068   -0.0005    0.0088   -0.0013    0.0127   -0.0002
          24   -0.2699    0.3875   -0.0212   -0.0019    0.0334    0.0005    0.0284   -0.0018
          25   -0.2296   -0.1511   -0.0148    0.0043    0.0003    0.0017   -0.0168   -0.0006
          26   -0.1340   -0.0852   -0.0080    0.0035    0.0006    0.0010   -0.0122   -0.0002
          27    0.4031    0.2588    0.0274   -0.0048   -0.0025   -0.0028    0.0264    0.0017
          28   -0.0028    0.0004   -0.0005   -0.0001    0.0001   -0.0001   -0.0023    0.0027
          29    0.0016    0.0176   -0.0013   -0.0010    0.0092    0.0125   -0.2439    0.2535
          30   -0.0035   -0.0275    0.0008    0.0012   -0.0128   -0.0165    0.3257   -0.3855
          31    0.0027   -0.0006    0.0001   -0.0000   -0.0003    0.0001   -0.0027   -0.0032
          32   -0.0048   -0.0172   -0.0014    0.0005   -0.0030   -0.0108    0.2436    0.2533
          33   -0.0068   -0.0272   -0.0019    0.0007   -0.0050   -0.0144    0.3259    0.3861
          34    0.0039   -0.0055   -0.2432   -0.0293    0.0005   -0.0000    0.0004   -0.0016
          35    0.0002   -0.0029   -0.0818   -0.0148    0.0001   -0.0001    0.0007   -0.0010
          36    0.0001    0.0135    0.3451    0.0415   -0.0006   -0.0000    0.0009    0.0020
          37   -0.0485   -0.0091    0.3613    0.0126   -0.0002   -0.0001   -0.0003    0.0006
          38    0.0288    0.0057   -0.2068   -0.0040    0.0001    0.0000    0.0003   -0.0005
          39   -0.0037   -0.0019   -0.0009   -0.0025    0.0000    0.0000   -0.0002   -0.0002
          40   -0.0074    0.0136   -0.0008   -0.0002   -0.2099    0.3841    0.0132    0.0041
          41   -0.0047    0.0078   -0.0005   -0.0001   -0.1121    0.1555    0.0048    0.0020
          42    0.0009   -0.0012    0.0001   -0.0000   -0.0148   -0.0017   -0.0007    0.0002
          43   -0.0098    0.0137   -0.0010   -0.0003   -0.2135   -0.0292   -0.0072    0.0020
          44    0.0063   -0.0076    0.0007    0.0002    0.1265   -0.0148    0.0024   -0.0015
          45    0.0159   -0.0187    0.0017    0.0005    0.3799    0.0269    0.0130   -0.0033
          46    0.0003   -0.0004    0.0000   -0.0000    0.0008   -0.0538   -0.0020    0.0003
          47    0.0105   -0.0137    0.0011    0.0005    0.1895    0.4383    0.0212   -0.0064
          48    0.0008   -0.0013    0.0001    0.0000   -0.0149   -0.0003   -0.0003    0.0000
          49   -0.0021   -0.0016    0.0133   -0.3025    0.0001    0.0001    0.0003   -0.0001
          50   -0.0024   -0.0018    0.0108   -0.2619    0.0001    0.0001    0.0002   -0.0000
          51    0.0030    0.0024   -0.0307    0.6481   -0.0003   -0.0001   -0.0008    0.0001
          52    0.0003    0.0001   -0.0010    0.0195   -0.0000   -0.0000   -0.0001    0.0003
          53    0.0008    0.0004   -0.0022    0.0715   -0.0001   -0.0001   -0.0002    0.0009
          54    0.0000   -0.0000    0.0001   -0.0064    0.0000    0.0000    0.0000   -0.0002
          55   -0.0004   -0.0001   -0.0010   -0.0029    0.0001    0.0001    0.0000   -0.0026
          56   -0.0002   -0.0000   -0.0003   -0.0004    0.0000    0.0001   -0.0000   -0.0020
          57    0.0007    0.0002    0.0035    0.0074   -0.0001   -0.0001    0.0000    0.0057


   Root No.      49        50        51

                49 A      50 A      51 A   

                3135.8    3148.2    3175.4
  
           1   -0.0000   -0.0000   -0.0000
           2   -0.0000   -0.0001    0.0001
           3    0.0001   -0.0000   -0.0002
           4    0.0000    0.0000    0.0003
           5   -0.0000   -0.0000   -0.0002
           6   -0.0000   -0.0000    0.0001
           7   -0.0000   -0.0000   -0.0001
           8    0.0005    0.0002   -0.0002
           9    0.0000   -0.0000   -0.0003
          10   -0.0002   -0.0003    0.0000
          11   -0.0005    0.0003    0.0000
          12    0.0001    0.0006   -0.0000
          13    0.0000    0.0000    0.0134
          14   -0.0000   -0.0000   -0.0080
          15   -0.0000   -0.0000    0.0191
          16    0.0001   -0.0029   -0.0000
          17    0.0031    0.0023    0.0000
          18    0.0017    0.0093   -0.0000
          19    0.0276   -0.0069   -0.0000
          20    0.0299   -0.0534    0.0000
          21   -0.0540   -0.0156    0.0000
          22   -0.0002   -0.0002   -0.0011
          23    0.0001    0.0001    0.0006
          24    0.0003    0.0003    0.0034
          25    0.0004    0.0001   -0.0006
          26    0.0002   -0.0001   -0.0005
          27   -0.0006   -0.0004    0.0018
          28   -0.0000   -0.0000   -0.0000
          29   -0.0028   -0.0011    0.0001
          30    0.0042    0.0017   -0.0004
          31    0.0000    0.0000    0.0001
          32   -0.0028   -0.0010    0.0024
          33   -0.0043   -0.0015    0.0040
          34    0.0025    0.0027   -0.0000
          35   -0.0009    0.0018   -0.0000
          36   -0.0049   -0.0039    0.0001
          37   -0.0012    0.0015   -0.0000
          38    0.0003   -0.0011    0.0000
          39    0.0002    0.0004   -0.0000
          40   -0.0000   -0.0001   -0.2946
          41   -0.0000   -0.0001   -0.1395
          42   -0.0000    0.0000    0.0089
          43   -0.0001    0.0001    0.1571
          44    0.0000   -0.0001   -0.0918
          45    0.0002   -0.0001   -0.2496
          46   -0.0000   -0.0000   -0.0234
          47    0.0002    0.0004    0.3274
          48   -0.0000   -0.0000    0.0088
          49   -0.0063    0.0233   -0.0000
          50   -0.0018    0.0184    0.0000
          51    0.0152   -0.0522    0.0000
          52   -0.0376    0.1673   -0.0001
          53   -0.1711    0.6565   -0.0003
          54   -0.0095   -0.0271    0.0000
          55   -0.2864   -0.0737    0.0000
          56   -0.2141   -0.0696    0.0000
          57    0.6215    0.1517   -0.0001


           MASS-WEIGHTED COORDINATE ANALYSIS (NORMAL COORDINATES)


   Root No.       1         2         3         4         5         6         7         8

                 1 A       2 A       3 A       4 A       5 A       6 A       7 A       8 A   

                  58.7     105.3     156.9     170.1     300.4     352.1     416.2     459.6
  
           1   -0.1436    0.0021   -0.0081   -0.0456    0.3585    0.0256    0.0169   -0.0338
           2    0.1637   -0.0398    0.0190    0.2291   -0.1518   -0.1585   -0.2860    0.1886
           3    0.0441   -0.0848   -0.0050   -0.1080   -0.1878   -0.2188    0.0861   -0.0354
           4   -0.1448    0.0013   -0.0052   -0.0561    0.3559    0.0417   -0.0204   -0.0553
           5   -0.1929    0.1066   -0.0998    0.1753    0.2588   -0.2130   -0.1388   -0.1259
           6   -0.0997   -0.0805    0.0060   -0.0373   -0.1740   -0.0870   -0.2463   -0.2968
           7    0.1618   -0.1286    0.0967   -0.0127    0.0108    0.0565   -0.2155    0.3316
           8   -0.0143    0.0325   -0.0422    0.2053    0.0579   -0.2097   -0.2227    0.0531
           9   -0.1930    0.2523   -0.1045    0.1351   -0.0526    0.2394   -0.1053    0.3390
          10   -0.3344    0.0677   -0.0643    0.1068   -0.1871   -0.2538    0.2593    0.0515
          11    0.1399    0.1050    0.0201    0.0125   -0.0608    0.2767    0.0423   -0.1870
          12    0.1691   -0.1758    0.0294   -0.1181    0.1477   -0.2261   -0.0608    0.0468
          13   -0.1356    0.0390    0.0021   -0.2198   -0.2871    0.0167   -0.2173   -0.2263
          14   -0.2256   -0.1919    0.0353   -0.3517   -0.0546    0.2003    0.0566    0.2127
          15   -0.1178   -0.2103    0.0516   -0.1343    0.1287    0.0973   -0.0892   -0.1217
          16    0.0920   -0.2873   -0.0258    0.4144   -0.1460    0.1611    0.0992   -0.0807
          17    0.0377    0.1873    0.0117   -0.0627   -0.0802    0.1879    0.1477   -0.2081
          18    0.0950   -0.0442    0.0170    0.1624    0.0580   -0.0893    0.3035    0.1027
          19    0.4956    0.2751   -0.0049   -0.1442    0.0155   -0.0336    0.0629    0.0049
          20    0.1149   -0.1571    0.0349   -0.1131    0.0436   -0.1216    0.3670    0.0127
          21    0.1110    0.3363    0.0027    0.0997   -0.0102    0.1350    0.1493   -0.0729
          22   -0.0890    0.0091   -0.0021   -0.0064    0.2041    0.0416   -0.0052   -0.0570
          23   -0.1254    0.1198   -0.0566    0.1101    0.1726   -0.0386   -0.0492   -0.0636
          24   -0.0328   -0.0475    0.0105   -0.0254   -0.0198   -0.0120   -0.0653   -0.0958
          25   -0.0375    0.0075   -0.0124   -0.0280    0.2012    0.0121    0.0367   -0.0086
          26    0.1146   -0.0860    0.0378    0.0591   -0.1283   -0.1238   -0.1554    0.0578
          27    0.0367   -0.0444    0.0039   -0.0398   -0.0217   -0.0827    0.0173   -0.0078
          28    0.0670   -0.0525    0.0450    0.0270   -0.0434    0.0303   -0.1899    0.1041
          29   -0.0371    0.0770   -0.0337    0.1028    0.0333    0.0385   -0.0805    0.1830
          30   -0.0791    0.1208   -0.0454    0.0703   -0.0041    0.1419   -0.0434    0.2234
          31    0.1144   -0.0590    0.0437   -0.0228   -0.0579    0.0142   -0.0078    0.2254
          32    0.0290   -0.0589    0.0083    0.0143    0.0000   -0.1593   -0.0518   -0.1521
          33   -0.0787    0.1210   -0.0451    0.0709   -0.0042    0.1414   -0.0405    0.2239
          34   -0.1778    0.0787   -0.0348    0.0323   -0.1990   -0.1844    0.1952    0.0605
          35    0.1171   -0.0371    0.0154   -0.0072    0.0420    0.1705   -0.0874   -0.1211
          36    0.0192   -0.0321    0.0010   -0.0352   -0.0299   -0.1050    0.0254    0.0217
          37   -0.1457    0.0675   -0.0237   -0.0024   -0.0757   -0.1126    0.1414    0.0180
          38   -0.0302    0.1011   -0.0002   -0.0562   -0.0301    0.0329    0.1008   -0.0618
          39    0.1324   -0.1054    0.0270   -0.0775    0.2256    0.0824   -0.1489   -0.0829
          40   -0.0136   -0.0038   -0.2070   -0.0597   -0.0556   -0.0129   -0.0715   -0.0879
          41   -0.1224   -0.0235    0.4727   -0.1174   -0.0937    0.1028    0.0303    0.1113
          42   -0.0687   -0.0160    0.2768    0.0584    0.2245   -0.0101    0.0229   -0.0222
          43   -0.0012   -0.0028   -0.2834   -0.0975   -0.2066   -0.0149   -0.1281   -0.1309
          44   -0.0110   -0.1596   -0.4513   -0.2182   -0.0275    0.1484    0.0507    0.1407
          45   -0.0306   -0.0350    0.0069   -0.0202   -0.0253   -0.0105   -0.0711   -0.0934
          46   -0.1016    0.0488    0.5062   -0.0773   -0.1736    0.0471   -0.0573   -0.0283
          47   -0.0711   -0.0541    0.0567   -0.1069   -0.0263    0.0670    0.0186    0.0708
          48   -0.0074   -0.1627   -0.2277   -0.1789   -0.0007    0.1603    0.0294    0.0887
          49    0.0239   -0.2940   -0.0019    0.3181   -0.0644    0.2085    0.1029   -0.1012
          50   -0.0299    0.1561   -0.0035   -0.0285   -0.0492    0.0611    0.0436   -0.0680
          51    0.0099   -0.0699    0.0046    0.1357   -0.0043    0.0555    0.1202   -0.0121
          52    0.2389    0.0215    0.0088    0.0099    0.0239    0.1126    0.0928   -0.0687
          53    0.0091   -0.0302    0.0075   -0.0435    0.0067   -0.0616    0.0888    0.0182
          54    0.0169    0.1398   -0.0042    0.1064   -0.0522    0.2214   -0.0166   -0.1574
          55    0.1534    0.2851   -0.0060   -0.2410    0.0313   -0.1903   -0.0575    0.1021
          56    0.0767   -0.1522    0.0192   -0.0352    0.0557   -0.1071    0.2082    0.0706
          57    0.0516    0.1554    0.0017   -0.0631    0.0237   -0.0665    0.0417    0.0462


[...]

 VIBRATION   30   30A         ATOM PAIR      ENERGY CONTRIBUTION    RADIAL
 FREQ.      1274.80         C  2 -- H  8         +15.6% ( 53.7%)      3.6%
 T-DIPOLE    0.0237         C  1 -- C  3          +9.2% ( 41.1%)     88.1%
 TRAVEL      0.0983         C  1 -- C  2          +9.1% ( 41.1%)      7.2%
 RED. MASS   0.4711         C  2 -- C  3          +7.4% ( 37.0%)      2.8%
 EFF. MASS   5.4727

 VIBRATION   31   31A         ATOM PAIR      ENERGY CONTRIBUTION    RADIAL
 FREQ.      1324.75         C  7 -- H 18         +17.3% ( 47.5%)      0.7%
 T-DIPOLE    0.0510         C  7 -- H 19         +16.6% ( 46.6%)      1.2%
 TRAVEL      0.1268         C  1 -- C  2          +7.7% ( 31.7%)      3.6%
 RED. MASS   0.3130         C  1 -- H  9          +7.5% ( 31.4%)      0.8%
 EFF. MASS   3.1674

 VIBRATION   32   32A         ATOM PAIR      ENERGY CONTRIBUTION    RADIAL
 FREQ.      1368.74         C  4 -- H 13          +9.4% ( 35.9%)      0.4%
 T-DIPOLE    0.0249         C  4 -- H 12          +9.4% ( 35.9%)      0.9%
 TRAVEL      0.1144         C  4 -- C  6          +8.9% ( 34.8%)     72.1%
 RED. MASS   0.2839         C  5 -- H 16          +8.5% ( 34.2%)      2.5%
 EFF. MASS   3.7659

 VIBRATION   33   33A         ATOM PAIR      ENERGY CONTRIBUTION    RADIAL
 FREQ.      1397.61         C  4 -- H 12         +30.5% ( 59.7%)      5.6%
 T-DIPOLE    0.0727         C  4 -- H 13         +29.5% ( 58.7%)      5.4%
 TRAVEL      0.1201         C  4 -- C  6         +13.8% ( 40.1%)     68.3%
 RED. MASS   0.6034         C  1 -- C  4         +10.9% ( 35.7%)     27.0%
 EFF. MASS   3.3426

 VIBRATION   34   34A         ATOM PAIR      ENERGY CONTRIBUTION    RADIAL
 FREQ.      1398.59         C  5 -- H 16         +38.9% ( 56.8%)      1.5%
 T-DIPOLE    0.0433         C  5 -- H 14         +32.5% ( 51.9%)      3.3%
 TRAVEL      0.1601         C  5 -- H 15          +8.3% ( 26.2%)     63.5%
 RED. MASS   0.3658         C  2 -- C  5          +6.7% ( 23.6%)     31.8%
 EFF. MASS   1.8815

 VIBRATION   35   35A         ATOM PAIR      ENERGY CONTRIBUTION    RADIAL
 FREQ.      1404.15         C  5 -- H 15         +48.7% ( 61.8%)      0.1%
 T-DIPOLE    0.0569         C  5 -- H 14         +23.3% ( 42.8%)      7.6%
 TRAVEL      0.1672         C  5 -- H 16         +15.2% ( 34.5%)     16.9%
 RED. MASS   0.3936         C  2 -- C  5          +4.8% ( 19.3%)      0.8%
 EFF. MASS   1.7185

 VIBRATION   36   36A         ATOM PAIR      ENERGY CONTRIBUTION    RADIAL
 FREQ.      1412.60         C  3 -- H 11         +17.9% ( 52.0%)      2.7%
 T-DIPOLE    0.1194         C  3 -- H 10         +16.5% ( 49.9%)      3.8%
 TRAVEL      0.1029         C  1 -- C  4         +12.0% ( 42.5%)     82.4%
 RED. MASS   0.5371         C  4 -- C  6          +8.9% ( 36.7%)     81.8%
 EFF. MASS   4.5117

 VIBRATION   37   37A         ATOM PAIR      ENERGY CONTRIBUTION    RADIAL
 FREQ.      1429.12         C  2 -- C  5         +16.5% ( 58.2%)     99.7%
 T-DIPOLE    0.1262         C  5 -- H 15         +13.5% ( 52.7%)      4.3%
 TRAVEL      0.0814         C  5 -- H 14         +11.0% ( 47.6%)      3.7%
 RED. MASS   1.1247         C  5 -- H 16         +10.6% ( 46.7%)      3.3%
 EFF. MASS   7.1189

 VIBRATION   38   38A         ATOM PAIR      ENERGY CONTRIBUTION    RADIAL
 FREQ.      1617.66         C  1 -- C  2         +20.0% ( 74.0%)     89.7%
 T-DIPOLE    0.0909         C  2 -- C  3         +16.3% ( 66.9%)     95.8%
 TRAVEL      0.0599         C  1 -- C  3         +16.0% ( 66.2%)     96.6%
 RED. MASS   3.3178         C  2 -- C  5          +9.9% ( 52.0%)     72.3%
 EFF. MASS  11.6014

 VIBRATION   39   39A         ATOM PAIR      ENERGY CONTRIBUTION    RADIAL
 FREQ.      1861.45         C  6 -- C  7         +45.3% ( 99.3%)     98.9%
 T-DIPOLE    0.2321         C  4 -- C  6         +16.7% ( 60.3%)     54.4%
 TRAVEL      0.0554         C  6 -- H 17         +15.5% ( 58.0%)      3.9%
 RED. MASS   5.2998         C  7 -- H 19         +11.0% ( 48.8%)     11.0%
 EFF. MASS  11.7919         C  7 -- H 18         +10.8% ( 48.4%)     12.9%

 VIBRATION   40   40A         ATOM PAIR      ENERGY CONTRIBUTION    RADIAL
 FREQ.      2939.42         C  4 -- H 13         +49.8% ( 73.3%)     96.6%
 T-DIPOLE    0.0303         C  4 -- H 12         +47.1% ( 71.3%)     96.4%
 TRAVEL      0.1218         C  1 -- C  4          +1.2% ( 11.3%)      0.2%
 RED. MASS   0.5122         C  4 -- C  6          +1.2% ( 11.2%)      0.2%
 EFF. MASS   1.5473

 VIBRATION   41   41A         ATOM PAIR      ENERGY CONTRIBUTION    RADIAL
 FREQ.      2995.08         C  1 -- H  9         +65.8% ( 82.7%)    100.0%
 T-DIPOLE    0.0990         C  2 -- H  8         +29.5% ( 55.4%)    100.0%
 TRAVEL      0.1239         C  1 -- C  2          +1.3% ( 11.7%)     26.5%
 RED. MASS   0.5206         C  4 -- H 13          +0.9% (  9.5%)    100.0%
 EFF. MASS   1.4662

 VIBRATION   42   42A         ATOM PAIR      ENERGY CONTRIBUTION    RADIAL
 FREQ.      3001.85         C  2 -- H  8         +66.2% ( 82.6%)    100.0%
 T-DIPOLE    0.2614         C  1 -- H  9         +29.5% ( 55.2%)    100.0%
 TRAVEL      0.1249         C  1 -- C  2          +0.9% (  9.7%)      8.7%
 RED. MASS   0.5213         C  2 -- C  3          +0.8% (  9.0%)     19.1%
 EFF. MASS   1.4398

 VIBRATION   43   43A         ATOM PAIR      ENERGY CONTRIBUTION    RADIAL
 FREQ.      3016.25         C  4 -- H 12         +50.6% ( 70.1%)     97.8%
 T-DIPOLE    0.0572         C  4 -- H 13         +47.2% ( 67.7%)     97.5%
 TRAVEL      0.1323         C  4 -- C  6          +0.6% (  7.9%)     30.9%
 RED. MASS   0.4765         C  1 -- C  4          +0.6% (  7.7%)     30.7%
 EFF. MASS   1.2771

 VIBRATION   44   44A         ATOM PAIR      ENERGY CONTRIBUTION    RADIAL
 FREQ.      3042.11         C  6 -- H 17         +95.9% ( 99.3%)    100.0%
 T-DIPOLE    0.2313         C  6 -- C  7          +1.4% ( 12.0%)     30.6%
 TRAVEL      0.1216         C  4 -- C  6          +1.3% ( 11.6%)     14.1%
 RED. MASS   0.9039         C  7 -- H 18          +0.9% (  9.6%)     95.4%
 EFF. MASS   1.4997

 VIBRATION   45   45A         ATOM PAIR      ENERGY CONTRIBUTION    RADIAL
 FREQ.      3076.71         C  5 -- H 15         +66.8% ( 84.3%)     99.0%
 T-DIPOLE    0.0203         C  5 -- H 14         +19.2% ( 45.2%)     86.8%
 TRAVEL      0.1206         C  5 -- H 16         +12.5% ( 36.5%)     79.0%
 RED. MASS   0.5270         C  2 -- C  5          +1.0% ( 10.4%)      0.0%
 EFF. MASS   1.5060

 VIBRATION   46   46A         ATOM PAIR      ENERGY CONTRIBUTION    RADIAL
 FREQ.      3081.83         C  5 -- H 16         +51.9% ( 74.3%)     97.5%
 T-DIPOLE    0.0227         C  5 -- H 14         +45.7% ( 69.7%)     96.5%
 TRAVEL      0.1205         C  5 -- H 15          +1.2% ( 11.4%)      6.8%
 RED. MASS   0.5074         C  2 -- C  5          +1.0% ( 10.3%)      0.0%
 EFF. MASS   1.5063

 VIBRATION   47   47A         ATOM PAIR      ENERGY CONTRIBUTION    RADIAL
 FREQ.      3089.74         C  3 -- H 11         +48.4% ( 71.9%)     97.2%
 T-DIPOLE    0.1873         C  3 -- H 10         +48.4% ( 71.9%)     97.2%
 TRAVEL      0.1186         C  1 -- C  3          +1.1% ( 11.1%)      0.0%
 RED. MASS   0.5112         C  2 -- C  3          +1.1% ( 11.1%)      0.1%
 EFF. MASS   1.5520

 VIBRATION   48   48A         ATOM PAIR      ENERGY CONTRIBUTION    RADIAL
 FREQ.      3130.53         C  3 -- H 11         +49.2% ( 69.7%)     96.4%
 T-DIPOLE    0.2058         C  3 -- H 10         +49.1% ( 69.6%)     96.3%
 TRAVEL      0.1287         C  1 -- C  3          +0.8% (  9.1%)     76.8%
 RED. MASS   0.4842         C  2 -- C  3          +0.8% (  9.1%)     76.9%
 EFF. MASS   1.3002

 VIBRATION   49   49A         ATOM PAIR      ENERGY CONTRIBUTION    RADIAL
 FREQ.      3135.83         C  7 -- H 19         +91.0% ( 97.1%)     99.8%
 T-DIPOLE    0.1883         C  7 -- H 18          +7.6% ( 28.1%)     73.8%
 TRAVEL      0.1181         C  6 -- C  7          +1.3% ( 11.7%)     20.8%
 RED. MASS   0.8421
 EFF. MASS   1.5413

 VIBRATION   50   50A         ATOM PAIR      ENERGY CONTRIBUTION    RADIAL
 FREQ.      3148.22         C  7 -- H 18         +91.0% ( 96.0%)     99.6%
 T-DIPOLE    0.2523         C  7 -- H 19          +6.6% ( 25.8%)     46.5%
 TRAVEL      0.1210         C  6 -- C  7          +1.6% ( 12.7%)     74.9%
 RED. MASS   0.8061         C  6 -- H 17          +0.8% (  8.8%)     94.6%
 EFF. MASS   1.4623

 VIBRATION   51   51A         ATOM PAIR      ENERGY CONTRIBUTION    RADIAL
 FREQ.      3175.44         C  5 -- H 16         +34.9% ( 56.9%)     97.4%
 T-DIPOLE    0.0311         C  5 -- H 14         +34.3% ( 56.4%)     97.3%
 TRAVEL      0.1366         C  5 -- H 15         +30.5% ( 53.2%)     96.6%
 RED. MASS   0.3279         C  2 -- C  5          +0.3% (  5.3%)     99.6%
 EFF. MASS   1.1377

      SYMMETRY NUMBER FOR POINT-GROUP C1  =  1


          SYSTEM IS A GROUND STATE



 InChI=1S/C7H12/c1-3-4-7-5-6(7)2/h3,6-7H,1,4-5H2,2H3


          MOLECULE IS NOT LINEAR

          THERE ARE 51 GENUINE VIBRATIONS IN THIS SYSTEM
          THIS THERMODYNAMICS CALCULATION IS LIMITED TO
          MOLECULES WHICH HAVE NO INTERNAL ROTATIONS




                    CALCULATED THERMODYNAMIC PROPERTIES
                                          *
   TEMP. (K)   PARTITION FUNCTION   H.O.F.    ENTHALPY  HEAT CAPACITY ENTROPY
                                   KCAL/MOL   CAL/MOLE    CAL/K/MOL  CAL/K/MOL


 298.00  VIB.     0.9672D+02                  3271.5224    23.5603    20.0635
         ROT.     0.2888D+06                   888.2813     2.9808    27.9673
         INT.     0.2794D+08                  4159.8037    26.5411    48.0308
         TRA.     0.9118D+27                  1480.4688     4.9680    39.5994
         TOT.                       20.765    5640.2726    31.5091    87.6302

 200.00  VIB.     0.1631D+02                  1421.4177    14.5482    12.6543
         ROT.     0.1588D+06                   596.1620     2.9808    26.7786
         INT.     0.2589D+07                  2017.5797    17.5290    39.4329
         TRA.     0.5013D+27                   993.6033     4.9680    37.6183
         TOT.                       18.136    3011.1829    22.4971    77.0512

 210.00  VIB.     0.1950D+02                  1570.9388    15.3606    13.3837
         ROT.     0.1709D+06                   625.9700     2.9808    26.9240
         INT.     0.3332D+07                  2196.9089    18.3414    40.3077
         TRA.     0.5394D+27                  1043.2834     4.9680    37.8607
         TOT.                       18.365    3240.1923    23.3094    78.1684

 220.00  VIB.     0.2334D+02                  1728.7219    16.2007    14.1175
         ROT.     0.1832D+06                   655.7781     2.9808    27.0627
         INT.     0.4276D+07                  2384.5001    19.1815    41.1802
         TRA.     0.5784D+27                  1092.9636     4.9680    38.0918
         TOT.                       18.602    3477.4636    24.1495    79.2720

 230.00  VIB.     0.2794D+02                  1895.0446    17.0684    14.8567
         ROT.     0.1959D+06                   685.5862     2.9808    27.1952
         INT.     0.5472D+07                  2580.6308    20.0492    42.0519
         TRA.     0.6182D+27                  1142.6437     4.9680    38.3126
         TOT.                       18.848    3723.2746    25.0172    80.3646

 240.00  VIB.     0.3347D+02                  2070.1783    17.9627    15.6020
         ROT.     0.2088D+06                   715.3943     2.9808    27.3221
         INT.     0.6987D+07                  2785.5726    20.9435    42.9240
         TRA.     0.6590D+27                  1192.3239     4.9680    38.5241
         TOT.                       19.102    3977.8965    25.9115    81.4481

 250.00  VIB.     0.4011D+02                  2254.3808    18.8818    16.3538
         ROT.     0.2220D+06                   745.2024     2.9808    27.4437
         INT.     0.8904D+07                  2999.5832    21.8626    43.7975
         TRA.     0.7006D+27                  1242.0041     4.9680    38.7269
         TOT.                       19.366    4241.5873    26.8306    82.5244

 260.00  VIB.     0.4812D+02                  2447.8900    19.8236    17.1126
         ROT.     0.2354D+06                   775.0105     2.9808    27.5607
         INT.     0.1133D+08                  3222.9005    22.8044    44.6733
         TRA.     0.7431D+27                  1291.6842     4.9680    38.9217
         TOT.                       19.639    4514.5847    27.7724    83.5950

 270.00  VIB.     0.5775D+02                  2650.9195    20.7854    17.8787
         ROT.     0.2491D+06                   804.8186     2.9808    27.6731
         INT.     0.1439D+08                  3455.7381    23.7662    45.5519
         TRA.     0.7864D+27                  1341.3644     4.9680    39.1092
         TOT.                       19.922    4797.1025    28.7342    84.6611

 280.00  VIB.     0.6938D+02                  2863.6556    21.7644    18.6523
         ROT.     0.2631D+06                   834.6267     2.9808    27.7816
         INT.     0.1825D+08                  3698.2823    24.7452    46.4339
         TRA.     0.8304D+27                  1391.0445     4.9680    39.2899
         TOT.                       20.214    5089.3269    29.7132    85.7237

 290.00  VIB.     0.8342D+02                  3086.2551    22.7576    19.4333
         ROT.     0.2773D+06                   864.4348     2.9808    27.8862
         INT.     0.2313D+08                  3950.6899    25.7384    47.3195
         TRA.     0.8753D+27                  1440.7247     4.9680    39.4642
         TOT.                       20.516    5391.4146    30.7064    86.7837

 300.00  VIB.     0.1004D+03                  3318.8446    23.7619    20.2218
         ROT.     0.2918D+06                   894.2429     2.9808    27.9872
         INT.     0.2929D+08                  4213.0876    26.7427    48.2090
         TRA.     0.9210D+27                  1490.4049     4.9680    39.6326
         TOT.                       20.828    5703.4924    31.7108    87.8416

 310.00  VIB.     0.1209D+03                  3561.5209    24.7744    21.0174
         ROT.     0.3065D+06                   924.0510     2.9808    28.0849
         INT.     0.3705D+08                  4485.5719    27.7552    49.1023
         TRA.     0.9674D+27                  1540.0850     4.9680    39.7955
         TOT.                       21.150    6025.6569    32.7233    88.8979

 320.00  VIB.     0.1458D+03                  3814.3510    25.7922    21.8200
         ROT.     0.3214D+06                   953.8591     2.9808    28.1796
         INT.     0.4685D+08                  4768.2101    28.7730    49.9996
         TRA.     0.1015D+28                  1589.7652     4.9680    39.9533
         TOT.                       21.482    6357.9753    33.7411    89.9529

 330.00  VIB.     0.1759D+03                  4077.3740    26.8126    22.6293
         ROT.     0.3366D+06                   983.6672     2.9808    28.2713
         INT.     0.5921D+08                  5061.0413    29.7934    50.9006
         TRA.     0.1063D+28                  1639.4454     4.9680    40.1062
         TOT.                       21.825    6700.4866    34.7614    91.0068

 340.00  VIB.     0.2125D+03                  4350.6028    27.8330    23.4449
         ROT.     0.3520D+06                  1013.4753     2.9808    28.3603
         INT.     0.7479D+08                  5364.0781    30.8138    51.8052
         TRA.     0.1111D+28                  1689.1255     4.9680    40.2545
         TOT.                       22.178    7053.2036    35.7818    92.0596

 350.00  VIB.     0.2569D+03                  4634.0254    28.8510    24.2664
         ROT.     0.3677D+06                  1043.2834     2.9808    28.4467
         INT.     0.9445D+08                  5677.3088    31.8318    52.7131
         TRA.     0.1161D+28                  1738.8057     4.9680    40.3985
         TOT.                       22.541    7416.1145    36.7998    93.1116

 360.00  VIB.     0.3109D+03                  4927.6076    29.8646    25.0934
         ROT.     0.3835D+06                  1073.0915     2.9808    28.5307
         INT.     0.1192D+09                  6000.6992    32.8454    53.6240
         TRA.     0.1211D+28                  1788.4859     4.9680    40.5384
         TOT.                       22.914    7789.1850    37.8134    94.1625

 370.00  VIB.     0.3766D+03                  5231.2953    30.8718    25.9254
         ROT.     0.3996D+06                  1102.8996     2.9808    28.6123
         INT.     0.1505D+09                  6334.1949    33.8526    54.5377
         TRA.     0.1261D+28                  1838.1660     4.9680    40.6745
         TOT.                       23.297    8172.3609    38.8206    95.2123

 380.00  VIB.     0.4567D+03                  5545.0160    31.8709    26.7620
         ROT.     0.4159D+06                  1132.7077     2.9808    28.6918
         INT.     0.1900D+09                  6677.7238    34.8517    55.4538
         TRA.     0.1313D+28                  1887.8462     4.9680    40.8070
         TOT.                       23.690    8565.5699    39.8197    96.2608

 390.00  VIB.     0.5543D+03                  5868.6818    32.8605    27.6026
         ROT.     0.4325D+06                  1162.5158     2.9808    28.7693
         INT.     0.2397D+09                  7031.1976    35.8413    56.3719
         TRA.     0.1365D+28                  1937.5263     4.9680    40.9361
         TOT.                       24.093    8968.7239    40.8094    97.3080

 400.00  VIB.     0.6734D+03                  6202.1907    33.8394    28.4470
         ROT.     0.4492D+06                  1192.3239     2.9808    28.8447
         INT.     0.3025D+09                  7394.5146    36.8202    57.2917
         TRA.     0.1418D+28                  1987.2065     4.9680    41.0619
         TOT.                       24.506    9381.7211    41.7882    98.3536

   *: NOTE: HEATS OF FORMATION ARE RELATIVE TO THE
            ELEMENTS IN THEIR STANDARD STATE AT 298K
              (=  Standard Enthalpy of Formation).

            Hvib:  Zero-point energy is not included.
                   frequencies of less than zero cm-1 are not included.
            Hrot = (3/2)RT
            Htra = (3/2)RT + pV = (5/2)RT

            Heat capacity is Cp, not Cv

          For more information, see: HTTP://OpenMOPAC.net/Manual/thermochemistry.html


           FORCE CONSTANT IN CARTESIAN COORDINATES (Millidynes/A)

    ATOM   CHEMICAL       X               Y               Z
   NUMBER   SYMBOL  FORCE CONSTANT  FORCE CONSTANT  FORCE CONSTANT

      1       C        9.786345        6.755985        8.932710
      2       C        9.823175        6.606277        9.131877
      3       C        4.565940       11.677166        8.836382
      4       C        8.214850        8.936694        8.590041
      5       C        8.451101        8.300380        8.550303
      6       C        3.677956       11.267092       12.218453
      7       C        3.285345       11.289660       11.951432
      8       H        1.715961        0.918443        3.695078
      9       H        1.705926        0.931316        3.696464
     10       H        0.526914        2.294913        3.822330
     11       H        0.528023        2.290990        3.826710
     12       H        1.924274        0.939181        3.523124
     13       H        3.775573        1.769036        0.674673
     14       H        4.580142        1.456598        0.694837
     15       H        1.796976        1.048153        3.918983
     16       H        0.695762        5.341688        0.694389
     17       H        1.111481        1.264369        3.856025
     18       H        0.684170        5.139122        0.659600
     19       H        1.158465        1.120957        4.191280

 **********************
 *                    *
 * JOB ENDED NORMALLY *
 *                    *
 **********************



 TOTAL JOB TIME:             9.91 SECONDS

 == MOPAC DONE ==
