 *******************************************************************************
 ** Site#: 14399        For non-commercial use only    Version 18.184L 64BITS **
 *******************************************************************************
 ** Cite this program as: MOPAC2016, Version: 18.184L, James J. P. Stewart,   **
 ** Stewart Computational Chemistry, web: HTTP://OpenMOPAC.net. Days left:  20**
 *******************************************************************************
 **                                                                           **
 **                                MOPAC2016                                  **
 **                                                                           **
 *******************************************************************************

                              PM3 CALCULATION RESULTS

 *******************************************************************************
 *  CALCULATION DONE:                                Thu Jun 13 15:52:55 2019  *
 *  PM3        - The PM3 Hamiltonian to be used
 *  PRECISE    - CRITERIA TO BE INCREASED BY 100 TIMES
 *  NOSYM      - POINT-GROUP SYMMETRY SET TO C1
 *  THREADS=1  - MULTI-THREADING NOT USED
 *  T=         - A TIME OF 172800.0 SECONDS REQUESTED
 *  DUMP=N     - RESTART FILE WRITTEN EVERY  7200.000 SECONDS
 *******************************************************************************
pm3  precise nosym THREADS=1
 InChI=1S/C10H10/c1-8-6-7-9-4-2-3-5-10(8)9/h2-3,5,7H,1,4,6H2

   ATOM   CHEMICAL          X               Y               Z
  NUMBER   SYMBOL      (ANGSTROMS)     (ANGSTROMS)     (ANGSTROMS)
 
     1       C          1.90450000  *  -1.20630000  *   0.17640000  *
     2       C         -1.87780000  *  -1.01360000  *  -0.25380000  *
     3       C         -0.39810000  *  -0.82940000  *  -0.07610000  *
     4       C          1.64030000  *   0.27000000  *   0.19940000  *
     5       C          0.20750000  *   0.47240000  *   0.04110000  *
     6       C          0.52440000  *  -1.78170000  *  -0.00400000  *
     7       C         -2.60340000  *   0.31900000  *  -0.28940000  *
     8       C         -0.50780000  *   1.59610000  *  -0.00080000  *
     9       C         -1.97440000  *   1.50470000  *  -0.17370000  *
    10       C          2.57050000  *   1.21280000  *   0.34110000  *
    11       H          2.55530000  *  -1.47970000  *  -0.68100000  *
    12       H          2.34510000  *  -1.54570000  *   1.13780000  *
    13       H         -2.27530000  *  -1.61850000  *   0.58820000  *
    14       H         -2.06800000  *  -1.55340000  *  -1.20530000  *
    15       H          0.30630000  *  -2.83980000  *  -0.06750000  *
    16       H         -3.67890000  *   0.30990000  *  -0.41400000  *
    17       H         -0.03560000  *   2.56500000  *   0.08890000  *
    18       H         -2.55360000  *   2.41850000  *  -0.20750000  *
    19       H          2.30740000  *   2.26180000  *   0.34870000  *
    20       H          3.61150000  *   0.93790000  *   0.45150000  *
 


          CARTESIAN COORDINATES 

    NO.       ATOM           X           Y           Z

     1         C          1.9045     -1.2063      0.1764
     2         C         -1.8778     -1.0136     -0.2538
     3         C         -0.3981     -0.8294     -0.0761
     4         C          1.6403      0.2700      0.1994
     5         C          0.2075      0.4724      0.0411
     6         C          0.5244     -1.7817     -0.0040
     7         C         -2.6034      0.3190     -0.2894
     8         C         -0.5078      1.5961     -0.0008
     9         C         -1.9744      1.5047     -0.1737
    10         C          2.5705      1.2128      0.3411
    11         H          2.5553     -1.4797     -0.6810
    12         H          2.3451     -1.5457      1.1378
    13         H         -2.2753     -1.6185      0.5882
    14         H         -2.0680     -1.5534     -1.2053
    15         H          0.3063     -2.8398     -0.0675
    16         H         -3.6789      0.3099     -0.4140
    17         H         -0.0356      2.5650      0.0889
    18         H         -2.5536      2.4185     -0.2075
    19         H          2.3074      2.2618      0.3487
    20         H          3.6115      0.9379      0.4515

  H: (PM3): J. J. P. STEWART, J. COMP. CHEM. 10, 209 (1989).
  C: (PM3): J. J. P. STEWART, J. COMP. CHEM. 10, 209 (1989).

           Empirical Formula: C10 H10  =    20 atoms



      MOLECULAR POINT GROUP   :   C1  


      RHF CALCULATION, NO. OF DOUBLY OCCUPIED LEVELS = 25


          Geometry optimization using EF

          DIAGONAL MATRIX USED AS START HESSIAN

 CYCLE:     1 TIME:   0.039 TIME LEFT:  2.00D  GRAD.:    98.593 HEAT:  57.57872
 CYCLE:     2 TIME:   0.035 TIME LEFT:  2.00D  GRAD.:   114.007 HEAT:  56.98134
 CYCLE:     3 TIME:   0.031 TIME LEFT:  2.00D  GRAD.:    51.673 HEAT:  55.25383
 CYCLE:     4 TIME:   0.027 TIME LEFT:  2.00D  GRAD.:    25.181 HEAT:  54.71414
 CYCLE:     5 TIME:   0.020 TIME LEFT:  2.00D  GRAD.:    34.612 HEAT:  54.52035
 CYCLE:     6 TIME:   0.023 TIME LEFT:  2.00D  GRAD.:    32.227 HEAT:  54.35065
 CYCLE:     7 TIME:   0.023 TIME LEFT:  2.00D  GRAD.:    20.006 HEAT:  54.17200
 CYCLE:     8 TIME:   0.031 TIME LEFT:  2.00D  GRAD.:    15.225 HEAT:  54.08125
 CYCLE:     9 TIME:   0.027 TIME LEFT:  2.00D  GRAD.:    11.718 HEAT:  54.04763
 CYCLE:    10 TIME:   0.020 TIME LEFT:  2.00D  GRAD.:     6.496 HEAT:  54.01003
 CYCLE:    11 TIME:   0.027 TIME LEFT:  2.00D  GRAD.:    11.010 HEAT:  54.00054
 CYCLE:    12 TIME:   0.027 TIME LEFT:  2.00D  GRAD.:     9.631 HEAT:  53.97415
 CYCLE:    13 TIME:   0.020 TIME LEFT:  2.00D  GRAD.:     8.109 HEAT:  53.96374
 CYCLE:    14 TIME:   0.035 TIME LEFT:  2.00D  GRAD.:     8.826 HEAT:  53.95443
 CYCLE:    15 TIME:   0.035 TIME LEFT:  2.00D  GRAD.:     6.963 HEAT:  53.94446
 CYCLE:    16 TIME:   0.035 TIME LEFT:  2.00D  GRAD.:     5.457 HEAT:  53.93854
 CYCLE:    17 TIME:   0.039 TIME LEFT:  2.00D  GRAD.:     5.484 HEAT:  53.93723
 CYCLE:    18 TIME:   0.039 TIME LEFT:  2.00D  GRAD.:     2.571 HEAT:  53.92955
 CYCLE:    19 TIME:   0.023 TIME LEFT:  2.00D  GRAD.:     4.217 HEAT:  53.93197
 CYCLE:    20 TIME:   0.027 TIME LEFT:  2.00D  GRAD.:     1.205 HEAT:  53.92636
 CYCLE:    21 TIME:   0.020 TIME LEFT:  2.00D  GRAD.:     2.269 HEAT:  53.92666
 CYCLE:    22 TIME:   0.023 TIME LEFT:  2.00D  GRAD.:     0.814 HEAT:  53.92486
 CYCLE:    23 TIME:   0.023 TIME LEFT:  2.00D  GRAD.:     1.173 HEAT:  53.92450
 CYCLE:    24 TIME:   0.020 TIME LEFT:  2.00D  GRAD.:     0.756 HEAT:  53.92375
 CYCLE:    25 TIME:   0.023 TIME LEFT:  2.00D  GRAD.:     0.666 HEAT:  53.92339
 CYCLE:    26 TIME:   0.023 TIME LEFT:  2.00D  GRAD.:     0.450 HEAT:  53.92309
 CYCLE:    27 TIME:   0.023 TIME LEFT:  2.00D  GRAD.:     0.441 HEAT:  53.92300
 CYCLE:    28 TIME:   0.023 TIME LEFT:  2.00D  GRAD.:     0.248 HEAT:  53.92289
 CYCLE:    29 TIME:   0.023 TIME LEFT:  2.00D  GRAD.:     0.235 HEAT:  53.92284
 CYCLE:    30 TIME:   0.020 TIME LEFT:  2.00D  GRAD.:     0.206 HEAT:  53.92280
 CYCLE:    31 TIME:   0.023 TIME LEFT:  2.00D  GRAD.:     0.189 HEAT:  53.92278
 CYCLE:    32 TIME:   0.023 TIME LEFT:  2.00D  GRAD.:     0.133 HEAT:  53.92276
 CYCLE:    33 TIME:   0.023 TIME LEFT:  2.00D  GRAD.:     0.120 HEAT:  53.92275
 CYCLE:    34 TIME:   0.023 TIME LEFT:  2.00D  GRAD.:     0.089 HEAT:  53.92273
 CYCLE:    35 TIME:   0.023 TIME LEFT:  2.00D  GRAD.:     0.100 HEAT:  53.92269
 CYCLE:    36 TIME:   0.020 TIME LEFT:  2.00D  GRAD.:     0.097 HEAT:  53.92268
 CYCLE:    37 TIME:   0.023 TIME LEFT:  2.00D  GRAD.:     0.070 HEAT:  53.92267
 CYCLE:    38 TIME:   0.023 TIME LEFT:  2.00D  GRAD.:     0.054 HEAT:  53.92266
 CYCLE:    39 TIME:   0.023 TIME LEFT:  2.00D  GRAD.:     0.045 HEAT:  53.92266

     GRADIENT =  0.04461  IS LESS THAN CUTOFF =  0.05000



 -------------------------------------------------------------------------------
 pm3  precise nosym THREADS=1
 InChI=1S/C10H10/c1-8-6-7-9-4-2-3-5-10(8)9/h2-3,5,7H,1,4,6H2



     GEOMETRY OPTIMISED USING EIGENVECTOR FOLLOWING (EF).     
     SCF FIELD WAS ACHIEVED                                   


                              PM3 CALCULATION
                                                       MOPAC2016 (Version: 18.184L)
                                                       Thu Jun 13 15:52:56 2019
                                                       No. of days remaining =  20




          FINAL HEAT OF FORMATION =         53.92266 KCAL/MOL =     225.61239 KJ/MOL


          TOTAL ENERGY            =      -1337.39263 EV
          ELECTRONIC ENERGY       =      -7055.62628 EV  POINT GROUP:     C1  
          CORE-CORE REPULSION     =       5718.23365 EV
          COSMO AREA              =        173.08 SQUARE ANGSTROMS
          COSMO VOLUME            =        172.99 CUBIC ANGSTROMS

          GRADIENT NORM           =          0.04461 = 0.00997 PER ATOM
          IONIZATION POTENTIAL    =          8.262809 EV
          HOMO LUMO ENERGIES (EV) =         -8.263 -0.414
          NO. OF FILLED LEVELS    =         25
          MOLECULAR WEIGHT        =        130.1890

          MOLECULAR DIMENSIONS (Angstroms)

            Atom       Atom       Distance
            H    20    H    16     7.38418
            H    18    H    15     5.59575
            H    14    H    12     1.77698


          SCF CALCULATIONS        =         47
 
          WALL-CLOCK TIME         =          1.066 SECONDS
          COMPUTATION TIME        =          0.403 SECONDS




   ATOM   CHEMICAL          X               Y               Z
  NUMBER   SYMBOL      (ANGSTROMS)     (ANGSTROMS)     (ANGSTROMS)
 
     1       C          1.89314833  *  -1.21337324  *   0.17548106  *
     2       C         -1.87941823  *  -0.98690117  *  -0.25394649  *
     3       C         -0.41529746  *  -0.85591509  *  -0.07905916  *
     4       C          1.64311613  *   0.27637290  *   0.19987519  *
     5       C          0.19881507  *   0.47578053  *   0.04012633  *
     6       C          0.52837530  *  -1.81536153  *  -0.00421984  *
     7       C         -2.58564303  *   0.32340307  *  -0.28692563  *
     8       C         -0.52877194  *   1.60578717  *  -0.00284065  *
     9       C         -1.96480173  *   1.50774570  *  -0.17187997  *
    10       C          2.57133702  *   1.21864299  *   0.34077253  *
    11       H          2.57042882  *  -1.49915973  *  -0.65045880  *
    12       H          2.36631218  *  -1.56232025  *   1.11192163  *
    13       H         -2.30079495  *  -1.60441767  *   0.56605887  *
    14       H         -2.09620551  *  -1.53832118  *  -1.19216973  *
    15       H          0.37811769  *  -2.89207429  *  -0.06037449  *
    16       H         -3.67296427  *   0.27404313  *  -0.41387358  *
    17       H         -0.07181786  *   2.59658572  *   0.08579930  *
    18       H         -2.53071897  *   2.44484638  *  -0.20253333  *
    19       H          2.33220719  *   2.27807107  *   0.35089831  *
    20       H          3.62538727  *   0.98573746  *   0.45425506  *

                             CARTESIAN COORDINATES

   1    C        1.893148330    -1.213373237     0.175481065
   2    C       -1.879418234    -0.986901173    -0.253946494
   3    C       -0.415297462    -0.855915094    -0.079059157
   4    C        1.643116127     0.276372904     0.199875189
   5    C        0.198815070     0.475780534     0.040126329
   6    C        0.528375295    -1.815361526    -0.004219841
   7    C       -2.585643026     0.323403070    -0.286925634
   8    C       -0.528771943     1.605787171    -0.002840651
   9    C       -1.964801729     1.507745702    -0.171879968
  10    C        2.571337016     1.218642988     0.340772531
  11    H        2.570428821    -1.499159732    -0.650458798
  12    H        2.366312181    -1.562320246     1.111921628
  13    H       -2.300794950    -1.604417668     0.566058869
  14    H       -2.096205513    -1.538321176    -1.192169728
  15    H        0.378117694    -2.892074285    -0.060374485
  16    H       -3.672964271     0.274043128    -0.413873579
  17    H       -0.071817861     2.596585723     0.085799301
  18    H       -2.530718973     2.444846384    -0.202533335
  19    H        2.332207188     2.278071066     0.350898306
  20    H        3.625387269     0.985737458     0.454255055


           Empirical Formula: C10 H10  =    20 atoms



      MOLECULAR POINT GROUP   :   C1  


                  EIGENVALUES  
 -41.21036 -35.57831 -31.90620 -28.62087 -27.34668 -22.99559 -22.31414 -19.70297
 -19.02450 -17.23731 -16.13302 -15.97967 -15.39354 -14.91830 -14.73436 -14.42518
 -14.11430 -13.38712 -12.68933 -12.41219 -11.91713 -11.89751 -10.60514 -10.16959
  -8.26281  -0.41391   0.98909   1.38796   2.62059   3.07426   3.18807   3.29837
   3.40366   3.66965   3.70790   3.84656   3.97972   4.06363   4.26497   4.40105
   4.52360   4.53723   4.70860   5.04972   5.19860   5.46967   5.67636   5.98517
   6.17942   6.45589


              NET ATOMIC CHARGES AND DIPOLE CONTRIBUTIONS

  ATOM NO.   TYPE          CHARGE      No. of ELECS.   s-Pop       p-Pop       
    1          C          -0.023447        4.0234     1.14169     2.88176
    2          C           0.001871        3.9981     1.12482     2.87331
    3          C          -0.091439        4.0914     1.18872     2.90272
    4          C          -0.071162        4.0712     1.18642     2.88475
    5          C          -0.040786        4.0408     1.17354     2.86725
    6          C          -0.154972        4.1550     1.20120     2.95377
    7          C          -0.132290        4.1323     1.19671     2.93558
    8          C          -0.079654        4.0797     1.17306     2.90660
    9          C          -0.110320        4.1103     1.17784     2.93248
   10          C          -0.150564        4.1506     1.17585     2.97472
   11          H           0.065511        0.9345     0.93449
   12          H           0.065524        0.9345     0.93448
   13          H           0.064961        0.9350     0.93504
   14          H           0.064975        0.9350     0.93503
   15          H           0.115422        0.8846     0.88458
   16          H           0.097425        0.9026     0.90258
   17          H           0.107516        0.8925     0.89248
   18          H           0.100747        0.8993     0.89925
   19          H           0.086029        0.9140     0.91397
   20          H           0.084655        0.9153     0.91534
 DIPOLE           X         Y         Z       TOTAL
 POINT-CHG.    -0.166    -0.386    -0.034     0.422
 HYBRID         0.003    -0.004     0.000     0.005
 SUM           -0.164    -0.390    -0.034     0.424


          ATOMIC ORBITAL ELECTRON POPULATIONS

     Atom    s        px        py        pz   
    1  C   1.14169   0.95385   0.91932   1.00859
    2  C   1.12482   0.91382   0.95406   1.00543
    3  C   1.18872   0.95027   0.94356   1.00890
    4  C   1.18642   0.93210   0.95622   0.99643
    5  C   1.17354   0.92710   0.93932   1.00083
    6  C   1.20120   0.95071   0.97668   1.02638
    7  C   1.19671   0.98492   0.95083   0.99982
    8  C   1.17306   0.93870   0.96760   1.00030
    9  C   1.17784   0.94720   0.96975   1.01553
   10  C   1.17585   0.97855   0.98050   1.01567
   11  H   0.93449
   12  H   0.93448
   13  H   0.93504
   14  H   0.93503
   15  H   0.88458
   16  H   0.90258
   17  H   0.89248
   18  H   0.89925
   19  H   0.91397
   20  H   0.91534
 *******************************************************************************
 ** Site#: 14399        For non-commercial use only    Version 18.184L 64BITS **
 *******************************************************************************
 ** Cite this program as: MOPAC2016, Version: 18.184L, James J. P. Stewart,   **
 ** Stewart Computational Chemistry, web: HTTP://OpenMOPAC.net. Days left:  20**
 *******************************************************************************
 **                                                                           **
 **                                MOPAC2016                                  **
 **                                                                           **
 *******************************************************************************

                              PM3 CALCULATION RESULTS

 *******************************************************************************
 *  CALCULATION DONE:                                Thu Jun 13 15:52:56 2019  *
 *  PM3        - The PM3 Hamiltonian to be used
 *  OLDGEO     - PREVIOUS GEOMETRY TO BE USED
 *  PRECISE    - CRITERIA TO BE INCREASED BY 100 TIMES
 *  NOSYM      - POINT-GROUP SYMMETRY SET TO C1
 *  THREADS=1  - MULTI-THREADING NOT USED
 *  T=         - A TIME OF 172800.0 SECONDS REQUESTED
 *  DUMP=N     - RESTART FILE WRITTEN EVERY  7200.000 SECONDS
 *  THERMO     - THERMODYNAMIC QUANTITIES TO BE CALCULATED
 *******************************************************************************
oldgeo thermo nosym precise THREADS=1  pm3
 InChI=1S/C10H10/c1-8-6-7-9-4-2-3-5-10(8)9/h2-3,5,7H,1,4,6H2

   ATOM   CHEMICAL          X               Y               Z
  NUMBER   SYMBOL      (ANGSTROMS)     (ANGSTROMS)     (ANGSTROMS)
 
     1       C          1.89314833  *  -1.21337324  *   0.17548106  *
     2       C         -1.87941823  *  -0.98690117  *  -0.25394649  *
     3       C         -0.41529746  *  -0.85591509  *  -0.07905916  *
     4       C          1.64311613  *   0.27637290  *   0.19987519  *
     5       C          0.19881507  *   0.47578053  *   0.04012633  *
     6       C          0.52837530  *  -1.81536153  *  -0.00421984  *
     7       C         -2.58564303  *   0.32340307  *  -0.28692563  *
     8       C         -0.52877194  *   1.60578717  *  -0.00284065  *
     9       C         -1.96480173  *   1.50774570  *  -0.17187997  *
    10       C          2.57133702  *   1.21864299  *   0.34077253  *
    11       H          2.57042882  *  -1.49915973  *  -0.65045880  *
    12       H          2.36631218  *  -1.56232025  *   1.11192163  *
    13       H         -2.30079495  *  -1.60441767  *   0.56605887  *
    14       H         -2.09620551  *  -1.53832118  *  -1.19216973  *
    15       H          0.37811769  *  -2.89207429  *  -0.06037449  *
    16       H         -3.67296427  *   0.27404313  *  -0.41387358  *
    17       H         -0.07181786  *   2.59658572  *   0.08579930  *
    18       H         -2.53071897  *   2.44484638  *  -0.20253333  *
    19       H          2.33220719  *   2.27807107  *   0.35089831  *
    20       H          3.62538727  *   0.98573746  *   0.45425506  *
 


          CARTESIAN COORDINATES 

    NO.       ATOM           X           Y           Z

     1         C          1.8931     -1.2134      0.1755
     2         C         -1.8794     -0.9869     -0.2539
     3         C         -0.4153     -0.8559     -0.0791
     4         C          1.6431      0.2764      0.1999
     5         C          0.1988      0.4758      0.0401
     6         C          0.5284     -1.8154     -0.0042
     7         C         -2.5856      0.3234     -0.2869
     8         C         -0.5288      1.6058     -0.0028
     9         C         -1.9648      1.5077     -0.1719
    10         C          2.5713      1.2186      0.3408
    11         H          2.5704     -1.4992     -0.6505
    12         H          2.3663     -1.5623      1.1119
    13         H         -2.3008     -1.6044      0.5661
    14         H         -2.0962     -1.5383     -1.1922
    15         H          0.3781     -2.8921     -0.0604
    16         H         -3.6730      0.2740     -0.4139
    17         H         -0.0718      2.5966      0.0858
    18         H         -2.5307      2.4448     -0.2025
    19         H          2.3322      2.2781      0.3509
    20         H          3.6254      0.9857      0.4543

  H: (PM3): J. J. P. STEWART, J. COMP. CHEM. 10, 209 (1989).
  C: (PM3): J. J. P. STEWART, J. COMP. CHEM. 10, 209 (1989).

           Empirical Formula: C10 H10  =    20 atoms



      MOLECULAR POINT GROUP   :   C1  


      RHF CALCULATION, NO. OF DOUBLY OCCUPIED LEVELS = 25



          HEAT OF FORMATION =      53.922657 KCALS/MOLE


          CARTESIAN COORDINATE DERIVATIVES

   NUMBER  ATOM         X            Y            Z

     1       C      0.007515     0.004612    -0.001676
     2       C     -0.007136    -0.003416     0.001890
     3       C      0.002822    -0.005428    -0.005929
     4       C      0.008840     0.006769     0.005194
     5       C      0.000738    -0.004741     0.000073
     6       C     -0.008823    -0.001945     0.002047
     7       C     -0.005423    -0.006955    -0.001710
     8       C      0.024244    -0.000304     0.003662
     9       C      0.008180     0.005950    -0.003607
    10       C     -0.002938     0.004986    -0.003697
    11       H      0.008412    -0.001660     0.001728
    12       H      0.002406    -0.004951    -0.002956
    13       H      0.012025    -0.004328     0.005152
    14       H     -0.014796    -0.001533     0.001060
    15       H     -0.000275     0.004568    -0.000790
    16       H     -0.012036     0.008696    -0.003330
    17       H     -0.004118    -0.002067     0.001015
    18       H     -0.003970     0.005128    -0.001825
    19       H     -0.004896    -0.005655     0.004010
    20       H     -0.010770     0.002273    -0.000310
 


          GRADIENT NORM =   0.04864


          TIME FOR SCF CALCULATION =    0.03

          TIME FOR DERIVATIVES     =    0.01

          MOLECULAR WEIGHT =  130.19



          ROTATIONAL CONSTANTS IN CM(-1)

          A =    0.08579962   B =    0.04163933   C =    0.02833280



           PRINCIPAL MOMENTS OF INERTIA IN UNITS OF 10**(-40)*GRAM-CM**2

          A =      326.2576   B =      672.2676   C =      987.9990


          ORIENTATION OF MOLECULE IN FORCE CALCULATION

    NO.       ATOM         X         Y         Z

     1          C      -2.0176   -1.1415   -0.0013
     2          C       1.7861   -1.1415   -0.0013
     3          C       0.3220   -0.9228   -0.0013
     4          C      -1.6836    0.3319    0.0012
     5          C      -0.2212    0.4446    0.0008
     6          C      -0.6795   -1.8248   -0.0027
     7          C       2.5683    0.1254   -0.0011
     8          C       0.5725    1.5299    0.0018
     9          C       2.0101    1.3459    0.0004
    10          C      -2.5641    1.3290    0.0035
    11          H      -2.6131   -1.4256    0.8859
    12          H      -2.6133   -1.4225   -0.8894
    13          H       2.0747   -1.7446   -0.8869
    14          H       2.0742   -1.7446    0.8844
    15          H      -0.5882   -2.9095   -0.0044
    16          H       3.6581    0.0109   -0.0022
    17          H       0.1683    2.5473    0.0034
    18          H       2.6306    2.2483    0.0006
    19          H      -2.2649    2.3731    0.0054
    20          H      -3.6362    1.1595    0.0036


    FIRST DERIVATIVES WILL BE USED IN THE CALCULATION OF SECOND DERIVATIVES

          ESTIMATED TIME TO COMPLETE CALCULATION =        9.38 SECONDS

    FOR POINT-GROUP C1   THERE ARE   1 UNIQUE SYMMETRY FUNCTIONS.

 STEP:   1 TIME =     0.05 SECS, INTEGRAL =      0.05 TIME LEFT: 172799.91
 STEP:   2 TIME =     0.05 SECS, INTEGRAL =      0.09 TIME LEFT: 172799.87
 STEP:   3 TIME =     0.05 SECS, INTEGRAL =      0.14 TIME LEFT: 172799.82
 STEP:   4 TIME =     0.04 SECS, INTEGRAL =      0.18 TIME LEFT: 172799.78
 STEP:   5 TIME =     0.05 SECS, INTEGRAL =      0.23 TIME LEFT: 172799.73
 STEP:   6 TIME =     0.04 SECS, INTEGRAL =      0.27 TIME LEFT: 172799.69
 STEP:   7 TIME =     0.05 SECS, INTEGRAL =      0.32 TIME LEFT: 172799.64
 STEP:   8 TIME =     0.05 SECS, INTEGRAL =      0.37 TIME LEFT: 172799.59
 STEP:   9 TIME =     0.05 SECS, INTEGRAL =      0.41 TIME LEFT: 172799.55
 STEP:  10 TIME =     0.05 SECS, INTEGRAL =      0.46 TIME LEFT: 172799.50
 STEP:  11 TIME =     0.04 SECS, INTEGRAL =      0.50 TIME LEFT: 172799.46
 STEP:  12 TIME =     0.05 SECS, INTEGRAL =      0.55 TIME LEFT: 172799.41
 STEP:  13 TIME =     0.05 SECS, INTEGRAL =      0.60 TIME LEFT: 172799.36
 STEP:  14 TIME =     0.05 SECS, INTEGRAL =      0.64 TIME LEFT: 172799.32
 STEP:  15 TIME =     0.05 SECS, INTEGRAL =      0.70 TIME LEFT: 172799.27
 STEP:  16 TIME =     0.05 SECS, INTEGRAL =      0.74 TIME LEFT: 172799.22
 STEP:  17 TIME =     0.04 SECS, INTEGRAL =      0.79 TIME LEFT: 172799.18
 STEP:  18 TIME =     0.05 SECS, INTEGRAL =      0.84 TIME LEFT: 172799.12
 STEP:  19 TIME =     0.05 SECS, INTEGRAL =      0.88 TIME LEFT: 172799.08
 STEP:  20 TIME =     0.04 SECS, INTEGRAL =      0.93 TIME LEFT: 172799.04
 STEP:  21 TIME =     0.05 SECS, INTEGRAL =      0.98 TIME LEFT: 172798.98
 STEP:  22 TIME =     0.05 SECS, INTEGRAL =      1.02 TIME LEFT: 172798.94
 STEP:  23 TIME =     0.04 SECS, INTEGRAL =      1.07 TIME LEFT: 172798.89
 STEP:  24 TIME =     0.05 SECS, INTEGRAL =      1.12 TIME LEFT: 172798.84
 STEP:  25 TIME =     0.05 SECS, INTEGRAL =      1.16 TIME LEFT: 172798.80
 STEP:  26 TIME =     0.05 SECS, INTEGRAL =      1.21 TIME LEFT: 172798.75
 STEP:  27 TIME =     0.05 SECS, INTEGRAL =      1.26 TIME LEFT: 172798.70
 STEP:  28 TIME =     0.04 SECS, INTEGRAL =      1.30 TIME LEFT: 172798.66
 STEP:  29 TIME =     0.05 SECS, INTEGRAL =      1.35 TIME LEFT: 172798.61
 STEP:  30 TIME =     0.05 SECS, INTEGRAL =      1.39 TIME LEFT: 172798.57
 STEP:  31 TIME =     0.05 SECS, INTEGRAL =      1.44 TIME LEFT: 172798.52
 STEP:  32 TIME =     0.05 SECS, INTEGRAL =      1.49 TIME LEFT: 172798.47
 STEP:  33 TIME =     0.05 SECS, INTEGRAL =      1.54 TIME LEFT: 172798.43
 STEP:  34 TIME =     0.05 SECS, INTEGRAL =      1.58 TIME LEFT: 172798.38
 STEP:  35 TIME =     0.05 SECS, INTEGRAL =      1.63 TIME LEFT: 172798.33
 STEP:  36 TIME =     0.05 SECS, INTEGRAL =      1.68 TIME LEFT: 172798.29
 STEP:  37 TIME =     0.05 SECS, INTEGRAL =      1.72 TIME LEFT: 172798.24
 STEP:  38 TIME =     0.05 SECS, INTEGRAL =      1.77 TIME LEFT: 172798.19
 STEP:  39 TIME =     0.05 SECS, INTEGRAL =      1.82 TIME LEFT: 172798.14
 STEP:  40 TIME =     0.05 SECS, INTEGRAL =      1.86 TIME LEFT: 172798.10
 STEP:  41 TIME =     0.05 SECS, INTEGRAL =      1.91 TIME LEFT: 172798.05
 STEP:  42 TIME =     0.05 SECS, INTEGRAL =      1.96 TIME LEFT: 172798.00
 STEP:  43 TIME =     0.05 SECS, INTEGRAL =      2.00 TIME LEFT: 172797.96
 STEP:  44 TIME =     0.05 SECS, INTEGRAL =      2.05 TIME LEFT: 172797.91
 STEP:  45 TIME =     0.05 SECS, INTEGRAL =      2.10 TIME LEFT: 172797.86
 STEP:  46 TIME =     0.05 SECS, INTEGRAL =      2.15 TIME LEFT: 172797.81
 STEP:  47 TIME =     0.05 SECS, INTEGRAL =      2.20 TIME LEFT: 172797.77
 STEP:  48 TIME =     0.05 SECS, INTEGRAL =      2.24 TIME LEFT: 172797.72
 STEP:  49 TIME =     0.05 SECS, INTEGRAL =      2.29 TIME LEFT: 172797.67
 STEP:  50 TIME =     0.05 SECS, INTEGRAL =      2.34 TIME LEFT: 172797.62
 STEP:  51 TIME =     0.05 SECS, INTEGRAL =      2.38 TIME LEFT: 172797.58
 STEP:  52 TIME =     0.05 SECS, INTEGRAL =      2.43 TIME LEFT: 172797.53
 STEP:  53 TIME =     0.04 SECS, INTEGRAL =      2.47 TIME LEFT: 172797.49
 STEP:  54 TIME =     0.05 SECS, INTEGRAL =      2.52 TIME LEFT: 172797.44
 STEP:  55 TIME =     0.05 SECS, INTEGRAL =      2.57 TIME LEFT: 172797.39
 STEP:  56 TIME =     0.04 SECS, INTEGRAL =      2.61 TIME LEFT: 172797.35
 STEP:  57 TIME =     0.05 SECS, INTEGRAL =      2.66 TIME LEFT: 172797.30
 STEP:  58 TIME =     0.04 SECS, INTEGRAL =      2.70 TIME LEFT: 172797.26
 STEP:  59 TIME =     0.05 SECS, INTEGRAL =      2.75 TIME LEFT: 172797.21
 STEP:  60 TIME =     0.05 SECS, INTEGRAL =      2.79 TIME LEFT: 172797.17

(To convert to Hartree/Bohr^2, multiply by (10^(-21) x N x a0^2)/(4.184 x 627.51) =  0.0642)


           FORCE MATRIX IN MILLIDYNES/ANGSTROM


                  C  1       C  2       C  3       C  4       C  5       C  6
 ------------------------------------------------------------------------------
     C    1  14.831306
     C    2   0.116132  15.096329
     C    3   1.189490   5.176346  19.293468
     C    4   4.206721   0.047560   1.028230  19.260083
     C    5   0.885654   0.570181   4.944057   5.012533  19.635607
     C    6   4.479413   0.642113   9.849685   0.987119   1.448731  18.043279
     C    7   0.009931   4.874801   0.750943   0.030535   0.222149   0.061585
     C    8   0.056743   0.129436   0.987601   0.780130   9.670226   0.140259
     C    9   0.015640   0.829017   0.158808   0.153558   1.250986   0.057648
     C   10   0.686702   0.007521   0.054503  10.684545   0.882427   0.053482
     H   11   4.502636   0.015509   0.034768   0.431995   0.031713   0.426057
     H   12   4.502434   0.015476   0.034803   0.432177   0.031529   0.426096
     H   13   0.012620   4.375219   0.421685   0.004337   0.025294   0.022036
     H   14   0.012725   4.374744   0.421452   0.004370   0.025221   0.022084
     H   15   0.406461   0.050912   0.457695   0.043529   0.107842   5.051916
     H   16   0.002848   0.421159   0.049880   0.009972   0.008182   0.007981
     H   17   0.007269   0.004099   0.112097   0.066110   0.456446   0.009778
     H   18   0.001658   0.119133   0.002610   0.008187   0.048398   0.000959
     H   19   0.120442   0.000943   0.005182   0.477063   0.092296   0.006570
     H   20   0.082936   0.001145   0.008973   0.475040   0.130609   0.002129


                  C  7       C  8       C  9       C 10       H 11       H 12
 ------------------------------------------------------------------------------
     C    7  17.840392
     C    8   1.159392  18.199687
     C    9  10.064872   5.599308  18.207925
     C   10   0.010760   0.110172   0.027560  17.957262
     H   11   0.000649   0.003957   0.001204   0.019235   5.102121
     H   12   0.000668   0.003923   0.001192   0.019188   0.553082   5.102081
     H   13   0.420467   0.014488   0.040451   0.000556   0.001851   0.001904
     H   14   0.420233   0.014507   0.040406   0.000508   0.001912   0.001858
     H   15   0.001949   0.008776   0.006721   0.007519   0.012229   0.012272
     H   16   4.825744   0.120198   0.441688   0.000949   0.000422   0.000435
     H   17   0.047630   4.857844   0.434440   0.012648   0.000608   0.000605
     H   18   0.442063   0.433194   4.846281   0.000728   0.000284   0.000288
     H   19   0.001091   0.014530   0.007125   5.086942   0.011962   0.011956
     H   20   0.000987   0.008161   0.008199   5.114628   0.010060   0.010038


                  H 13       H 14       H 15       H 16       H 17       H 18
 ------------------------------------------------------------------------------
     H   13   4.960879
     H   14   0.565215   4.960228
     H   15   0.007383   0.007388   5.450359
     H   16   0.028579   0.028454   0.001020   5.199769
     H   17   0.000900   0.000904   0.007591   0.007153   5.230237
     H   18   0.015537   0.015564   0.000312   0.066121   0.030036   5.208450
     H   19   0.000321   0.000329   0.001452   0.000488   0.020469   0.000427
     H   20   0.000353   0.000361   0.001047   0.000641   0.006304   0.000533


                  H 19       H 20
 ------------------------------
     H   19   5.465507
     H   20   0.405713   5.487876


          HEAT OF FORMATION =      53.922657 KCALS/MOLE

          ZERO POINT ENERGY     105.043 KCAL/MOL


           NORMAL COORDINATE ANALYSIS (Total motion = 1 Angstrom)


   Root No.       1         2         3         4         5         6         7         8

                 1 A       2 A       3 A       4 A       5 A       6 A       7 A       8 A   

                  88.4     152.5     227.1     277.8     293.0     427.1     469.9     490.3
  
           1   -0.0000   -0.0000   -0.0000   -0.0093   -0.0001    0.0000    0.0228    0.0002
           2    0.0001   -0.0000    0.0001   -0.0118   -0.0001   -0.0001   -0.0359   -0.0003
           3   -0.0485    0.0085   -0.0508    0.0001   -0.0080    0.0023   -0.0000    0.0002
           4   -0.0000    0.0000    0.0000    0.0077    0.0001   -0.0000   -0.0163   -0.0002
           5   -0.0000    0.0000    0.0000    0.0087    0.0001    0.0000   -0.0150   -0.0001
           6    0.0568   -0.0236   -0.0281    0.0003   -0.0178    0.0020    0.0000   -0.0059
           7   -0.0000   -0.0000    0.0000    0.0005    0.0000   -0.0000    0.0026    0.0000
           8    0.0000   -0.0000   -0.0001   -0.0318   -0.0004    0.0000    0.0471    0.0005
           9    0.0112   -0.0179    0.0365   -0.0007    0.0421    0.0409    0.0005   -0.0483
          10   -0.0000   -0.0000   -0.0000    0.0045    0.0000   -0.0001   -0.0231   -0.0002
          11   -0.0000   -0.0000    0.0000   -0.0168   -0.0002   -0.0000   -0.0182   -0.0003
          12    0.0027   -0.0120   -0.0165   -0.0006    0.0373   -0.0155   -0.0008    0.0763
          13   -0.0000   -0.0000    0.0000    0.0002   -0.0000   -0.0001   -0.0244   -0.0002
          14    0.0000    0.0000   -0.0000   -0.0354   -0.0004    0.0000    0.0341    0.0003
          15   -0.0017   -0.0477    0.0069   -0.0009    0.0604    0.0072   -0.0000    0.0004
          16    0.0000   -0.0000    0.0000   -0.0084   -0.0001    0.0001    0.0419    0.0004
          17    0.0000   -0.0000   -0.0001   -0.0245   -0.0002    0.0000    0.0122    0.0001
          18   -0.0219    0.0162    0.0681    0.0003   -0.0250   -0.0135   -0.0001    0.0113
          19   -0.0000    0.0000   -0.0000   -0.0199   -0.0002    0.0000   -0.0125   -0.0001
          20   -0.0000   -0.0000    0.0000    0.0297    0.0003    0.0000   -0.0291   -0.0003
          21    0.0029    0.0583   -0.0225   -0.0004    0.0252   -0.0465    0.0001   -0.0084
          22   -0.0000   -0.0001   -0.0000   -0.0337   -0.0004   -0.0000   -0.0112   -0.0001
          23    0.0000    0.0001   -0.0000   -0.0125   -0.0001    0.0000    0.0255    0.0002
          24   -0.0291   -0.0580    0.0116    0.0006   -0.0330   -0.0395    0.0003   -0.0250
          25   -0.0000   -0.0000   -0.0000   -0.0341   -0.0004    0.0001   -0.0141   -0.0001
          26    0.0000    0.0000    0.0000    0.0232    0.0003   -0.0001   -0.0290   -0.0003
          27   -0.0368    0.0208    0.0058    0.0004   -0.0254    0.0600   -0.0003    0.0194
          28    0.0000    0.0001    0.0000    0.0820    0.0008    0.0000    0.0165    0.0001
          29   -0.0001   -0.0000   -0.0000    0.0516    0.0006    0.0000    0.0169    0.0002
          30    0.0592    0.0404    0.0080    0.0003   -0.0176    0.0052    0.0002   -0.0146
          31   -0.0319    0.0006   -0.1025   -0.0105   -0.0052    0.0274    0.0375   -0.0793
          32   -0.0257    0.0123   -0.0051   -0.0074   -0.0314    0.0126   -0.0618   -0.0739
          33   -0.0783    0.0128   -0.1225    0.0004   -0.0217    0.0255    0.0011   -0.0797
          34    0.0319   -0.0006    0.1024   -0.0107    0.0050   -0.0273    0.0360    0.0800
          35    0.0259   -0.0123    0.0055   -0.0084    0.0313   -0.0129   -0.0632    0.0730
          36   -0.0783    0.0128   -0.1225    0.0002   -0.0216    0.0254    0.0001   -0.0794
          37    0.0218    0.0033   -0.0446    0.0262   -0.0364   -0.0303   -0.0401    0.0448
          38   -0.0535    0.0634    0.0369    0.0165    0.0717   -0.0501   -0.0265   -0.0617
          39    0.1006   -0.0663   -0.0685    0.0012   -0.0797    0.0275   -0.0003    0.0526
          40   -0.0219   -0.0033    0.0448    0.0250    0.0369    0.0302   -0.0392   -0.0456
          41    0.0535   -0.0634   -0.0369    0.0189   -0.0714    0.0502   -0.0279    0.0613
          42    0.1006   -0.0663   -0.0684    0.0015   -0.0797    0.0275   -0.0010    0.0526
          43    0.0000   -0.0000    0.0000   -0.0210   -0.0002    0.0001    0.1011    0.0010
          44    0.0000   -0.0001   -0.0002   -0.0255   -0.0001    0.0001    0.0171    0.0001
          45   -0.0287    0.0476    0.1311    0.0013   -0.0983   -0.0766   -0.0004    0.0633
          46   -0.0000    0.0001   -0.0000   -0.0177   -0.0001   -0.0000   -0.0128   -0.0001
          47   -0.0001   -0.0000    0.0001    0.0495    0.0005    0.0000   -0.0304   -0.0003
          48   -0.0003    0.1409   -0.0423   -0.0013    0.0769   -0.1091   -0.0000    0.0090
          49    0.0000   -0.0001   -0.0000   -0.0628   -0.0007   -0.0000    0.0270    0.0002
          50    0.0001    0.0001   -0.0000   -0.0238   -0.0001    0.0002    0.0404    0.0004
          51   -0.0470   -0.0952    0.0094    0.0018   -0.1021   -0.1621    0.0007   -0.0369
          52   -0.0000    0.0000   -0.0000   -0.0513   -0.0006    0.0001    0.0070    0.0001
          53    0.0000    0.0000    0.0000    0.0348    0.0004   -0.0002   -0.0432   -0.0005
          54   -0.0753    0.0656    0.0169    0.0005   -0.0392    0.1787   -0.0011    0.0900
          55    0.0001    0.0002    0.0000    0.1790    0.0018    0.0002    0.0918    0.0009
          56   -0.0002   -0.0000   -0.0001    0.0253    0.0003   -0.0000   -0.0030    0.0001
          57    0.1000    0.0367    0.0431    0.0000   -0.0079    0.0128    0.0006   -0.0888
          58    0.0000    0.0001    0.0000    0.0669    0.0007    0.0000    0.0053    0.0000
          59   -0.0001    0.0000    0.0000    0.1550    0.0018    0.0002    0.0966    0.0011
          60    0.0689    0.0914   -0.0034    0.0013   -0.0804    0.0197    0.0008   -0.0475


   Root No.       9        10        11        12        13        14        15        16

                 9 A      10 A      11 A      12 A      13 A      14 A      15 A      16 A   

                 523.1     537.4     598.9     688.7     709.7     753.1     798.1     810.7
  
           1   -0.0365    0.0133    0.0000    0.0706    0.0001   -0.0000    0.0171   -0.0000
           2   -0.0351    0.0263   -0.0000    0.0033    0.0000    0.0000    0.0213    0.0001
           3   -0.0001    0.0000   -0.0007   -0.0000   -0.0065    0.0028    0.0001   -0.0325
           4   -0.0046    0.0623   -0.0000   -0.0441   -0.0001   -0.0000   -0.0299   -0.0000
           5    0.0562   -0.0187    0.0000    0.0217    0.0000    0.0000    0.0571    0.0000
           6    0.0000   -0.0000   -0.0088    0.0000   -0.0251   -0.0163    0.0001    0.0169
           7   -0.0209    0.0424   -0.0000   -0.0249   -0.0000   -0.0000   -0.0186   -0.0000
           8    0.0133   -0.0058    0.0001   -0.0195   -0.0000   -0.0000    0.0187    0.0000
           9   -0.0000   -0.0000   -0.0288    0.0001   -0.0308    0.0290    0.0000    0.0045
          10   -0.0472   -0.0412   -0.0000   -0.0080   -0.0000    0.0000    0.0374    0.0000
          11   -0.0238    0.0343    0.0000    0.0433    0.0001   -0.0000    0.0012   -0.0000
          12   -0.0000    0.0000   -0.0112    0.0001   -0.0388   -0.0018   -0.0000    0.0160
          13   -0.0312   -0.0317   -0.0000   -0.0084    0.0000    0.0000   -0.0095   -0.0000
          14   -0.0017   -0.0260   -0.0000   -0.0115   -0.0001    0.0000   -0.0054   -0.0000
          15    0.0001   -0.0001    0.0247   -0.0002    0.0721   -0.0129   -0.0001    0.0086
          16   -0.0128    0.0238    0.0000    0.0328    0.0000   -0.0000    0.0016   -0.0000
          17   -0.0013    0.0191   -0.0000   -0.0705   -0.0001    0.0000   -0.0039    0.0001
          18    0.0000    0.0000    0.0114   -0.0001    0.0108    0.0049    0.0000   -0.0254
          19    0.0683    0.0383   -0.0000   -0.0230   -0.0000    0.0000    0.0515    0.0000
          20    0.0148   -0.0051   -0.0000    0.0025   -0.0000   -0.0000   -0.0097    0.0000
          21    0.0000   -0.0000   -0.0002    0.0000    0.0015   -0.0207    0.0000   -0.0119
          22    0.0338   -0.0327   -0.0000    0.0149    0.0000   -0.0000   -0.0302   -0.0000
          23   -0.0435   -0.0380    0.0000   -0.0281   -0.0000    0.0000   -0.0110   -0.0000
          24    0.0000   -0.0000   -0.0092   -0.0000    0.0075   -0.0018    0.0000   -0.0065
          25    0.0501   -0.0344   -0.0000    0.0176   -0.0000   -0.0001   -0.0420   -0.0000
          26    0.0024   -0.0389   -0.0000    0.0182    0.0000   -0.0000   -0.0570   -0.0000
          27   -0.0001   -0.0000    0.0001    0.0000   -0.0095   -0.0298    0.0000   -0.0090
          28   -0.0081   -0.0430    0.0000   -0.0274   -0.0000    0.0000    0.0365    0.0000
          29    0.0131    0.0442    0.0000    0.0414    0.0000   -0.0000   -0.0153   -0.0000
          30    0.0000    0.0001    0.0028    0.0001    0.0011   -0.0002   -0.0000    0.0018
          31   -0.0312    0.0230    0.0286    0.0819   -0.0007   -0.0107    0.0075    0.1183
          32   -0.0522    0.0098    0.0429    0.0014    0.0446    0.0000    0.0546   -0.0047
          33   -0.0017    0.0009    0.0340    0.0048    0.0076   -0.0046    0.0033    0.0492
          34   -0.0312    0.0229   -0.0285    0.0820    0.0010    0.0106    0.0077   -0.1183
          35   -0.0523    0.0097   -0.0431    0.0017   -0.0445    0.0001    0.0547    0.0047
          36    0.0015   -0.0008    0.0338   -0.0050    0.0074   -0.0046   -0.0033    0.0492
          37   -0.0149    0.0701    0.0317   -0.0496    0.0589   -0.0119   -0.0721   -0.0440
          38    0.0546   -0.0175   -0.0330    0.0234   -0.0659   -0.0742    0.0503    0.0307
          39   -0.0017    0.0017    0.0253   -0.0029    0.0415    0.0327   -0.0071   -0.0196
          40   -0.0150    0.0700   -0.0319   -0.0493   -0.0592    0.0119   -0.0719    0.0440
          41    0.0545   -0.0174    0.0330    0.0230    0.0660    0.0743    0.0501   -0.0307
          42    0.0017   -0.0016    0.0252    0.0027    0.0415    0.0327    0.0070   -0.0196
          43    0.0104   -0.0023    0.0001    0.0362    0.0000   -0.0000    0.0083    0.0000
          44    0.0004    0.0170   -0.0001   -0.0705   -0.0002    0.0002   -0.0023   -0.0004
          45    0.0001   -0.0000    0.0650   -0.0002    0.0438   -0.0899   -0.0002    0.2625
          46    0.0645    0.0442    0.0000   -0.0285    0.0000    0.0002    0.0510    0.0000
          47   -0.0190    0.0532   -0.0000   -0.0462   -0.0001   -0.0002   -0.0059   -0.0000
          48    0.0003    0.0000    0.0311   -0.0000    0.0938    0.2462   -0.0002    0.0334
          49    0.0569   -0.0312   -0.0000   -0.0034   -0.0001    0.0001   -0.0207   -0.0000
          50   -0.0334   -0.0376    0.0000   -0.0353    0.0001   -0.0002   -0.0079   -0.0001
          51    0.0002    0.0001   -0.0295    0.0004   -0.1121    0.1573   -0.0003    0.0406
          52    0.0181   -0.0701    0.0000    0.0168   -0.0000    0.0000   -0.0870   -0.0000
          53    0.0246   -0.0139   -0.0000    0.0181    0.0000   -0.0001   -0.0275   -0.0000
          54   -0.0001   -0.0000    0.0287    0.0001    0.0101    0.1852   -0.0004    0.0918
          55    0.0705   -0.0433   -0.0000   -0.0614   -0.0001   -0.0000   -0.0409   -0.0000
          56   -0.0080    0.0451   -0.0004    0.0522    0.0002   -0.0000    0.0040    0.0001
          57   -0.0001    0.0002    0.2717    0.0002   -0.0865    0.0085    0.0000   -0.0537
          58   -0.0207   -0.0457   -0.0000   -0.0257    0.0000    0.0001    0.0535    0.0000
          59    0.0986    0.0554    0.0003    0.0230   -0.0002   -0.0001   -0.1220   -0.0001
          60    0.0001    0.0002   -0.2480   -0.0001    0.1642   -0.0055   -0.0002    0.0142


   Root No.      17        18        19        20        21        22        23        24

                17 A      18 A      19 A      20 A      21 A      22 A      23 A      24 A   

                 888.7     903.5     921.3     927.8     964.2    1004.6    1015.4    1027.7
  
           1    0.0024    0.0000    0.0334   -0.0000   -0.0000    0.0000    0.0000    0.0050
           2   -0.0099   -0.0000    0.0477   -0.0000   -0.0001    0.0000    0.0000   -0.0023
           3   -0.0001    0.0183    0.0000   -0.0251    0.0367   -0.0043   -0.0248    0.0000
           4    0.0233    0.0001   -0.0099    0.0000    0.0000   -0.0000   -0.0000   -0.0084
           5    0.0035   -0.0000    0.0082    0.0000   -0.0000   -0.0000    0.0001   -0.0471
           6   -0.0002    0.0395   -0.0001   -0.0261   -0.0113   -0.0230    0.0162    0.0000
           7   -0.0211   -0.0001    0.0041   -0.0000   -0.0000   -0.0000    0.0000   -0.0091
           8   -0.0359   -0.0001    0.0004   -0.0000   -0.0000   -0.0000   -0.0000    0.0035
           9    0.0001   -0.0301    0.0001    0.0083    0.0145    0.0180   -0.0170    0.0000
          10   -0.0051   -0.0000   -0.0011    0.0000   -0.0000    0.0000    0.0000    0.0018
          11    0.0059    0.0000   -0.0163    0.0000    0.0000   -0.0000   -0.0000    0.0024
          12    0.0001   -0.0164   -0.0000    0.0056   -0.0171    0.0053    0.0240    0.0000
          13    0.0067    0.0000   -0.0016    0.0000   -0.0000    0.0000    0.0000    0.0051
          14    0.0367    0.0001   -0.0045    0.0000   -0.0000    0.0000   -0.0000    0.0030
          15   -0.0001    0.0271    0.0000    0.0204    0.0094   -0.0132    0.0001    0.0000
          16   -0.0179   -0.0001    0.0006   -0.0000    0.0000   -0.0000   -0.0000   -0.0044
          17   -0.0660   -0.0002    0.0095   -0.0001    0.0000   -0.0000   -0.0000   -0.0082
          18   -0.0001    0.0013    0.0000    0.0161   -0.0349    0.0050    0.0316   -0.0000
          19    0.0405    0.0001   -0.0055    0.0001   -0.0000    0.0001   -0.0000    0.0535
          20   -0.0023   -0.0000   -0.0008   -0.0000   -0.0000    0.0000   -0.0000    0.0190
          21   -0.0000   -0.0022    0.0001    0.0271    0.0027    0.0350   -0.0227   -0.0002
          22   -0.0117   -0.0001    0.0003   -0.0001   -0.0000   -0.0000   -0.0000   -0.0113
          23    0.0760    0.0002   -0.0126    0.0001    0.0000   -0.0000    0.0000    0.0127
          24    0.0002   -0.0189   -0.0001   -0.0519   -0.0182    0.0216   -0.0050   -0.0000
          25   -0.0116   -0.0001   -0.0012   -0.0000    0.0000   -0.0000   -0.0000    0.0094
          26   -0.0254   -0.0001   -0.0007   -0.0000   -0.0000    0.0001   -0.0000    0.0275
          27    0.0001   -0.0217    0.0001    0.0152    0.0147   -0.0367    0.0168    0.0001
          28   -0.0188   -0.0001   -0.0273    0.0001    0.0000   -0.0000   -0.0000   -0.0032
          29    0.0043   -0.0000   -0.0520    0.0001    0.0000    0.0000    0.0001   -0.0002
          30    0.0001   -0.0054   -0.0001    0.0031   -0.0230   -0.0175   -0.0419    0.0000
          31   -0.0106   -0.0635    0.0269    0.0495   -0.0606    0.0475    0.0791    0.0053
          32    0.0120    0.0176    0.0906    0.0477   -0.0849   -0.0768   -0.0308    0.0006
          33   -0.0015   -0.0205    0.0087    0.0256   -0.0340    0.0034    0.0204    0.0010
          34   -0.0113    0.0635    0.0267   -0.0495    0.0605   -0.0474   -0.0789    0.0055
          35    0.0123   -0.0173    0.0904   -0.0480    0.0852    0.0767    0.0303    0.0004
          36    0.0017   -0.0206   -0.0082    0.0255   -0.0337    0.0037    0.0205   -0.0010
          37    0.0584   -0.0063   -0.0189    0.0484   -0.0249    0.0732   -0.0053   -0.1570
          38    0.0175    0.1046    0.0076   -0.0464   -0.0405   -0.0233    0.0372   -0.1400
          39    0.0020   -0.0366   -0.0023    0.0229    0.0091    0.0176   -0.0118    0.0141
          40    0.0585    0.0066   -0.0191   -0.0484    0.0250   -0.0738    0.0054   -0.1577
          41    0.0186   -0.1046    0.0080    0.0464    0.0406    0.0229   -0.0371   -0.1405
          42   -0.0016   -0.0367    0.0024    0.0228    0.0091    0.0176   -0.0117   -0.0142
          43   -0.0900   -0.0003   -0.0746    0.0001    0.0001   -0.0000   -0.0002    0.0053
          44   -0.0750   -0.0002    0.0044    0.0000   -0.0002   -0.0000    0.0002   -0.0080
          45    0.0003   -0.0366   -0.0000   -0.0426    0.1287    0.0040   -0.0894    0.0001
          46    0.0468    0.0001   -0.0074   -0.0001   -0.0000   -0.0000    0.0000    0.0563
          47    0.0418    0.0002   -0.0160    0.0002    0.0000    0.0002   -0.0002    0.0537
          48    0.0006   -0.0854   -0.0002   -0.1324    0.0085   -0.1366    0.0743    0.0006
          49    0.0755    0.0003    0.0022    0.0002    0.0000   -0.0001   -0.0000   -0.1007
          50    0.1133    0.0002   -0.0121   -0.0002   -0.0001    0.0001    0.0000   -0.0210
          51   -0.0006    0.0898    0.0006    0.2400    0.0805   -0.0660    0.0041    0.0003
          52    0.0272    0.0001   -0.0094    0.0000    0.0000   -0.0001    0.0001   -0.1137
          53   -0.0510   -0.0002    0.0045   -0.0001    0.0000    0.0001   -0.0001    0.1157
          54   -0.0010    0.1749   -0.0003   -0.0450   -0.0671    0.1377   -0.0573   -0.0003
          55    0.0349    0.0002    0.2329   -0.0004   -0.0000    0.0001    0.0001    0.0059
          56   -0.0091   -0.0001   -0.1236    0.0003   -0.0002   -0.0002   -0.0003   -0.0022
          57   -0.0001    0.0289   -0.0002   -0.0415    0.1219    0.0760    0.1549   -0.0000
          58   -0.0297   -0.0001   -0.0620    0.0001    0.0001   -0.0000    0.0000   -0.0063
          59    0.0756    0.0002    0.1968   -0.0004   -0.0002   -0.0000   -0.0002    0.0193
          60   -0.0001    0.0435    0.0001    0.0110    0.0942    0.0616    0.1670    0.0000


   Root No.      25        26        27        28        29        30        31        32

                25 A      26 A      27 A      28 A      29 A      30 A      31 A      32 A   

                1050.5    1051.4    1062.5    1076.0    1111.4    1156.8    1175.1    1217.9
  
           1   -0.0305   -0.0003    0.0000    0.0163   -0.0093    0.0013   -0.0148    0.0076
           2    0.0060    0.0001   -0.0000    0.0078   -0.0123    0.0021   -0.0021    0.0252
           3   -0.0002    0.0071   -0.0005   -0.0000    0.0000    0.0000   -0.0000    0.0000
           4    0.0072    0.0001    0.0000    0.0066   -0.0106    0.0031    0.0040    0.0025
           5   -0.0085   -0.0000    0.0001   -0.0208    0.0072    0.0070    0.0180   -0.0080
           6   -0.0001    0.0051   -0.0041   -0.0000    0.0000    0.0000    0.0000   -0.0000
           7   -0.0066   -0.0000    0.0000   -0.0134   -0.0038    0.0022    0.0369   -0.0116
           8    0.0085    0.0001   -0.0001    0.0100   -0.0067    0.0048   -0.0154   -0.0182
           9   -0.0001    0.0076    0.0279   -0.0000   -0.0000   -0.0000   -0.0000   -0.0000
          10    0.0045    0.0000    0.0000   -0.0062    0.0219   -0.0067   -0.0075   -0.0040
          11    0.0021    0.0001   -0.0000   -0.0117    0.0246   -0.0062   -0.0054    0.0006
          12    0.0005   -0.0261    0.0231    0.0000    0.0000   -0.0000   -0.0000    0.0000
          13   -0.0062   -0.0001    0.0000   -0.0385    0.0380   -0.0026    0.0110   -0.0150
          14    0.0026    0.0000   -0.0000    0.0227   -0.0107   -0.0096   -0.0208   -0.0112
          15   -0.0001    0.0075   -0.0124    0.0000   -0.0000   -0.0000   -0.0000   -0.0000
          16    0.0257    0.0002   -0.0000   -0.0024   -0.0136    0.0053    0.0239   -0.0287
          17   -0.0346   -0.0003    0.0001   -0.0077    0.0114   -0.0015    0.0012    0.0084
          18   -0.0002    0.0099   -0.0249    0.0000    0.0000    0.0000   -0.0000    0.0000
          19   -0.0046   -0.0001   -0.0001   -0.0121   -0.0074   -0.0045   -0.0062    0.0150
          20    0.0013    0.0000   -0.0000    0.0116    0.0023    0.0067    0.0100    0.0152
          21    0.0003   -0.0242   -0.0176    0.0000    0.0000    0.0000    0.0000   -0.0000
          22    0.0050    0.0001    0.0000    0.0223    0.0229    0.0008   -0.0085   -0.0239
          23   -0.0060   -0.0001   -0.0000   -0.0267   -0.0071   -0.0053    0.0048    0.0008
          24    0.0001   -0.0082    0.0027   -0.0000   -0.0000    0.0000    0.0000    0.0000
          25   -0.0003   -0.0000   -0.0000   -0.0060   -0.0248   -0.0001   -0.0115    0.0013
          26    0.0019   -0.0000   -0.0001    0.0041   -0.0181   -0.0029    0.0050    0.0135
          27   -0.0001    0.0114    0.0044    0.0000    0.0000   -0.0000    0.0000    0.0000
          28   -0.0047   -0.0000    0.0000    0.0204   -0.0210    0.0022   -0.0051    0.0050
          29   -0.0039   -0.0001    0.0000   -0.0034   -0.0022    0.0015    0.0074   -0.0044
          30   -0.0003    0.0182   -0.0137   -0.0001    0.0000   -0.0000    0.0000   -0.0000
          31   -0.1209    0.0483   -0.0625    0.0161    0.0182   -0.0054   -0.0480    0.0822
          32    0.1716   -0.1451    0.1406    0.0321   -0.0876    0.0189    0.0226   -0.0488
          33   -0.0079   -0.0073    0.0028    0.0069   -0.0053    0.0009   -0.0123    0.0228
          34   -0.1195   -0.0505    0.0628    0.0161    0.0182   -0.0054   -0.0480    0.0823
          35    0.1667    0.1482   -0.1413    0.0320   -0.0875    0.0189    0.0226   -0.0488
          36    0.0089   -0.0066    0.0023   -0.0067    0.0049   -0.0008    0.0124   -0.0230
          37    0.0187    0.1427    0.1706    0.0255   -0.0232   -0.0923   -0.1312    0.0050
          38   -0.0099    0.0774    0.0681   -0.0253    0.0145   -0.0287   -0.0303   -0.0259
          39    0.0040   -0.0018    0.0050    0.0084   -0.0069   -0.0041   -0.0100    0.0111
          40    0.0220   -0.1421   -0.1705    0.0257   -0.0228   -0.0919   -0.1309    0.0050
          41   -0.0081   -0.0773   -0.0677   -0.0252    0.0146   -0.0285   -0.0301   -0.0258
          42   -0.0039   -0.0019    0.0050   -0.0084    0.0068    0.0041    0.0099   -0.0111
          43    0.3003    0.0027   -0.0005   -0.0866    0.1037   -0.0374   -0.0627    0.1719
          44   -0.0106   -0.0001   -0.0000   -0.0151    0.0214   -0.0050   -0.0062    0.0264
          45   -0.0000   -0.0070    0.0591   -0.0001    0.0000   -0.0000    0.0000    0.0000
          46   -0.0013   -0.0000   -0.0000   -0.0001    0.0052    0.0223   -0.0193    0.0085
          47    0.0359    0.0004    0.0001    0.1476    0.1480    0.2764   -0.1057   -0.0628
          48   -0.0005    0.0483    0.0280    0.0001    0.0001    0.0002   -0.0001   -0.0000
          49    0.0237    0.0005    0.0002    0.2114    0.0918   -0.0531    0.1969    0.1014
          50    0.0013    0.0000    0.0001    0.0480    0.0192   -0.0286    0.0867    0.0513
          51   -0.0005    0.0301   -0.0063   -0.0001   -0.0000   -0.0001    0.0000   -0.0000
          52   -0.0073    0.0001    0.0002   -0.0860   -0.0866    0.2566    0.0146    0.0973
          53    0.0070   -0.0001   -0.0002    0.0610    0.0236   -0.1796   -0.0129   -0.0512
          54    0.0004   -0.0274   -0.0073    0.0000    0.0001   -0.0002   -0.0000   -0.0001
          55    0.0175    0.0001   -0.0000   -0.0004    0.0236   -0.0093   -0.0291    0.0476
          56   -0.0101    0.0000   -0.0001   -0.0002   -0.0124    0.0045    0.0146   -0.0189
          57    0.0011   -0.0575    0.0439    0.0001   -0.0001    0.0000    0.0000   -0.0000
          58   -0.0083   -0.0001    0.0000    0.0347   -0.0350    0.0036   -0.0067    0.0155
          59    0.0187    0.0002   -0.0001   -0.0861    0.0838   -0.0089    0.0078   -0.0575
          60    0.0013   -0.0697    0.0483   -0.0000    0.0001   -0.0000    0.0000   -0.0001


   Root No.      33        34        35        36        37        38        39        40

                33 A      34 A      35 A      36 A      37 A      38 A      39 A      40 A   

                1298.4    1312.6    1343.1    1359.5    1364.6    1392.3    1439.8    1518.6
  
           1   -0.0249    0.0137   -0.0309   -0.0168   -0.0138    0.0607   -0.0037    0.0208
           2    0.0196   -0.0356    0.0676    0.0021   -0.0058    0.0142   -0.0268    0.0182
           3    0.0000   -0.0001    0.0001    0.0000   -0.0000    0.0000   -0.0000    0.0000
           4    0.0139    0.0076   -0.0037    0.0121    0.0637    0.0279    0.0221    0.0877
           5    0.0061    0.0052    0.0074    0.0447   -0.0029    0.0252    0.0450    0.0064
           6   -0.0000   -0.0000   -0.0000   -0.0000    0.0000    0.0000    0.0000   -0.0000
           7   -0.0016   -0.0173   -0.0012    0.0041   -0.0071   -0.0001    0.0181   -0.0888
           8    0.0123    0.0217    0.0058   -0.0070   -0.0004   -0.0248   -0.0218    0.1310
           9    0.0000    0.0000    0.0000   -0.0000   -0.0000   -0.0000   -0.0000    0.0002
          10    0.0175    0.0367    0.0055   -0.0238    0.0157   -0.0214    0.0460   -0.0258
          11    0.0344    0.0209   -0.0256   -0.0144    0.0072   -0.0205    0.0376   -0.0201
          12    0.0001    0.0000   -0.0000   -0.0000    0.0000   -0.0000    0.0000   -0.0000
          13   -0.0133   -0.0084   -0.0110    0.0171   -0.0211   -0.0048   -0.0532    0.0801
          14    0.0115    0.0036    0.0065    0.0041    0.0302    0.0162   -0.0035   -0.0900
          15    0.0000    0.0000    0.0000   -0.0000    0.0000    0.0000    0.0000   -0.0001
          16    0.0245   -0.0142    0.0274   -0.0037   -0.0190   -0.0388   -0.0116   -0.0234
          17   -0.0251    0.0053   -0.0259   -0.0053   -0.0130    0.0107    0.0105   -0.0360
          18   -0.0000    0.0000   -0.0000   -0.0000   -0.0000    0.0000    0.0000   -0.0000
          19   -0.0052    0.0058   -0.0027   -0.0168   -0.0178   -0.0150   -0.0282   -0.0222
          20    0.0032    0.0214   -0.0035   -0.0071    0.0042   -0.0052   -0.0570   -0.0348
          21    0.0000    0.0000    0.0000    0.0000    0.0000    0.0000   -0.0000   -0.0000
          22    0.0041   -0.0007   -0.0004    0.0263    0.0227    0.0193   -0.0680   -0.0474
          23   -0.0105   -0.0229   -0.0009    0.0091   -0.0108    0.0051    0.0079    0.0045
          24   -0.0000   -0.0000    0.0000   -0.0000   -0.0000   -0.0000    0.0001    0.0000
          25   -0.0067   -0.0234    0.0054   -0.0081   -0.0140   -0.0022    0.0824    0.0306
          26    0.0006    0.0056   -0.0004   -0.0140   -0.0038   -0.0097    0.0001    0.0065
          27    0.0000    0.0000   -0.0000   -0.0000    0.0000   -0.0000   -0.0000   -0.0000
          28   -0.0092   -0.0010    0.0229   -0.0025    0.0062    0.0071    0.0017   -0.0088
          29   -0.0027   -0.0094   -0.0245    0.0092   -0.0096    0.0025   -0.0133    0.0122
          30   -0.0000   -0.0000   -0.0000    0.0000   -0.0000   -0.0000   -0.0000    0.0000
          31   -0.0529   -0.0283    0.0174    0.0898    0.0729   -0.1365    0.0067   -0.0014
          32   -0.1090    0.0239   -0.1114    0.0422    0.0097   -0.0470    0.0061   -0.0126
          33   -0.0531   -0.0085   -0.0221    0.0745    0.0552   -0.1326    0.0146   -0.0220
          34   -0.0529   -0.0283    0.0173    0.0897    0.0728   -0.1365    0.0067   -0.0015
          35   -0.1092    0.0238   -0.1115    0.0424    0.0099   -0.0474    0.0061   -0.0126
          36    0.0528    0.0086    0.0217   -0.0744   -0.0552    0.1325   -0.0145    0.0220
          37   -0.0073    0.0472    0.0223    0.0090   -0.1200   -0.0429   -0.0268   -0.0186
          38   -0.0395   -0.1008   -0.0394   -0.1301    0.0600   -0.0390   -0.0432    0.0013
          39    0.0205    0.0731    0.0346    0.1013   -0.0887    0.0176    0.0374   -0.0263
          40   -0.0073    0.0472    0.0223    0.0091   -0.1199   -0.0428   -0.0267   -0.0187
          41   -0.0394   -0.1008   -0.0394   -0.1300    0.0600   -0.0389   -0.0432    0.0013
          42   -0.0205   -0.0730   -0.0346   -0.1013    0.0886   -0.0176   -0.0374    0.0263
          43   -0.0405   -0.0407    0.0120    0.0176    0.0266    0.0796    0.0122   -0.0445
          44   -0.0323    0.0029   -0.0278   -0.0041   -0.0111    0.0214    0.0126   -0.0397
          45   -0.0000    0.0000   -0.0000    0.0000   -0.0000    0.0000    0.0000   -0.0001
          46   -0.0095   -0.0052   -0.0011   -0.0184   -0.0265   -0.0167   -0.0095   -0.0177
          47   -0.0355   -0.0884    0.0149   -0.0026   -0.0718   -0.0087    0.1262   -0.0031
          48   -0.0000   -0.0001    0.0000    0.0000   -0.0000   -0.0000    0.0001    0.0000
          49   -0.0278    0.0329    0.0008   -0.0472   -0.0489   -0.0428    0.0263    0.0957
          50   -0.0240   -0.0120   -0.0004   -0.0201   -0.0405   -0.0193    0.0498    0.0610
          51   -0.0000   -0.0000    0.0000    0.0000   -0.0000    0.0000    0.0000    0.0000
          52    0.0167    0.0722   -0.0059   -0.0458   -0.0063   -0.0311   -0.0525   -0.0241
          53   -0.0164   -0.0616    0.0077    0.0094   -0.0112    0.0085    0.0987    0.0471
          54   -0.0000   -0.0001    0.0000    0.0000   -0.0000    0.0000    0.0001    0.0000
          55    0.1777   -0.0615   -0.2007    0.0306   -0.0316   -0.0282    0.0020    0.0022
          56   -0.0606    0.0118    0.0440   -0.0020    0.0026    0.0125   -0.0119    0.0084
          57   -0.0001    0.0000    0.0001   -0.0000    0.0000    0.0000   -0.0000    0.0000
          58    0.0159   -0.0223   -0.0158    0.0091   -0.0033    0.0081   -0.0075   -0.0047
          59   -0.1235    0.1135    0.1848   -0.0605    0.0487   -0.0073    0.0527   -0.0265
          60   -0.0002    0.0002    0.0003   -0.0001    0.0001   -0.0000    0.0001   -0.0000


   Root No.      41        42        43        44        45        46        47        48

                41 A      42 A      43 A      44 A      45 A      46 A      47 A      48 A   

                1831.4    1856.5    1884.9    1920.4    2927.7    2974.8    3007.2    3046.2
  
           1   -0.0034    0.0036   -0.0068   -0.0007   -0.0000   -0.0000   -0.0000   -0.0382
           2   -0.0006    0.0111    0.0091    0.0183   -0.0000    0.0001   -0.0000   -0.0181
           3    0.0000    0.0000    0.0000    0.0000    0.0000   -0.0611   -0.0000   -0.0000
           4    0.0048   -0.0429    0.0146    0.0101   -0.0000   -0.0000    0.0176   -0.0001
           5   -0.0248   -0.0076    0.0123   -0.0044    0.0000    0.0000   -0.0365    0.0001
           6   -0.0000   -0.0000    0.0000   -0.0000   -0.0610   -0.0001   -0.0001    0.0000
           7   -0.0478    0.1570   -0.0431   -0.0440   -0.0000    0.0000    0.0007    0.0009
           8   -0.0258    0.0939   -0.0448   -0.0093   -0.0000    0.0000    0.0001    0.0002
           9   -0.0000    0.0001   -0.0001   -0.0000   -0.0001   -0.0003   -0.0000    0.0000
          10   -0.0068    0.0416    0.0404    0.1327    0.0000   -0.0000    0.0000   -0.0002
          11   -0.0059   -0.0525   -0.0790   -0.1188   -0.0000   -0.0000    0.0000   -0.0008
          12   -0.0000   -0.0001   -0.0001   -0.0002   -0.0000   -0.0001    0.0000   -0.0000
          13    0.0447    0.0074    0.0835   -0.0855    0.0000   -0.0000   -0.0004    0.0004
          14    0.0396    0.0358    0.1258   -0.0737    0.0000    0.0000    0.0000    0.0005
          15    0.0000    0.0000    0.0001   -0.0000   -0.0002   -0.0001   -0.0000    0.0000
          16    0.0357   -0.1204    0.0313    0.0262    0.0000   -0.0000   -0.0002   -0.0009
          17    0.0211   -0.0881    0.0201    0.0289   -0.0000    0.0000   -0.0000    0.0012
          18    0.0000   -0.0001    0.0000    0.0000   -0.0001   -0.0002    0.0000    0.0000
          19   -0.0542   -0.0090    0.0126   -0.0038   -0.0000   -0.0000   -0.0048    0.0002
          20    0.1836    0.0292   -0.0547    0.0189    0.0000   -0.0000   -0.0001   -0.0000
          21    0.0002    0.0000   -0.0001    0.0000   -0.0001    0.0000    0.0000   -0.0000
          22   -0.0647   -0.0279   -0.0813    0.0546   -0.0000   -0.0000    0.0002   -0.0002
          23   -0.0205   -0.0295   -0.0921    0.0578   -0.0000    0.0000    0.0000    0.0003
          24    0.0000   -0.0000   -0.0001    0.0000    0.0001   -0.0000    0.0000    0.0000
          25    0.1159    0.0207   -0.0151    0.0034    0.0000    0.0000   -0.0002   -0.0002
          26   -0.1596   -0.0227    0.0480   -0.0168    0.0000    0.0000    0.0002   -0.0003
          27   -0.0002   -0.0000    0.0000   -0.0000   -0.0003    0.0000    0.0000    0.0000
          28   -0.0016   -0.0374   -0.0459   -0.0843    0.0000   -0.0000    0.0000   -0.0000
          29    0.0030    0.0431    0.0554    0.0926    0.0000    0.0000   -0.0000    0.0001
          30    0.0000    0.0001    0.0001    0.0002    0.0000   -0.0001    0.0000    0.0000
          31   -0.0044    0.0192    0.0004    0.0054    0.0004   -0.2575    0.0003    0.2279
          32    0.0048   -0.0207   -0.0018   -0.0091    0.0001   -0.1227    0.0001    0.1089
          33    0.0003    0.0058    0.0028   -0.0052   -0.0005    0.3697   -0.0005   -0.3872
          34   -0.0043    0.0192    0.0004    0.0054   -0.0004    0.2577    0.0003    0.2280
          35    0.0048   -0.0207   -0.0018   -0.0091   -0.0001    0.1214    0.0001    0.1075
          36   -0.0003   -0.0059   -0.0028    0.0052   -0.0005    0.3702    0.0006    0.3873
          37   -0.0169    0.0123   -0.0055   -0.0008   -0.1225   -0.0001   -0.1045    0.0001
          38   -0.0245    0.0110   -0.0004   -0.0043    0.2589    0.0003    0.2200   -0.0003
          39   -0.0004    0.0031    0.0019   -0.0027    0.3683    0.0005    0.3751   -0.0004
          40   -0.0169    0.0122   -0.0055   -0.0008    0.1225    0.0001   -0.1040    0.0001
          41   -0.0244    0.0110   -0.0004   -0.0043   -0.2594   -0.0003    0.2195   -0.0003
          42    0.0004   -0.0031   -0.0019    0.0027    0.3693    0.0005   -0.3744    0.0004
          43   -0.0168    0.0486   -0.0093   -0.0123    0.0000    0.0000    0.0005   -0.0004
          44    0.0231   -0.1041    0.0234    0.0397    0.0000   -0.0000   -0.0024   -0.0142
          45    0.0000   -0.0002    0.0000    0.0001    0.0002   -0.0012   -0.0000   -0.0000
          46   -0.1050   -0.0187    0.0297   -0.0092    0.0000    0.0000    0.0513   -0.0026
          47   -0.0349    0.0035    0.0162   -0.0091   -0.0000    0.0000   -0.0084    0.0003
          48    0.0001    0.0000   -0.0000    0.0000   -0.0016   -0.0000   -0.0001    0.0000
          49   -0.0236    0.0052    0.0661   -0.0415   -0.0000    0.0000    0.0001    0.0016
          50   -0.0122   -0.0255   -0.0558    0.0354    0.0000   -0.0000   -0.0002   -0.0041
          51   -0.0000   -0.0000   -0.0001    0.0001    0.0000   -0.0001   -0.0000   -0.0000
          52   -0.0824   -0.0027    0.0535   -0.0239   -0.0000   -0.0000    0.0013    0.0022
          53   -0.0567   -0.0123    0.0093    0.0005   -0.0000   -0.0000    0.0028    0.0032
          54    0.0000   -0.0000   -0.0000    0.0000   -0.0007   -0.0000   -0.0000   -0.0000
          55    0.0017    0.0277    0.0307    0.0583   -0.0000   -0.0000    0.0001    0.0003
          56    0.0026    0.0334    0.0455    0.0740   -0.0000   -0.0000    0.0002    0.0004
          57    0.0000    0.0001    0.0001    0.0001   -0.0000   -0.0009    0.0000   -0.0000
          58   -0.0009   -0.0352   -0.0433   -0.0851   -0.0000    0.0000   -0.0001   -0.0015
          59   -0.0054   -0.0250   -0.0361   -0.0388   -0.0000    0.0000   -0.0000   -0.0008
          60   -0.0000   -0.0000   -0.0000   -0.0000    0.0000    0.0005   -0.0000   -0.0000


   Root No.      49        50        51        52        53        54

                49 A      50 A      51 A      52 A      53 A      54 A   

                3047.9    3062.5    3072.4    3135.6    3136.6    3145.4
  
           1   -0.0003   -0.0002   -0.0001   -0.0015   -0.0002   -0.0003
           2   -0.0001   -0.0001   -0.0000   -0.0008    0.0002    0.0003
           3    0.0000    0.0000   -0.0000   -0.0000   -0.0000    0.0000
           4   -0.0011    0.0008   -0.0007   -0.0003   -0.0000    0.0000
           5    0.0018   -0.0016    0.0013   -0.0003   -0.0000   -0.0000
           6    0.0000   -0.0000    0.0000    0.0000   -0.0000   -0.0000
           7    0.0003   -0.0001    0.0004    0.0050    0.0006   -0.0001
           8    0.0003    0.0002    0.0005    0.0033    0.0003    0.0000
           9    0.0000    0.0000    0.0000    0.0000   -0.0000   -0.0000
          10    0.0000   -0.0001   -0.0002   -0.0002   -0.0041    0.0021
          11   -0.0000   -0.0001   -0.0001    0.0004    0.0044   -0.0031
          12    0.0000   -0.0000    0.0000    0.0000    0.0000   -0.0000
          13   -0.0000    0.0013    0.0020    0.0006   -0.0000    0.0004
          14    0.0002    0.0019    0.0019    0.0015   -0.0002   -0.0003
          15    0.0000    0.0000    0.0000    0.0000   -0.0000   -0.0000
          16   -0.0001   -0.0001   -0.0001    0.0016    0.0002    0.0000
          17   -0.0000   -0.0000   -0.0001   -0.0692   -0.0064    0.0007
          18   -0.0000   -0.0000   -0.0000   -0.0001   -0.0000    0.0000
          19   -0.0352    0.0238   -0.0188   -0.0001   -0.0000    0.0000
          20    0.0039   -0.0051    0.0050    0.0001   -0.0000    0.0000
          21    0.0000   -0.0000    0.0000   -0.0000    0.0000    0.0000
          22    0.0023    0.0099    0.0107   -0.0002   -0.0004   -0.0001
          23   -0.0068   -0.0302   -0.0300   -0.0006    0.0016    0.0004
          24   -0.0000   -0.0000   -0.0000   -0.0000    0.0000    0.0000
          25    0.0181    0.0096   -0.0146    0.0001    0.0000    0.0000
          26    0.0250    0.0190   -0.0249   -0.0000    0.0000    0.0000
          27    0.0000    0.0000   -0.0000    0.0000    0.0000    0.0000
          28   -0.0000   -0.0002   -0.0003   -0.0010    0.0042   -0.0648
          29   -0.0001   -0.0008   -0.0008    0.0061   -0.0526   -0.0227
          30   -0.0000   -0.0000   -0.0000    0.0000   -0.0001   -0.0000
          31    0.0016    0.0010    0.0004    0.0070    0.0002    0.0003
          32    0.0007    0.0004    0.0002    0.0011    0.0002    0.0006
          33   -0.0027   -0.0016   -0.0007   -0.0098   -0.0004   -0.0007
          34    0.0016    0.0010    0.0005    0.0071    0.0002    0.0003
          35    0.0007    0.0004    0.0002    0.0011    0.0002    0.0006
          36    0.0027    0.0016    0.0008    0.0099    0.0004    0.0007
          37    0.0039   -0.0030    0.0024   -0.0006   -0.0000   -0.0000
          38   -0.0131    0.0092   -0.0071    0.0010    0.0000    0.0000
          39   -0.0201    0.0143   -0.0110    0.0015   -0.0000    0.0001
          40    0.0039   -0.0030    0.0023   -0.0006   -0.0000   -0.0000
          41   -0.0131    0.0092   -0.0070    0.0010    0.0000    0.0000
          42    0.0200   -0.0142    0.0110   -0.0016    0.0000   -0.0001
          43    0.0000    0.0001    0.0000   -0.0668   -0.0061    0.0006
          44   -0.0004   -0.0006   -0.0005    0.7705    0.0707   -0.0070
          45    0.0000   -0.0000   -0.0000    0.0012    0.0001   -0.0000
          46    0.4166   -0.2704    0.2031    0.0001    0.0004   -0.0003
          47   -0.0390    0.0282   -0.0218   -0.0000   -0.0001    0.0000
          48   -0.0004    0.0003   -0.0002   -0.0000    0.0000   -0.0000
          49   -0.0278   -0.1329   -0.1332   -0.0010    0.0071    0.0024
          50    0.0757    0.3381    0.3303    0.0025   -0.0169   -0.0050
          51    0.0001    0.0005    0.0005    0.0000   -0.0000   -0.0000
          52   -0.2101   -0.1287    0.1790   -0.0002   -0.0004   -0.0004
          53   -0.3009   -0.1929    0.2576   -0.0003   -0.0003   -0.0005
          54   -0.0001   -0.0000    0.0001   -0.0000    0.0000    0.0000
          55    0.0004    0.0026    0.0026   -0.0224    0.1852    0.0411
          56    0.0018    0.0101    0.0101   -0.0744    0.6199    0.1931
          57    0.0000    0.0000    0.0000   -0.0001    0.0011    0.0003
          58   -0.0001   -0.0007    0.0000    0.0305   -0.1885    0.7034
          59   -0.0001   -0.0004   -0.0003    0.0066   -0.0446    0.1117
          60    0.0000   -0.0000    0.0000    0.0000   -0.0000   -0.0001


           MASS-WEIGHTED COORDINATE ANALYSIS (NORMAL COORDINATES)


   Root No.       1         2         3         4         5         6         7         8

                 1 A       2 A       3 A       4 A       5 A       6 A       7 A       8 A   

                  88.4     152.5     227.1     277.8     293.0     427.1     469.9     490.3
  
           1   -0.0000   -0.0002   -0.0002   -0.0604   -0.0006    0.0001    0.1770    0.0018
           2    0.0005   -0.0002    0.0007   -0.0767   -0.0009   -0.0006   -0.2791   -0.0026
           3   -0.3675    0.0639   -0.3806    0.0006   -0.0636    0.0174   -0.0004    0.0016
           4   -0.0001    0.0000    0.0003    0.0504    0.0007   -0.0002   -0.1269   -0.0013
           5   -0.0002    0.0001    0.0000    0.0564    0.0005    0.0002   -0.1167   -0.0009
           6    0.4298   -0.1775   -0.2103    0.0022   -0.1421    0.0155    0.0002   -0.0465
           7   -0.0000   -0.0000    0.0002    0.0031    0.0001   -0.0001    0.0205    0.0002
           8    0.0000   -0.0002   -0.0004   -0.2067   -0.0029    0.0002    0.3667    0.0039
           9    0.0846   -0.1348    0.2735   -0.0043    0.3352    0.3149    0.0036   -0.3809
          10   -0.0001   -0.0000   -0.0000    0.0291    0.0003   -0.0006   -0.1797   -0.0016
          11   -0.0002   -0.0000    0.0001   -0.1095   -0.0018   -0.0001   -0.1417   -0.0023
          12    0.0208   -0.0898   -0.1239   -0.0040    0.2971   -0.1194   -0.0059    0.6022
          13   -0.0001   -0.0001    0.0000    0.0013   -0.0000   -0.0005   -0.1900   -0.0019
          14    0.0001    0.0001   -0.0001   -0.2307   -0.0034    0.0002    0.2653    0.0023
          15   -0.0127   -0.3584    0.0520   -0.0060    0.4810    0.0554   -0.0001    0.0031
          16    0.0001   -0.0002    0.0000   -0.0544   -0.0005    0.0004    0.3255    0.0031
          17    0.0002   -0.0003   -0.0006   -0.1592   -0.0017    0.0001    0.0946    0.0008
          18   -0.1660    0.1216    0.5102    0.0020   -0.1996   -0.1036   -0.0006    0.0892
          19   -0.0000    0.0001   -0.0001   -0.1294   -0.0016    0.0001   -0.0971   -0.0008
          20   -0.0002   -0.0000    0.0003    0.1931    0.0023    0.0001   -0.2266   -0.0021
          21    0.0222    0.4377   -0.1685   -0.0027    0.2005   -0.3580    0.0008   -0.0660
          22   -0.0000   -0.0005   -0.0001   -0.2192   -0.0030   -0.0000   -0.0873   -0.0010
          23    0.0002    0.0004   -0.0001   -0.0815   -0.0008    0.0002    0.1981    0.0019
          24   -0.2202   -0.4359    0.0866    0.0041   -0.2627   -0.3040    0.0027   -0.1972
          25   -0.0001   -0.0000   -0.0002   -0.2217   -0.0030    0.0005   -0.1095   -0.0010
          26    0.0001    0.0002    0.0000    0.1508    0.0021   -0.0006   -0.2258   -0.0024
          27   -0.2787    0.1562    0.0437    0.0026   -0.2022    0.4618   -0.0020    0.1528
          28    0.0003    0.0009    0.0001    0.5339    0.0067    0.0002    0.1281    0.0012
          29   -0.0006   -0.0000   -0.0001    0.3358    0.0047    0.0003    0.1317    0.0016
          30    0.4483    0.3035    0.0598    0.0016   -0.1402    0.0399    0.0013   -0.1154
          31   -0.0699    0.0012   -0.2224   -0.0197   -0.0120    0.0610    0.0845   -0.1813
          32   -0.0564    0.0268   -0.0111   -0.0140   -0.0726    0.0280   -0.1392   -0.1688
          33   -0.1718    0.0279   -0.2659    0.0008   -0.0501    0.0567    0.0026   -0.1821
          34    0.0699   -0.0014    0.2222   -0.0201    0.0116   -0.0609    0.0812    0.1829
          35    0.0568   -0.0269    0.0120   -0.0159    0.0723   -0.0287   -0.1423    0.1667
          36   -0.1716    0.0278   -0.2659    0.0005   -0.0498    0.0566    0.0003   -0.1815
          37    0.0478    0.0073   -0.0969    0.0495   -0.0839   -0.0674   -0.0904    0.1023
          38   -0.1174    0.1381    0.0801    0.0311    0.1654   -0.1117   -0.0598   -0.1410
          39    0.2206   -0.1443   -0.1486    0.0023   -0.1840    0.0612   -0.0006    0.1202
          40   -0.0480   -0.0072    0.0972    0.0472    0.0853    0.0673   -0.0884   -0.1042
          41    0.1173   -0.1380   -0.0800    0.0356   -0.1647    0.1118   -0.0629    0.1400
          42    0.2206   -0.1443   -0.1485    0.0029   -0.1840    0.0612   -0.0022    0.1202
          43    0.0000   -0.0001    0.0000   -0.0396   -0.0004    0.0003    0.2279    0.0022
          44    0.0001   -0.0002   -0.0004   -0.0480   -0.0003    0.0003    0.0386    0.0002
          45   -0.0630    0.1035    0.2846    0.0025   -0.2269   -0.1707   -0.0010    0.1446
          46   -0.0000    0.0002   -0.0001   -0.0335   -0.0003   -0.0001   -0.0288   -0.0002
          47   -0.0001   -0.0001    0.0002    0.0934    0.0011    0.0001   -0.0684   -0.0006
          48   -0.0007    0.3065   -0.0918   -0.0025    0.1776   -0.2430   -0.0000    0.0205
          49    0.0000   -0.0003   -0.0001   -0.1184   -0.0016   -0.0001    0.0609    0.0005
          50    0.0001    0.0002   -0.0000   -0.0448   -0.0003    0.0004    0.0911    0.0009
          51   -0.1031   -0.2071    0.0205    0.0033   -0.2357   -0.3611    0.0015   -0.0844
          52   -0.0000    0.0000   -0.0001   -0.0968   -0.0013    0.0003    0.0157    0.0002
          53    0.0001    0.0000    0.0000    0.0656    0.0009   -0.0004   -0.0973   -0.0011
          54   -0.1652    0.1427    0.0366    0.0010   -0.0904    0.3981   -0.0025    0.2058
          55    0.0002    0.0005    0.0001    0.3375    0.0043    0.0004    0.2069    0.0021
          56   -0.0004   -0.0001   -0.0002    0.0476    0.0007   -0.0000   -0.0068    0.0003
          57    0.2192    0.0798    0.0936    0.0000   -0.0183    0.0285    0.0014   -0.2029
          58    0.0001    0.0002    0.0000    0.1261    0.0015    0.0000    0.0119    0.0000
          59   -0.0002    0.0000    0.0000    0.2922    0.0041    0.0004    0.2176    0.0025
          60    0.1511    0.1989   -0.0073    0.0024   -0.1857    0.0440    0.0017   -0.1086


   Root No.       9        10        11        12        13        14        15        16

                 9 A      10 A      11 A      12 A      13 A      14 A      15 A      16 A   

                 523.1     537.4     598.9     688.7     709.7     753.1     798.1     810.7
  
           1   -0.2342    0.0827    0.0003    0.4512    0.0011   -0.0001    0.1158   -0.0000
           2   -0.2258    0.1639   -0.0003    0.0210    0.0004    0.0001    0.1442    0.0006
           3   -0.0003    0.0002   -0.0058   -0.0000   -0.0522    0.0235    0.0005   -0.2864
           4   -0.0295    0.3883   -0.0003   -0.2821   -0.0006   -0.0001   -0.2019   -0.0001
           5    0.3609   -0.1168    0.0001    0.1389    0.0003    0.0002    0.3857    0.0002
           6    0.0000   -0.0001   -0.0718    0.0003   -0.2027   -0.1354    0.0004    0.1484
           7   -0.1344    0.2643   -0.0001   -0.1591   -0.0002   -0.0000   -0.1260   -0.0001
           8    0.0852   -0.0364    0.0004   -0.1248   -0.0000   -0.0001    0.1264    0.0001
           9   -0.0000   -0.0002   -0.2362    0.0006   -0.2486    0.2410    0.0003    0.0398
          10   -0.3034   -0.2571   -0.0000   -0.0509   -0.0000    0.0004    0.2524    0.0003
          11   -0.1529    0.2137    0.0002    0.2769    0.0010   -0.0001    0.0078   -0.0003
          12   -0.0003    0.0002   -0.0917    0.0009   -0.3125   -0.0148   -0.0001    0.1408
          13   -0.2004   -0.1977   -0.0001   -0.0539    0.0002    0.0000   -0.0641   -0.0001
          14   -0.0108   -0.1621   -0.0001   -0.0733   -0.0008    0.0002   -0.0368   -0.0002
          15    0.0005   -0.0005    0.2026   -0.0013    0.5809   -0.1072   -0.0004    0.0757
          16   -0.0821    0.1485    0.0003    0.2098    0.0004   -0.0001    0.0110   -0.0000
          17   -0.0086    0.1191   -0.0003   -0.4508   -0.0008    0.0002   -0.0266    0.0005
          18    0.0003    0.0000    0.0935   -0.0007    0.0872    0.0403    0.0000   -0.2241
          19    0.4391    0.2385   -0.0001   -0.1472   -0.0003    0.0000    0.3479    0.0001
          20    0.0951   -0.0320   -0.0002    0.0159   -0.0001   -0.0001   -0.0654    0.0001
          21    0.0003   -0.0002   -0.0016    0.0000    0.0123   -0.1715    0.0000   -0.1048
          22    0.2171   -0.2042   -0.0001    0.0952    0.0000   -0.0003   -0.2042   -0.0002
          23   -0.2792   -0.2370    0.0001   -0.1798   -0.0004    0.0002   -0.0742   -0.0002
          24    0.0000   -0.0002   -0.0754   -0.0002    0.0603   -0.0149    0.0002   -0.0576
          25    0.3217   -0.2146   -0.0002    0.1127   -0.0002   -0.0006   -0.2841   -0.0002
          26    0.0156   -0.2424   -0.0002    0.1163    0.0001   -0.0002   -0.3849   -0.0002
          27   -0.0007   -0.0002    0.0005    0.0000   -0.0768   -0.2478    0.0002   -0.0791
          28   -0.0518   -0.2684    0.0003   -0.1752   -0.0003    0.0004    0.2465    0.0003
[...]
 TRAVEL      0.1021         C  1 -- H 12          +9.5% ( 37.0%)      0.7%
 RED. MASS   0.4572         C  1 -- H 11          +9.5% ( 37.0%)      0.7%
 EFF. MASS   4.9782

 VIBRATION   34   34A         ATOM PAIR      ENERGY CONTRIBUTION    RADIAL
 FREQ.      1312.62         C  1 -- C  4         +13.0% ( 47.0%)     97.4%
 T-DIPOLE    0.0460         C  4 -- C  5          +7.8% ( 36.4%)     91.8%
 TRAVEL      0.0915         C  1 -- C  6          +6.7% ( 33.7%)     77.1%
 RED. MASS   0.5761         C  4 -- C 10          +6.7% ( 33.6%)      0.2%
 EFF. MASS   6.1324

 VIBRATION   35   35A         ATOM PAIR      ENERGY CONTRIBUTION    RADIAL
 FREQ.      1343.13         C  1 -- C  6         +18.1% ( 57.1%)     73.4%
 T-DIPOLE    0.0761         C  1 -- C  4         +15.5% ( 52.8%)     68.6%
 TRAVEL      0.0903         C  1 -- H 12         +14.7% ( 51.5%)      0.0%
 RED. MASS   1.2942         C  1 -- H 11         +14.7% ( 51.5%)      0.0%
 EFF. MASS   6.1601         C 10 -- H 19         +12.2% ( 46.9%)      2.3%
                            C 10 -- H 20         +10.5% ( 43.4%)      3.3%

 VIBRATION   36   36A         ATOM PAIR      ENERGY CONTRIBUTION    RADIAL
 FREQ.      1359.50         C  2 -- H 13         +16.1% ( 49.2%)      4.6%
 T-DIPOLE    0.1160         C  2 -- H 14         +16.1% ( 49.2%)      4.6%
 TRAVEL      0.0989         C  2 -- C  7         +11.0% ( 40.6%)     99.8%
 RED. MASS   0.5148         C  2 -- C  3          +8.0% ( 34.6%)      0.0%
 EFF. MASS   5.0675

 VIBRATION   37   37A         ATOM PAIR      ENERGY CONTRIBUTION    RADIAL
 FREQ.      1364.58         C  2 -- H 13         +17.4% ( 56.9%)      2.4%
 T-DIPOLE    0.1021         C  2 -- H 14         +17.4% ( 56.9%)      2.4%
 TRAVEL      0.0867         C  2 -- C  7         +12.8% ( 48.9%)     20.3%
 RED. MASS   1.1155         C  2 -- C  3         +12.0% ( 47.3%)     98.7%
 EFF. MASS   6.5753

 VIBRATION   38   38A         ATOM PAIR      ENERGY CONTRIBUTION    RADIAL
 FREQ.      1392.27         C  1 -- C  6         +15.9% ( 54.1%)     76.4%
 T-DIPOLE    0.0842         C  1 -- H 12         +15.5% ( 53.5%)      7.5%
 TRAVEL      0.0843         C  1 -- H 11         +15.5% ( 53.5%)      7.5%
 RED. MASS   0.8979         C  1 -- C  4         +12.0% ( 47.0%)     34.1%
 EFF. MASS   6.8170

 VIBRATION   39   39A         ATOM PAIR      ENERGY CONTRIBUTION    RADIAL
 FREQ.      1439.80         C  8 -- C  9         +18.7% ( 65.4%)     99.4%
 T-DIPOLE    0.3281         C  7 -- C  9         +10.6% ( 49.4%)      0.2%
 TRAVEL      0.0661         C  2 -- C  7          +9.7% ( 47.1%)     99.1%
 RED. MASS   1.5036         C  4 -- C  5          +9.2% ( 46.0%)     90.3%
 EFF. MASS  10.7195

 VIBRATION   40   40A         ATOM PAIR      ENERGY CONTRIBUTION    RADIAL
 FREQ.      1518.55         C  3 -- C  5         +26.5% ( 78.2%)     92.7%
 T-DIPOLE    0.1553         C  2 -- C  3         +19.5% ( 67.0%)     79.8%
 TRAVEL      0.0617         C  3 -- C  6         +14.3% ( 57.4%)     12.4%
 RED. MASS   3.2414         C  5 -- C  8          +7.9% ( 42.7%)      0.0%
 EFF. MASS  11.6543

 VIBRATION   41   41A         ATOM PAIR      ENERGY CONTRIBUTION    RADIAL
 FREQ.      1831.36         C  7 -- C  9         +37.8% ( 91.6%)     99.9%
 T-DIPOLE    0.4839         C  8 -- C  9         +14.4% ( 56.5%)     74.5%
 TRAVEL      0.0556         C  2 -- C  7         +11.9% ( 51.3%)     45.7%
 RED. MASS   4.1832         C  9 -- H 18         +11.6% ( 50.8%)      3.8%
 EFF. MASS  11.9044         C  7 -- H 16         +11.0% ( 49.5%)      5.1%

 VIBRATION   42   42A         ATOM PAIR      ENERGY CONTRIBUTION    RADIAL
 FREQ.      1856.53         C  3 -- C  6         +35.0% ( 88.3%)     97.7%
 T-DIPOLE    0.1518         C  2 -- C  3         +15.6% ( 59.0%)     66.4%
 TRAVEL      0.0552         C  3 -- C  5         +13.9% ( 55.6%)      0.0%
 RED. MASS   3.8294         C  1 -- C  6          +8.2% ( 42.8%)     16.9%
 EFF. MASS  11.9166

 VIBRATION   43   43A         ATOM PAIR      ENERGY CONTRIBUTION    RADIAL
 FREQ.      1884.88         C  5 -- C  8         +26.9% ( 77.0%)    100.0%
 T-DIPOLE    0.2636         C  4 -- C  5         +14.3% ( 56.1%)      7.9%
 TRAVEL      0.0549         C  3 -- C  5         +13.3% ( 54.2%)     27.7%
 RED. MASS   2.5574         C  4 -- C 10          +9.5% ( 45.9%)     97.7%
 EFF. MASS  11.8889

 VIBRATION   44   44A         ATOM PAIR      ENERGY CONTRIBUTION    RADIAL
 FREQ.      1920.38         C  4 -- C 10         +29.7% ( 80.8%)     99.4%
 T-DIPOLE    0.1243         C  4 -- C  5         +19.9% ( 66.1%)     92.3%
 TRAVEL      0.0543         C  1 -- C  4         +13.2% ( 53.9%)     29.7%
 RED. MASS   3.2847         C  5 -- C  8         +11.2% ( 49.6%)     96.6%
 EFF. MASS  11.9181

 VIBRATION   45   45A         ATOM PAIR      ENERGY CONTRIBUTION    RADIAL
 FREQ.      2927.69         C  2 -- H 14         +49.0% ( 72.6%)     96.5%
 T-DIPOLE    0.0622         C  2 -- H 13         +48.8% ( 72.5%)     96.5%
 TRAVEL      0.1225         C  2 -- C  3          +1.1% ( 10.8%)      0.0%
 RED. MASS   0.5176         C  2 -- C  7          +1.1% ( 10.8%)      0.0%
 EFF. MASS   1.5349

 VIBRATION   46   46A         ATOM PAIR      ENERGY CONTRIBUTION    RADIAL
 FREQ.      2974.75         C  1 -- H 12         +48.9% ( 72.5%)     96.7%
 T-DIPOLE    0.0647         C  1 -- H 11         +48.9% ( 72.5%)     96.7%
 TRAVEL      0.1215         C  1 -- C  4          +1.1% ( 10.8%)      0.0%
 RED. MASS   0.5179         C  1 -- C  6          +1.1% ( 10.8%)      0.0%
 EFF. MASS   1.5360

 VIBRATION   47   47A         ATOM PAIR      ENERGY CONTRIBUTION    RADIAL
 FREQ.      3007.23         C  2 -- H 13         +49.1% ( 69.0%)     97.8%
 T-DIPOLE    0.1232         C  2 -- H 14         +48.8% ( 68.9%)     97.8%
 TRAVEL      0.1323         C  7 -- H 16          +0.7% (  8.5%)    100.0%
 RED. MASS   0.4774         C  2 -- C  7          +0.7% (  8.1%)     20.2%
 EFF. MASS   1.2803

 VIBRATION   48   48A         ATOM PAIR      ENERGY CONTRIBUTION    RADIAL
 FREQ.      3046.21         C  1 -- H 11         +49.3% ( 69.3%)     97.4%
 T-DIPOLE    0.1368         C  1 -- H 12         +49.2% ( 69.3%)     97.4%
 TRAVEL      0.1312         C  1 -- C  4          +0.7% (  8.4%)     36.6%
 RED. MASS   0.4837         C  1 -- C  6          +0.7% (  8.3%)     33.9%
 EFF. MASS   1.2850

 VIBRATION   49   49A         ATOM PAIR      ENERGY CONTRIBUTION    RADIAL
 FREQ.      3047.94         C  7 -- H 16         +53.8% ( 74.4%)    100.0%
 T-DIPOLE    0.2628         C  9 -- H 18         +41.4% ( 65.3%)    100.0%
 TRAVEL      0.1228         C  8 -- H 17          +2.0% ( 14.4%)     99.9%
 RED. MASS   0.4506         C  7 -- C  9          +1.1% ( 10.7%)      0.3%
 EFF. MASS   1.4664

 VIBRATION   50   50A         ATOM PAIR      ENERGY CONTRIBUTION    RADIAL
 FREQ.      3062.47         C  8 -- H 17         +49.1% ( 71.2%)    100.0%
 T-DIPOLE    0.2678         C  7 -- H 16         +27.4% ( 53.2%)     99.9%
 TRAVEL      0.1195         C  9 -- H 18         +20.0% ( 45.5%)     99.8%
 RED. MASS   0.3530         C  8 -- C  9          +1.1% ( 10.7%)      1.8%
 EFF. MASS   1.5411

 VIBRATION   51   51A         ATOM PAIR      ENERGY CONTRIBUTION    RADIAL
 FREQ.      3072.41         C  8 -- H 17         +45.8% ( 68.6%)    100.0%
 T-DIPOLE    0.4451         C  9 -- H 18         +35.5% ( 60.4%)    100.0%
 TRAVEL      0.1180         C  7 -- H 16         +15.1% ( 39.4%)     99.8%
 RED. MASS   0.3575         C  8 -- C  9          +1.3% ( 11.7%)     99.4%
 EFF. MASS   1.5752

 VIBRATION   52   52A         ATOM PAIR      ENERGY CONTRIBUTION    RADIAL
 FREQ.      3135.55         C  6 -- H 15         +95.4% ( 99.3%)    100.0%
 T-DIPOLE    0.4059         C  3 -- C  6          +1.8% ( 13.5%)     49.5%
 TRAVEL      0.1177         C  1 -- C  6          +1.6% ( 13.0%)     24.4%
 RED. MASS   0.9081         C 10 -- H 19          +0.9% (  9.8%)     99.3%
 EFF. MASS   1.5529

 VIBRATION   53   53A         ATOM PAIR      ENERGY CONTRIBUTION    RADIAL
 FREQ.      3136.57         C 10 -- H 19         +89.4% ( 95.1%)     99.5%
 T-DIPOLE    0.3112         C 10 -- H 20          +7.9% ( 28.2%)     53.5%
 TRAVEL      0.1222         C  4 -- C 10          +1.4% ( 12.1%)     70.2%
 RED. MASS   0.7786         C  6 -- H 15          +1.1% ( 10.6%)    100.0%
 EFF. MASS   1.4392

 VIBRATION   54   54A         ATOM PAIR      ENERGY CONTRIBUTION    RADIAL
 FREQ.      3145.37         C 10 -- H 20         +89.5% ( 96.4%)     99.8%
 T-DIPOLE    0.2611         C 10 -- H 19          +9.1% ( 30.8%)     77.5%
 TRAVEL      0.1174         C  4 -- C 10          +1.3% ( 11.8%)     18.0%
 RED. MASS   0.8226
 EFF. MASS   1.5555

      SYMMETRY NUMBER FOR POINT-GROUP C1  =  1


          SYSTEM IS A GROUND STATE



 InChI=1S/C10H10/c1-8-6-7-9-4-2-3-5-10(8)9/h2-3,5,7H,1,4,6H2


          MOLECULE IS NOT LINEAR

          THERE ARE 54 GENUINE VIBRATIONS IN THIS SYSTEM
          THIS THERMODYNAMICS CALCULATION IS LIMITED TO
          MOLECULES WHICH HAVE NO INTERNAL ROTATIONS




                    CALCULATED THERMODYNAMIC PROPERTIES
                                          *
   TEMP. (K)   PARTITION FUNCTION   H.O.F.    ENTHALPY  HEAT CAPACITY ENTROPY
                                   KCAL/MOL   CAL/MOLE    CAL/K/MOL  CAL/K/MOL


 298.00  VIB.     0.3409D+02                  3268.8115    26.7594    17.9818
         ROT.     0.5251D+06                   888.2813     2.9808    29.1551
         INT.     0.1790D+08                  4157.0929    29.7402    47.1369
         TRA.     0.1436D+28                  1480.4688     4.9680    40.5022
         TOT.                       53.923    5637.5617    34.7082    87.6390

 200.00  VIB.     0.6415D+01                  1226.0483    15.1243     9.8237
         ROT.     0.2887D+06                   596.1620     2.9808    27.9664
         INT.     0.1852D+07                  1822.2102    18.1051    37.7901
         TRA.     0.7896D+27                   993.6033     4.9680    38.5210
         TOT.                       51.101    2815.8135    23.0731    76.3112

 210.00  VIB.     0.7498D+01                  1382.8444    16.2393    10.5885
         ROT.     0.3107D+06                   625.9700     2.9808    28.1119
         INT.     0.2329D+07                  2008.8144    19.2201    38.7004
         TRA.     0.8496D+27                  1043.2834     4.9680    38.7634
         TOT.                       51.337    3052.0978    24.1881    77.4638

 220.00  VIB.     0.8795D+01                  1550.9167    17.3791    11.3702
         ROT.     0.3331D+06                   655.7781     2.9808    28.2505
         INT.     0.2930D+07                  2206.6948    20.3599    39.6207
         TRA.     0.9110D+27                  1092.9636     4.9680    38.9945
         TOT.                       51.585    3299.6584    25.3279    78.6152

 230.00  VIB.     0.1035D+02                  1730.4981    18.5406    12.1682
         ROT.     0.3561D+06                   685.5862     2.9808    28.3830
         INT.     0.3686D+07                  2416.0843    21.5214    40.5513
         TRA.     0.9738D+27                  1142.6437     4.9680    39.2154
         TOT.                       51.844    3558.7280    26.4894    79.7667

 240.00  VIB.     0.1222D+02                  1921.7905    19.7207    12.9822
         ROT.     0.3795D+06                   715.3943     2.9808    28.5099
         INT.     0.4639D+07                  2637.1848    22.7015    41.4921
         TRA.     0.1038D+28                  1192.3239     4.9680    39.4268
         TOT.                       52.115    3829.5087    27.6695    80.9189

 250.00  VIB.     0.1448D+02                  2124.9629    20.9160    13.8114
         ROT.     0.4035D+06                   745.2024     2.9808    28.6316
         INT.     0.5844D+07                  2870.1654    23.8968    42.4430
         TRA.     0.1103D+28                  1242.0041     4.9680    39.6296
         TOT.                       52.397    4112.1694    28.8649    82.0726

 260.00  VIB.     0.1721D+02                  2340.1503    22.1231    14.6552
         ROT.     0.4280D+06                   775.0105     2.9808    28.7485
         INT.     0.7366D+07                  3115.1609    25.1039    43.4037
         TRA.     0.1170D+28                  1291.6842     4.9680    39.8245
         TOT.                       52.692    4406.8451    30.0720    83.2282

 270.00  VIB.     0.2052D+02                  2567.4536    23.3386    15.5130
         ROT.     0.4529D+06                   804.8186     2.9808    28.8610
         INT.     0.9292D+07                  3372.2723    26.3195    44.3740
         TRA.     0.1239D+28                  1341.3644     4.9680    40.0120
         TOT.                       52.999    4713.6367    31.2875    84.3859

 280.00  VIB.     0.2453D+02                  2806.9403    24.5593    16.3838
         ROT.     0.4783D+06                   834.6267     2.9808    28.9694
         INT.     0.1173D+08                  3641.5670    27.5401    45.3532
         TRA.     0.1308D+28                  1391.0445     4.9680    40.1926
         TOT.                       53.318    5032.6116    32.5081    85.5458

 290.00  VIB.     0.2942D+02                  3058.6456    25.7819    17.2669
         ROT.     0.5041D+06                   864.4348     2.9808    29.0740
         INT.     0.1483D+08                  3923.0804    28.7627    46.3409
         TRA.     0.1379D+28                  1440.7247     4.9680    40.3670
         TOT.                       53.649    5363.8051    33.7307    86.7079

 300.00  VIB.     0.3537D+02                  3322.5745    27.0035    18.1616
         ROT.     0.5304D+06                   894.2429     2.9808    29.1751
         INT.     0.1876D+08                  4216.8174    29.9843    47.3366
         TRA.     0.1451D+28                  1490.4049     4.9680    40.5354
         TOT.                       53.992    5707.2223    34.9523    87.8720

 310.00  VIB.     0.4265D+02                  3598.7034    28.2214    19.0669
         ROT.     0.5572D+06                   924.0510     2.9808    29.2728
         INT.     0.2376D+08                  4522.7544    31.2023    48.3397
         TRA.     0.1524D+28                  1540.0850     4.9680    40.6983
         TOT.                       54.348    6062.8395    36.1703    89.0380

 320.00  VIB.     0.5156D+02                  3886.9828    29.4332    19.9820
         ROT.     0.5843D+06                   953.8591     2.9808    29.3674
         INT.     0.3013D+08                  4840.8419    32.4140    49.3495
         TRA.     0.1598D+28                  1589.7652     4.9680    40.8560
         TOT.                       54.716    6430.6071    37.3820    90.2055

 330.00  VIB.     0.6249D+02                  4187.3394    30.6365    20.9062
         ROT.     0.6120D+06                   983.6672     2.9808    29.4592
         INT.     0.3824D+08                  5171.0066    33.6173    50.3653
         TRA.     0.1674D+28                  1639.4454     4.9680    41.0089
         TOT.                       55.096    6810.4519    38.5854    91.3742

 340.00  VIB.     0.7593D+02                  4499.6785    31.8294    21.8385
         ROT.     0.6400D+06                  1013.4753     2.9808    29.5481
         INT.     0.4859D+08                  5513.1538    34.8102    51.3867
         TRA.     0.1750D+28                  1689.1255     4.9680    41.1572
         TOT.                       55.487    7202.2793    39.7782    92.5439

 350.00  VIB.     0.9246D+02                  4823.8868    33.0101    22.7782
         ROT.     0.6684D+06                  1043.2834     2.9808    29.6346
         INT.     0.6180D+08                  5867.1702    35.9909    52.4128
         TRA.     0.1828D+28                  1738.8057     4.9680    41.3012
         TOT.                       55.891    7605.9759    40.9589    93.7140

 360.00  VIB.     0.1129D+03                  5159.8344    34.1770    23.7245
         ROT.     0.6973D+06                  1073.0915     2.9808    29.7185
         INT.     0.7869D+08                  6232.9259    37.1578    53.4431
         TRA.     0.1907D+28                  1788.4859     4.9680    41.4412
         TOT.                       56.307    8021.4118    42.1259    94.8842

 370.00  VIB.     0.1380D+03                  5507.3773    35.3289    24.6767
         ROT.     0.7265D+06                  1102.8996     2.9808    29.8002
         INT.     0.1003D+09                  6610.2769    38.3098    54.4769
         TRA.     0.1987D+28                  1838.1660     4.9680    41.5773
         TOT.                       56.734    8448.4429    43.2778    96.0542

 380.00  VIB.     0.1692D+03                  5866.3594    36.4647    25.6340
         ROT.     0.7562D+06                  1132.7077     2.9808    29.8797
         INT.     0.1279D+09                  6999.0671    39.4455    55.5137
         TRA.     0.2068D+28                  1887.8462     4.9680    41.7098
         TOT.                       57.172    8886.9133    44.4135    97.2234

 390.00  VIB.     0.2077D+03                  6236.6145    37.5834    26.5957
         ROT.     0.7862D+06                  1162.5158     2.9808    29.9571
         INT.     0.1633D+09                  7399.1303    40.5642    56.5528
         TRA.     0.2150D+28                  1937.5263     4.9680    41.8388
         TOT.                       57.622    9336.6567    45.5322    98.3916

 400.00  VIB.     0.2556D+03                  6617.9684    38.6843    27.5611
         ROT.     0.8166D+06                  1192.3239     2.9808    30.0326
         INT.     0.2087D+09                  7810.2923    41.6651    57.5937
         TRA.     0.2233D+28                  1987.2065     4.9680    41.9646
         TOT.                       58.083    9797.4988    46.6332    99.5583

   *: NOTE: HEATS OF FORMATION ARE RELATIVE TO THE
            ELEMENTS IN THEIR STANDARD STATE AT 298K
              (=  Standard Enthalpy of Formation).

            Hvib:  Zero-point energy is not included.
                   frequencies of less than zero cm-1 are not included.
            Hrot = (3/2)RT
            Htra = (3/2)RT + pV = (5/2)RT

            Heat capacity is Cp, not Cv

          For more information, see: HTTP://OpenMOPAC.net/Manual/thermochemistry.html


           FORCE CONSTANT IN CARTESIAN COORDINATES (Millidynes/A)

    ATOM   CHEMICAL       X               Y               Z
   NUMBER   SYMBOL  FORCE CONSTANT  FORCE CONSTANT  FORCE CONSTANT

      1       C        9.581245        8.075550        7.887424
      2       C        9.481272        8.922838        7.639728
      3       C       14.929887       11.538686        2.566232
      4       C       12.693033       12.962449        2.615884
      5       C       12.649563       13.979728        2.384084
      6       C       11.016031       13.646750        2.314205
      7       C       10.697101       13.717358        2.400189
      8       C       11.774457       13.449229        2.190374
      9       C       11.127597       14.078286        2.225761
     10       C       11.897802       12.584504        1.951044
     11       H        1.841133        0.923502        3.544293
     12       H        1.842342        0.917305        3.549314
     13       H        0.918882        1.794058        3.438798
     14       H        0.917581        1.793553        3.439407
     15       H        0.732678        5.359826        0.337787
     16       H        5.088424        0.813100        0.345105
     17       H        1.353210        4.560946        0.344906
     18       H        2.176945        3.726598        0.346777
     19       H        1.053804        5.046365        0.332761
     20       H        5.314630        0.790776        0.330576

 **********************
 *                    *
 * JOB ENDED NORMALLY *
 *                    *
 **********************



 TOTAL JOB TIME:             5.64 SECONDS

 == MOPAC DONE ==
