 *******************************************************************************
 ** Site#: 14399        For non-commercial use only    Version 18.184L 64BITS **
 *******************************************************************************
 ** Cite this program as: MOPAC2016, Version: 18.184L, James J. P. Stewart,   **
 ** Stewart Computational Chemistry, web: HTTP://OpenMOPAC.net. Days left:  20**
 *******************************************************************************
 **                                                                           **
 **                                MOPAC2016                                  **
 **                                                                           **
 *******************************************************************************

                              PM3 CALCULATION RESULTS

 *******************************************************************************
 *  CALCULATION DONE:                                Thu Jun 13 15:40:35 2019  *
 *  PM3        - The PM3 Hamiltonian to be used
 *  PRECISE    - CRITERIA TO BE INCREASED BY 100 TIMES
 *  NOSYM      - POINT-GROUP SYMMETRY SET TO C1
 *  THREADS=1  - MULTI-THREADING NOT USED
 *  T=         - A TIME OF 172800.0 SECONDS REQUESTED
 *  DUMP=N     - RESTART FILE WRITTEN EVERY  7200.000 SECONDS
 *******************************************************************************
pm3  precise nosym THREADS=1
 InChI=1S/C12H18/c1-2-11-7-6-10-12(11)8-4-3-5-9-12/h3-5,8,11H,2,6-7,9-10H2,1H3

   ATOM   CHEMICAL          X               Y               Z
  NUMBER   SYMBOL      (ANGSTROMS)     (ANGSTROMS)     (ANGSTROMS)
 
     1       C         -0.54310000  *  -0.22830000  *  -0.05020000  *
     2       C          1.00180000  *  -0.27480000  *  -0.12250000  *
     3       C         -0.87650000  *  -1.42580000  *   0.85440000  *
     4       C          1.45630000  *  -0.77780000  *   1.25280000  *
     5       C          1.67990000  *   1.05520000  *  -0.53600000  *
     6       C          0.27300000  *  -1.53730000  *   1.85190000  *
     7       C         -1.18110000  *  -0.39110000  *  -1.46210000  *
     8       C          3.16720000  *   0.86750000  *  -0.83130000  *
     9       C         -1.05450000  *   1.04420000  *   0.61990000  *
    10       C         -2.65210000  *  -0.07220000  *  -1.45620000  *
    11       C         -2.27590000  *   1.52120000  *   0.35500000  *
    12       C         -3.13990000  *   0.86960000  *  -0.64480000  *
    13       H          1.28400000  *  -1.05330000  *  -0.86990000  *
    14       H          1.57240000  *   1.82000000  *   0.26240000  *
    15       H          1.19540000  *   1.45420000  *  -1.45170000  *
    16       H          2.34240000  *  -1.44250000  *   1.15330000  *
    17       H          1.72370000  *   0.07120000  *   1.92030000  *
    18       H          0.53430000  *  -2.60340000  *   2.02990000  *
    19       H         -0.02220000  *  -1.07600000  *   2.82000000  *
    20       H         -0.91580000  *  -2.36620000  *   0.26040000  *
    21       H         -1.85350000  *  -1.31050000  *   1.37480000  *
    22       H         -1.02610000  *  -1.41830000  *  -1.85730000  *
    23       H         -0.69680000  *   0.30630000  *  -2.17740000  *
    24       H          3.30940000  *   0.12650000  *  -1.64650000  *
    25       H          3.70450000  *   0.52230000  *   0.07700000  *
    26       H          3.60650000  *   1.83530000  *  -1.15290000  *
    27       H         -0.47470000  *   1.51290000  *   1.40550000  *
    28       H         -3.30440000  *  -0.55280000  *  -2.17440000  *
    29       H         -2.65110000  *   2.37440000  *   0.90520000  *
    30       H         -4.18340000  *   1.14950000  *  -0.70970000  *
 


          CARTESIAN COORDINATES 

    NO.       ATOM           X           Y           Z

     1         C         -0.5431     -0.2283     -0.0502
     2         C          1.0018     -0.2748     -0.1225
     3         C         -0.8765     -1.4258      0.8544
     4         C          1.4563     -0.7778      1.2528
     5         C          1.6799      1.0552     -0.5360
     6         C          0.2730     -1.5373      1.8519
     7         C         -1.1811     -0.3911     -1.4621
     8         C          3.1672      0.8675     -0.8313
     9         C         -1.0545      1.0442      0.6199
    10         C         -2.6521     -0.0722     -1.4562
    11         C         -2.2759      1.5212      0.3550
    12         C         -3.1399      0.8696     -0.6448
    13         H          1.2840     -1.0533     -0.8699
    14         H          1.5724      1.8200      0.2624
    15         H          1.1954      1.4542     -1.4517
    16         H          2.3424     -1.4425      1.1533
    17         H          1.7237      0.0712      1.9203
    18         H          0.5343     -2.6034      2.0299
    19         H         -0.0222     -1.0760      2.8200
    20         H         -0.9158     -2.3662      0.2604
    21         H         -1.8535     -1.3105      1.3748
    22         H         -1.0261     -1.4183     -1.8573
    23         H         -0.6968      0.3063     -2.1774
    24         H          3.3094      0.1265     -1.6465
    25         H          3.7045      0.5223      0.0770
    26         H          3.6065      1.8353     -1.1529
    27         H         -0.4747      1.5129      1.4055
    28         H         -3.3044     -0.5528     -2.1744
    29         H         -2.6511      2.3744      0.9052
    30         H         -4.1834      1.1495     -0.7097

  H: (PM3): J. J. P. STEWART, J. COMP. CHEM. 10, 209 (1989).
  C: (PM3): J. J. P. STEWART, J. COMP. CHEM. 10, 209 (1989).

           Empirical Formula: C12 H18  =    30 atoms



      MOLECULAR POINT GROUP   :   C1  


      RHF CALCULATION, NO. OF DOUBLY OCCUPIED LEVELS = 33


          Geometry optimization using EF

          DIAGONAL MATRIX USED AS START HESSIAN

 CYCLE:     1 TIME:   0.035 TIME LEFT:  2.00D  GRAD.:    71.765 HEAT:  4.198333
 CYCLE:     2 TIME:   0.070 TIME LEFT:  2.00D  GRAD.:    38.541 HEAT:  2.599156
 CYCLE:     3 TIME:   0.043 TIME LEFT:  2.00D  GRAD.:    42.049 HEAT:  2.102121
 CYCLE:     4 TIME:   0.031 TIME LEFT:  2.00D  GRAD.:    52.218 HEAT:  1.990112
 CYCLE:     5 TIME:   0.047 TIME LEFT:  2.00D  GRAD.:    44.644 HEAT:  1.698050
 CYCLE:     6 TIME:   0.043 TIME LEFT:  2.00D  GRAD.:    45.103 HEAT:  1.611947
 CYCLE:     7 TIME:   0.062 TIME LEFT:  2.00D  GRAD.:    18.096 HEAT:  1.095632
 CYCLE:     8 TIME:   0.062 TIME LEFT:  2.00D  GRAD.:    18.269 HEAT:  1.028411
 CYCLE:     9 TIME:   0.031 TIME LEFT:  2.00D  GRAD.:    14.992 HEAT: 0.9553700
 CYCLE:    10 TIME:   0.039 TIME LEFT:  2.00D  GRAD.:    20.857 HEAT: 0.9529094
 CYCLE:    11 TIME:   0.051 TIME LEFT:  2.00D  GRAD.:    14.265 HEAT: 0.8749538
 CYCLE:    12 TIME:   0.055 TIME LEFT:  2.00D  GRAD.:     6.435 HEAT: 0.8296572
 CYCLE:    13 TIME:   0.031 TIME LEFT:  2.00D  GRAD.:     6.265 HEAT: 0.8035167
 CYCLE:    14 TIME:   0.043 TIME LEFT:  2.00D  GRAD.:    11.230 HEAT: 0.7907603
 CYCLE:    15 TIME:   0.055 TIME LEFT:  2.00D  GRAD.:     9.836 HEAT: 0.7717862
 CYCLE:    16 TIME:   0.039 TIME LEFT:  2.00D  GRAD.:    10.419 HEAT: 0.7630411
 CYCLE:    17 TIME:   0.039 TIME LEFT:  2.00D  GRAD.:     9.830 HEAT: 0.7499742
 CYCLE:    18 TIME:   0.031 TIME LEFT:  2.00D  GRAD.:     8.610 HEAT: 0.7338418
 CYCLE:    19 TIME:   0.035 TIME LEFT:  2.00D  GRAD.:     9.586 HEAT: 0.7292054
 CYCLE:    20 TIME:   0.031 TIME LEFT:  2.00D  GRAD.:     8.544 HEAT: 0.7088150
 CYCLE:    21 TIME:   0.035 TIME LEFT:  2.00D  GRAD.:     8.503 HEAT: 0.6993786
 CYCLE:    22 TIME:   0.035 TIME LEFT:  2.00D  GRAD.:     6.726 HEAT: 0.6807044
 CYCLE:    23 TIME:   0.055 TIME LEFT:  2.00D  GRAD.:     6.453 HEAT: 0.6721506
 CYCLE:    24 TIME:   0.043 TIME LEFT:  2.00D  GRAD.:     5.044 HEAT: 0.6593112
 CYCLE:    25 TIME:   0.055 TIME LEFT:  2.00D  GRAD.:     4.367 HEAT: 0.6526456
 CYCLE:    26 TIME:   0.035 TIME LEFT:  2.00D  GRAD.:     2.204 HEAT: 0.6426896
 CYCLE:    27 TIME:   0.035 TIME LEFT:  2.00D  GRAD.:     3.069 HEAT: 0.6311140
 CYCLE:    28 TIME:   0.035 TIME LEFT:  2.00D  GRAD.:     2.813 HEAT: 0.6149321
 CYCLE:    29 TIME:   0.031 TIME LEFT:  2.00D  GRAD.:     3.108 HEAT: 0.5916702
 CYCLE:    30 TIME:   0.035 TIME LEFT:  2.00D  GRAD.:     5.026 HEAT: 0.5786145
 CYCLE:    31 TIME:   0.035 TIME LEFT:  2.00D  GRAD.:     3.942 HEAT: 0.5682789
 CYCLE:    32 TIME:   0.039 TIME LEFT:  2.00D  GRAD.:     3.577 HEAT: 0.5600756
 CYCLE:    33 TIME:   0.039 TIME LEFT:  2.00D  GRAD.:     4.228 HEAT: 0.5463686
 CYCLE:    34 TIME:   0.031 TIME LEFT:  2.00D  GRAD.:     4.611 HEAT: 0.5211531
 CYCLE:    35 TIME:   0.031 TIME LEFT:  2.00D  GRAD.:     6.453 HEAT: 0.4830926
 CYCLE:    36 TIME:   0.035 TIME LEFT:  2.00D  GRAD.:     6.724 HEAT: 0.4730892
 CYCLE:    37 TIME:   0.035 TIME LEFT:  2.00D  GRAD.:     3.922 HEAT: 0.4535074
 CYCLE:    38 TIME:   0.027 TIME LEFT:  2.00D  GRAD.:     3.730 HEAT: 0.4416590
 CYCLE:    39 TIME:   0.039 TIME LEFT:  2.00D  GRAD.:     4.580 HEAT: 0.4212006
 CYCLE:    40 TIME:   0.035 TIME LEFT:  2.00D  GRAD.:     4.451 HEAT: 0.3832448
 CYCLE:    41 TIME:   0.047 TIME LEFT:  2.00D  GRAD.:     5.049 HEAT: 0.3711637
 CYCLE:    42 TIME:   0.043 TIME LEFT:  2.00D  GRAD.:     3.929 HEAT: 0.3596095
 CYCLE:    43 TIME:   0.035 TIME LEFT:  2.00D  GRAD.:     4.172 HEAT: 0.3504688
 CYCLE:    44 TIME:   0.043 TIME LEFT:  2.00D  GRAD.:     2.926 HEAT: 0.3386237
 CYCLE:    45 TIME:   0.043 TIME LEFT:  2.00D  GRAD.:     2.885 HEAT: 0.3226862
 CYCLE:    46 TIME:   0.035 TIME LEFT:  2.00D  GRAD.:     3.329 HEAT: 0.3109667
 CYCLE:    47 TIME:   0.039 TIME LEFT:  2.00D  GRAD.:     2.555 HEAT: 0.2982807
 CYCLE:    48 TIME:   0.039 TIME LEFT:  2.00D  GRAD.:     2.607 HEAT: 0.2876991
 CYCLE:    49 TIME:   0.035 TIME LEFT:  2.00D  GRAD.:     2.799 HEAT: 0.2772902
 CYCLE:    50 TIME:   0.035 TIME LEFT:  2.00D  GRAD.:     2.837 HEAT: 0.2627446
 CYCLE:    51 TIME:   0.039 TIME LEFT:  2.00D  GRAD.:     2.915 HEAT: 0.2439486
 CYCLE:    52 TIME:   0.031 TIME LEFT:  2.00D  GRAD.:     2.704 HEAT: 0.2321363
 CYCLE:    53 TIME:   0.035 TIME LEFT:  2.00D  GRAD.:     2.039 HEAT: 0.2225201
 CYCLE:    54 TIME:   0.039 TIME LEFT:  2.00D  GRAD.:     1.917 HEAT: 0.2164775
 CYCLE:    55 TIME:   0.039 TIME LEFT:  2.00D  GRAD.:     1.325 HEAT: 0.2130788
 CYCLE:    56 TIME:   0.043 TIME LEFT:  2.00D  GRAD.:     1.039 HEAT: 0.2102038
 CYCLE:    57 TIME:   0.035 TIME LEFT:  2.00D  GRAD.:     0.860 HEAT: 0.2075860
 CYCLE:    58 TIME:   0.043 TIME LEFT:  2.00D  GRAD.:     0.837 HEAT: 0.2060370
 CYCLE:    59 TIME:   0.035 TIME LEFT:  2.00D  GRAD.:     0.673 HEAT: 0.2044535
 CYCLE:    60 TIME:   0.035 TIME LEFT:  2.00D  GRAD.:     0.673 HEAT: 0.2035205
 CYCLE:    61 TIME:   0.031 TIME LEFT:  2.00D  GRAD.:     0.549 HEAT: 0.2027498
 CYCLE:    62 TIME:   0.035 TIME LEFT:  2.00D  GRAD.:     0.517 HEAT: 0.2019894
 CYCLE:    63 TIME:   0.031 TIME LEFT:  2.00D  GRAD.:     0.536 HEAT: 0.2012191
 CYCLE:    64 TIME:   0.039 TIME LEFT:  2.00D  GRAD.:     0.552 HEAT: 0.2004566
 CYCLE:    65 TIME:   0.039 TIME LEFT:  2.00D  GRAD.:     0.602 HEAT: 0.1996783
 CYCLE:    66 TIME:   0.035 TIME LEFT:  2.00D  GRAD.:     0.615 HEAT: 0.1989027
 CYCLE:    67 TIME:   0.035 TIME LEFT:  2.00D  GRAD.:     0.627 HEAT: 0.1979573
 CYCLE:    68 TIME:   0.035 TIME LEFT:  2.00D  GRAD.:     0.623 HEAT: 0.1969786
 CYCLE:    69 TIME:   0.031 TIME LEFT:  2.00D  GRAD.:     0.624 HEAT: 0.1957208
 CYCLE:    70 TIME:   0.031 TIME LEFT:  2.00D  GRAD.:     0.592 HEAT: 0.1946345
 CYCLE:    71 TIME:   0.039 TIME LEFT:  2.00D  GRAD.:     0.530 HEAT: 0.1937230
 CYCLE:    72 TIME:   0.035 TIME LEFT:  2.00D  GRAD.:     0.505 HEAT: 0.1930426
 CYCLE:    73 TIME:   0.039 TIME LEFT:  2.00D  GRAD.:     0.502 HEAT: 0.1923166
 CYCLE:    74 TIME:   0.031 TIME LEFT:  2.00D  GRAD.:     0.504 HEAT: 0.1916295
 CYCLE:    75 TIME:   0.035 TIME LEFT:  2.00D  GRAD.:     0.482 HEAT: 0.1909137
 CYCLE:    76 TIME:   0.035 TIME LEFT:  2.00D  GRAD.:     0.473 HEAT: 0.1903702
 CYCLE:    77 TIME:   0.039 TIME LEFT:  2.00D  GRAD.:     0.526 HEAT: 0.1897696
 CYCLE:    78 TIME:   0.035 TIME LEFT:  2.00D  GRAD.:     0.588 HEAT: 0.1890426
 CYCLE:    79 TIME:   0.035 TIME LEFT:  2.00D  GRAD.:     0.641 HEAT: 0.1880646
 CYCLE:    80 TIME:   0.031 TIME LEFT:  2.00D  GRAD.:     0.580 HEAT: 0.1871859
 CYCLE:    81 TIME:   0.039 TIME LEFT:  2.00D  GRAD.:     0.485 HEAT: 0.1864761
 CYCLE:    82 TIME:   0.031 TIME LEFT:  2.00D  GRAD.:     0.451 HEAT: 0.1859681
 CYCLE:    83 TIME:   0.035 TIME LEFT:  2.00D  GRAD.:     0.455 HEAT: 0.1854997
 CYCLE:    84 TIME:   0.031 TIME LEFT:  2.00D  GRAD.:     0.432 HEAT: 0.1850646
 CYCLE:    85 TIME:   0.039 TIME LEFT:  2.00D  GRAD.:     0.335 HEAT: 0.1847417
 CYCLE:    86 TIME:   0.035 TIME LEFT:  2.00D  GRAD.:     0.242 HEAT: 0.1845571
 CYCLE:    87 TIME:   0.039 TIME LEFT:  2.00D  GRAD.:     0.211 HEAT: 0.1844468
 CYCLE:    88 TIME:   0.031 TIME LEFT:  2.00D  GRAD.:     0.228 HEAT: 0.1843348
 CYCLE:    89 TIME:   0.035 TIME LEFT:  2.00D  GRAD.:     0.268 HEAT: 0.1841885
 CYCLE:    90 TIME:   0.031 TIME LEFT:  2.00D  GRAD.:     0.304 HEAT: 0.1839943
 CYCLE:    91 TIME:   0.039 TIME LEFT:  2.00D  GRAD.:     0.327 HEAT: 0.1837169
 CYCLE:    92 TIME:   0.035 TIME LEFT:  2.00D  GRAD.:     0.315 HEAT: 0.1835054
 CYCLE:    93 TIME:   0.039 TIME LEFT:  2.00D  GRAD.:     0.581 HEAT: 0.1831383
 CYCLE:    94 TIME:   0.035 TIME LEFT:  2.00D  GRAD.:     0.396 HEAT: 0.1828550
 CYCLE:    95 TIME:   0.031 TIME LEFT:  2.00D  GRAD.:     0.263 HEAT: 0.1825686
 CYCLE:    96 TIME:   0.043 TIME LEFT:  2.00D  GRAD.:     0.285 HEAT: 0.1822325
 CYCLE:    97 TIME:   0.035 TIME LEFT:  2.00D  GRAD.:     0.324 HEAT: 0.1820001
 CYCLE:    98 TIME:   0.039 TIME LEFT:  2.00D  GRAD.:     0.312 HEAT: 0.1817909
 CYCLE:    99 TIME:   0.039 TIME LEFT:  2.00D  GRAD.:     0.292 HEAT: 0.1814567
 CYCLE:   100 TIME:   0.031 TIME LEFT:  2.00D  GRAD.:     0.219 HEAT: 0.1813116
 CYCLE:   101 TIME:   0.035 TIME LEFT:  2.00D  GRAD.:     0.197 HEAT: 0.1811426
 CYCLE:   102 TIME:   0.031 TIME LEFT:  2.00D  GRAD.:     0.164 HEAT: 0.1810797
 CYCLE:   103 TIME:   0.039 TIME LEFT:  2.00D  GRAD.:     0.163 HEAT: 0.1809284
 CYCLE:   104 TIME:   0.035 TIME LEFT:  2.00D  GRAD.:     0.175 HEAT: 0.1808421
 CYCLE:   105 TIME:   0.039 TIME LEFT:  2.00D  GRAD.:     0.300 HEAT: 0.1805559
 CYCLE:   106 TIME:   0.035 TIME LEFT:  2.00D  GRAD.:     0.246 HEAT: 0.1804108
 CYCLE:   107 TIME:   0.031 TIME LEFT:  2.00D  GRAD.:     0.266 HEAT: 0.1800198
 CYCLE:   108 TIME:   0.035 TIME LEFT:  2.00D  GRAD.:     0.240 HEAT: 0.1798741
 CYCLE:   109 TIME:   0.031 TIME LEFT:  2.00D  GRAD.:     0.307 HEAT: 0.1796112
 CYCLE:   110 TIME:   0.035 TIME LEFT:  2.00D  GRAD.:     0.201 HEAT: 0.1795010
 CYCLE:   111 TIME:   0.035 TIME LEFT:  2.00D  GRAD.:     0.131 HEAT: 0.1793366
 CYCLE:   112 TIME:   0.023 TIME LEFT:  2.00D  GRAD.:     0.080 HEAT: 0.1793091
 CYCLE:   113 TIME:   0.031 TIME LEFT:  2.00D  GRAD.:     0.069 HEAT: 0.1792885
 CYCLE:   114 TIME:   0.027 TIME LEFT:  2.00D  GRAD.:     0.087 HEAT: 0.1792749
 CYCLE:   115 TIME:   0.027 TIME LEFT:  2.00D  GRAD.:     0.057 HEAT: 0.1792638
 CYCLE:   116 TIME:   0.031 TIME LEFT:  2.00D  GRAD.:     0.048 HEAT: 0.1792531

     GRADIENT =  0.04815  IS LESS THAN CUTOFF =  0.05000



 -------------------------------------------------------------------------------
 pm3  precise nosym THREADS=1
 InChI=1S/C12H18/c1-2-11-7-6-10-12(11)8-4-3-5-9-12/h3-5,8,11H,2,6-7,9-10H2,1H3



     GEOMETRY OPTIMISED USING EIGENVECTOR FOLLOWING (EF).     
     SCF FIELD WAS ACHIEVED                                   


                              PM3 CALCULATION
                                                       MOPAC2016 (Version: 18.184L)
                                                       Thu Jun 13 15:40:40 2019
                                                       No. of days remaining =  20




          FINAL HEAT OF FORMATION =          0.17925 KCAL/MOL =       0.74999 KJ/MOL


          TOTAL ENERGY            =      -1699.66543 EV
          ELECTRONIC ENERGY       =     -11106.89585 EV  POINT GROUP:     C1  
          CORE-CORE REPULSION     =       9407.23042 EV
          COSMO AREA              =        208.84 SQUARE ANGSTROMS
          COSMO VOLUME            =        230.61 CUBIC ANGSTROMS

          GRADIENT NORM           =          0.04815 = 0.00879 PER ATOM
          IONIZATION POTENTIAL    =          8.956698 EV
          HOMO LUMO ENERGIES (EV) =         -8.957  0.311
          NO. OF FILLED LEVELS    =         33
          MOLECULAR WEIGHT        =        162.2742

          MOLECULAR DIMENSIONS (Angstroms)

            Atom       Atom       Distance
            H    30    H    25     7.79154
            H    26    H    18     5.84960
            H    29    H    22     4.27341


          SCF CALCULATIONS        =        127
 
          WALL-CLOCK TIME         =          4.395 SECONDS
          COMPUTATION TIME        =          2.594 SECONDS




   ATOM   CHEMICAL          X               Y               Z
  NUMBER   SYMBOL      (ANGSTROMS)     (ANGSTROMS)     (ANGSTROMS)
 
     1       C         -0.57090042  *  -0.26594897  *   0.01049747  *
     2       C          0.97870697  *  -0.27073865  *  -0.09520309  *
     3       C         -0.87231110  *  -1.43886444  *   0.97495365  *
     4       C          1.46786444  *  -0.75134909  *   1.27342979  *
     5       C          1.58243488  *   1.06266933  *  -0.51776052  *
     6       C          0.38004270  *  -1.67218043  *   1.81682985  *
     7       C         -1.19242430  *  -0.50874143  *  -1.37384752  *
     8       C          3.04593565  *   0.93220466  *  -0.87829711  *
     9       C         -1.08393525  *   0.99242549  *   0.64896804  *
    10       C         -2.56720486  *   0.02677586  *  -1.54505257  *
    11       C         -2.23996931  *   1.56522870  *   0.29243282  *
    12       C         -3.05051313  *   1.00788956  *  -0.77336112  *
    13       H          1.26279070  *  -1.03613980  *  -0.86063467  *
    14       H          1.45846903  *   1.81611679  *   0.28662887  *
    15       H          1.01678390  *   1.45972100  *  -1.38517554  *
    16       H          2.44510439  *  -1.26228821  *   1.19711363  *
    17       H          1.63377112  *   0.10695367  *   1.95396389  *
    18       H          0.69352821  *  -2.73149539  *   1.76800606  *
    19       H          0.18935801  *  -1.47129682  *   2.88705102  *
    20       H         -1.13257934  *  -2.34832773  *   0.39826640  *
    21       H         -1.75455296  *  -1.22400244  *   1.60537680  *
    22       H         -1.18753319  *  -1.59736465  *  -1.59001039  *
    23       H         -0.56218529  *  -0.04143596  *  -2.16078314  *
    24       H          3.19905493  *   0.24066044  *  -1.71768084  *
    25       H          3.63787202  *   0.55473862  *  -0.03331440  *
    26       H          3.47015695  *   1.90124875  *  -1.17042804  *
    27       H         -0.47893413  *   1.39955155  *   1.46829043  *
    28       H         -3.16006694  *  -0.39878173  *  -2.36168105  *
    29       H         -2.60967363  *   2.46484641  *   0.79488418  *
    30       H         -4.05487144  *   1.41688674  *  -0.92015822  *

                             CARTESIAN COORDINATES

   1    C       -0.570900418    -0.265948969     0.010497467
   2    C        0.978706966    -0.270738648    -0.095203093
   3    C       -0.872311105    -1.438864441     0.974953650
   4    C        1.467864444    -0.751349093     1.273429786
   5    C        1.582434879     1.062669327    -0.517760518
   6    C        0.380042704    -1.672180434     1.816829848
   7    C       -1.192424304    -0.508741425    -1.373847519
   8    C        3.045935650     0.932204661    -0.878297114
   9    C       -1.083935254     0.992425493     0.648968039
  10    C       -2.567204864     0.026775859    -1.545052566
  11    C       -2.239969308     1.565228698     0.292432821
  12    C       -3.050513132     1.007889555    -0.773361117
  13    H        1.262790704    -1.036139802    -0.860634667
  14    H        1.458469033     1.816116791     0.286628868
  15    H        1.016783898     1.459720998    -1.385175539
  16    H        2.445104395    -1.262288208     1.197113634
  17    H        1.633771123     0.106953670     1.953963888
  18    H        0.693528206    -2.731495395     1.768006060
  19    H        0.189358009    -1.471296819     2.887051024
  20    H       -1.132579342    -2.348327726     0.398266402
  21    H       -1.754552961    -1.224002445     1.605376796
  22    H       -1.187533187    -1.597364648    -1.590010387
  23    H       -0.562185288    -0.041435963    -2.160783143
  24    H        3.199054926     0.240660438    -1.717680843
  25    H        3.637872023     0.554738621    -0.033314402
  26    H        3.470156950     1.901248752    -1.170428037
  27    H       -0.478934132     1.399551548     1.468290426
  28    H       -3.160066941    -0.398781728    -2.361681049
  29    H       -2.609673632     2.464846407     0.794884179
  30    H       -4.054871436     1.416886739    -0.920158216


           Empirical Formula: C12 H18  =    30 atoms



      MOLECULAR POINT GROUP   :   C1  


                  EIGENVALUES  
 -43.07850 -36.73400 -34.03076 -30.25811 -29.15958 -27.19297 -23.81448 -22.10189
 -21.68324 -19.90172 -19.15915 -17.76240 -16.54670 -16.48575 -15.51782 -15.34211
 -15.19836 -14.76518 -14.33723 -14.09287 -13.88077 -13.29899 -13.05087 -12.74217
 -12.63392 -12.28029 -12.19902 -11.71705 -11.55374 -11.49890 -11.20564 -11.00837
  -8.95670   0.31097   2.10779   3.19548   3.36051   3.46905   3.48137   3.59698
   3.68056   3.68409   3.79749   3.84314   3.93739   4.00483   4.08793   4.11090
   4.21684   4.26659   4.28398   4.40762   4.49946   4.51781   4.70982   4.80128
   4.84222   4.95245   5.13394   5.20576   5.24318   5.25606   5.31957   5.50323
   6.05572   6.26346


              NET ATOMIC CHARGES AND DIPOLE CONTRIBUTIONS

  ATOM NO.   TYPE          CHARGE      No. of ELECS.   s-Pop       p-Pop       
    1          C          -0.006344        4.0063     1.18345     2.82289
    2          C          -0.075802        4.0758     1.18664     2.88916
    3          C          -0.100070        4.1001     1.17189     2.92818
    4          C          -0.100150        4.1001     1.16584     2.93431
    5          C          -0.098553        4.0986     1.15974     2.93882
    6          C          -0.095169        4.0952     1.16238     2.93279
    7          C          -0.061917        4.0619     1.15226     2.90966
    8          C          -0.110999        4.1110     1.13884     2.97216
    9          C          -0.125761        4.1258     1.19874     2.92702
   10          C          -0.133927        4.1339     1.19583     2.93810
   11          C          -0.112137        4.1121     1.17854     2.93359
   12          C          -0.116885        4.1169     1.17847     2.93842
   13          H           0.066887        0.9331     0.93311
   14          H           0.055295        0.9447     0.94471
   15          H           0.055431        0.9446     0.94457
   16          H           0.052397        0.9476     0.94760
   17          H           0.052407        0.9476     0.94759
   18          H           0.047313        0.9527     0.95269
   19          H           0.048618        0.9514     0.95138
   20          H           0.053877        0.9461     0.94612
   21          H           0.059609        0.9404     0.94039
   22          H           0.060810        0.9392     0.93919
   23          H           0.063657        0.9363     0.93634
   24          H           0.037397        0.9626     0.96260
   25          H           0.039043        0.9610     0.96096
   26          H           0.037753        0.9622     0.96225
   27          H           0.105873        0.8941     0.89413
   28          H           0.098280        0.9017     0.90172
   29          H           0.101032        0.8990     0.89897
   30          H           0.102038        0.8980     0.89796
 DIPOLE           X         Y         Z       TOTAL
 POINT-CHG.     0.283    -0.199    -0.100     0.359
 HYBRID         0.001    -0.027     0.011     0.030
 SUM            0.283    -0.226    -0.088     0.373


          ATOMIC ORBITAL ELECTRON POPULATIONS

     Atom    s        px        py        pz   
    1  C   1.18345   0.94217   0.94020   0.94052
    2  C   1.18664   0.93785   0.97538   0.97593
    3  C   1.17189   0.97473   0.97218   0.98126
    4  C   1.16584   0.97625   0.99319   0.96487
    5  C   1.15974   0.95821   0.96486   1.01575
    6  C   1.16238   0.95444   0.99079   0.98756
    7  C   1.15226   0.94891   1.00096   0.95979
    8  C   1.13884   0.95816   1.00817   1.00583
    9  C   1.19874   0.96890   0.96615   0.99197
   10  C   1.19583   0.96981   0.97723   0.99106
   11  C   1.17854   0.95932   0.99259   0.98168
   12  C   1.17847   0.98504   0.97909   0.97429
   13  H   0.93311
   14  H   0.94471
   15  H   0.94457
   16  H   0.94760
   17  H   0.94759
   18  H   0.95269
   19  H   0.95138
   20  H   0.94612
   21  H   0.94039
   22  H   0.93919
   23  H   0.93634
   24  H   0.96260
   25  H   0.96096
   26  H   0.96225
   27  H   0.89413
   28  H   0.90172
   29  H   0.89897
   30  H   0.89796
 *******************************************************************************
 ** Site#: 14399        For non-commercial use only    Version 18.184L 64BITS **
 *******************************************************************************
 ** Cite this program as: MOPAC2016, Version: 18.184L, James J. P. Stewart,   **
 ** Stewart Computational Chemistry, web: HTTP://OpenMOPAC.net. Days left:  20**
 *******************************************************************************
 **                                                                           **
 **                                MOPAC2016                                  **
 **                                                                           **
 *******************************************************************************

                              PM3 CALCULATION RESULTS

 *******************************************************************************
 *  CALCULATION DONE:                                Thu Jun 13 15:40:40 2019  *
 *  PM3        - The PM3 Hamiltonian to be used
 *  OLDGEO     - PREVIOUS GEOMETRY TO BE USED
 *  PRECISE    - CRITERIA TO BE INCREASED BY 100 TIMES
 *  NOSYM      - POINT-GROUP SYMMETRY SET TO C1
 *  THREADS=1  - MULTI-THREADING NOT USED
 *  T=         - A TIME OF 172800.0 SECONDS REQUESTED
 *  DUMP=N     - RESTART FILE WRITTEN EVERY  7200.000 SECONDS
 *  THERMO     - THERMODYNAMIC QUANTITIES TO BE CALCULATED
 *******************************************************************************
oldgeo thermo nosym precise THREADS=1  pm3
 InChI=1S/C12H18/c1-2-11-7-6-10-12(11)8-4-3-5-9-12/h3-5,8,11H,2,6-7,9-10H2,1H3

   ATOM   CHEMICAL          X               Y               Z
  NUMBER   SYMBOL      (ANGSTROMS)     (ANGSTROMS)     (ANGSTROMS)
 
     1       C         -0.57090042  *  -0.26594897  *   0.01049747  *
     2       C          0.97870697  *  -0.27073865  *  -0.09520309  *
     3       C         -0.87231110  *  -1.43886444  *   0.97495365  *
     4       C          1.46786444  *  -0.75134909  *   1.27342979  *
     5       C          1.58243488  *   1.06266933  *  -0.51776052  *
     6       C          0.38004270  *  -1.67218043  *   1.81682985  *
     7       C         -1.19242430  *  -0.50874143  *  -1.37384752  *
     8       C          3.04593565  *   0.93220466  *  -0.87829711  *
     9       C         -1.08393525  *   0.99242549  *   0.64896804  *
    10       C         -2.56720486  *   0.02677586  *  -1.54505257  *
    11       C         -2.23996931  *   1.56522870  *   0.29243282  *
    12       C         -3.05051313  *   1.00788956  *  -0.77336112  *
    13       H          1.26279070  *  -1.03613980  *  -0.86063467  *
    14       H          1.45846903  *   1.81611679  *   0.28662887  *
    15       H          1.01678390  *   1.45972100  *  -1.38517554  *
    16       H          2.44510439  *  -1.26228821  *   1.19711363  *
    17       H          1.63377112  *   0.10695367  *   1.95396389  *
    18       H          0.69352821  *  -2.73149539  *   1.76800606  *
    19       H          0.18935801  *  -1.47129682  *   2.88705102  *
    20       H         -1.13257934  *  -2.34832773  *   0.39826640  *
    21       H         -1.75455296  *  -1.22400244  *   1.60537680  *
    22       H         -1.18753319  *  -1.59736465  *  -1.59001039  *
    23       H         -0.56218529  *  -0.04143596  *  -2.16078314  *
    24       H          3.19905493  *   0.24066044  *  -1.71768084  *
    25       H          3.63787202  *   0.55473862  *  -0.03331440  *
    26       H          3.47015695  *   1.90124875  *  -1.17042804  *
    27       H         -0.47893413  *   1.39955155  *   1.46829043  *
    28       H         -3.16006694  *  -0.39878173  *  -2.36168105  *
    29       H         -2.60967363  *   2.46484641  *   0.79488418  *
    30       H         -4.05487144  *   1.41688674  *  -0.92015822  *
 


          CARTESIAN COORDINATES 

    NO.       ATOM           X           Y           Z

     1         C         -0.5709     -0.2659      0.0105
     2         C          0.9787     -0.2707     -0.0952
     3         C         -0.8723     -1.4389      0.9750
     4         C          1.4679     -0.7513      1.2734
     5         C          1.5824      1.0627     -0.5178
     6         C          0.3800     -1.6722      1.8168
     7         C         -1.1924     -0.5087     -1.3738
     8         C          3.0459      0.9322     -0.8783
     9         C         -1.0839      0.9924      0.6490
    10         C         -2.5672      0.0268     -1.5451
    11         C         -2.2400      1.5652      0.2924
    12         C         -3.0505      1.0079     -0.7734
    13         H          1.2628     -1.0361     -0.8606
    14         H          1.4585      1.8161      0.2866
    15         H          1.0168      1.4597     -1.3852
    16         H          2.4451     -1.2623      1.1971
    17         H          1.6338      0.1070      1.9540
    18         H          0.6935     -2.7315      1.7680
    19         H          0.1894     -1.4713      2.8871
    20         H         -1.1326     -2.3483      0.3983
    21         H         -1.7546     -1.2240      1.6054
    22         H         -1.1875     -1.5974     -1.5900
    23         H         -0.5622     -0.0414     -2.1608
    24         H          3.1991      0.2407     -1.7177
    25         H          3.6379      0.5547     -0.0333
    26         H          3.4702      1.9012     -1.1704
    27         H         -0.4789      1.3996      1.4683
    28         H         -3.1601     -0.3988     -2.3617
    29         H         -2.6097      2.4648      0.7949
    30         H         -4.0549      1.4169     -0.9202

  H: (PM3): J. J. P. STEWART, J. COMP. CHEM. 10, 209 (1989).
  C: (PM3): J. J. P. STEWART, J. COMP. CHEM. 10, 209 (1989).

           Empirical Formula: C12 H18  =    30 atoms



      MOLECULAR POINT GROUP   :   C1  


      RHF CALCULATION, NO. OF DOUBLY OCCUPIED LEVELS = 33



          HEAT OF FORMATION =       0.179253 KCALS/MOLE


          CARTESIAN COORDINATE DERIVATIVES

   NUMBER  ATOM         X            Y            Z

     1       C     -0.002155     0.001763     0.001924
     2       C      0.001625    -0.001093     0.001178
     3       C     -0.000849     0.006212     0.003089
     4       C     -0.000402     0.004076    -0.004312
     5       C      0.000077    -0.001224     0.000835
     6       C     -0.003517     0.003680    -0.005259
     7       C     -0.000570    -0.002176     0.000942
     8       C      0.002965    -0.001656    -0.002364
     9       C     -0.001754     0.002072     0.000902
    10       C     -0.001478     0.000754    -0.001981
    11       C     -0.000673     0.003971     0.007471
    12       C      0.003534     0.002145    -0.002198
    13       H      0.002153    -0.003139    -0.000021
    14       H     -0.013558    -0.000260     0.001877
    15       H      0.007059     0.001471     0.003048
    16       H     -0.004708    -0.003172    -0.005665
    17       H     -0.007355    -0.000944     0.003971
    18       H      0.005160    -0.016114    -0.012341
    19       H      0.001441    -0.007677     0.011925
    20       H     -0.005134     0.002829    -0.004552
    21       H      0.004294    -0.000104     0.002219
    22       H     -0.000694    -0.002406    -0.001012
    23       H     -0.005848     0.002674     0.001132
    24       H      0.006288    -0.004809    -0.001888
    25       H     -0.012990     0.004002     0.002966
    26       H      0.012827     0.000929    -0.003943
    27       H      0.005228     0.007127     0.007408
    28       H     -0.008560     0.000332    -0.002795
    29       H      0.011282     0.001586    -0.003315
    30       H      0.006311    -0.000849     0.000761
 


          GRADIENT NORM =   0.04789


          TIME FOR SCF CALCULATION =    0.04

          TIME FOR DERIVATIVES     =    0.03

          MOLECULAR WEIGHT =  162.27



          ROTATIONAL CONSTANTS IN CM(-1)

          A =    0.04628052   B =    0.02484621   C =    0.02047428



           PRINCIPAL MOMENTS OF INERTIA IN UNITS OF 10**(-40)*GRAM-CM**2

          A =      604.8501   B =     1126.6417   C =     1367.2167


          ORIENTATION OF MOLECULE IN FORCE CALCULATION

    NO.       ATOM         X         Y         Z

     1          C      -0.2909    0.2450    0.1940
     2          C       1.2623    0.2450    0.1940
     3          C      -0.6536    1.7500    0.1940
     4          C       1.6587    1.4941   -0.5972
     5          C       1.8893   -1.0348   -0.3447
     6          C       0.5393    2.5080   -0.3840
     7          C      -0.8160   -0.4550    1.4573
     8          C       3.3743   -1.0993   -0.0631
     9          C      -0.8501   -0.3586   -1.0620
    10          C      -2.1776   -1.0349    1.3311
    11          C      -1.9809   -1.0745   -1.0793
    12          C      -2.7153   -1.3378    0.1433
    13          H       1.6002    0.3755    1.2529
    14          H       1.7086   -1.1252   -1.4353
    15          H       1.3828   -1.9088    0.1129
    16          H       2.6404    1.8843   -0.2719
    17          H       1.7753    1.2562   -1.6729
    18          H       0.8586    3.3165    0.2995
    19          H       0.2756    3.0119   -1.3320
    20          H      -0.8712    2.0889    1.2261
    21          H      -1.5774    1.9406   -0.3825
    22          H      -0.7931    0.2594    2.3064
    23          H      -0.1351   -1.2856    1.7426
    24          H       3.5864   -1.0778    1.0143
    25          H       3.9086   -0.2535   -0.5170
    26          H       3.8145   -2.0206   -0.4654
    27          H      -0.3035   -0.1403   -1.9875
    28          H      -2.7122   -1.2367    2.2654
    29          H      -2.3867   -1.4774   -2.0129
    30          H      -3.7086   -1.7888    0.0569


    FIRST DERIVATIVES WILL BE USED IN THE CALCULATION OF SECOND DERIVATIVES

          ESTIMATED TIME TO COMPLETE CALCULATION =       25.31 SECONDS

    FOR POINT-GROUP C1   THERE ARE   1 UNIQUE SYMMETRY FUNCTIONS.

 STEP:   1 TIME =     0.11 SECS, INTEGRAL =      0.11 TIME LEFT: 172799.82
 STEP:   2 TIME =     0.08 SECS, INTEGRAL =      0.18 TIME LEFT: 172799.75
 STEP:   3 TIME =     0.07 SECS, INTEGRAL =      0.26 TIME LEFT: 172799.67
 STEP:   4 TIME =     0.07 SECS, INTEGRAL =      0.33 TIME LEFT: 172799.60
 STEP:   5 TIME =     0.10 SECS, INTEGRAL =      0.43 TIME LEFT: 172799.50
 STEP:   6 TIME =     0.07 SECS, INTEGRAL =      0.50 TIME LEFT: 172799.43
 STEP:   7 TIME =     0.07 SECS, INTEGRAL =      0.57 TIME LEFT: 172799.36
 STEP:   8 TIME =     0.07 SECS, INTEGRAL =      0.64 TIME LEFT: 172799.29
 STEP:   9 TIME =     0.07 SECS, INTEGRAL =      0.71 TIME LEFT: 172799.21
 STEP:  10 TIME =     0.07 SECS, INTEGRAL =      0.79 TIME LEFT: 172799.14
 STEP:  11 TIME =     0.07 SECS, INTEGRAL =      0.85 TIME LEFT: 172799.08
 STEP:  12 TIME =     0.10 SECS, INTEGRAL =      0.95 TIME LEFT: 172798.98
 STEP:  13 TIME =     0.08 SECS, INTEGRAL =      1.03 TIME LEFT: 172798.90
 STEP:  14 TIME =     0.07 SECS, INTEGRAL =      1.10 TIME LEFT: 172798.83
 STEP:  15 TIME =     0.07 SECS, INTEGRAL =      1.18 TIME LEFT: 172798.75
 STEP:  16 TIME =     0.07 SECS, INTEGRAL =      1.25 TIME LEFT: 172798.68
 STEP:  17 TIME =     0.07 SECS, INTEGRAL =      1.32 TIME LEFT: 172798.61
 STEP:  18 TIME =     0.07 SECS, INTEGRAL =      1.38 TIME LEFT: 172798.55
 STEP:  19 TIME =     0.11 SECS, INTEGRAL =      1.49 TIME LEFT: 172798.44
 STEP:  20 TIME =     0.07 SECS, INTEGRAL =      1.57 TIME LEFT: 172798.36
 STEP:  21 TIME =     0.07 SECS, INTEGRAL =      1.64 TIME LEFT: 172798.29
 STEP:  22 TIME =     0.07 SECS, INTEGRAL =      1.71 TIME LEFT: 172798.22
 STEP:  23 TIME =     0.07 SECS, INTEGRAL =      1.78 TIME LEFT: 172798.15
 STEP:  24 TIME =     0.07 SECS, INTEGRAL =      1.85 TIME LEFT: 172798.08
 STEP:  25 TIME =     0.07 SECS, INTEGRAL =      1.92 TIME LEFT: 172798.01
 STEP:  26 TIME =     0.07 SECS, INTEGRAL =      1.99 TIME LEFT: 172797.94
 STEP:  27 TIME =     0.07 SECS, INTEGRAL =      2.06 TIME LEFT: 172797.87
 STEP:  28 TIME =     0.07 SECS, INTEGRAL =      2.13 TIME LEFT: 172797.80
 STEP:  29 TIME =     0.07 SECS, INTEGRAL =      2.21 TIME LEFT: 172797.72
 STEP:  30 TIME =     0.07 SECS, INTEGRAL =      2.28 TIME LEFT: 172797.65
 STEP:  31 TIME =     0.07 SECS, INTEGRAL =      2.35 TIME LEFT: 172797.58
 STEP:  32 TIME =     0.07 SECS, INTEGRAL =      2.42 TIME LEFT: 172797.51
 STEP:  33 TIME =     0.07 SECS, INTEGRAL =      2.49 TIME LEFT: 172797.44
 STEP:  34 TIME =     0.07 SECS, INTEGRAL =      2.56 TIME LEFT: 172797.37
 STEP:  35 TIME =     0.07 SECS, INTEGRAL =      2.63 TIME LEFT: 172797.30
 STEP:  36 TIME =     0.07 SECS, INTEGRAL =      2.70 TIME LEFT: 172797.23
 STEP:  37 TIME =     0.07 SECS, INTEGRAL =      2.77 TIME LEFT: 172797.16
 STEP:  38 TIME =     0.07 SECS, INTEGRAL =      2.84 TIME LEFT: 172797.09
 STEP:  39 TIME =     0.07 SECS, INTEGRAL =      2.92 TIME LEFT: 172797.01
 STEP:  40 TIME =     0.07 SECS, INTEGRAL =      2.99 TIME LEFT: 172796.94
 STEP:  41 TIME =     0.07 SECS, INTEGRAL =      3.06 TIME LEFT: 172796.87
 STEP:  42 TIME =     0.07 SECS, INTEGRAL =      3.13 TIME LEFT: 172796.80
 STEP:  43 TIME =     0.07 SECS, INTEGRAL =      3.20 TIME LEFT: 172796.73
 STEP:  44 TIME =     0.09 SECS, INTEGRAL =      3.30 TIME LEFT: 172796.63
 STEP:  45 TIME =     0.07 SECS, INTEGRAL =      3.37 TIME LEFT: 172796.56
 STEP:  46 TIME =     0.07 SECS, INTEGRAL =      3.44 TIME LEFT: 172796.49
 STEP:  47 TIME =     0.07 SECS, INTEGRAL =      3.51 TIME LEFT: 172796.42
 STEP:  48 TIME =     0.07 SECS, INTEGRAL =      3.58 TIME LEFT: 172796.35
 STEP:  49 TIME =     0.07 SECS, INTEGRAL =      3.65 TIME LEFT: 172796.28
 STEP:  50 TIME =     0.07 SECS, INTEGRAL =      3.73 TIME LEFT: 172796.20
 STEP:  51 TIME =     0.07 SECS, INTEGRAL =      3.80 TIME LEFT: 172796.13
 STEP:  52 TIME =     0.07 SECS, INTEGRAL =      3.87 TIME LEFT: 172796.06
 STEP:  53 TIME =     0.07 SECS, INTEGRAL =      3.95 TIME LEFT: 172795.98
 STEP:  54 TIME =     0.07 SECS, INTEGRAL =      4.02 TIME LEFT: 172795.91
 STEP:  55 TIME =     0.07 SECS, INTEGRAL =      4.09 TIME LEFT: 172795.84
 STEP:  56 TIME =     0.09 SECS, INTEGRAL =      4.19 TIME LEFT: 172795.74
 STEP:  57 TIME =     0.07 SECS, INTEGRAL =      4.26 TIME LEFT: 172795.67
 STEP:  58 TIME =     0.07 SECS, INTEGRAL =      4.33 TIME LEFT: 172795.60
 STEP:  59 TIME =     0.07 SECS, INTEGRAL =      4.40 TIME LEFT: 172795.53
 STEP:  60 TIME =     0.07 SECS, INTEGRAL =      4.47 TIME LEFT: 172795.46
 STEP:  61 TIME =     0.07 SECS, INTEGRAL =      4.54 TIME LEFT: 172795.39
 STEP:  62 TIME =     0.07 SECS, INTEGRAL =      4.61 TIME LEFT: 172795.32
 STEP:  63 TIME =     0.07 SECS, INTEGRAL =      4.68 TIME LEFT: 172795.25
 STEP:  64 TIME =     0.07 SECS, INTEGRAL =      4.75 TIME LEFT: 172795.18
 STEP:  65 TIME =     0.07 SECS, INTEGRAL =      4.82 TIME LEFT: 172795.11
 STEP:  66 TIME =     0.07 SECS, INTEGRAL =      4.89 TIME LEFT: 172795.04
 STEP:  67 TIME =     0.07 SECS, INTEGRAL =      4.97 TIME LEFT: 172794.96
 STEP:  68 TIME =     0.08 SECS, INTEGRAL =      5.05 TIME LEFT: 172794.88
 STEP:  69 TIME =     0.07 SECS, INTEGRAL =      5.12 TIME LEFT: 172794.81
 STEP:  70 TIME =     0.07 SECS, INTEGRAL =      5.20 TIME LEFT: 172794.73
 STEP:  71 TIME =     0.08 SECS, INTEGRAL =      5.27 TIME LEFT: 172794.66
 STEP:  72 TIME =     0.07 SECS, INTEGRAL =      5.34 TIME LEFT: 172794.59
 STEP:  73 TIME =     0.07 SECS, INTEGRAL =      5.41 TIME LEFT: 172794.52
 STEP:  74 TIME =     0.11 SECS, INTEGRAL =      5.52 TIME LEFT: 172794.41
 STEP:  75 TIME =     0.08 SECS, INTEGRAL =      5.60 TIME LEFT: 172794.33
 STEP:  76 TIME =     0.07 SECS, INTEGRAL =      5.67 TIME LEFT: 172794.26
 STEP:  77 TIME =     0.07 SECS, INTEGRAL =      5.74 TIME LEFT: 172794.19
 STEP:  78 TIME =     0.09 SECS, INTEGRAL =      5.83 TIME LEFT: 172794.10
 STEP:  79 TIME =     0.07 SECS, INTEGRAL =      5.91 TIME LEFT: 172794.02
 STEP:  80 TIME =     0.07 SECS, INTEGRAL =      5.98 TIME LEFT: 172793.95
 STEP:  81 TIME =     0.07 SECS, INTEGRAL =      6.05 TIME LEFT: 172793.88
 STEP:  82 TIME =     0.07 SECS, INTEGRAL =      6.12 TIME LEFT: 172793.81
 STEP:  83 TIME =     0.07 SECS, INTEGRAL =      6.20 TIME LEFT: 172793.73
 STEP:  84 TIME =     0.07 SECS, INTEGRAL =      6.27 TIME LEFT: 172793.66
 STEP:  85 TIME =     0.07 SECS, INTEGRAL =      6.34 TIME LEFT: 172793.59
 STEP:  86 TIME =     0.07 SECS, INTEGRAL =      6.41 TIME LEFT: 172793.52
 STEP:  87 TIME =     0.07 SECS, INTEGRAL =      6.48 TIME LEFT: 172793.45
 STEP:  88 TIME =     0.07 SECS, INTEGRAL =      6.55 TIME LEFT: 172793.38
 STEP:  89 TIME =     0.07 SECS, INTEGRAL =      6.62 TIME LEFT: 172793.31
 STEP:  90 TIME =     0.07 SECS, INTEGRAL =      6.70 TIME LEFT: 172793.23

(To convert to Hartree/Bohr^2, multiply by (10^(-21) x N x a0^2)/(4.184 x 627.51) =  0.0642)


           FORCE MATRIX IN MILLIDYNES/ANGSTROM


                  C  1       C  2       C  3       C  4       C  5       C  6
 ------------------------------------------------------------------------------
     C    1  14.400738
     C    2   3.140537  14.299055
     C    3   3.317568   0.766116  14.201722
     C    4   0.746015   3.839909   0.748221  14.382179
     C    5   0.528481   4.039862   0.044927   0.579744  14.342893
     C    6   0.697933   0.767981   4.004475   4.051325   0.047014  14.379760
     C    7   3.649247   0.591416   0.581440   0.045036   0.034109   0.040136
     C    8   0.049175   0.644920   0.009031   0.043401   4.440716   0.002881
     C    9   4.484733   0.607042   0.690945   0.042175   0.068778   0.029950
     C   10   0.608220   0.042947   0.018908   0.007724   0.002732   0.001822
     C   11   0.787696   0.046731   0.041845   0.002312   0.005469   0.002845
     C   12   0.110430   0.009982   0.020074   0.001569   0.002298   0.001279
     H   13   0.429546   4.170942   0.016800   0.422405   0.427067   0.014803
     H   14   0.012685   0.451958   0.001077   0.029051   4.418476   0.002092
     H   15   0.030580   0.437069   0.002212   0.046220   4.426573   0.007470
     H   16   0.043420   0.439296   0.034473   4.543596   0.012223   0.437011
     H   17   0.010687   0.455066   0.016892   4.464446   0.042730   0.440358
     H   18   0.030055   0.016454   0.439059   0.442396   0.002681   4.533475
     H   19   0.020444   0.036293   0.440891   0.439391   0.005210   4.544930
     H   20   0.454174   0.013420   4.463529   0.022421   0.001380   0.438366
     H   21   0.451690   0.038340   4.554046   0.028831   0.005595   0.437498
     H   22   0.441293   0.018321   0.074163   0.001772   0.001602   0.002275
     H   23   0.442921   0.065935   0.042550   0.003030   0.017480   0.006165
     H   24   0.002215   0.024401   0.000364   0.002295   0.463629   0.000521
     H   25   0.001750   0.020565   0.000573   0.011270   0.463203   0.000630
     H   26   0.008342   0.051367   0.001756   0.002331   0.449077   0.000389
     H   27   0.435421   0.028969   0.011535   0.009563   0.023778   0.004000
     H   28   0.042712   0.007164   0.003883   0.001552   0.000774   0.000548
     H   29   0.115462   0.012535   0.016603   0.000493   0.001245   0.000706
     H   30   0.005072   0.000671   0.000574   0.000355   0.000334   0.000392


                  C  7       C  8       C  9       C 10       C 11       C 12
 ------------------------------------------------------------------------------
     C    7  14.639371
     C    8   0.002980  14.350135
     C    9   0.621565   0.006325  18.048629
     C   10   4.999404   0.001425   0.157982  18.067096
     C   11   0.123496   0.001005  10.319276   1.151959  18.430115
     C   12   0.871762   0.000641   1.128164  10.327884   5.691103  18.465182
     H   13   0.070725   0.043187   0.043021   0.002259   0.007407   0.002209
     H   14   0.001714   0.435656   0.023611   0.001362   0.002263   0.001175
     H   15   0.016330   0.436333   0.005057   0.001415   0.001761   0.000755
     H   16   0.005992   0.008843   0.002013   0.001395   0.000551   0.000383
     H   17   0.001367   0.005031   0.010140   0.000628   0.000889   0.000426
     H   18   0.003380   0.000323   0.001821   0.000332   0.000650   0.000376
     H   19   0.003291   0.000361   0.002051   0.000425   0.000895   0.000307
     H   20   0.084071   0.000562   0.037688   0.003688   0.006073   0.004249
     H   21   0.013154   0.001463   0.074253   0.002021   0.007596   0.002108
     H   22   4.389797   0.000455   0.044024   0.433419   0.010199   0.046537
     H   23   4.335504   0.001504   0.012002   0.401670   0.018183   0.034314
     H   24   0.000412   4.722203   0.001104   0.000430   0.000425   0.000408
     H   25   0.000498   4.708513   0.000850   0.000364   0.000379   0.000190
     H   26   0.000646   4.752309   0.000738   0.000387   0.000581   0.000359
     H   27   0.041197   0.001403   4.787615   0.013646   0.439540   0.124494
     H   28   0.425886   0.000577   0.013581   4.843936   0.123748   0.444366
     H   29   0.004271   0.000307   0.442443   0.046819   4.857244   0.432907
     H   30   0.118289   0.000358   0.047368   0.446438   0.433326   4.870707


                  H 13       H 14       H 15       H 16       H 17       H 18
 ------------------------------------------------------------------------------
     H   13   4.651982
     H   14   0.042886   5.038660
     H   15   0.023499   0.570381   5.035939
     H   16   0.035289   0.001088   0.001298   5.163130
     H   17   0.040318   0.030119   0.002564   0.580954   5.083440
     H   18   0.001251   0.000462   0.000564   0.030690   0.034973   5.137292
     H   19   0.001075   0.000331   0.001083   0.019339   0.029472   0.588999
     H   20   0.002044   0.000447   0.000265   0.001711   0.001103   0.026964
     H   21   0.001146   0.000251   0.000413   0.003250   0.001173   0.023484
     H   22   0.013958   0.000452   0.000470   0.000471   0.000465   0.000354
     H   23   0.032377   0.000654   0.020915   0.000550   0.000370   0.000805
     H   24   0.026616   0.047494   0.025502   0.000575   0.000345   0.000144
     H   25   0.002420   0.023818   0.048004   0.018925   0.003614   0.000189
     H   26   0.002232   0.031495   0.029862   0.000401   0.000334   0.000089
     H   27   0.002304   0.022058   0.001828   0.001409   0.017101   0.000851
     H   28   0.000652   0.000201   0.000318   0.000323   0.000175   0.000119
     H   29   0.002048   0.000627   0.000428   0.000235   0.000237   0.000195
     H   30   0.000234   0.000197   0.000207   0.000143   0.000164   0.000150


                  H 19       H 20       H 21       H 22       H 23       H 24
 ------------------------------------------------------------------------------
     H   19   5.150698
     H   20   0.029989   5.059318
     H   21   0.029026   0.577153   5.171162
     H   22   0.000479   0.087776   0.001131   4.972391
     H   23   0.000732   0.002773   0.001851   0.560075   4.930259
     H   24   0.000188   0.000097   0.000109   0.000163   0.000342   5.465796
     H   25   0.000215   0.000138   0.000106   0.000117   0.000431   0.575639
     H   26   0.000084   0.000107   0.000317   0.000125   0.000243   0.573450
     H   27   0.001247   0.001575   0.004409   0.007195   0.004819   0.000603
     H   28   0.000165   0.000616   0.000614   0.036467   0.018850   0.000115
     H   29   0.000175   0.002392   0.000899   0.000825   0.000856   0.000104
     H   30   0.000185   0.000232   0.000472   0.012854   0.016382   0.000109


                  H 25       H 26       H 27       H 28       H 29       H 30
 ------------------------------------------------------------------------------
     H   25   5.451400
     H   26   0.569605   5.489150
     H   27   0.000543   0.000192   5.165027
     H   28   0.000168   0.000163   0.009002   5.218836
     H   29   0.000113   0.000188   0.065764   0.007278   5.223524
     H   30   0.000168   0.000103   0.007217   0.064171   0.031042   5.239750


          HEAT OF FORMATION =       0.179253 KCALS/MOLE

          ZERO POINT ENERGY     168.155 KCAL/MOL


           NORMAL COORDINATE ANALYSIS (Total motion = 1 Angstrom)


   Root No.       1         2         3         4         5         6         7         8

                 1 A       2 A       3 A       4 A       5 A       6 A       7 A       8 A   

                  67.6      75.5      80.7     113.9     182.4     203.6     224.5     254.7
  
           1    0.0047    0.0028    0.0043    0.0015    0.0051    0.0014    0.0034    0.0089
           2   -0.0125   -0.0106   -0.0020   -0.0011    0.0049    0.0018    0.0014   -0.0112
           3    0.0056   -0.0099   -0.0026    0.0003    0.0139   -0.0064   -0.0004    0.0109
           4    0.0043    0.0028    0.0038    0.0015    0.0045    0.0005    0.0026    0.0096
           5   -0.0045   -0.0020    0.0061   -0.0013    0.0128    0.0081    0.0110   -0.0022
           6    0.0080   -0.0078   -0.0147    0.0076    0.0043    0.0009    0.0126    0.0026
           7    0.0013   -0.0120   -0.0005   -0.0052   -0.0071   -0.0093   -0.0161   -0.0104
           8   -0.0138   -0.0133   -0.0035   -0.0039    0.0004   -0.0014   -0.0032   -0.0153
           9    0.0143   -0.0212    0.0133   -0.0099    0.0189   -0.0129   -0.0276   -0.0021
          10   -0.0006   -0.0047   -0.0089    0.0164   -0.0191    0.0061   -0.0009   -0.0131
          11   -0.0048    0.0038    0.0087    0.0162    0.0063    0.0145    0.0057    0.0006
          12    0.0042   -0.0014   -0.0171    0.0420   -0.0190    0.0162    0.0039   -0.0071
          13    0.0145    0.0137    0.0069   -0.0027   -0.0147   -0.0093   -0.0117    0.0148
          14   -0.0018    0.0052    0.0091    0.0104    0.0012    0.0026   -0.0034    0.0039
          15    0.0137   -0.0123   -0.0183   -0.0279    0.0078    0.0034    0.0310   -0.0112
          16   -0.0160    0.0044   -0.0157   -0.0108   -0.0172   -0.0065   -0.0071   -0.0178
          17   -0.0156    0.0049    0.0010   -0.0019    0.0055    0.0052    0.0019   -0.0058
          18   -0.0232    0.0360   -0.0126   -0.0157    0.0041   -0.0000   -0.0040    0.0013
          19    0.0040    0.0070    0.0184   -0.0028    0.0037    0.0170    0.0165   -0.0151
          20   -0.0252   -0.0069   -0.0178    0.0071   -0.0071   -0.0122   -0.0100    0.0249
          21   -0.0024   -0.0061   -0.0058    0.0036    0.0051   -0.0078   -0.0022    0.0209
          22    0.0202    0.0106   -0.0068   -0.0068   -0.0132   -0.0111   -0.0059    0.0132
          23    0.0243    0.0080   -0.0203   -0.0139   -0.0260   -0.0164   -0.0141   -0.0154
          24   -0.0095    0.0052    0.0479   -0.0137   -0.0140    0.0026   -0.0089   -0.0048
          25    0.0047    0.0037   -0.0040    0.0075    0.0269   -0.0001    0.0069    0.0184
          26   -0.0056   -0.0266    0.0062   -0.0130   -0.0043   -0.0003    0.0000   -0.0102
          27    0.0019   -0.0029   -0.0029    0.0034    0.0077   -0.0053   -0.0022    0.0077
          28   -0.0123   -0.0078    0.0123   -0.0058   -0.0093    0.0144    0.0200    0.0026
          29    0.0122    0.0246   -0.0057    0.0139    0.0241   -0.0065   -0.0171   -0.0131
          30   -0.0029    0.0050    0.0027    0.0041   -0.0072    0.0026    0.0018   -0.0025
          31   -0.0090   -0.0067   -0.0081    0.0081    0.0376   -0.0036   -0.0066   -0.0038
          32    0.0160   -0.0108    0.0125   -0.0142   -0.0198    0.0048    0.0217    0.0267
          33   -0.0026    0.0059    0.0008    0.0056   -0.0031    0.0005   -0.0023   -0.0060
          34   -0.0192   -0.0149   -0.0007    0.0001    0.0111    0.0034    0.0039   -0.0013
          35    0.0319    0.0227    0.0093    0.0020    0.0085    0.0041    0.0113    0.0148
          36   -0.0049    0.0086    0.0047    0.0045   -0.0128    0.0049    0.0018   -0.0079
          37    0.0007    0.0005    0.0090   -0.0016    0.0181   -0.0052    0.0011    0.0186
          38    0.0002   -0.0041    0.0082   -0.0329    0.0245    0.0034    0.0219   -0.0015
          39    0.0085   -0.0068   -0.0165    0.0123   -0.0023    0.0038    0.0115   -0.0011
          40   -0.0016    0.0277    0.0536    0.0101   -0.0292   -0.0112   -0.0409    0.0240
          41   -0.0179    0.0146    0.0381    0.0488   -0.0051   -0.0016   -0.0266    0.0206
          42    0.0177   -0.0154   -0.0283   -0.0334    0.0104    0.0042    0.0376   -0.0143
          43    0.0349    0.0113   -0.0263   -0.0167   -0.0229   -0.0194   -0.0061    0.0059
          44   -0.0038   -0.0009    0.0054   -0.0002    0.0123    0.0109    0.0098    0.0003
          45    0.0326   -0.0266   -0.0619   -0.0639    0.0207    0.0093    0.0635   -0.0285
          46   -0.0108    0.0044   -0.0100   -0.0087   -0.0105   -0.0030   -0.0039   -0.0113
          47    0.0102   -0.0050    0.0151    0.0307    0.0114    0.0181    0.0147    0.0092
          48    0.0173   -0.0184   -0.0216    0.1009   -0.0519    0.0390    0.0021   -0.0237
          49    0.0207   -0.0306   -0.0121    0.0822   -0.0503    0.0302    0.0015   -0.0271
          50   -0.0120    0.0153    0.0102    0.0293   -0.0035    0.0215   -0.0026   -0.0024
          51    0.0081   -0.0068   -0.0178    0.0462   -0.0203    0.0174    0.0061   -0.0082
          52   -0.0247    0.0050   -0.0139   -0.0426   -0.0065   -0.0224   -0.0180   -0.0206
          53    0.0163   -0.0375    0.0126    0.0336    0.0011    0.0103   -0.0047   -0.0092
          54   -0.0570    0.0861   -0.0273   -0.0429    0.0042    0.0013    0.0091    0.0066
          55   -0.0330    0.0246   -0.0344   -0.0051   -0.0327    0.0014    0.0075   -0.0222
          56   -0.0566    0.0613   -0.0134   -0.0460    0.0111   -0.0001    0.0112   -0.0003
          57   -0.0404    0.0605   -0.0151   -0.0410    0.0115   -0.0051   -0.0031    0.0054
          58    0.0331   -0.0652    0.0243   -0.0050    0.0025   -0.0268   -0.0555   -0.0211
          59   -0.0111   -0.0165   -0.0080    0.0017    0.0016    0.0024    0.0127   -0.0173
          60    0.0199   -0.0316    0.0199   -0.0116    0.0203   -0.0183   -0.0420   -0.0027
          61   -0.0165    0.0127   -0.0150   -0.0073   -0.0150   -0.0024    0.0003   -0.0106
          62   -0.0159   -0.0224   -0.0033   -0.0118   -0.0078   -0.0087   -0.0220   -0.0309
          63    0.0421   -0.0642    0.0367   -0.0093    0.0290   -0.0269   -0.0614   -0.0071
          64    0.0323    0.0347    0.0361    0.0005    0.0251    0.0338    0.0194   -0.0791
          65   -0.0458   -0.0143   -0.0326    0.0110   -0.0271   -0.0274   -0.0209    0.0757
          66    0.0138   -0.0010    0.0060    0.0003    0.0207    0.0040    0.0062   -0.0182
          67   -0.0124   -0.0067    0.0169   -0.0079   -0.0108    0.0173    0.0232    0.0015
          68   -0.0483   -0.0238   -0.0274    0.0045   -0.0271   -0.0208   -0.0100    0.0664
          69   -0.0300   -0.0228   -0.0298    0.0078   -0.0183   -0.0316   -0.0159    0.0968
          70    0.0375   -0.0023   -0.0560   -0.0194    0.0032   -0.0005    0.0187    0.0113
          71    0.0462    0.0006   -0.0646   -0.0674   -0.0302    0.1396   -0.1013    0.0106
          72   -0.0133    0.0079    0.0584   -0.0102   -0.0172   -0.0023   -0.0123   -0.0050
          73    0.0007    0.0137    0.0243    0.0042   -0.0045    0.0187   -0.0228    0.0305
          74    0.0240    0.0128   -0.0093    0.0043   -0.0359   -0.1069    0.0269   -0.0386
          75   -0.0330    0.0180    0.1051    0.0332   -0.0220   -0.1307    0.0477   -0.0273
          76    0.0268    0.0183    0.0004   -0.0089   -0.0370   -0.0525   -0.0091   -0.0040
          77    0.0236    0.0123   -0.0104    0.0021   -0.0345   -0.0960    0.0220   -0.0356
          78   -0.0008    0.0038    0.0329   -0.0528   -0.0208    0.1397   -0.0955    0.0223
          79    0.0146    0.0112   -0.0071    0.0119    0.0369   -0.0018    0.0113    0.0365
          80   -0.0176   -0.0517    0.0068   -0.0208   -0.0054   -0.0025   -0.0069   -0.0279
          81    0.0050   -0.0042   -0.0044    0.0041    0.0131   -0.0067   -0.0012    0.0141
          82   -0.0176   -0.0114    0.0194   -0.0121   -0.0339    0.0223    0.0336    0.0088
          83    0.0223    0.0488   -0.0097    0.0284    0.0570   -0.0110   -0.0423   -0.0540
          84   -0.0039    0.0080    0.0058    0.0035   -0.0144    0.0061    0.0042   -0.0073
          85   -0.0124   -0.0093   -0.0163    0.0134    0.0616   -0.0108   -0.0202   -0.0137
          86    0.0218   -0.0224    0.0190   -0.0252   -0.0432    0.0073    0.0381    0.0514
          87   -0.0036    0.0120    0.0016    0.0081   -0.0033    0.0026   -0.0034   -0.0122
          88   -0.0310   -0.0254   -0.0052   -0.0012    0.0054    0.0002    0.0008    0.0007
          89    0.0587    0.0449    0.0186    0.0052    0.0237    0.0101    0.0173    0.0110
          90   -0.0085    0.0134    0.0093    0.0037   -0.0256    0.0101    0.0057   -0.0121


   Root No.       9        10        11        12        13        14        15        16

                 9 A      10 A      11 A      12 A      13 A      14 A      15 A      16 A   

                 327.2     342.2     365.0     454.9     494.2     538.7     573.3     628.2
  
           1   -0.0015   -0.0006   -0.0017   -0.0221   -0.0084    0.0093    0.0035   -0.0336
           2    0.0051    0.0084    0.0003    0.0199   -0.0058   -0.0194   -0.0061   -0.0093
           3    0.0258    0.0131    0.0110   -0.0034   -0.0141    0.0045   -0.0353    0.0049
           4   -0.0060    0.0111   -0.0006   -0.0170   -0.0101    0.0126    0.0002   -0.0337
           5   -0.0035    0.0194   -0.0164   -0.0164    0.0084    0.0164    0.0010    0.0083
           6    0.0102    0.0121    0.0062   -0.0004    0.0472   -0.0008    0.0030   -0.0302
           7    0.0006    0.0083   -0.0227   -0.0165    0.0022    0.0053    0.0020   -0.0007
           8    0.0069    0.0141   -0.0049    0.0255   -0.0044   -0.0304   -0.0136    0.0004
           9   -0.0173   -0.0115   -0.0149    0.0004    0.0047   -0.0066   -0.0074    0.0027
          10    0.0022    0.0056   -0.0125   -0.0161   -0.0078    0.0222    0.0006    0.0117
          11   -0.0178    0.0093   -0.0157   -0.0152   -0.0277    0.0081   -0.0003    0.0028
          12   -0.0075   -0.0098    0.0049    0.0102    0.0058   -0.0120   -0.0035   -0.0123
          13   -0.0169    0.0255    0.0159    0.0188   -0.0020   -0.0056   -0.0023    0.0052
          14    0.0064    0.0276   -0.0081   -0.0079    0.0404    0.0174    0.0034    0.0203
          15   -0.0242    0.0054   -0.0063   -0.0013    0.0067    0.0046    0.0001    0.0064
          16    0.0155    0.0124   -0.0135   -0.0041    0.0082    0.0038   -0.0026    0.0124
          17   -0.0069    0.0133   -0.0141    0.0028   -0.0158   -0.0187   -0.0035   -0.0063
          18   -0.0116   -0.0110   -0.0015   -0.0013   -0.0005    0.0008    0.0002   -0.0016
          19   -0.0013   -0.0202    0.0037    0.0023    0.0101   -0.0010   -0.0455   -0.0067
          20   -0.0175   -0.0177    0.0005    0.0022    0.0060   -0.0095   -0.0110   -0.0107
          21    0.0155   -0.0050    0.0095   -0.0021   -0.0080    0.0142   -0.0393    0.0371
          22   -0.0225    0.0278    0.0177    0.0245   -0.0043   -0.0089   -0.0044    0.0088
          23    0.0253   -0.0257   -0.0065   -0.0117    0.0016    0.0042    0.0010   -0.0039
          24    0.0024   -0.0092    0.0001   -0.0018   -0.0062    0.0005   -0.0011   -0.0007
          25    0.0176   -0.0119   -0.0100   -0.0087   -0.0037   -0.0236    0.0475    0.0037
          26    0.0006   -0.0006    0.0390    0.0195   -0.0096    0.0299    0.0240   -0.0121
          27    0.0206    0.0213   -0.0025   -0.0071   -0.0209   -0.0064   -0.0515   -0.0141
          28   -0.0019   -0.0271   -0.0065    0.0156    0.0147   -0.0026   -0.0484   -0.0076
          29   -0.0172   -0.0152    0.0291   -0.0242    0.0094   -0.0083   -0.0251   -0.0006
          30    0.0019   -0.0025    0.0045    0.0047   -0.0004    0.0013    0.0603    0.0217
          31    0.0139   -0.0116    0.0064    0.0195   -0.0091    0.0089    0.0441   -0.0029
          32    0.0095   -0.0037    0.0151   -0.0232   -0.0035   -0.0216    0.0328    0.0039
          33    0.0034    0.0117   -0.0034    0.0029   -0.0114    0.0000    0.0472   -0.0239
          34   -0.0004   -0.0260    0.0257   -0.0072    0.0111   -0.0071    0.0094    0.0313
          35    0.0091   -0.0218   -0.0174    0.0355    0.0029    0.0138    0.0059    0.0102
          36   -0.0058   -0.0013    0.0014    0.0005    0.0029   -0.0020    0.0312   -0.0001
          37    0.0089    0.0086    0.0040   -0.0220   -0.0289    0.0098   -0.0182   -0.0480
          38   -0.0107    0.0279   -0.0231   -0.0261    0.0165    0.0327    0.0012    0.0264
          39    0.0058    0.0105    0.0053    0.0025    0.0512   -0.0020    0.0080   -0.0269
          40    0.0014    0.0253    0.0232    0.0293    0.0049   -0.0171   -0.0018    0.0105
          41    0.0389    0.0473    0.0061   -0.0022    0.1091    0.0175    0.0096   -0.0078
          42   -0.0302    0.0032   -0.0086   -0.0035   -0.0021    0.0065   -0.0008    0.0078
          43   -0.0201    0.0134    0.0198    0.0276   -0.0121   -0.0143   -0.0048    0.0105
          44   -0.0099    0.0261   -0.0184   -0.0184    0.0149    0.0258    0.0019    0.0279
          45   -0.0604   -0.0103   -0.0224   -0.0125   -0.0545    0.0116   -0.0054    0.0280
          46    0.0095    0.0131   -0.0134   -0.0138    0.0124    0.0167    0.0022    0.0002
          47   -0.0246    0.0081   -0.0099   -0.0247   -0.0348    0.0196    0.0017   -0.0213
          48   -0.0213   -0.0314    0.0004    0.0146   -0.0495   -0.0078   -0.0125    0.0569
          49   -0.0088   -0.0121   -0.0140   -0.0142   -0.0565    0.0319   -0.0078    0.0742
          50   -0.0311   -0.0064   -0.0190   -0.0146   -0.0702    0.0100   -0.0048    0.0380
          51   -0.0064   -0.0087    0.0051    0.0100    0.0082   -0.0112   -0.0036   -0.0122
          52    0.0241    0.0153   -0.0156    0.0065    0.0186   -0.0087   -0.0081    0.0223
          53   -0.0142    0.0109   -0.0180    0.0063   -0.0163   -0.0282   -0.0118   -0.0227
          54   -0.0068   -0.0093    0.0040   -0.0106   -0.0051    0.0178    0.0125    0.0138
          55    0.0277    0.0155   -0.0008    0.0083    0.0139   -0.0037   -0.0015    0.0109
          56    0.0006    0.0171   -0.0102   -0.0047   -0.0201   -0.0057    0.0071    0.0143
          57   -0.0109   -0.0100   -0.0031   -0.0090   -0.0041    0.0102    0.0059    0.0105
          58   -0.0320   -0.0054   -0.0626   -0.0174    0.0315   -0.0136    0.0273    0.0180
          59    0.0449    0.0364    0.0206    0.0324   -0.0211   -0.0294   -0.0519    0.0081
          60   -0.0385   -0.0230   -0.0329   -0.0025    0.0173   -0.0106    0.0119    0.0037
          61    0.0186    0.0169   -0.0076   -0.0125   -0.0065    0.0114   -0.0107    0.0009
          62   -0.0098    0.0071   -0.0257    0.0331    0.0173   -0.0373    0.0045    0.0250
          63   -0.0530   -0.0282   -0.0487   -0.0037    0.0278   -0.0202    0.0203    0.0096
          64    0.0030   -0.0073    0.0418   -0.0178    0.0180   -0.0449   -0.0122    0.0189
          65   -0.0469   -0.0521   -0.0227    0.0008    0.0185    0.0284    0.0088   -0.0246
          66    0.0382    0.0216    0.0266   -0.0003   -0.0175   -0.0145   -0.0573    0.0468
          67   -0.0005   -0.0265   -0.0165    0.0295    0.0111    0.0109   -0.0509   -0.0080
          68   -0.0269   -0.0355   -0.0275    0.0232    0.0081    0.0214   -0.0187   -0.0200
          69   -0.0116   -0.0401   -0.0214   -0.0055   -0.0030    0.0691   -0.0510    0.0141
          70   -0.0444    0.0428    0.0143    0.0288    0.0089   -0.0073   -0.0044    0.0213
          71    0.0442   -0.0383   -0.0008   -0.0144   -0.0095   -0.0012    0.0005   -0.0233
          72    0.0066   -0.0123    0.0006   -0.0029   -0.0090    0.0004   -0.0011   -0.0032
          73   -0.0248    0.0592    0.0204    0.0300    0.0222   -0.0007   -0.0035    0.0350
          74    0.0263   -0.0488   -0.0098   -0.0162   -0.0181   -0.0004    0.0004   -0.0202
          75    0.0010   -0.0143   -0.0027   -0.0032   -0.0114    0.0018   -0.0012    0.0011
          76   -0.0016   -0.0180    0.0188    0.0174   -0.0446   -0.0210   -0.0065   -0.0287
          77    0.0260   -0.0447   -0.0092   -0.0148   -0.0143    0.0001    0.0004   -0.0167
          78    0.0249   -0.0177    0.0070   -0.0038   -0.0151   -0.0031   -0.0018   -0.0150
          79    0.0333   -0.0156   -0.0388   -0.0017   -0.0052   -0.0743    0.0213    0.0397
          80   -0.0056   -0.0021    0.1026    0.0151   -0.0151    0.1159    0.0161   -0.0243
          81    0.0281    0.0186   -0.0045   -0.0038   -0.0227   -0.0161   -0.0684    0.0043
          82   -0.0054   -0.0246   -0.0304    0.0302    0.0177   -0.0211   -0.0167   -0.0410
          83   -0.0348   -0.0145    0.0659   -0.0569    0.0150    0.0138   -0.0614   -0.0078
          84   -0.0040   -0.0010   -0.0015    0.0059    0.0025   -0.0043    0.0696    0.0011
          85    0.0258   -0.0003   -0.0074    0.0624   -0.0284    0.0239    0.0197   -0.0286
          86    0.0125    0.0044    0.0425   -0.1049   -0.0022   -0.0502    0.0160    0.0133
          87   -0.0029    0.0031   -0.0090    0.0197   -0.0037    0.0059    0.0642   -0.0167
          88   -0.0057   -0.0207    0.0423   -0.0388    0.0116   -0.0375    0.0269    0.0354
          89    0.0235   -0.0313   -0.0542    0.1069   -0.0014    0.0821   -0.0198    0.0004
          90   -0.0195   -0.0106    0.0001   -0.0067    0.0195   -0.0104   -0.0371   -0.0029


   Root No.      17        18        19        20        21        22        23        24

                17 A      18 A      19 A      20 A      21 A      22 A      23 A      24 A   

                 638.9     747.9     771.6     798.0     812.8     828.5     884.4     887.2
  
           1    0.0066   -0.0021    0.0030   -0.0035    0.0021   -0.0011    0.0106   -0.0071
           2   -0.0286    0.0054   -0.0032    0.0101   -0.0036    0.0030    0.0008    0.0050
           3    0.0006   -0.0036    0.0022   -0.0004    0.0012   -0.0003    0.0047   -0.0001
           4   -0.0091   -0.0114   -0.0093    0.0232   -0.0111    0.0118    0.0071   -0.0107
           5   -0.0145   -0.0001   -0.0055    0.0047   -0.0024    0.0033   -0.0051   -0.0033
           6    0.0135   -0.0066    0.0046    0.0144   -0.0090    0.0068    0.0107   -0.0106
           7    0.0403   -0.0127    0.0054   -0.0123    0.0057   -0.0070    0.0200    0.0139
           8   -0.0020    0.0147   -0.0092    0.0095   -0.0049    0.0019   -0.0020   -0.0282
           9   -0.0210    0.0012   -0.0170   -0.0019    0.0011   -0.0102    0.0187   -0.0158
          10   -0.0363   -0.0022   -0.0125    0.0129   -0.0087    0.0010   -0.0179    0.0029
          11    0.0136   -0.0086   -0.0045    0.0083   -0.0073   -0.0019   -0.0082    0.0053
          12    0.0165   -0.0016   -0.0053   -0.0032    0.0049    0.0122   -0.0110    0.0067
          13   -0.0003    0.0007   -0.0008   -0.0006    0.0019    0.0039    0.0008   -0.0010
          14   -0.0116    0.0046    0.0007   -0.0176    0.0154    0.0090    0.0057    0.0025
          15    0.0001    0.0010    0.0066   -0.0012   -0.0077   -0.0225   -0.0023    0.0044
          16    0.0044    0.0006   -0.0081   -0.0056    0.0023   -0.0020   -0.0056    0.0000
          17    0.0589   -0.0038    0.0025   -0.0049   -0.0005   -0.0037    0.0008   -0.0037
          18   -0.0143   -0.0019   -0.0199   -0.0044    0.0038   -0.0062   -0.0046    0.0073
          19    0.0005    0.0089    0.0050   -0.0131   -0.0042    0.0002   -0.0117   -0.0112
          20   -0.0190   -0.0122    0.0028    0.0121    0.0166   -0.0039    0.0152    0.0296
          21    0.0213   -0.0129   -0.0019    0.0047   -0.0063    0.0044   -0.0134   -0.0032
          22   -0.0003    0.0018    0.0000    0.0015   -0.0003    0.0003   -0.0023   -0.0007
          23   -0.0019    0.0003   -0.0003   -0.0042    0.0043    0.0028    0.0029    0.0019
          24    0.0001    0.0000    0.0005   -0.0000   -0.0011   -0.0051   -0.0022    0.0028
          25   -0.0033    0.0166    0.0007   -0.0023    0.0123   -0.0052   -0.0065   -0.0061
          26   -0.0038   -0.0097    0.0068   -0.0162   -0.0171    0.0051    0.0023    0.0106
          27   -0.0136    0.0084    0.0128   -0.0038    0.0119   -0.0011   -0.0058    0.0189
          28   -0.0037    0.0064    0.0048   -0.0052    0.0023   -0.0014    0.0022    0.0084
          29   -0.0048   -0.0134    0.0067   -0.0080    0.0093   -0.0046   -0.0074   -0.0113
          30    0.0112   -0.0050   -0.0104    0.0137   -0.0067    0.0037    0.0069   -0.0001
          31   -0.0006    0.0097    0.0042   -0.0038    0.0130   -0.0052   -0.0070    0.0002
          32   -0.0079    0.0021    0.0039   -0.0177   -0.0166    0.0049   -0.0009    0.0084
          33   -0.0114    0.0154    0.0093   -0.0175    0.0071   -0.0047   -0.0101    0.0001
          34    0.0139   -0.0028   -0.0102    0.0148   -0.0080    0.0046    0.0124    0.0096
          35    0.0045   -0.0219    0.0008    0.0058    0.0098   -0.0025   -0.0060   -0.0147
          36    0.0007    0.0027   -0.0023    0.0004   -0.0023    0.0001    0.0031   -0.0010
          37   -0.0080   -0.0148   -0.0111    0.0324   -0.0122    0.0176    0.0223   -0.0197
          38   -0.0263    0.0043    0.0018    0.0010   -0.0094   -0.0267    0.0016   -0.0106
          39    0.0144   -0.0054    0.0047    0.0103   -0.0067    0.0087    0.0055   -0.0067
          40   -0.0005    0.0031    0.0139    0.0087   -0.0391   -0.0776   -0.0307    0.0240
          41   -0.0009   -0.0000    0.0288    0.0164   -0.0428   -0.0873   -0.0016    0.0021
          42   -0.0005    0.0010    0.0011   -0.0058    0.0054    0.0020    0.0040   -0.0002
          43    0.0057    0.0042   -0.0040   -0.0168    0.0306    0.0484    0.0198   -0.0072
          44   -0.0204    0.0038   -0.0125   -0.0244    0.0313    0.0402    0.0048    0.0004
          45   -0.0100    0.0034   -0.0235   -0.0348    0.0591    0.0934    0.0190   -0.0064
          46   -0.0185   -0.0095   -0.0431    0.0055   -0.0033    0.0088   -0.0546    0.0250
          47   -0.0092   -0.0159    0.0115    0.0488   -0.0312    0.0106    0.0192   -0.0220
          48   -0.0151    0.0319    0.0730   -0.0289    0.0166   -0.0288    0.0725   -0.0323
          49   -0.0805    0.0305    0.0722    0.0058   -0.0081   -0.0314    0.0749   -0.0542
          50   -0.0040    0.0017    0.0048   -0.0111    0.0008   -0.0362    0.0032    0.0144
          51    0.0153    0.0002    0.0041    0.0002    0.0031    0.0153   -0.0009   -0.0027
          52   -0.0105    0.0181    0.0105   -0.0046    0.0020   -0.0123    0.0503   -0.0573
          53    0.0747   -0.0199   -0.0902   -0.0349    0.0130   -0.0279   -0.0233    0.0211
          54   -0.0252    0.0096    0.0864    0.0325   -0.0128    0.0286   -0.0007    0.0033
          55    0.0110    0.0131    0.0301    0.0114   -0.0020    0.0361   -0.0518    0.0012
          56    0.0521    0.0128    0.1273    0.0350   -0.0196    0.0268    0.0324   -0.0316
          57   -0.0213    0.0042    0.0393    0.0132   -0.0056    0.0005    0.0256   -0.0086
          58    0.0533    0.0044    0.0995    0.0361   -0.0016    0.0512   -0.0608    0.0483
          59   -0.0147    0.0033   -0.0217    0.0158   -0.0055   -0.0050    0.0443   -0.0519
          60   -0.0148    0.0092    0.0093    0.0074   -0.0006    0.0057   -0.0158    0.0006
          61    0.0344   -0.0177   -0.0415   -0.0350    0.0094   -0.0334    0.0507   -0.0022
          62   -0.0104    0.0275   -0.0016    0.0235   -0.0089    0.0177   -0.0565   -0.0149
          63   -0.0125    0.0152    0.0652    0.0410   -0.0060    0.0398   -0.0526    0.0150
          64   -0.0121   -0.0504    0.0125    0.0192    0.0313   -0.0040    0.0057    0.0490
          65    0.0050    0.0285    0.0012   -0.0264   -0.0103   -0.0015   -0.0101   -0.0219
          66    0.0018   -0.0435   -0.0005    0.0341    0.0143    0.0025    0.0061    0.0367
          67   -0.0020    0.0426   -0.0024   -0.0142   -0.0231    0.0050   -0.0187   -0.0156
          68   -0.0089    0.0357   -0.0053   -0.0089   -0.0142    0.0012   -0.0027   -0.0075
          69    0.0542    0.0399   -0.0062   -0.0511   -0.0457    0.0068   -0.0456   -0.0949
          70   -0.0007    0.0053    0.0181    0.0026   -0.0331   -0.0888   -0.0302    0.0297
          71    0.0045   -0.0058   -0.0004    0.0181   -0.0166   -0.0101   -0.0045   -0.0055
          72    0.0001   -0.0007   -0.0035   -0.0007    0.0067    0.0151    0.0042   -0.0038
          73   -0.0106    0.0110   -0.0071   -0.0380    0.0525    0.0655    0.0250   -0.0026
          74    0.0033   -0.0055   -0.0008    0.0175   -0.0176   -0.0134   -0.0066   -0.0038
          75   -0.0024    0.0005   -0.0094   -0.0086    0.0238    0.0465    0.0143   -0.0105
          76    0.0112   -0.0104   -0.0080    0.0442   -0.0304    0.0032   -0.0122   -0.0228
          77    0.0023   -0.0041   -0.0007    0.0136   -0.0144   -0.0128   -0.0066   -0.0017
          78    0.0034   -0.0040   -0.0080    0.0082    0.0073    0.0344    0.0091   -0.0148
          79   -0.0352   -0.0187    0.0006   -0.0377   -0.0746    0.0214    0.0184    0.0382
          80    0.0526    0.0369    0.0139    0.0463    0.1240   -0.0387   -0.0371   -0.0302
          81   -0.0191   -0.0017    0.0144   -0.0097   -0.0063    0.0042   -0.0002    0.0354
          82   -0.0402   -0.0565    0.0282   -0.0124    0.0600   -0.0238   -0.0024   -0.0086
          83    0.0333    0.1610   -0.0266   -0.0289   -0.0993    0.0291    0.0210    0.0326
          84   -0.0013   -0.0036   -0.0043    0.0053    0.0027   -0.0018    0.0105   -0.0009
          85   -0.0355   -0.0520    0.0346   -0.0678   -0.0446    0.0155   -0.0113    0.0353
          86    0.0231    0.1255   -0.0141    0.0539    0.0937   -0.0320   -0.0210    0.0017
          87   -0.0097   -0.0107    0.0043   -0.0212   -0.0151    0.0021   -0.0000   -0.0116
          88   -0.0064   -0.0642    0.0058   -0.0102   -0.0004   -0.0003   -0.0201   -0.0429
          89    0.0492    0.1174   -0.0344    0.0603   -0.0070    0.0083    0.0651    0.1040
          90   -0.0031   -0.0142    0.0006    0.0006   -0.0008   -0.0012    0.0079   -0.0120


   Root No.      25        26        27        28        29        30        31        32

                25 A      26 A      27 A      28 A      29 A      30 A      31 A      32 A   

                 929.0     963.0     976.6     992.7    1006.2    1009.2    1031.7    1037.0
  
           1    0.0020   -0.0184   -0.0001    0.0117   -0.0052   -0.0066   -0.0219    0.0031
           2   -0.0027   -0.0008    0.0033   -0.0092   -0.0006   -0.0052   -0.0027   -0.0007
           3    0.0066    0.0002    0.0005   -0.0062   -0.0024    0.0079   -0.0010    0.0089
           4    0.0010   -0.0192    0.0043    0.0083    0.0084   -0.0141   -0.0030    0.0057
           5   -0.0012    0.0094   -0.0022    0.0023    0.0136    0.0086   -0.0067   -0.0016
           6   -0.0045    0.0178   -0.0030    0.0000   -0.0031   -0.0042    0.0058   -0.0058
           7   -0.0027    0.0043    0.0032   -0.0167    0.0117    0.0024    0.0203    0.0074
           8    0.0012   -0.0126    0.0000    0.0126   -0.0017   -0.0038    0.0072    0.0043
           9   -0.0075   -0.0009   -0.0011   -0.0058   -0.0080    0.0131   -0.0043   -0.0103
          10   -0.0025    0.0094   -0.0048   -0.0064   -0.0281    0.0063   -0.0065   -0.0162
          11   -0.0032    0.0090   -0.0024   -0.0107   -0.0089    0.0070    0.0211    0.0007
          12    0.0007   -0.0137    0.0008   -0.0057    0.0071    0.0109   -0.0017    0.0010
          13   -0.0000   -0.0013   -0.0002    0.0012    0.0023   -0.0004   -0.0001   -0.0004
          14    0.0024   -0.0133    0.0016    0.0013    0.0130    0.0049   -0.0061   -0.0022
          15    0.0015   -0.0001    0.0001    0.0018   -0.0085   -0.0075   -0.0012    0.0089
          16    0.0014    0.0031   -0.0005    0.0042    0.0043    0.0012   -0.0022    0.0015
          17    0.0012    0.0051   -0.0030    0.0072   -0.0150   -0.0023   -0.0263   -0.0177
          18    0.0008    0.0023    0.0044    0.0072    0.0080   -0.0119    0.0021    0.0134
          19   -0.0066   -0.0004   -0.0069    0.0040    0.0031   -0.0058    0.0041   -0.0062
          20   -0.0269    0.0015    0.0140   -0.0004    0.0036   -0.0043   -0.0074   -0.0072
          21   -0.0608   -0.0038   -0.0021    0.0078    0.0045   -0.0121    0.0007   -0.0089
          22   -0.0023    0.0133   -0.0015   -0.0012    0.0039    0.0056   -0.0020   -0.0004
          23    0.0022   -0.0154    0.0031   -0.0016   -0.0184   -0.0118    0.0071    0.0012
          24    0.0019   -0.0169    0.0034   -0.0024    0.0010    0.0019    0.0035   -0.0055
          25   -0.0207    0.0033    0.0186    0.0064   -0.0037    0.0086    0.0078    0.0021
          26   -0.0011   -0.0012   -0.0312   -0.0116    0.0056   -0.0083   -0.0064   -0.0003
          27    0.0652    0.0072    0.0037    0.0061    0.0004   -0.0018    0.0010   -0.0063
          28   -0.0142    0.0066    0.0111   -0.0097   -0.0016    0.0047   -0.0012    0.0018
          29    0.0032   -0.0004   -0.0310    0.0089   -0.0058    0.0119    0.0106    0.0114
          30    0.0340   -0.0033    0.0047    0.0025    0.0014   -0.0039   -0.0020   -0.0038
          31   -0.0066    0.0024   -0.0166   -0.0132    0.0049   -0.0056   -0.0013   -0.0019
          32   -0.0105    0.0038    0.0226    0.0200   -0.0059    0.0114    0.0088    0.0014
          33   -0.0362    0.0033   -0.0080   -0.0050    0.0019   -0.0019    0.0003   -0.0001
          34    0.0416   -0.0030   -0.0062    0.0079   -0.0059    0.0066   -0.0019    0.0075
          35    0.0305    0.0027    0.0209   -0.0231    0.0051   -0.0104   -0.0104   -0.0030
          36    0.0024    0.0004   -0.0006   -0.0010   -0.0018    0.0045    0.0019    0.0035
          37    0.0035   -0.0636    0.0218    0.0122    0.0267   -0.0340   -0.0028    0.0315
          38   -0.0006    0.0709   -0.0047    0.0345    0.0308   -0.0173   -0.0486    0.0650
          39   -0.0049    0.0233   -0.0080   -0.0047   -0.0105    0.0052    0.0092   -0.0219
          40    0.0111   -0.0640    0.0029   -0.0116    0.0171    0.0231    0.0023   -0.0243
          41   -0.0017    0.0405   -0.0014    0.0168   -0.0324   -0.0374   -0.0113    0.0459
          42   -0.0003    0.0066   -0.0001    0.0026   -0.0063   -0.0073   -0.0013    0.0088
          43   -0.0059    0.0457   -0.0044   -0.0066   -0.0797   -0.0403    0.0356    0.0149
          44    0.0055   -0.0505    0.0044    0.0046    0.0839    0.0417   -0.0306   -0.0221
          45    0.0009   -0.0212    0.0013   -0.0014    0.0351    0.0181   -0.0068   -0.0134
          46    0.0001    0.0099   -0.0080   -0.0113   -0.0515    0.0219   -0.0478   -0.0174
[...]

 VIBRATION   65   65A         ATOM PAIR      ENERGY CONTRIBUTION    RADIAL
 FREQ.      1847.94         C 10 -- C 12         +24.2% ( 73.2%)     99.1%
 T-DIPOLE    0.3319         C  9 -- C 11         +19.6% ( 66.0%)     98.6%
 TRAVEL      0.0553         C 11 -- C 12         +16.7% ( 60.8%)     99.0%
 RED. MASS   2.9035         C 12 -- H 30          +7.9% ( 41.8%)      2.0%
 EFF. MASS  11.9507

 VIBRATION   66   66A         ATOM PAIR      ENERGY CONTRIBUTION    RADIAL
 FREQ.      1862.08         C  9 -- C 11         +24.8% ( 72.8%)     99.6%
 T-DIPOLE    0.3677         C 10 -- C 12         +20.0% ( 65.5%)     99.1%
 TRAVEL      0.0554         C 11 -- C 12         +12.4% ( 51.5%)      0.4%
 RED. MASS   2.7229         C  1 -- C  9          +8.5% ( 42.5%)     51.7%
 EFF. MASS  11.7804

 VIBRATION   67   67A         ATOM PAIR      ENERGY CONTRIBUTION    RADIAL
 FREQ.      2860.82         C  2 -- H 13         +96.2% ( 99.7%)    100.0%
 T-DIPOLE    0.0402         C  2 -- C  4          +1.0% ( 10.4%)      8.6%
 TRAVEL      0.1277         C  2 -- C  5          +1.0% ( 10.4%)      8.3%
 RED. MASS   0.9190         C  1 -- C  2          +1.0% ( 10.3%)      8.1%
 EFF. MASS   1.4447

 VIBRATION   68   68A         ATOM PAIR      ENERGY CONTRIBUTION    RADIAL
 FREQ.      2922.36         C  7 -- H 23         +57.3% ( 78.6%)     97.4%
 T-DIPOLE    0.0695         C  7 -- H 22         +39.1% ( 64.9%)     95.5%
 TRAVEL      0.1223         C  7 -- C 10          +1.1% ( 11.1%)      0.0%
 RED. MASS   0.5216         C  1 -- C  7          +1.1% ( 11.0%)      0.2%
 EFF. MASS   1.5417

 VIBRATION   69   69A         ATOM PAIR      ENERGY CONTRIBUTION    RADIAL
 FREQ.      2943.83         C  5 -- H 14         +48.5% ( 72.3%)     96.5%
 T-DIPOLE    0.0381         C  5 -- H 15         +47.6% ( 71.7%)     96.5%
 TRAVEL      0.1218         C  5 -- C  8          +1.2% ( 11.2%)      0.0%
 RED. MASS   0.5016         C  2 -- C  5          +1.1% ( 11.1%)      0.0%
 EFF. MASS   1.5434

 VIBRATION   70   70A         ATOM PAIR      ENERGY CONTRIBUTION    RADIAL
 FREQ.      2960.57         C  3 -- H 20         +26.3% ( 53.5%)     97.9%
 T-DIPOLE    0.0432         C  4 -- H 17         +17.6% ( 43.7%)     97.7%
 TRAVEL      0.1210         C  6 -- H 18         +15.5% ( 41.0%)     96.4%
 RED. MASS   0.1873         C  6 -- H 19         +14.1% ( 39.1%)     95.8%
 EFF. MASS   1.5565         C  3 -- H 21         +13.5% ( 38.4%)     93.8%

 VIBRATION   71   71A         ATOM PAIR      ENERGY CONTRIBUTION    RADIAL
 FREQ.      2966.58         C  4 -- H 17         +34.6% ( 61.0%)     97.8%
 T-DIPOLE    0.0301         C  3 -- H 20         +28.7% ( 55.5%)     98.1%
 TRAVEL      0.1218         C  4 -- H 16         +19.2% ( 45.5%)     94.4%
 RED. MASS   0.2782         C  3 -- H 21         +14.0% ( 38.9%)     93.9%
 EFF. MASS   1.5322

 VIBRATION   72   72A         ATOM PAIR      ENERGY CONTRIBUTION    RADIAL
 FREQ.      2982.62         C  6 -- H 18         +35.5% ( 61.6%)     96.8%
 T-DIPOLE    0.0540         C  6 -- H 19         +32.7% ( 59.1%)     96.3%
 TRAVEL      0.1218         C  4 -- H 17         +10.4% ( 33.3%)     98.1%
 RED. MASS   0.2756         C  3 -- H 20          +9.1% ( 31.2%)     98.5%
 EFF. MASS   1.5230

 VIBRATION   73   73A         ATOM PAIR      ENERGY CONTRIBUTION    RADIAL
 FREQ.      3000.90         C  7 -- H 22         +57.8% ( 75.1%)     98.6%
 T-DIPOLE    0.0852         C  7 -- H 23         +37.5% ( 60.5%)     96.1%
 TRAVEL      0.1322         C  3 -- H 21          +1.4% ( 11.9%)     98.6%
 RED. MASS   0.4719         C  7 -- C 10          +0.6% (  7.8%)     20.3%
 EFF. MASS   1.2854

 VIBRATION   74   74A         ATOM PAIR      ENERGY CONTRIBUTION    RADIAL
 FREQ.      3024.14         C  5 -- H 15         +49.1% ( 69.0%)     97.8%
 T-DIPOLE    0.0339         C  5 -- H 14         +47.9% ( 68.2%)     97.7%
 TRAVEL      0.1322         C  5 -- C  8          +0.6% (  7.8%)     25.8%
 RED. MASS   0.4674         C  2 -- C  5          +0.6% (  7.6%)     29.6%
 EFF. MASS   1.2759

 VIBRATION   75   75A         ATOM PAIR      ENERGY CONTRIBUTION    RADIAL
 FREQ.      3041.09         C  9 -- H 27         +81.6% ( 91.7%)    100.0%
 T-DIPOLE    0.3033         C 11 -- H 29         +14.7% ( 39.0%)     99.9%
 TRAVEL      0.1225         C  9 -- C 11          +1.2% ( 11.2%)      9.5%
 RED. MASS   0.6752         C  1 -- C  9          +1.2% ( 10.9%)     15.8%
 EFF. MASS   1.4778

 VIBRATION   76   76A         ATOM PAIR      ENERGY CONTRIBUTION    RADIAL
 FREQ.      3052.70         C  3 -- H 21         +61.8% ( 77.6%)     99.0%
 T-DIPOLE    0.0642         C  3 -- H 20         +29.1% ( 53.2%)     94.3%
 TRAVEL      0.1309         C  6 -- H 18          +3.4% ( 18.1%)     97.7%
 RED. MASS   0.4589         C  6 -- H 19          +3.2% ( 17.6%)     97.5%
 EFF. MASS   1.2894

 VIBRATION   77   77A         ATOM PAIR      ENERGY CONTRIBUTION    RADIAL
 FREQ.      3053.44         C  4 -- H 16         +59.3% ( 76.0%)     99.0%
 T-DIPOLE    0.0378         C  4 -- H 17         +31.4% ( 55.3%)     95.1%
 TRAVEL      0.1311         C  6 -- H 19          +3.2% ( 17.7%)     98.1%
 RED. MASS   0.4447         C  6 -- H 18          +2.7% ( 16.3%)     97.2%
 EFF. MASS   1.2856

 VIBRATION   78   78A         ATOM PAIR      ENERGY CONTRIBUTION    RADIAL
 FREQ.      3055.12         C 10 -- H 28         +60.0% ( 78.6%)    100.0%
 T-DIPOLE    0.2386         C 12 -- H 30         +33.7% ( 59.0%)    100.0%
 TRAVEL      0.1227         C 11 -- H 29          +1.8% ( 13.6%)     99.8%
 RED. MASS   0.4633         C 10 -- C 12          +1.1% ( 10.6%)      1.3%
 EFF. MASS   1.4661

 VIBRATION   79   79A         ATOM PAIR      ENERGY CONTRIBUTION    RADIAL
 FREQ.      3063.01         C  6 -- H 19         +45.2% ( 66.2%)     98.0%
 T-DIPOLE    0.0475         C  6 -- H 18         +40.8% ( 62.9%)     97.5%
 TRAVEL      0.1310         C  4 -- H 16          +4.6% ( 21.1%)     99.1%
 RED. MASS   0.3730         C  3 -- H 21          +3.8% ( 19.3%)     99.1%
 EFF. MASS   1.2826

 VIBRATION   80   80A         ATOM PAIR      ENERGY CONTRIBUTION    RADIAL
 FREQ.      3066.20         C 11 -- H 29         +62.0% ( 80.0%)    100.0%
 T-DIPOLE    0.3494         C 10 -- H 28         +15.1% ( 39.5%)     99.9%
 TRAVEL      0.1185         C  9 -- H 27         +11.3% ( 34.2%)     99.7%
 RED. MASS   0.4254         C 12 -- H 30          +7.9% ( 28.5%)     99.7%
 EFF. MASS   1.5655

 VIBRATION   81   81A         ATOM PAIR      ENERGY CONTRIBUTION    RADIAL
 FREQ.      3075.85         C  8 -- H 25         +56.7% ( 77.6%)     98.0%
 T-DIPOLE    0.0088         C  8 -- H 24         +40.3% ( 65.5%)     95.6%
 TRAVEL      0.1209         C  8 -- H 26          +1.6% ( 13.2%)     16.8%
 RED. MASS   0.5112         C  5 -- C  8          +1.0% ( 10.2%)      0.0%
 EFF. MASS   1.5007

 VIBRATION   82   82A         ATOM PAIR      ENERGY CONTRIBUTION    RADIAL
 FREQ.      3079.04         C 12 -- H 30         +55.0% ( 75.2%)    100.0%
 T-DIPOLE    0.3654         C 10 -- H 28         +20.9% ( 46.3%)     99.8%
 TRAVEL      0.1169         C 11 -- H 29         +17.9% ( 43.0%)    100.0%
 RED. MASS   0.3799         C  9 -- H 27          +2.3% ( 15.5%)     99.6%
 EFF. MASS   1.6025

 VIBRATION   83   83A         ATOM PAIR      ENERGY CONTRIBUTION    RADIAL
 FREQ.      3083.61         C  8 -- H 26         +60.2% ( 80.0%)     98.6%
 T-DIPOLE    0.0058         C  8 -- H 24         +26.2% ( 52.8%)     90.8%
 TRAVEL      0.1206         C  8 -- H 25         +12.2% ( 36.0%)     77.8%
 RED. MASS   0.4744         C  5 -- C  8          +1.0% ( 10.3%)      0.0%
 EFF. MASS   1.5036

 VIBRATION   84   84A         ATOM PAIR      ENERGY CONTRIBUTION    RADIAL
 FREQ.      3179.21         C  8 -- H 26         +37.7% ( 59.0%)     97.7%
 T-DIPOLE    0.0137         C  8 -- H 24         +32.4% ( 54.8%)     97.0%
 TRAVEL      0.1366         C  8 -- H 25         +29.6% ( 52.4%)     96.4%
 RED. MASS   0.3297         C  5 -- C  8          +0.3% (  5.1%)     99.1%
 EFF. MASS   1.1369

      SYMMETRY NUMBER FOR POINT-GROUP C1  =  1


          SYSTEM IS A GROUND STATE



 InChI=1S/C12H18/c1-2-11-7-6-10-12(11)8-4-3-5-9-12/h3-5,8,11H,2,6-7,9-10H2,1H3


          MOLECULE IS NOT LINEAR

          THERE ARE 84 GENUINE VIBRATIONS IN THIS SYSTEM
          THIS THERMODYNAMICS CALCULATION IS LIMITED TO
          MOLECULES WHICH HAVE NO INTERNAL ROTATIONS




                    CALCULATED THERMODYNAMIC PROPERTIES
                                          *
   TEMP. (K)   PARTITION FUNCTION   H.O.F.    ENTHALPY  HEAT CAPACITY ENTROPY
                                   KCAL/MOL   CAL/MOLE    CAL/K/MOL  CAL/K/MOL


 298.00  VIB.     0.1999D+04                  5495.3000    39.9883    33.5438
         ROT.     0.1089D+07                   888.2813     2.9808    30.6043
         INT.     0.2176D+10                  6383.5813    42.9692    64.1481
         TRA.     0.1998D+28                  1480.4688     4.9680    41.1588
         TOT.                        0.179    7864.0501    47.9372   105.3069

 200.00  VIB.     0.1016D+03                  2368.9315    24.3996    21.0284
         ROT.     0.5987D+06                   596.1620     2.9808    29.4156
         INT.     0.6085D+08                  2965.0935    27.3804    50.4440
         TRA.     0.1099D+28                   993.6033     4.9680    39.1777
         TOT.                       -3.726    3958.6967    32.3484    89.6217

 210.00  VIB.     0.1370D+03                  2619.9284    25.8080    22.2528
         ROT.     0.6441D+06                   625.9700     2.9808    29.5610
         INT.     0.8824D+08                  3245.8985    28.7888    51.8138
         TRA.     0.1182D+28                  1043.2834     4.9680    39.4201
         TOT.                       -3.396    4289.1819    33.7569    91.2339

 220.00  VIB.     0.1848D+03                  2885.2563    27.2657    23.4868
         ROT.     0.6907D+06                   655.7781     2.9808    29.6997
         INT.     0.1277D+09                  3541.0344    30.2465    53.1865
         TRA.     0.1268D+28                  1092.9636     4.9680    39.6512
         TOT.                       -3.051    4633.9980    35.2145    92.8377

 230.00  VIB.     0.2496D+03                  3165.4012    28.7711    24.7319
         ROT.     0.7383D+06                   685.5862     2.9808    29.8322
         INT.     0.1843D+09                  3850.9875    31.7519    54.5641
         TRA.     0.1355D+28                  1142.6437     4.9680    39.8720
         TOT.                       -2.691    4993.6312    36.7199    94.4361

 240.00  VIB.     0.3375D+03                  3460.8291    30.3217    25.9890
         ROT.     0.7870D+06                   715.3943     2.9808    29.9591
         INT.     0.2656D+09                  4176.2235    33.3025    55.9480
         TRA.     0.1444D+28                  1192.3239     4.9680    40.0835
         TOT.                       -2.316    5368.5474    38.2706    96.0315

 250.00  VIB.     0.4570D+03                  3771.9746    31.9140    27.2589
         ROT.     0.8367D+06                   745.2024     2.9808    30.0807
         INT.     0.3824D+09                  4517.1770    34.8948    57.3397
         TRA.     0.1536D+28                  1242.0041     4.9680    40.2863
         TOT.                       -1.926    5759.1811    39.8628    97.6259

 260.00  VIB.     0.6196D+03                  4099.2327    33.5435    28.5422
         ROT.     0.8874D+06                   775.0105     2.9808    30.1977
         INT.     0.5498D+09                  4874.2432    36.5243    58.7399
         TRA.     0.1629D+28                  1291.6842     4.9680    40.4811
         TOT.                       -1.519    6165.9275    41.4923    99.2210

 270.00  VIB.     0.8414D+03                  4442.9529    35.2055    29.8392
         ROT.     0.9391D+06                   804.8186     2.9808    30.3102
         INT.     0.7901D+09                  5247.7715    38.1863    60.1494
         TRA.     0.1724D+28                  1341.3644     4.9680    40.6686
         TOT.                       -1.096    6589.1359    43.1544   100.8180

 280.00  VIB.     0.1144D+04                  4803.4349    36.8950    31.1500
         ROT.     0.9917D+06                   834.6267     2.9808    30.4186
         INT.     0.1135D+10                  5638.0616    39.8758    61.5686
         TRA.     0.1820D+28                  1391.0445     4.9680    40.8493
         TOT.                       -0.656    7029.1061    44.8438   102.4179

 290.00  VIB.     0.1559D+04                  5180.9265    38.6066    32.4745
         ROT.     0.1045D+07                   864.4348     2.9808    30.5232
         INT.     0.1629D+10                  6045.3614    41.5874    62.9977
         TRA.     0.1919D+28                  1440.7247     4.9680    41.0236
         TOT.                       -0.199    7486.0861    46.5554   104.0213

 300.00  VIB.     0.2127D+04                  5575.6234    40.3352    33.8125
         ROT.     0.1100D+07                   894.2429     2.9808    30.6242
         INT.     0.2340D+10                  6469.8664    43.3160    64.4367
         TRA.     0.2019D+28                  1490.4049     4.9680    41.1921
         TOT.                        0.275    7960.2712    48.2840   105.6287

 310.00  VIB.     0.2908D+04                  5987.6694    42.0756    35.1634
         ROT.     0.1155D+07                   924.0510     2.9808    30.7220
         INT.     0.3359D+10                  6911.7204    45.0564    65.8853
         TRA.     0.2120D+28                  1540.0850     4.9680    41.3550
         TOT.                        0.767    8451.8054    50.0244   107.2403

 320.00  VIB.     0.3982D+04                  6417.1583    43.8230    36.5268
         ROT.     0.1212D+07                   953.8591     2.9808    30.8166
         INT.     0.4825D+10                  7371.0174    46.8038    67.3434
         TRA.     0.2224D+28                  1589.7652     4.9680    41.5127
         TOT.                        1.276    8960.7826    51.7718   108.8561

 330.00  VIB.     0.5464D+04                  6864.1367    45.5727    37.9021
         ROT.     0.1269D+07                   983.6672     2.9808    30.9083
         INT.     0.6933D+10                  7847.8040    48.5536    68.8104
         TRA.     0.2329D+28                  1639.4454     4.9680    41.6656
         TOT.                        1.802    9487.2493    53.5216   110.4760

 340.00  VIB.     0.7510D+04                  7328.6068    47.3206    39.2886
         ROT.     0.1327D+07                  1013.4753     2.9808    30.9973
         INT.     0.9966D+10                  8342.0821    50.3014    70.2859
         TRA.     0.2436D+28                  1689.1255     4.9680    41.8139
         TOT.                        2.346   10031.2077    55.2695   112.0997

 350.00  VIB.     0.1034D+05                  7810.5300    49.0627    40.6854
         ROT.     0.1386D+07                  1043.2834     2.9808    31.0837
         INT.     0.1433D+11                  8853.8134    52.0435    71.7691
         TRA.     0.2544D+28                  1738.8057     4.9680    41.9579
         TOT.                        2.908   10592.6191    57.0116   113.7270

 360.00  VIB.     0.1427D+05                  8309.8303    50.7955    42.0919
         ROT.     0.1446D+07                  1073.0915     2.9808    31.1677
         INT.     0.2063D+11                  9382.9218    53.7763    73.2595
         TRA.     0.2654D+28                  1788.4859     4.9680    42.0979
         TOT.                        3.487   11171.4076    58.7443   115.3574

 370.00  VIB.     0.1972D+05                  8826.3986    52.5158    43.5071
         ROT.     0.1506D+07                  1102.8996     2.9808    31.2493
         INT.     0.2970D+11                  9929.2982    55.4966    74.7565
         TRA.     0.2765D+28                  1838.1660     4.9680    42.2340
         TOT.                        4.083   11767.4642    60.4647   116.9904

 380.00  VIB.     0.2730D+05                  9360.0960    54.2209    44.9303
         ROT.     0.1568D+07                  1132.7077     2.9808    31.3288
         INT.     0.4280D+11                 10492.8037    57.2017    76.2591
         TRA.     0.2878D+28                  1887.8462     4.9680    42.3665
         TOT.                        4.696   12380.6499    62.1697   118.6256

 390.00  VIB.     0.3786D+05                  9910.7577    55.9083    46.3606
         ROT.     0.1630D+07                  1162.5158     2.9808    31.4063
         INT.     0.6172D+11                 11073.2735    58.8891    77.7668
         TRA.     0.2992D+28                  1937.5263     4.9680    42.4955
         TOT.                        5.326   13010.7999    63.8571   120.2623

 400.00  VIB.     0.5259D+05                 10478.1965    57.5760    47.7971
         ROT.     0.1693D+07                  1192.3239     2.9808    31.4817
         INT.     0.8906D+11                 11670.5204    60.5568    79.2788
         TRA.     0.3108D+28                  1987.2065     4.9680    42.6213
         TOT.                        5.973   13657.7269    65.5248   121.9001

   *: NOTE: HEATS OF FORMATION ARE RELATIVE TO THE
            ELEMENTS IN THEIR STANDARD STATE AT 298K
              (=  Standard Enthalpy of Formation).

            Hvib:  Zero-point energy is not included.
                   frequencies of less than zero cm-1 are not included.
            Hrot = (3/2)RT
            Htra = (3/2)RT + pV = (5/2)RT

            Heat capacity is Cp, not Cv

          For more information, see: HTTP://OpenMOPAC.net/Manual/thermochemistry.html


           FORCE CONSTANT IN CARTESIAN COORDINATES (Millidynes/A)

    ATOM   CHEMICAL       X               Y               Z
   NUMBER   SYMBOL  FORCE CONSTANT  FORCE CONSTANT  FORCE CONSTANT

      1       C        7.997279        7.953007        8.855912
      2       C        7.734683        8.634316        8.318893
      3       C        8.825075        7.304637        8.376447
      4       C        8.972388        7.655831        8.202547
      5       C        8.432244        8.168652        8.235991
      6       C        7.565280        9.010630        8.255271
      7       C        8.841954        8.283395        8.163875
      8       C        8.277752        8.356116        8.218588
      9       C       11.621924        6.433218        9.100284
     10       C        9.055367        3.803103       14.230125
     11       C       11.397333        5.943951       10.387794
     12       C        9.934187        3.941641       13.887300
     13       H        1.140161        0.785908        4.124442
     14       H        0.817327        0.742140        4.823369
     15       H        1.572130        3.300534        1.487799
     16       H        4.073407        1.272276        1.148966
     17       H        0.733216        0.952072        4.750465
     18       H        1.084519        2.905763        2.462637
     19       H        0.971122        1.516018        3.981189
     20       H        0.822067        1.097379        4.419619
     21       H        3.674836        0.869207        1.979249
     22       H        0.664659        2.449333        3.097266
     23       H        2.204211        3.087367        0.907972
     24       H        0.872285        0.675041        5.234792
     25       H        1.743866        3.507562        1.509857
     26       H        1.406403        4.053123        1.337326
     27       H        1.709419        0.634686        3.873554
     28       H        1.758851        0.568265        3.937455
     29       H        1.246460        1.060605        3.958583
     30       H        4.331952        1.167999        0.781687

 **********************
 *                    *
 * JOB ENDED NORMALLY *
 *                    *
 **********************



 TOTAL JOB TIME:            16.62 SECONDS

 == MOPAC DONE ==
