 *******************************************************************************
 ** Site#: 14399        For non-commercial use only    Version 18.184L 64BITS **
 *******************************************************************************
 ** Cite this program as: MOPAC2016, Version: 18.184L, James J. P. Stewart,   **
 ** Stewart Computational Chemistry, web: HTTP://OpenMOPAC.net. Days left:  19**
 *******************************************************************************
 **                                                                           **
 **                                MOPAC2016                                  **
 **                                                                           **
 *******************************************************************************

                              PM3 CALCULATION RESULTS

 *******************************************************************************
 *  CALCULATION DONE:                                Fri Jun 14 02:22:14 2019  *
 *  PM3        - The PM3 Hamiltonian to be used
 *  PRECISE    - CRITERIA TO BE INCREASED BY 100 TIMES
 *  NOSYM      - POINT-GROUP SYMMETRY SET TO C1
 *  THREADS=1  - MULTI-THREADING NOT USED
 *  T=         - A TIME OF 172800.0 SECONDS REQUESTED
 *  DUMP=N     - RESTART FILE WRITTEN EVERY  7200.000 SECONDS
 *******************************************************************************
pm3  precise nosym THREADS=1
 InChI=1S/C7H12O2/c8-9-7-5-3-1-2-4-6-7/h5,8H,1-4,6H2

   ATOM   CHEMICAL          X               Y               Z
  NUMBER   SYMBOL      (ANGSTROMS)     (ANGSTROMS)     (ANGSTROMS)
 
     1       O          2.57700000  *   0.34930000  *   0.72190000  *
     2       O          3.36670000  *  -0.73300000  *   0.74240000  *
     3       C         -1.70650000  *  -0.74910000  *  -0.37660000  *
     4       C         -0.41730000  *  -1.47650000  *   0.02980000  *
     5       C         -1.79000000  *   0.68660000  *   0.15920000  *
     6       C          0.83460000  *  -0.88710000  *  -0.63630000  *
     7       C         -0.75550000  *   1.62150000  *  -0.48210000  *
     8       C          1.33030000  *   0.34640000  *   0.08770000  *
     9       C          0.60260000  *   1.46950000  *   0.14470000  *
    10       H         -0.51340000  *  -2.53700000  *  -0.29020000  *
    11       H         -0.30660000  *  -1.47820000  *   1.13680000  *
    12       H         -2.56770000  *  -1.32000000  *   0.03360000  *
    13       H         -1.81360000  *  -0.75050000  *  -1.48360000  *
    14       H         -1.68770000  *   0.69190000  *   1.26710000  *
    15       H         -2.80330000  *   1.07810000  *  -0.07760000  *
    16       H          1.62080000  *  -1.66980000  *  -0.63690000  *
    17       H          0.63740000  *  -0.64760000  *  -1.70380000  *
    18       H         -1.09020000  *   2.67000000  *  -0.32710000  *
    19       H         -0.69520000  *   1.45700000  *  -1.57980000  *
    20       H          1.01060000  *   2.32480000  *   0.67050000  *
    21       H          4.16700000  *  -0.44660000  *   1.25040000  *
 


          CARTESIAN COORDINATES 

    NO.       ATOM           X           Y           Z

     1         O          2.5770      0.3493      0.7219
     2         O          3.3667     -0.7330      0.7424
     3         C         -1.7065     -0.7491     -0.3766
     4         C         -0.4173     -1.4765      0.0298
     5         C         -1.7900      0.6866      0.1592
     6         C          0.8346     -0.8871     -0.6363
     7         C         -0.7555      1.6215     -0.4821
     8         C          1.3303      0.3464      0.0877
     9         C          0.6026      1.4695      0.1447
    10         H         -0.5134     -2.5370     -0.2902
    11         H         -0.3066     -1.4782      1.1368
    12         H         -2.5677     -1.3200      0.0336
    13         H         -1.8136     -0.7505     -1.4836
    14         H         -1.6877      0.6919      1.2671
    15         H         -2.8033      1.0781     -0.0776
    16         H          1.6208     -1.6698     -0.6369
    17         H          0.6374     -0.6476     -1.7038
    18         H         -1.0902      2.6700     -0.3271
    19         H         -0.6952      1.4570     -1.5798
    20         H          1.0106      2.3248      0.6705
    21         H          4.1670     -0.4466      1.2504

  H: (PM3): J. J. P. STEWART, J. COMP. CHEM. 10, 209 (1989).
  C: (PM3): J. J. P. STEWART, J. COMP. CHEM. 10, 209 (1989).
  O: (PM3): J. J. P. STEWART, J. COMP. CHEM. 10, 209 (1989).

           Empirical Formula: C7 H12 O2  =    21 atoms



      MOLECULAR POINT GROUP   :   C1  


      RHF CALCULATION, NO. OF DOUBLY OCCUPIED LEVELS = 26


          Geometry optimization using EF

          DIAGONAL MATRIX USED AS START HESSIAN

 CYCLE:     1 TIME:   0.020 TIME LEFT:  2.00D  GRAD.:   193.597 HEAT: -16.45815
 CYCLE:     2 TIME:   0.032 TIME LEFT:  2.00D  GRAD.:   158.513 HEAT: -24.56353
 CYCLE:     3 TIME:   0.026 TIME LEFT:  2.00D  GRAD.:   151.442 HEAT: -25.31843
 CYCLE:     4 TIME:   0.025 TIME LEFT:  2.00D  GRAD.:   102.286 HEAT: -27.44114
 CYCLE:     5 TIME:   0.035 TIME LEFT:  2.00D  GRAD.:    31.486 HEAT: -29.64016
 CYCLE:     6 TIME:   0.032 TIME LEFT:  2.00D  GRAD.:    30.273 HEAT: -29.81378
 CYCLE:     7 TIME:   0.036 TIME LEFT:  2.00D  GRAD.:    15.706 HEAT: -30.05721
 CYCLE:     8 TIME:   0.029 TIME LEFT:  2.00D  GRAD.:    19.759 HEAT: -30.11190
 CYCLE:     9 TIME:   0.030 TIME LEFT:  2.00D  GRAD.:    20.669 HEAT: -30.20545
 CYCLE:    10 TIME:   0.026 TIME LEFT:  2.00D  GRAD.:    17.237 HEAT: -30.31789
 CYCLE:    11 TIME:   0.029 TIME LEFT:  2.00D  GRAD.:    21.045 HEAT: -30.34109
 CYCLE:    12 TIME:   0.028 TIME LEFT:  2.00D  GRAD.:    20.282 HEAT: -30.41312
 CYCLE:    13 TIME:   0.040 TIME LEFT:  2.00D  GRAD.:     8.611 HEAT: -30.51460
 CYCLE:    14 TIME:   0.037 TIME LEFT:  2.00D  GRAD.:     7.297 HEAT: -30.54198
 CYCLE:    15 TIME:   0.024 TIME LEFT:  2.00D  GRAD.:     7.186 HEAT: -30.57729
 CYCLE:    16 TIME:   0.023 TIME LEFT:  2.00D  GRAD.:     7.594 HEAT: -30.62353
 CYCLE:    17 TIME:   0.022 TIME LEFT:  2.00D  GRAD.:    10.751 HEAT: -30.66242
 CYCLE:    18 TIME:   0.022 TIME LEFT:  2.00D  GRAD.:     8.417 HEAT: -30.72095
 CYCLE:    19 TIME:   0.033 TIME LEFT:  2.00D  GRAD.:    11.116 HEAT: -30.73349
 CYCLE:    20 TIME:   0.028 TIME LEFT:  2.00D  GRAD.:     8.098 HEAT: -30.76272
 CYCLE:    21 TIME:   0.038 TIME LEFT:  2.00D  GRAD.:     9.861 HEAT: -30.76877
 CYCLE:    22 TIME:   0.030 TIME LEFT:  2.00D  GRAD.:     5.261 HEAT: -30.79452
 CYCLE:    23 TIME:   0.027 TIME LEFT:  2.00D  GRAD.:     5.690 HEAT: -30.80476
 CYCLE:    24 TIME:   0.029 TIME LEFT:  2.00D  GRAD.:     3.841 HEAT: -30.81943
 CYCLE:    25 TIME:   0.029 TIME LEFT:  2.00D  GRAD.:     5.779 HEAT: -30.82150
 CYCLE:    26 TIME:   0.027 TIME LEFT:  2.00D  GRAD.:     1.932 HEAT: -30.83298
 CYCLE:    27 TIME:   0.029 TIME LEFT:  2.00D  GRAD.:     1.561 HEAT: -30.83624
 CYCLE:    28 TIME:   0.028 TIME LEFT:  2.00D  GRAD.:     1.581 HEAT: -30.83943
 CYCLE:    29 TIME:   0.030 TIME LEFT:  2.00D  GRAD.:     1.939 HEAT: -30.84172
 CYCLE:    30 TIME:   0.025 TIME LEFT:  2.00D  GRAD.:     1.031 HEAT: -30.84375
 CYCLE:    31 TIME:   0.030 TIME LEFT:  2.00D  GRAD.:     0.900 HEAT: -30.84476
 CYCLE:    32 TIME:   0.028 TIME LEFT:  2.00D  GRAD.:     0.642 HEAT: -30.84597
 CYCLE:    33 TIME:   0.028 TIME LEFT:  2.00D  GRAD.:     0.761 HEAT: -30.84730
 CYCLE:    34 TIME:   0.027 TIME LEFT:  2.00D  GRAD.:     0.782 HEAT: -30.84816
 CYCLE:    35 TIME:   0.030 TIME LEFT:  2.00D  GRAD.:     0.632 HEAT: -30.84902
 CYCLE:    36 TIME:   0.028 TIME LEFT:  2.00D  GRAD.:     0.556 HEAT: -30.84988
 CYCLE:    37 TIME:   0.029 TIME LEFT:  2.00D  GRAD.:     0.619 HEAT: -30.85065
 CYCLE:    38 TIME:   0.027 TIME LEFT:  2.00D  GRAD.:     0.574 HEAT: -30.85139
 CYCLE:    39 TIME:   0.029 TIME LEFT:  2.00D  GRAD.:     0.581 HEAT: -30.85225
 CYCLE:    40 TIME:   0.027 TIME LEFT:  2.00D  GRAD.:     0.709 HEAT: -30.85317
 CYCLE:    41 TIME:   0.030 TIME LEFT:  2.00D  GRAD.:     0.940 HEAT: -30.85492
 CYCLE:    42 TIME:   0.028 TIME LEFT:  2.00D  GRAD.:     1.567 HEAT: -30.85847
 CYCLE:    43 TIME:   0.028 TIME LEFT:  2.00D  GRAD.:     3.263 HEAT: -30.86586
 CYCLE:    44 TIME:   0.028 TIME LEFT:  2.00D  GRAD.:     7.477 HEAT: -30.87513
 CYCLE:    45 TIME:   0.029 TIME LEFT:  2.00D  GRAD.:     6.270 HEAT: -30.92366
 CYCLE:    46 TIME:   0.027 TIME LEFT:  2.00D  GRAD.:    12.543 HEAT: -31.02204
 CYCLE:    47 TIME:   0.030 TIME LEFT:  2.00D  GRAD.:    16.956 HEAT: -31.11121
 CYCLE:    48 TIME:   0.027 TIME LEFT:  2.00D  GRAD.:    10.548 HEAT: -31.31421
 CYCLE:    49 TIME:   0.042 TIME LEFT:  2.00D  GRAD.:     8.151 HEAT: -31.37352
 CYCLE:    50 TIME:   0.026 TIME LEFT:  2.00D  GRAD.:    10.995 HEAT: -31.45318
 CYCLE:    51 TIME:   0.031 TIME LEFT:  2.00D  GRAD.:    11.681 HEAT: -31.55883
 CYCLE:    52 TIME:   0.026 TIME LEFT:  2.00D  GRAD.:     9.939 HEAT: -31.70401
 CYCLE:    53 TIME:   0.030 TIME LEFT:  2.00D  GRAD.:     9.079 HEAT: -31.83016
 CYCLE:    54 TIME:   0.030 TIME LEFT:  2.00D  GRAD.:    10.618 HEAT: -31.89372
 CYCLE:    55 TIME:   0.032 TIME LEFT:  2.00D  GRAD.:    13.793 HEAT: -31.91782
 CYCLE:    56 TIME:   0.027 TIME LEFT:  2.00D  GRAD.:     6.840 HEAT: -31.99441
 CYCLE:    57 TIME:   0.028 TIME LEFT:  2.00D  GRAD.:     4.117 HEAT: -32.02858
 CYCLE:    58 TIME:   0.028 TIME LEFT:  2.00D  GRAD.:     6.497 HEAT: -32.09493
 CYCLE:    59 TIME:   0.030 TIME LEFT:  2.00D  GRAD.:    14.490 HEAT: -32.17875
 CYCLE:    60 TIME:   0.026 TIME LEFT:  2.00D  GRAD.:     6.427 HEAT: -32.25370
 CYCLE:    61 TIME:   0.029 TIME LEFT:  2.00D  GRAD.:     4.634 HEAT: -32.31810
 CYCLE:    62 TIME:   0.027 TIME LEFT:  2.00D  GRAD.:     5.216 HEAT: -32.41415
 CYCLE:    63 TIME:   0.029 TIME LEFT:  2.00D  GRAD.:     4.616 HEAT: -32.47861
 CYCLE:    64 TIME:   0.028 TIME LEFT:  2.00D  GRAD.:     7.115 HEAT: -32.52062
 CYCLE:    65 TIME:   0.029 TIME LEFT:  2.00D  GRAD.:     6.196 HEAT: -32.57704
 CYCLE:    66 TIME:   0.028 TIME LEFT:  2.00D  GRAD.:     7.794 HEAT: -32.62002
 CYCLE:    67 TIME:   0.028 TIME LEFT:  2.00D  GRAD.:     4.362 HEAT: -32.66692
 CYCLE:    68 TIME:   0.028 TIME LEFT:  2.00D  GRAD.:     3.345 HEAT: -32.69273
 CYCLE:    69 TIME:   0.030 TIME LEFT:  2.00D  GRAD.:     2.702 HEAT: -32.70977
 CYCLE:    70 TIME:   0.027 TIME LEFT:  2.00D  GRAD.:     1.803 HEAT: -32.72047
 CYCLE:    71 TIME:   0.030 TIME LEFT:  2.00D  GRAD.:     3.447 HEAT: -32.72454
 CYCLE:    72 TIME:   0.028 TIME LEFT:  2.00D  GRAD.:     1.886 HEAT: -32.73057
 CYCLE:    73 TIME:   0.026 TIME LEFT:  2.00D  GRAD.:     1.279 HEAT: -32.73481
 CYCLE:    74 TIME:   0.029 TIME LEFT:  2.00D  GRAD.:     1.277 HEAT: -32.74105
 CYCLE:    75 TIME:   0.028 TIME LEFT:  2.00D  GRAD.:     1.296 HEAT: -32.74513
 CYCLE:    76 TIME:   0.028 TIME LEFT:  2.00D  GRAD.:     1.649 HEAT: -32.75013
 CYCLE:    77 TIME:   0.028 TIME LEFT:  2.00D  GRAD.:     1.672 HEAT: -32.75495
 CYCLE:    78 TIME:   0.030 TIME LEFT:  2.00D  GRAD.:     2.019 HEAT: -32.76292
 CYCLE:    79 TIME:   0.027 TIME LEFT:  2.00D  GRAD.:     1.826 HEAT: -32.76841
 CYCLE:    80 TIME:   0.028 TIME LEFT:  2.00D  GRAD.:     1.807 HEAT: -32.77927
 CYCLE:    81 TIME:   0.030 TIME LEFT:  2.00D  GRAD.:     2.025 HEAT: -32.78585
 CYCLE:    82 TIME:   0.027 TIME LEFT:  2.00D  GRAD.:     2.029 HEAT: -32.79702
 CYCLE:    83 TIME:   0.029 TIME LEFT:  2.00D  GRAD.:     3.205 HEAT: -32.80135
 CYCLE:    84 TIME:   0.027 TIME LEFT:  2.00D  GRAD.:     1.853 HEAT: -32.80820
 CYCLE:    85 TIME:   0.030 TIME LEFT:  2.00D  GRAD.:     1.403 HEAT: -32.81277
 CYCLE:    86 TIME:   0.028 TIME LEFT:  2.00D  GRAD.:     1.331 HEAT: -32.81495
 CYCLE:    87 TIME:   0.028 TIME LEFT:  2.00D  GRAD.:     1.489 HEAT: -32.81915
 CYCLE:    88 TIME:   0.030 TIME LEFT:  2.00D  GRAD.:     1.077 HEAT: -32.82197
 CYCLE:    89 TIME:   0.029 TIME LEFT:  2.00D  GRAD.:     1.149 HEAT: -32.82442
 CYCLE:    90 TIME:   0.032 TIME LEFT:  2.00D  GRAD.:     0.862 HEAT: -32.82576
 CYCLE:    91 TIME:   0.029 TIME LEFT:  2.00D  GRAD.:     0.880 HEAT: -32.82704
 CYCLE:    92 TIME:   0.026 TIME LEFT:  2.00D  GRAD.:     0.976 HEAT: -32.82916
 CYCLE:    93 TIME:   0.030 TIME LEFT:  2.00D  GRAD.:     1.136 HEAT: -32.83164
 CYCLE:    94 TIME:   0.027 TIME LEFT:  2.00D  GRAD.:     1.096 HEAT: -32.83421
 CYCLE:    95 TIME:   0.029 TIME LEFT:  2.00D  GRAD.:     0.986 HEAT: -32.83559
 CYCLE:    96 TIME:   0.027 TIME LEFT:  2.00D  GRAD.:     1.224 HEAT: -32.83905
 CYCLE:    97 TIME:   0.028 TIME LEFT:  2.00D  GRAD.:     1.019 HEAT: -32.84084
 CYCLE:    98 TIME:   0.029 TIME LEFT:  2.00D  GRAD.:     3.613 HEAT: -32.84449
 CYCLE:    99 TIME:   0.028 TIME LEFT:  2.00D  GRAD.:     2.634 HEAT: -32.84985
 CYCLE:   100 TIME:   0.027 TIME LEFT:  2.00D  GRAD.:     1.356 HEAT: -32.85599
 CYCLE:   101 TIME:   0.030 TIME LEFT:  2.00D  GRAD.:     1.447 HEAT: -32.86109
 CYCLE:   102 TIME:   0.027 TIME LEFT:  2.00D  GRAD.:     2.317 HEAT: -32.86659
 CYCLE:   103 TIME:   0.029 TIME LEFT:  2.00D  GRAD.:     1.659 HEAT: -32.87689
 CYCLE:   104 TIME:   0.028 TIME LEFT:  2.00D  GRAD.:     1.500 HEAT: -32.88527
 CYCLE:   105 TIME:   0.029 TIME LEFT:  2.00D  GRAD.:     2.346 HEAT: -32.89349
 CYCLE:   106 TIME:   0.032 TIME LEFT:  2.00D  GRAD.:     1.775 HEAT: -32.90142
 CYCLE:   107 TIME:   0.032 TIME LEFT:  2.00D  GRAD.:     1.490 HEAT: -32.90763
 CYCLE:   108 TIME:   0.028 TIME LEFT:  2.00D  GRAD.:     1.876 HEAT: -32.91517
 CYCLE:   109 TIME:   0.027 TIME LEFT:  2.00D  GRAD.:     1.256 HEAT: -32.91840
 CYCLE:   110 TIME:   0.030 TIME LEFT:  2.00D  GRAD.:     1.715 HEAT: -32.92120
 CYCLE:   111 TIME:   0.027 TIME LEFT:  2.00D  GRAD.:     1.397 HEAT: -32.92395
 CYCLE:   112 TIME:   0.029 TIME LEFT:  2.00D  GRAD.:     1.228 HEAT: -32.92675
 CYCLE:   113 TIME:   0.027 TIME LEFT:  2.00D  GRAD.:     1.119 HEAT: -32.92811
 CYCLE:   114 TIME:   0.030 TIME LEFT:  2.00D  GRAD.:     1.006 HEAT: -32.93085
 CYCLE:   115 TIME:   0.026 TIME LEFT:  2.00D  GRAD.:     0.864 HEAT: -32.93220
 CYCLE:   116 TIME:   0.134 TIME LEFT:  2.00D  GRAD.:     0.846 HEAT: -32.93334
 CYCLE:   117 TIME:   0.026 TIME LEFT:  2.00D  GRAD.:     1.174 HEAT: -32.93485
 CYCLE:   118 TIME:   0.029 TIME LEFT:  2.00D  GRAD.:     0.859 HEAT: -32.93595
 CYCLE:   119 TIME:   0.030 TIME LEFT:  2.00D  GRAD.:     0.925 HEAT: -32.93774
 CYCLE:   120 TIME:   0.029 TIME LEFT:  2.00D  GRAD.:     1.056 HEAT: -32.93989
 CYCLE:   121 TIME:   0.025 TIME LEFT:  2.00D  GRAD.:     0.904 HEAT: -32.94089
 CYCLE:   122 TIME:   0.029 TIME LEFT:  2.00D  GRAD.:     0.865 HEAT: -32.94196
 CYCLE:   123 TIME:   0.027 TIME LEFT:  2.00D  GRAD.:     1.049 HEAT: -32.94279
 CYCLE:   124 TIME:   0.029 TIME LEFT:  2.00D  GRAD.:     0.928 HEAT: -32.94379
 CYCLE:   125 TIME:   0.028 TIME LEFT:  2.00D  GRAD.:     0.921 HEAT: -32.94544
 CYCLE:   126 TIME:   0.029 TIME LEFT:  2.00D  GRAD.:     0.974 HEAT: -32.94633
 CYCLE:   127 TIME:   0.027 TIME LEFT:  2.00D  GRAD.:     1.011 HEAT: -32.94795
 CYCLE:   128 TIME:   0.030 TIME LEFT:  2.00D  GRAD.:     0.983 HEAT: -32.94898
 CYCLE:   129 TIME:   0.027 TIME LEFT:  2.00D  GRAD.:     1.138 HEAT: -32.95157
 CYCLE:   130 TIME:   0.029 TIME LEFT:  2.00D  GRAD.:     0.898 HEAT: -32.95264
 CYCLE:   131 TIME:   0.028 TIME LEFT:  2.00D  GRAD.:     0.918 HEAT: -32.95408
 CYCLE:   132 TIME:   0.028 TIME LEFT:  2.00D  GRAD.:     0.852 HEAT: -32.95492
 CYCLE:   133 TIME:   0.028 TIME LEFT:  2.00D  GRAD.:     1.007 HEAT: -32.95574
 CYCLE:   134 TIME:   0.028 TIME LEFT:  2.00D  GRAD.:     0.661 HEAT: -32.95670
 CYCLE:   135 TIME:   0.030 TIME LEFT:  2.00D  GRAD.:     0.587 HEAT: -32.95779
 CYCLE:   136 TIME:   0.069 TIME LEFT:  2.00D  GRAD.:     0.662 HEAT: -32.95873
 CYCLE:   137 TIME:   0.026 TIME LEFT:  2.00D  GRAD.:     0.670 HEAT: -32.95961
 CYCLE:   138 TIME:   0.030 TIME LEFT:  2.00D  GRAD.:     0.628 HEAT: -32.96037
 CYCLE:   139 TIME:   0.027 TIME LEFT:  2.00D  GRAD.:     0.303 HEAT: -32.96073
 CYCLE:   140 TIME:   0.028 TIME LEFT:  2.00D  GRAD.:     0.254 HEAT: -32.96084
 CYCLE:   141 TIME:   0.028 TIME LEFT:  2.00D  GRAD.:     0.155 HEAT: -32.96090
 CYCLE:   142 TIME:   0.028 TIME LEFT:  2.00D  GRAD.:     0.113 HEAT: -32.96096
 CYCLE:   143 TIME:   0.028 TIME LEFT:  2.00D  GRAD.:     0.088 HEAT: -32.96099
 CYCLE:   144 TIME:   0.029 TIME LEFT:  2.00D  GRAD.:     0.041 HEAT: -32.96100

     GRADIENT =  0.04145  IS LESS THAN CUTOFF =  0.05000



 -------------------------------------------------------------------------------
 pm3  precise nosym THREADS=1
 InChI=1S/C7H12O2/c8-9-7-5-3-1-2-4-6-7/h5,8H,1-4,6H2



     GEOMETRY OPTIMISED USING EIGENVECTOR FOLLOWING (EF).     
     SCF FIELD WAS ACHIEVED                                   


                              PM3 CALCULATION
                                                       MOPAC2016 (Version: 18.184L)
                                                       Fri Jun 14 02:22:18 2019
                                                       No. of days remaining =  19




          FINAL HEAT OF FORMATION =        -32.96100 KCAL/MOL =    -137.90884 KJ/MOL


          TOTAL ENERGY            =      -1599.75424 EV
          ELECTRONIC ENERGY       =      -7838.64401 EV  POINT GROUP:     C1  
          CORE-CORE REPULSION     =       6238.88976 EV
          COSMO AREA              =        164.17 SQUARE ANGSTROMS
          COSMO VOLUME            =        166.94 CUBIC ANGSTROMS

          GRADIENT NORM           =          0.04145 = 0.00905 PER ATOM
          IONIZATION POTENTIAL    =          9.549272 EV
          HOMO LUMO ENERGIES (EV) =         -9.549  0.122
          NO. OF FILLED LEVELS    =         26
          MOLECULAR WEIGHT        =        128.1706

          MOLECULAR DIMENSIONS (Angstroms)

            Atom       Atom       Distance
            H    21    H    15     6.64347
            H    18    H    10     5.13908
            H    17    H    14     3.52845


          SCF CALCULATIONS        =        154
 
          WALL-CLOCK TIME         =          4.370 SECONDS
          COMPUTATION TIME        =          2.057 SECONDS




   ATOM   CHEMICAL          X               Y               Z
  NUMBER   SYMBOL      (ANGSTROMS)     (ANGSTROMS)     (ANGSTROMS)
 
     1       O          2.71353175  *  -0.00909063  *   0.11297405  *
     2       O          2.85040080  *   0.10175813  *   1.64588991  *
     3       C         -1.68796581  *  -0.71952962  *  -0.37864849  *
     4       C         -0.42282157  *  -1.55124386  *  -0.23936801  *
     5       C         -1.63590423  *   0.60046541  *   0.37383177  *
     6       C          0.77483196  *  -0.94868308  *  -0.96209835  *
     7       C         -0.66219648  *   1.60126834  *  -0.23538771  *
     8       C          1.38621567  *   0.18393904  *  -0.18966177  *
     9       C          0.75046209  *   1.32554816  *   0.13503021  *
    10       H         -0.61448109  *  -2.56217139  *  -0.65101913  *
    11       H         -0.18178472  *  -1.70312607  *   0.83131139  *
    12       H         -2.54639103  *  -1.31103391  *  -0.00201167  *
    13       H         -1.90214787  *  -0.53445978  *  -1.45120924  *
    14       H         -1.37855430  *   0.42276975  *   1.43677776  *
    15       H         -2.65002592  *   1.04707155  *   0.38009037  *
    16       H          1.52670325  *  -1.74154178  *  -1.15097138  *
    17       H          0.47451123  *  -0.57420774  *  -1.96253823  *
    18       H         -0.93189782  *   2.62310023  *   0.09584945  *
    19       H         -0.75853886  *   1.60938818  *  -1.34128987  *
    20       H          1.26864328  *   2.09920229  *   0.71557624  *
    21       H          3.76904441  *  -0.10736486  *   1.64442957  *

                             CARTESIAN COORDINATES

   1    O        2.713531753    -0.009090633     0.112974050
   2    O        2.850400801     0.101758129     1.645889909
   3    C       -1.687965809    -0.719529621    -0.378648494
   4    C       -0.422821568    -1.551243863    -0.239368013
   5    C       -1.635904234     0.600465406     0.373831768
   6    C        0.774831964    -0.948683076    -0.962098350
   7    C       -0.662196482     1.601268344    -0.235387708
   8    C        1.386215665     0.183939038    -0.189661765
   9    C        0.750462090     1.325548155     0.135030213
  10    H       -0.614481091    -2.562171390    -0.651019134
  11    H       -0.181784723    -1.703126068     0.831311389
  12    H       -2.546391033    -1.311033915    -0.002011671
  13    H       -1.902147866    -0.534459775    -1.451209239
  14    H       -1.378554300     0.422769753     1.436777758
  15    H       -2.650025917     1.047071547     0.380090369
  16    H        1.526703249    -1.741541785    -1.150971378
  17    H        0.474511234    -0.574207742    -1.962538235
  18    H       -0.931897819     2.623100225     0.095849446
  19    H       -0.758538858     1.609388175    -1.341289874
  20    H        1.268643282     2.099202294     0.715576242
  21    H        3.769044409    -0.107364862     1.644429569


           Empirical Formula: C7 H12 O2  =    21 atoms



      MOLECULAR POINT GROUP   :   C1  


                  EIGENVALUES  
 -40.87486 -35.71611 -33.66273 -32.36291 -29.92466 -24.20531 -23.07424 -20.31736
 -18.67112 -17.65212 -17.18606 -16.51377 -15.79134 -15.09841 -14.94861 -14.53182
 -14.36343 -13.63217 -13.33478 -12.86288 -12.19833 -11.89776 -11.82734 -11.71588
 -11.38512  -9.54927   0.12247   1.75070   3.05326   3.37338   3.59916   3.68819
   3.71296   3.73727   3.85927   3.87783   4.21040   4.26616   4.39423   4.47442
   4.58441   4.61524   4.74527   5.05762   5.06323   5.09367   5.66802   6.01668


              NET ATOMIC CHARGES AND DIPOLE CONTRIBUTIONS

  ATOM NO.   TYPE          CHARGE      No. of ELECS.   s-Pop       p-Pop       
    1          O          -0.107089        6.1071     1.89573     4.21135
    2          O          -0.209729        6.2097     1.86746     4.34227
    3          C          -0.098816        4.0988     1.16246     2.93636
    4          C          -0.094665        4.0947     1.16051     2.93416
    5          C          -0.094522        4.0945     1.16041     2.93411
    6          C          -0.058028        4.0580     1.14886     2.90917
    7          C          -0.057591        4.0576     1.14674     2.91085
    8          C           0.001434        3.9986     1.18946     2.80911
    9          C          -0.138935        4.1389     1.19776     2.94117
   10          H           0.047674        0.9523     0.95233
   11          H           0.061968        0.9380     0.93803
   12          H           0.047325        0.9527     0.95268
   13          H           0.050849        0.9492     0.94915
   14          H           0.059109        0.9409     0.94089
   15          H           0.047091        0.9529     0.95291
   16          H           0.063023        0.9370     0.93698
   17          H           0.061059        0.9389     0.93894
   18          H           0.050656        0.9493     0.94934
   19          H           0.058849        0.9412     0.94115
   20          H           0.115058        0.8849     0.88494
   21          H           0.195278        0.8047     0.80472
 DIPOLE           X         Y         Z       TOTAL
 POINT-CHG.    -0.888    -0.094    -0.460     1.004
 HYBRID         0.455    -0.088     0.116     0.478
 SUM           -0.433    -0.182    -0.344     0.582


          ATOMIC ORBITAL ELECTRON POPULATIONS

     Atom    s        px        py        pz   
    1  O   1.89573   1.24055   1.93718   1.03362
    2  O   1.86746   1.35016   1.95859   1.03352
    3  C   1.16246   0.97150   0.96304   1.00182
    4  C   1.16051   0.94498   0.97733   1.01184
    5  C   1.16041   0.98368   0.95386   0.99657
    6  C   1.14886   0.97545   0.95845   0.97527
    7  C   1.14674   0.92517   0.98304   1.00264
    8  C   1.18946   0.86166   0.94916   0.99829
    9  C   1.19776   0.97429   0.96134   1.00554
   10  H   0.95233
   11  H   0.93803
   12  H   0.95268
   13  H   0.94915
   14  H   0.94089
   15  H   0.95291
   16  H   0.93698
   17  H   0.93894
   18  H   0.94934
   19  H   0.94115
   20  H   0.88494
   21  H   0.80472
 *******************************************************************************
 ** Site#: 14399        For non-commercial use only    Version 18.184L 64BITS **
 *******************************************************************************
 ** Cite this program as: MOPAC2016, Version: 18.184L, James J. P. Stewart,   **
 ** Stewart Computational Chemistry, web: HTTP://OpenMOPAC.net. Days left:  19**
 *******************************************************************************
 **                                                                           **
 **                                MOPAC2016                                  **
 **                                                                           **
 *******************************************************************************

                              PM3 CALCULATION RESULTS

 *******************************************************************************
 *  CALCULATION DONE:                                Fri Jun 14 02:22:18 2019  *
 *  PM3        - The PM3 Hamiltonian to be used
 *  OLDGEO     - PREVIOUS GEOMETRY TO BE USED
 *  PRECISE    - CRITERIA TO BE INCREASED BY 100 TIMES
 *  NOSYM      - POINT-GROUP SYMMETRY SET TO C1
 *  THREADS=1  - MULTI-THREADING NOT USED
 *  T=         - A TIME OF 172800.0 SECONDS REQUESTED
 *  DUMP=N     - RESTART FILE WRITTEN EVERY  7200.000 SECONDS
 *  THERMO     - THERMODYNAMIC QUANTITIES TO BE CALCULATED
 *******************************************************************************
oldgeo thermo nosym precise THREADS=1  pm3
 InChI=1S/C7H12O2/c8-9-7-5-3-1-2-4-6-7/h5,8H,1-4,6H2

   ATOM   CHEMICAL          X               Y               Z
  NUMBER   SYMBOL      (ANGSTROMS)     (ANGSTROMS)     (ANGSTROMS)
 
     1       O          2.71353175  *  -0.00909063  *   0.11297405  *
     2       O          2.85040080  *   0.10175813  *   1.64588991  *
     3       C         -1.68796581  *  -0.71952962  *  -0.37864849  *
     4       C         -0.42282157  *  -1.55124386  *  -0.23936801  *
     5       C         -1.63590423  *   0.60046541  *   0.37383177  *
     6       C          0.77483196  *  -0.94868308  *  -0.96209835  *
     7       C         -0.66219648  *   1.60126834  *  -0.23538771  *
     8       C          1.38621567  *   0.18393904  *  -0.18966177  *
     9       C          0.75046209  *   1.32554816  *   0.13503021  *
    10       H         -0.61448109  *  -2.56217139  *  -0.65101913  *
    11       H         -0.18178472  *  -1.70312607  *   0.83131139  *
    12       H         -2.54639103  *  -1.31103391  *  -0.00201167  *
    13       H         -1.90214787  *  -0.53445978  *  -1.45120924  *
    14       H         -1.37855430  *   0.42276975  *   1.43677776  *
    15       H         -2.65002592  *   1.04707155  *   0.38009037  *
    16       H          1.52670325  *  -1.74154178  *  -1.15097138  *
    17       H          0.47451123  *  -0.57420774  *  -1.96253823  *
    18       H         -0.93189782  *   2.62310023  *   0.09584945  *
    19       H         -0.75853886  *   1.60938818  *  -1.34128987  *
    20       H          1.26864328  *   2.09920229  *   0.71557624  *
    21       H          3.76904441  *  -0.10736486  *   1.64442957  *
 


          CARTESIAN COORDINATES 

    NO.       ATOM           X           Y           Z

     1         O          2.7135     -0.0091      0.1130
     2         O          2.8504      0.1018      1.6459
     3         C         -1.6880     -0.7195     -0.3786
     4         C         -0.4228     -1.5512     -0.2394
     5         C         -1.6359      0.6005      0.3738
     6         C          0.7748     -0.9487     -0.9621
     7         C         -0.6622      1.6013     -0.2354
     8         C          1.3862      0.1839     -0.1897
     9         C          0.7505      1.3255      0.1350
    10         H         -0.6145     -2.5622     -0.6510
    11         H         -0.1818     -1.7031      0.8313
    12         H         -2.5464     -1.3110     -0.0020
    13         H         -1.9021     -0.5345     -1.4512
    14         H         -1.3786      0.4228      1.4368
    15         H         -2.6500      1.0471      0.3801
    16         H          1.5267     -1.7415     -1.1510
    17         H          0.4745     -0.5742     -1.9625
    18         H         -0.9319      2.6231      0.0958
    19         H         -0.7585      1.6094     -1.3413
    20         H          1.2686      2.0992      0.7156
    21         H          3.7690     -0.1074      1.6444

  H: (PM3): J. J. P. STEWART, J. COMP. CHEM. 10, 209 (1989).
  C: (PM3): J. J. P. STEWART, J. COMP. CHEM. 10, 209 (1989).
  O: (PM3): J. J. P. STEWART, J. COMP. CHEM. 10, 209 (1989).

           Empirical Formula: C7 H12 O2  =    21 atoms



      MOLECULAR POINT GROUP   :   C1  


      RHF CALCULATION, NO. OF DOUBLY OCCUPIED LEVELS = 26



          HEAT OF FORMATION =     -32.961001 KCALS/MOLE


          CARTESIAN COORDINATE DERIVATIVES

   NUMBER  ATOM         X            Y            Z

     1       O     -0.008235    -0.009510     0.008017
     2       O      0.013377    -0.004983     0.005926
     3       C     -0.000802     0.003419    -0.003953
     4       C      0.000762     0.008596    -0.000565
     5       C      0.000332     0.004481     0.002579
     6       C      0.001707    -0.003038     0.004345
     7       C     -0.004687    -0.001481     0.008394
     8       C      0.002337     0.002884    -0.005531
     9       C      0.001752    -0.000963     0.010870
    10       H     -0.002249    -0.000334    -0.001334
    11       H     -0.001785    -0.009182    -0.001685
    12       H      0.002721     0.002913    -0.004690
    13       H      0.003588    -0.001219    -0.000323
    14       H     -0.002022     0.002363     0.006562
    15       H     -0.000374    -0.002389    -0.001441
    16       H     -0.002787    -0.005089    -0.003228
    17       H     -0.001295    -0.000750     0.003433
    18       H     -0.003024    -0.001544    -0.005929
    19       H      0.001923     0.004128    -0.002955
    20       H      0.004288     0.000202    -0.011395
    21       H     -0.005528     0.011495    -0.007096
 


          GRADIENT NORM =   0.03986


          TIME FOR SCF CALCULATION =    0.02

          TIME FOR DERIVATIVES     =    0.01

          MOLECULAR WEIGHT =  128.17



          ROTATIONAL CONSTANTS IN CM(-1)

          A =    0.08877262   B =    0.03905258   C =    0.03239785



           PRINCIPAL MOMENTS OF INERTIA IN UNITS OF 10**(-40)*GRAM-CM**2

          A =      315.3312   B =      716.7970   C =      864.0320


          ORIENTATION OF MOLECULE IN FORCE CALCULATION

    NO.       ATOM         X         Y         Z

     1          O       0.2347   -2.1423    0.3974
     2          O       1.7777   -2.1423    0.3974
     3          C      -0.6952    2.2457    0.3974
     4          C      -0.5044    1.1362    1.4193
     5          C       0.1518    2.0750   -0.8535
     6          C      -1.0728   -0.2022    0.9661
     7          C      -0.2952    0.9098   -1.7272
     8          C      -0.1698   -0.8940   -0.0133
     9          C       0.1783   -0.4037   -1.2180
    10          H      -1.0029    1.4326    2.3636
    11          H       0.5698    1.0267    1.6678
    12          H      -0.4397    3.2145    0.8715
    13          H      -1.7664    2.3237    0.1202
    14          H       1.2179    1.9524   -0.5775
    15          H       0.1002    3.0082   -1.4487
    16          H      -1.2507   -0.8445    1.8523
    17          H      -2.0665   -0.0601    0.4931
    18          H       0.0834    1.0580   -2.7574
    19          H      -1.4018    0.8945   -1.8138
    20          H       0.8566   -0.9701   -1.8686
    21          H       1.8427   -3.0160    0.7440


    FIRST DERIVATIVES WILL BE USED IN THE CALCULATION OF SECOND DERIVATIVES

          ESTIMATED TIME TO COMPLETE CALCULATION =        9.84 SECONDS

    FOR POINT-GROUP C1   THERE ARE   1 UNIQUE SYMMETRY FUNCTIONS.

 STEP:   1 TIME =     0.05 SECS, INTEGRAL =      0.05 TIME LEFT: 172799.91
 STEP:   2 TIME =     0.04 SECS, INTEGRAL =      0.09 TIME LEFT: 172799.87
 STEP:   3 TIME =     0.05 SECS, INTEGRAL =      0.13 TIME LEFT: 172799.83
 STEP:   4 TIME =     0.04 SECS, INTEGRAL =      0.17 TIME LEFT: 172799.79
 STEP:   5 TIME =     0.04 SECS, INTEGRAL =      0.21 TIME LEFT: 172799.75
 STEP:   6 TIME =     0.04 SECS, INTEGRAL =      0.25 TIME LEFT: 172799.71
 STEP:   7 TIME =     0.04 SECS, INTEGRAL =      0.30 TIME LEFT: 172799.67
 STEP:   8 TIME =     0.04 SECS, INTEGRAL =      0.33 TIME LEFT: 172799.63
 STEP:   9 TIME =     0.04 SECS, INTEGRAL =      0.37 TIME LEFT: 172799.59
 STEP:  10 TIME =     0.04 SECS, INTEGRAL =      0.41 TIME LEFT: 172799.55
 STEP:  11 TIME =     0.04 SECS, INTEGRAL =      0.45 TIME LEFT: 172799.51
 STEP:  12 TIME =     0.04 SECS, INTEGRAL =      0.49 TIME LEFT: 172799.47
 STEP:  13 TIME =     0.04 SECS, INTEGRAL =      0.53 TIME LEFT: 172799.43
 STEP:  14 TIME =     0.04 SECS, INTEGRAL =      0.57 TIME LEFT: 172799.40
 STEP:  15 TIME =     0.04 SECS, INTEGRAL =      0.61 TIME LEFT: 172799.35
 STEP:  16 TIME =     0.04 SECS, INTEGRAL =      0.65 TIME LEFT: 172799.32
 STEP:  17 TIME =     0.04 SECS, INTEGRAL =      0.68 TIME LEFT: 172799.28
 STEP:  18 TIME =     0.04 SECS, INTEGRAL =      0.72 TIME LEFT: 172799.24
 STEP:  19 TIME =     0.04 SECS, INTEGRAL =      0.76 TIME LEFT: 172799.20
 STEP:  20 TIME =     0.04 SECS, INTEGRAL =      0.80 TIME LEFT: 172799.16
 STEP:  21 TIME =     0.04 SECS, INTEGRAL =      0.84 TIME LEFT: 172799.12
 STEP:  22 TIME =     0.04 SECS, INTEGRAL =      0.88 TIME LEFT: 172799.08
 STEP:  23 TIME =     0.04 SECS, INTEGRAL =      0.92 TIME LEFT: 172799.04
 STEP:  24 TIME =     0.06 SECS, INTEGRAL =      0.97 TIME LEFT: 172798.99
 STEP:  25 TIME =     0.05 SECS, INTEGRAL =      1.02 TIME LEFT: 172798.94
 STEP:  26 TIME =     0.04 SECS, INTEGRAL =      1.06 TIME LEFT: 172798.90
 STEP:  27 TIME =     0.04 SECS, INTEGRAL =      1.10 TIME LEFT: 172798.86
 STEP:  28 TIME =     0.04 SECS, INTEGRAL =      1.14 TIME LEFT: 172798.82
 STEP:  29 TIME =     0.04 SECS, INTEGRAL =      1.18 TIME LEFT: 172798.78
 STEP:  30 TIME =     0.04 SECS, INTEGRAL =      1.22 TIME LEFT: 172798.74
 STEP:  31 TIME =     0.04 SECS, INTEGRAL =      1.26 TIME LEFT: 172798.71
 STEP:  32 TIME =     0.04 SECS, INTEGRAL =      1.30 TIME LEFT: 172798.67
 STEP:  33 TIME =     0.04 SECS, INTEGRAL =      1.34 TIME LEFT: 172798.62
 STEP:  34 TIME =     0.06 SECS, INTEGRAL =      1.40 TIME LEFT: 172798.56
 STEP:  35 TIME =     0.05 SECS, INTEGRAL =      1.44 TIME LEFT: 172798.52
 STEP:  36 TIME =     0.04 SECS, INTEGRAL =      1.48 TIME LEFT: 172798.48
 STEP:  37 TIME =     0.04 SECS, INTEGRAL =      1.52 TIME LEFT: 172798.44
 STEP:  38 TIME =     0.04 SECS, INTEGRAL =      1.56 TIME LEFT: 172798.40
 STEP:  39 TIME =     0.04 SECS, INTEGRAL =      1.60 TIME LEFT: 172798.36
 STEP:  40 TIME =     0.04 SECS, INTEGRAL =      1.64 TIME LEFT: 172798.32
 STEP:  41 TIME =     0.04 SECS, INTEGRAL =      1.68 TIME LEFT: 172798.28
 STEP:  42 TIME =     0.04 SECS, INTEGRAL =      1.72 TIME LEFT: 172798.24
 STEP:  43 TIME =     0.05 SECS, INTEGRAL =      1.77 TIME LEFT: 172798.19
 STEP:  44 TIME =     0.04 SECS, INTEGRAL =      1.81 TIME LEFT: 172798.15
 STEP:  45 TIME =     0.04 SECS, INTEGRAL =      1.85 TIME LEFT: 172798.11
 STEP:  46 TIME =     0.04 SECS, INTEGRAL =      1.89 TIME LEFT: 172798.07
 STEP:  47 TIME =     0.04 SECS, INTEGRAL =      1.94 TIME LEFT: 172798.03
 STEP:  48 TIME =     0.04 SECS, INTEGRAL =      1.97 TIME LEFT: 172797.99
 STEP:  49 TIME =     0.04 SECS, INTEGRAL =      2.01 TIME LEFT: 172797.95
 STEP:  50 TIME =     0.04 SECS, INTEGRAL =      2.05 TIME LEFT: 172797.91
 STEP:  51 TIME =     0.04 SECS, INTEGRAL =      2.09 TIME LEFT: 172797.87
 STEP:  52 TIME =     0.04 SECS, INTEGRAL =      2.13 TIME LEFT: 172797.83
 STEP:  53 TIME =     0.04 SECS, INTEGRAL =      2.17 TIME LEFT: 172797.79
 STEP:  54 TIME =     0.04 SECS, INTEGRAL =      2.21 TIME LEFT: 172797.75
 STEP:  55 TIME =     0.04 SECS, INTEGRAL =      2.25 TIME LEFT: 172797.71
 STEP:  56 TIME =     0.04 SECS, INTEGRAL =      2.29 TIME LEFT: 172797.67
 STEP:  57 TIME =     0.04 SECS, INTEGRAL =      2.33 TIME LEFT: 172797.63
 STEP:  58 TIME =     0.04 SECS, INTEGRAL =      2.37 TIME LEFT: 172797.59
 STEP:  59 TIME =     0.04 SECS, INTEGRAL =      2.41 TIME LEFT: 172797.55
 STEP:  60 TIME =     0.04 SECS, INTEGRAL =      2.45 TIME LEFT: 172797.51
 STEP:  61 TIME =     0.04 SECS, INTEGRAL =      2.49 TIME LEFT: 172797.47
 STEP:  62 TIME =     0.04 SECS, INTEGRAL =      2.53 TIME LEFT: 172797.43
 STEP:  63 TIME =     0.04 SECS, INTEGRAL =      2.57 TIME LEFT: 172797.39

(To convert to Hartree/Bohr^2, multiply by (10^(-21) x N x a0^2)/(4.184 x 627.51) =  0.0642)


           FORCE MATRIX IN MILLIDYNES/ANGSTROM


                  O  1       O  2       C  3       C  4       C  5       C  6
 ------------------------------------------------------------------------------
     O    1   8.551049
     O    2   2.570692  10.022725
     C    3   0.002585   0.003100  14.286879
     C    4   0.035090   0.009304   4.169708  14.247634
     C    5   0.019588   0.007823   4.173848   0.607907  14.242353
     C    6   0.876561   0.087928   0.618698   4.065103   0.031155  14.421026
     C    7   0.161604   0.029334   0.616812   0.033158   4.049379   0.079708
     C    8   5.502381   1.292518   0.026890   0.659876   0.047080   4.404578
     C    9   1.342135   0.144453   0.026125   0.039093   0.662161   0.669097
     H   10   0.004522   0.001186   0.430296   4.459046   0.050478   0.429975
     H   11   0.005279   0.002350   0.445471   4.474144   0.023227   0.443075
     H   12   0.001249   0.001114   4.453614   0.428644   0.429197   0.050750
     H   13   0.000816   0.001034   4.413391   0.445684   0.445699   0.027091
     H   14   0.001537   0.001595   0.445728   0.023466   4.467356   0.003098
     H   15   0.002264   0.002540   0.430646   0.050513   4.461661   0.002011
     H   16   0.095814   0.004071   0.047504   0.430911   0.002255   4.459519
     H   17   0.031812   0.007905   0.035272   0.453503   0.005506   4.397050
     H   18   0.012384   0.002066   0.048230   0.002307   0.432703   0.002215
     H   19   0.017735   0.003107   0.035175   0.005739   0.454082   0.020065
     H   20   0.115283   0.038798   0.001117   0.013104   0.024912   0.101072
     H   21   0.955315   8.694125   0.000581   0.001044   0.000916   0.005684


                  C  7       C  8       C  9       H 10       H 11       H 12
 ------------------------------------------------------------------------------
     C    7  14.592483
     C    8   0.767445  17.875031
     C    9   4.992686   9.705542  17.840735
     H   10   0.003032   0.046751   0.003897   5.054389
     H   11   0.003155   0.031794   0.004913   0.564470   5.085464
     H   12   0.050825   0.002938   0.003218   0.039589   0.026034   5.055557
     H   13   0.027290   0.003235   0.001980   0.026660   0.045421   0.569927
     H   14   0.443602   0.005127   0.031271   0.002471   0.022996   0.026055
     H   15   0.433546   0.002353   0.046491   0.008491   0.002600   0.039488
     H   16   0.002627   0.473431   0.048039   0.036906   0.018241   0.007702
     H   17   0.019065   0.419824   0.025931   0.017472   0.043885   0.002785
     H   18   4.485622   0.047811   0.436125   0.000324   0.000287   0.007906
     H   19   4.372867   0.035937   0.421375   0.000554   0.000808   0.002820
     H   20   0.428991   0.486500   4.810688   0.002171   0.000937   0.000441
     H   21   0.002539   0.150044   0.017078   0.000370   0.000712   0.000378


                  H 13       H 14       H 15       H 16       H 17       H 18
 ------------------------------------------------------------------------------
     H   13   5.038549
     H   14   0.045262   5.080446
     H   15   0.026584   0.565673   5.057399
     H   16   0.002448   0.000249   0.000354   5.056155
     H   17   0.029446   0.000812   0.000416   0.560026   5.001889
     H   18   0.002452   0.018160   0.036838   0.000377   0.000645   5.058420
     H   19   0.029398   0.043731   0.017256   0.000744   0.014888   0.565959
     H   20   0.000367   0.003062   0.003564   0.006328   0.008782   0.033762
     H   21   0.000274   0.000252   0.000289   0.001491   0.000904   0.000648


                  H 19       H 20       H 21
 ------------------------------------------
     H   19   4.983739
     H   20   0.025089   5.176324
     H   21   0.000418   0.003262   8.976987


          HEAT OF FORMATION =     -32.961001 KCALS/MOLE

          ZERO POINT ENERGY     112.787 KCAL/MOL


           NORMAL COORDINATE ANALYSIS (Total motion = 1 Angstrom)


   Root No.       1         2         3         4         5         6         7         8

                 1 A       2 A       3 A       4 A       5 A       6 A       7 A       8 A   

                  40.9     100.3     165.1     171.4     215.0     296.5     345.8     367.5
  
           1   -0.0083    0.0127   -0.0035   -0.0031   -0.0133   -0.0103   -0.0010    0.0032
           2   -0.0206    0.0158   -0.0048   -0.0019   -0.0003   -0.0368   -0.0068   -0.0351
           3   -0.0656    0.0295   -0.0158   -0.0057    0.0164   -0.0339    0.0060   -0.0063
           4   -0.0043    0.0131   -0.0019   -0.0031   -0.0140   -0.0079   -0.0009    0.0102
           5    0.0580    0.0483    0.0245   -0.0044    0.0336    0.0281    0.0031    0.0064
           6    0.1008   -0.0247   -0.0065   -0.0399   -0.0140   -0.0187   -0.0009   -0.0038
           7    0.0292    0.0376   -0.0168   -0.0104   -0.0062    0.0202   -0.0283   -0.0146
           8   -0.0095   -0.0031   -0.0096   -0.0061   -0.0196    0.0188    0.0034    0.0456
           9    0.0157    0.0098   -0.0164   -0.0039    0.0047   -0.0124   -0.0176    0.0183
          10    0.0382   -0.0179   -0.0106   -0.0013    0.0393   -0.0209    0.0235    0.0012
          11   -0.0225   -0.0179    0.0149    0.0037   -0.0220    0.0101    0.0011    0.0269
          12   -0.0001    0.0045    0.0087    0.0047   -0.0067   -0.0118   -0.0293   -0.0065
          13    0.0008    0.0318    0.0249    0.0088   -0.0158    0.0063    0.0249   -0.0187
          14   -0.0046   -0.0286   -0.0154   -0.0034    0.0153    0.0121   -0.0023    0.0096
          15   -0.0042    0.0090    0.0129    0.0089   -0.0068   -0.0199    0.0202    0.0216
          16    0.0137   -0.0370    0.0157    0.0087   -0.0156   -0.0052   -0.0035    0.0115
          17   -0.0112   -0.0010   -0.0034   -0.0031   -0.0026   -0.0107    0.0038    0.0269
          18   -0.0026   -0.0222    0.0327    0.0134    0.0042    0.0183   -0.0133   -0.0305
          19   -0.0288   -0.0121    0.0221    0.0133    0.0365   -0.0022   -0.0200    0.0213
          20    0.0089   -0.0086    0.0025    0.0046   -0.0025   -0.0152    0.0063   -0.0130
          21   -0.0074    0.0027   -0.0090   -0.0039   -0.0088    0.0259    0.0295    0.0256
          22   -0.0140   -0.0196   -0.0095   -0.0041   -0.0239   -0.0112   -0.0042    0.0042
          23   -0.0103   -0.0061    0.0017    0.0002   -0.0082   -0.0191   -0.0119   -0.0297
          24   -0.0282   -0.0028    0.0061   -0.0011    0.0033    0.0190   -0.0035    0.0019
          25   -0.0297   -0.0208   -0.0248   -0.0098    0.0083    0.0327    0.0082   -0.0208
          26    0.0004   -0.0154   -0.0105   -0.0034   -0.0033    0.0074    0.0060   -0.0433
          27   -0.0288   -0.0069   -0.0036   -0.0039    0.0145    0.0426    0.0069   -0.0104
          28    0.0614   -0.0358   -0.0270   -0.0039    0.1040   -0.0476    0.0824    0.0035
          29   -0.0269   -0.0135    0.0259    0.0060   -0.0197    0.0250   -0.0067   -0.0018
          30    0.0135   -0.0063   -0.0032    0.0026    0.0261   -0.0299    0.0032    0.0035
          31    0.0422   -0.0271   -0.0118   -0.0004    0.0526   -0.0279    0.0387    0.0042
          32   -0.0375   -0.0465    0.0375    0.0143   -0.0444    0.0121   -0.0027    0.0359
          33   -0.0238    0.0322    0.0238    0.0055   -0.0733    0.0193   -0.0936   -0.0161
          34    0.0500    0.0795   -0.0574   -0.0333   -0.0293    0.0543   -0.0930    0.0088
          35   -0.0174   -0.0183    0.0069    0.0018   -0.0148    0.0058    0.0194    0.0404
          36    0.0207    0.0183   -0.0284   -0.0079    0.0070   -0.0034   -0.0180    0.0168
          37    0.0242    0.0419   -0.0112   -0.0084   -0.0120    0.0223   -0.0250   -0.0158
          38    0.0054    0.0466   -0.0447   -0.0267   -0.0496    0.0565   -0.0517    0.0649
          39    0.0392    0.0073   -0.0478   -0.0173    0.0184   -0.0093   -0.0472    0.0314
          40    0.0055    0.0270    0.0124    0.0038   -0.0064    0.0133    0.0087   -0.0185
          41   -0.0179   -0.0707   -0.0439   -0.0119    0.0685    0.0352   -0.0535    0.0371
          42   -0.0282    0.0091    0.0489    0.0248   -0.0198   -0.0383    0.0618    0.0327
          43   -0.0029    0.0677    0.0692    0.0246   -0.0699   -0.0211    0.0958   -0.0319
          44    0.0021   -0.0231   -0.0097    0.0001    0.0128   -0.0024   -0.0014   -0.0083
          45    0.0066    0.0147    0.0183    0.0130   -0.0069   -0.0406    0.0178   -0.0063
          46    0.0264   -0.0768    0.0630    0.0288   -0.0303    0.0241   -0.0143   -0.0456
          47   -0.0198   -0.0062   -0.0006   -0.0031   -0.0007    0.0057    0.0156    0.0402
          48   -0.0065   -0.0342    0.0446    0.0177    0.0023    0.0358   -0.0076   -0.0336
          49    0.0050   -0.0200   -0.0040   -0.0005   -0.0130   -0.0151   -0.0012    0.0358
          50    0.0048    0.0254   -0.0319   -0.0138    0.0254   -0.0345    0.0127    0.0500
          51    0.0206   -0.0500    0.0658    0.0294    0.0079    0.0331   -0.0157   -0.0772
          52   -0.0492   -0.0280    0.0579    0.0340    0.0901   -0.0467   -0.0810    0.0625
          53    0.0159   -0.0090    0.0004    0.0063   -0.0097   -0.0389    0.0088   -0.0007
          54   -0.0138   -0.0029    0.0037    0.0039    0.0094    0.0065    0.0084    0.0418
          55   -0.0308   -0.0139    0.0246    0.0149    0.0411   -0.0059   -0.0256    0.0243
          56    0.0198    0.0152    0.0286    0.0155   -0.0058   -0.0376    0.0062   -0.0068
          57    0.0161    0.0230   -0.0433   -0.0245   -0.0649    0.0700    0.0901   -0.0160
          58   -0.0453   -0.0158   -0.0567   -0.0264    0.0216    0.0741    0.0311   -0.0868
          59    0.0003   -0.0127   -0.0386   -0.0172   -0.0090    0.0327    0.0339   -0.0767
          60   -0.0450   -0.0036   -0.0135   -0.0100    0.0325    0.0630    0.0077   -0.0500
          61    0.0017    0.0447    0.0135    0.0036    0.0157    0.0308    0.0075    0.0349
          62    0.0594    0.0550   -0.0076    0.2174    0.0297    0.0367    0.0031    0.0074
          63    0.1028   -0.0140   -0.0907    0.5187   -0.0300   -0.0055   -0.0027   -0.0069


   Root No.       9        10        11        12        13        14        15        16

                 9 A      10 A      11 A      12 A      13 A      14 A      15 A      16 A   

                 376.7     442.3     521.9     596.4     607.0     782.9     818.9     865.4
  
           1   -0.0242   -0.0103    0.0015   -0.0083    0.0066    0.1211   -0.0111    0.0110
           2    0.0109   -0.0008    0.0104    0.0386    0.0198    0.0063    0.0258    0.0177
           3   -0.0076    0.0522   -0.0009   -0.0180   -0.0210   -0.0161   -0.0099   -0.0060
           4   -0.0381   -0.0352    0.0087    0.0304   -0.0314   -0.0908    0.0041   -0.0069
           5    0.0289    0.0170   -0.0056   -0.0108    0.0077   -0.0099    0.0007   -0.0019
           6   -0.0116   -0.0003    0.0018    0.0030   -0.0030    0.0042   -0.0004    0.0008
           7   -0.0123    0.0048   -0.0073    0.0012   -0.0048    0.0082    0.0143   -0.0177
           8   -0.0101    0.0105    0.0324   -0.0035    0.0046    0.0151   -0.0113   -0.0054
           9    0.0173    0.0015    0.0132    0.0011   -0.0026    0.0047   -0.0060   -0.0134
          10    0.0104   -0.0124   -0.0025   -0.0047   -0.0115    0.0019    0.0168    0.0202
          11    0.0149   -0.0111    0.0021    0.0034   -0.0223    0.0172   -0.0091   -0.0150
          12    0.0370   -0.0217   -0.0228    0.0058   -0.0319    0.0126   -0.0382   -0.0063
          13   -0.0193    0.0051   -0.0166    0.0116    0.0025    0.0098   -0.0072   -0.0113
          14   -0.0455    0.0279   -0.0226    0.0092   -0.0035   -0.0045   -0.0188    0.0170
          15    0.0155    0.0010    0.0152    0.0038    0.0028    0.0074    0.0199   -0.0119
          16    0.0293    0.0403   -0.0063   -0.0224   -0.0175   -0.0205    0.0189    0.0158
          17    0.0256   -0.0344   -0.0092    0.0079   -0.0203    0.0033    0.0037   -0.0107
          18   -0.0135   -0.0045    0.0109    0.0116    0.0091   -0.0003   -0.0220    0.0133
          19   -0.0059    0.0038    0.0023    0.0221    0.0089   -0.0012   -0.0175    0.0146
          20   -0.0362    0.0141   -0.0073   -0.0234   -0.0134   -0.0141   -0.0104   -0.0020
          21   -0.0045    0.0161   -0.0152    0.0358    0.0171    0.0139    0.0403    0.0067
          22    0.0228    0.0103   -0.0182   -0.0363    0.0625   -0.0232   -0.0008   -0.0203
          23    0.0202   -0.0189   -0.0011    0.0123    0.0522   -0.0056    0.0078   -0.0024
          24   -0.0151   -0.0343   -0.0121   -0.0230    0.0436   -0.0162    0.0069   -0.0018
          25    0.0584    0.0064    0.0114    0.0134   -0.0015   -0.0204   -0.0172   -0.0024
          26   -0.0127   -0.0109    0.0018   -0.0367   -0.0121   -0.0171    0.0042   -0.0036
          27   -0.0176   -0.0322   -0.0024   -0.0276    0.0033   -0.0088    0.0159    0.0068
          28   -0.0142   -0.0544    0.0499    0.0131    0.0719    0.0167   -0.0906   -0.0662
          29   -0.0026   -0.0290   -0.0086    0.0156   -0.0170    0.0245   -0.0177   -0.0181
          30    0.0295   -0.0372    0.0076    0.0114    0.0083    0.0177   -0.0906   -0.0493
          31    0.0072   -0.0176    0.0110   -0.0030    0.0071    0.0022   -0.0053    0.0055
          32    0.0357    0.0166   -0.0092   -0.0134   -0.0557    0.0029    0.0184    0.0437
          33    0.0565    0.0141   -0.0774   -0.0086   -0.1139    0.0016    0.0638    0.0748
          34   -0.0152    0.0168    0.0746   -0.0322    0.0448   -0.0571   -0.0121    0.0630
          35    0.0071   -0.0059    0.0082    0.0054   -0.0219    0.0451   -0.0076   -0.0377
          36   -0.0169    0.0296    0.0211   -0.0002    0.0261   -0.0234   -0.0003    0.0123
          37   -0.0163    0.0070   -0.0075    0.0026   -0.0014    0.0107    0.0133   -0.0266
          38   -0.0272    0.0314    0.1049   -0.0302    0.0600   -0.0466   -0.0389    0.0667
          39    0.0274    0.0000    0.0453   -0.0164    0.0066   -0.0285   -0.0172    0.0493
          40   -0.0235    0.0099   -0.0285    0.0255    0.0022    0.0232    0.0056   -0.0382
          41   -0.0626    0.0538   -0.0713    0.0961    0.0077    0.0544    0.0167   -0.0342
          42    0.0270   -0.0097    0.0480   -0.0210    0.0100   -0.0254   -0.0143    0.0774
          43    0.0021   -0.0234    0.0473   -0.0759    0.0003   -0.0561   -0.0604    0.0863
          44   -0.0454    0.0236   -0.0212   -0.0141   -0.0134   -0.0271   -0.0358    0.0169
          45    0.0146   -0.0043    0.0132   -0.0271   -0.0122   -0.0246   -0.0039   -0.0174
          46    0.0058    0.1337    0.0694    0.0419   -0.0229    0.0096    0.0488   -0.0691
          47    0.0050   -0.0309    0.0002   -0.0020   -0.0200   -0.0065    0.0267   -0.0265
          48   -0.0327    0.0204    0.0343    0.0190    0.0081   -0.0028    0.0017   -0.0164
          49    0.0372    0.0020   -0.0373   -0.0545   -0.0043   -0.0371    0.0099    0.0443
          50    0.0445   -0.0957   -0.0428   -0.0039   -0.0674    0.0192   -0.0230    0.0754
          51   -0.0269    0.0606    0.0709    0.0777   -0.0316    0.0414   -0.0112   -0.0263
          52   -0.0437   -0.0332    0.0444   -0.0629   -0.0093    0.0416    0.1177   -0.0231
          53   -0.0034    0.0300    0.0086   -0.0065   -0.0148   -0.0216   -0.0148   -0.0245
          54   -0.0130    0.0050    0.0021    0.0086    0.0108    0.0280    0.0879   -0.0089
          55   -0.0080    0.0001    0.0074    0.0131    0.0064    0.0023   -0.0057    0.0106
          56   -0.0846    0.0109   -0.0150   -0.0458   -0.0233    0.0248    0.0178   -0.0184
          57    0.0293    0.0535   -0.0559    0.1234    0.0381   -0.0234   -0.0890    0.0495
          58    0.0778   -0.0171    0.0610    0.0007   -0.1395    0.1210    0.0342   -0.0130
          59   -0.0042   -0.0051    0.0226   -0.0594   -0.1034    0.0677    0.0426   -0.0274
          60   -0.0033   -0.0601    0.0308   -0.0209   -0.0611    0.0637    0.0365    0.0163
          61   -0.0133    0.0056   -0.0094   -0.0367   -0.0220   -0.0180   -0.0319   -0.0247
          62    0.0297    0.0149   -0.0066   -0.0146    0.0083   -0.0117   -0.0012   -0.0041
          63   -0.0145   -0.0124    0.0027    0.0047   -0.0007    0.0060    0.0014    0.0016


   Root No.      17        18        19        20        21        22        23        24

                17 A      18 A      19 A      20 A      21 A      22 A      23 A      24 A   

                 879.2     889.0     927.1     953.1     958.7     994.1    1031.6    1067.9
  
           1    0.0006   -0.0181   -0.0003   -0.0052   -0.0021    0.0059   -0.0024    0.0021
           2   -0.0022    0.0146    0.0011   -0.0123   -0.0060    0.0046   -0.0162    0.0041
           3    0.0019   -0.0041    0.0034   -0.0009    0.0021   -0.0028    0.0043   -0.0011
           4   -0.0007    0.0058    0.0006    0.0012    0.0003   -0.0024    0.0024   -0.0011
           5   -0.0000    0.0027   -0.0001    0.0016    0.0005   -0.0008    0.0001   -0.0001
           6    0.0002   -0.0008    0.0006   -0.0008   -0.0001    0.0002   -0.0001    0.0001
           7   -0.0192   -0.0056    0.0086    0.0016    0.0133    0.0040   -0.0155   -0.0056
           8   -0.0333    0.0280   -0.0007   -0.0265    0.0145   -0.0119    0.0105   -0.0044
           9   -0.0172    0.0059   -0.0254   -0.0102    0.0012    0.0078   -0.0026    0.0135
          10   -0.0151   -0.0087   -0.0042    0.0002    0.0175   -0.0159    0.0149   -0.0015
          11    0.0087   -0.0051    0.0077    0.0013    0.0048   -0.0008   -0.0145    0.0052
          12   -0.0011    0.0158    0.0187   -0.0011   -0.0302   -0.0123   -0.0036   -0.0102
          13    0.0107    0.0176   -0.0114   -0.0118   -0.0078    0.0073    0.0145    0.0101
          14   -0.0270    0.0105   -0.0013    0.0309   -0.0156    0.0174   -0.0040    0.0027
          15    0.0131   -0.0086   -0.0063   -0.0053    0.0286    0.0053    0.0024    0.0025
          16    0.0163    0.0182   -0.0080   -0.0172   -0.0130    0.0151   -0.0191   -0.0011
          17    0.0104   -0.0294   -0.0193    0.0213   -0.0207    0.0119    0.0056    0.0021
          18    0.0052    0.0151    0.0239    0.0046    0.0353    0.0113    0.0060    0.0160
          19    0.0101   -0.0070   -0.0176   -0.0066    0.0058   -0.0168   -0.0152   -0.0184
          20    0.0113   -0.0130    0.0078    0.0034    0.0088   -0.0074   -0.0031   -0.0088
          21    0.0060   -0.0011    0.0389    0.0115   -0.0222   -0.0071   -0.0041   -0.0069
          22   -0.0012    0.0110   -0.0009    0.0271    0.0063   -0.0129    0.0159   -0.0038
          23   -0.0039    0.0023   -0.0084    0.0095    0.0012   -0.0035    0.0133   -0.0092
          24   -0.0034    0.0034   -0.0209    0.0107    0.0049   -0.0004    0.0032   -0.0127
          25   -0.0121   -0.0215    0.0253   -0.0093    0.0020    0.0121    0.0121    0.0284
          26    0.0081   -0.0190    0.0069   -0.0395   -0.0074   -0.0102   -0.0026    0.0005
          27   -0.0030   -0.0128   -0.0111   -0.0295   -0.0182    0.0024   -0.0089   -0.0030
          28    0.0428    0.0330    0.0494    0.0085   -0.0518    0.0018   -0.0494   -0.0013
          29    0.0180   -0.0451    0.0736    0.0798    0.0780   -0.0283   -0.0696    0.0803
          30    0.0256    0.0482    0.0245   -0.0196   -0.0892    0.0060   -0.0192   -0.0318
          31    0.0079    0.0072    0.0031   -0.0100   -0.0022    0.0015    0.0108   -0.0103
          32    0.0484    0.0197   -0.0102   -0.0558    0.0109    0.0522    0.0597   -0.0351
          33   -0.0743   -0.0408   -0.0209    0.0211    0.0479   -0.0589    0.0391    0.0106
          34    0.1234   -0.0482    0.0363    0.0504   -0.0367   -0.0289   -0.0166   -0.0172
          35   -0.0715    0.0334    0.0121   -0.0527    0.0365   -0.0619   -0.0148   -0.0216
          36   -0.0099    0.0157   -0.0668    0.0193   -0.0138    0.1285    0.0503    0.0570
          37   -0.0121    0.0047    0.0137   -0.0074    0.0118    0.0338   -0.0016   -0.0180
          38    0.1102    0.0117    0.0160    0.0054   -0.0311    0.0272    0.0584   -0.0151
          39    0.0047   -0.0367   -0.0382    0.0369   -0.0159   -0.0969   -0.0423    0.0563
          40    0.0294    0.0203   -0.0108   -0.0317    0.0036    0.0228    0.0207    0.0057
          41    0.0795    0.0285   -0.0402   -0.0335    0.0344   -0.0430    0.0464    0.0382
          42   -0.0175   -0.0164   -0.0185    0.0507    0.0011   -0.0817   -0.0051    0.0308
          43   -0.1043    0.0114    0.0223    0.0735   -0.0815    0.0057   -0.0221   -0.0044
          44   -0.0280   -0.0144   -0.0126    0.0616   -0.0044    0.0752   -0.0312   -0.0043
          45    0.0170   -0.0476   -0.0296    0.0365    0.0505    0.0967   -0.0383   -0.0050
          46   -0.0206   -0.0756   -0.0787    0.0217   -0.1213   -0.0230    0.0031   -0.0438
          47    0.0144   -0.0601   -0.0540    0.0482    0.0146    0.0310   -0.0639    0.0753
          48   -0.0013   -0.0269   -0.0170    0.0321    0.0371    0.0161   -0.0375    0.0586
          49    0.0340    0.0645    0.0170   -0.0343    0.0271    0.0309   -0.0654    0.0248
          50    0.0352    0.0001    0.0365   -0.0087    0.0192    0.0496    0.1524   -0.0298
          51   -0.0265   -0.0757   -0.0134    0.0344   -0.0413   -0.0134    0.1442   -0.0474
          52   -0.0204    0.0235    0.1014    0.0262   -0.0569    0.0132    0.0167    0.0141
          53    0.0217   -0.0561    0.0612    0.0298    0.1209    0.0223   -0.0184   -0.1536
          54   -0.0036    0.0033    0.0883    0.0279   -0.0291    0.0085    0.0041   -0.0163
          55    0.0048   -0.0050   -0.0054   -0.0030    0.0013   -0.0104   -0.0130   -0.0191
          56    0.0632    0.0455   -0.0236    0.0260   -0.0332   -0.0866    0.0683    0.1655
          57    0.0448   -0.0279   -0.0834   -0.0187    0.0262   -0.0539   -0.0377   -0.0322
          58    0.0387    0.1310   -0.0532    0.1411    0.0376   -0.0104   -0.0029   -0.0371
          59    0.0509    0.0645    0.0139    0.0621    0.0101   -0.0439    0.0056   -0.0199
          60    0.0133    0.0720   -0.0989    0.0371    0.0034    0.0078   -0.0325   -0.0561
          61    0.0028   -0.0184    0.0001    0.0201    0.0102   -0.0089    0.0289   -0.0069
          62    0.0002    0.0019   -0.0006    0.0039    0.0014   -0.0018    0.0026   -0.0009
          63    0.0001   -0.0003   -0.0007   -0.0008   -0.0007    0.0003   -0.0010   -0.0001


   Root No.      25        26        27        28        29        30        31        32

                25 A      26 A      27 A      28 A      29 A      30 A      31 A      32 A   

                1094.2    1109.9    1132.2    1136.1    1158.6    1162.1    1166.6    1235.2
  
           1   -0.0013   -0.0021   -0.0005    0.0039    0.0003    0.0001    0.0004    0.0000
           2    0.0030    0.0004   -0.0009    0.0007   -0.0019    0.0003   -0.0039   -0.0143
           3   -0.0020    0.0008    0.0002   -0.0024    0.0005    0.0000    0.0015    0.0056
           4    0.0005    0.0012    0.0001   -0.0007    0.0003   -0.0003    0.0007    0.0008
           5    0.0004    0.0002    0.0000   -0.0004   -0.0002    0.0000   -0.0004   -0.0016
           6   -0.0002   -0.0002    0.0000   -0.0002    0.0001    0.0000    0.0000    0.0007
           7   -0.0010    0.0069   -0.0087   -0.0023    0.0500    0.0031   -0.0057   -0.0025
           8   -0.0035   -0.0009   -0.0096    0.0057   -0.0184   -0.0008   -0.0066   -0.0063
           9    0.0016   -0.0131   -0.0015   -0.0151    0.0068    0.0011    0.0153    0.0080
          10    0.0098    0.0037    0.0216   -0.0007   -0.0247   -0.0226   -0.0101   -0.0004
          11    0.0165    0.0087    0.0131   -0.0135    0.0092   -0.0073    0.0109   -0.0105
          12   -0.0008    0.0059    0.0127    0.0078   -0.0125   -0.0148   -0.0116   -0.0004
          13   -0.0017   -0.0004    0.0263    0.0030   -0.0316    0.0206    0.0156   -0.0040
          14    0.0013    0.0119    0.0130    0.0032    0.0022    0.0095   -0.0020    0.0060
          15   -0.0014    0.0246    0.0057    0.0025    0.0005    0.0067   -0.0098    0.0148
          16   -0.0144    0.0063   -0.0244    0.0108    0.0016    0.0120    0.0080   -0.0029
          17   -0.0185   -0.0114   -0.0105    0.0082   -0.0009    0.0070   -0.0024   -0.0026
          18   -0.0091   -0.0145   -0.0076    0.0002    0.0029    0.0113   -0.0036    0.0037
          19   -0.0013   -0.0133   -0.0209   -0.0236    0.0024   -0.0119   -0.0060   -0.0018
          20    0.0061   -0.0121   -0.0103    0.0080    0.0015   -0.0081    0.0035    0.0204
          21    0.0043   -0.0129   -0.0097   -0.0078   -0.0010   -0.0045    0.0010    0.0100
          22    0.0000   -0.0014    0.0002   -0.0145   -0.0012    0.0025   -0.0058    0.0058
          23    0.0026    0.0031   -0.0007    0.0030    0.0028   -0.0017    0.0072    0.0174
          24    0.0046   -0.0020    0.0001    0.0075    0.0006   -0.0013    0.0007   -0.0194
          25    0.0097   -0.0035    0.0011    0.0223    0.0036   -0.0012    0.0004   -0.0052
          26   -0.0154    0.0033    0.0026   -0.0189   -0.0012    0.0019   -0.0000    0.0179
          27    0.0024    0.0088   -0.0027    0.0053   -0.0008   -0.0020    0.0031   -0.0222
          28   -0.0107    0.0365   -0.0025   -0.0045    0.0066   -0.0192    0.0100   -0.0044
          29   -0.0210    0.1316   -0.0301   -0.0854   -0.0571   -0.0701    0.1131    0.0167
          30   -0.0006   -0.0172    0.0152    0.0277    0.0232    0.0057   -0.0326   -0.0112
          31    0.0245   -0.0028    0.0336   -0.0089    0.0155   -0.0200   -0.0066    0.0055
          32    0.1412   -0.0530    0.1516   -0.0754    0.1649   -0.0396    0.0113    0.0325
          33   -0.0139    0.0084    0.0256    0.0174   -0.1138   -0.0473   -0.0302   -0.0082
          34    0.0310    0.0216    0.0427    0.0219   -0.0100    0.0368   -0.0239    0.0254
          35    0.0306   -0.0001   -0.0298    0.0239   -0.0057    0.0560   -0.0345    0.0198
          36   -0.0824   -0.0173    0.0152   -0.0670    0.0104   -0.1333    0.0820   -0.0622
          37   -0.0200    0.0213   -0.0126    0.0011    0.0554   -0.0405   -0.0413    0.0110
          38   -0.0195    0.0325    0.0265    0.0214   -0.1021   -0.0699   -0.0553    0.0093
          39    0.0694   -0.0597    0.0371   -0.0227   -0.0348    0.1500    0.1383   -0.0388
          40    0.0164   -0.0121    0.0199   -0.0012   -0.0738    0.0224    0.0245    0.0073
          41   -0.0670    0.0734    0.1053    0.0527    0.0353    0.0581   -0.0046   -0.0385
          42   -0.1002    0.0952    0.0756    0.0388    0.1810    0.0278   -0.0426   -0.0483
          43   -0.0164   -0.0260    0.0206   -0.0054    0.0295    0.0011    0.0275    0.0057
          44    0.0821    0.0448   -0.0172   -0.0056   -0.0348    0.0389   -0.0546   -0.0475
          45    0.1254    0.0781   -0.0427   -0.0155   -0.0604    0.0533   -0.0924   -0.0689
          46   -0.0017    0.0368   -0.0063    0.0177   -0.0163   -0.0217    0.0121   -0.0274
          47   -0.0566   -0.1206    0.0425    0.0309   -0.0169    0.0159   -0.0852    0.0713
          48   -0.0334   -0.0875    0.0345    0.0184   -0.0127    0.0111   -0.0635    0.0512
          49   -0.0236   -0.0046   -0.0215    0.0221   -0.0013    0.0103    0.0074   -0.0003
          50   -0.0338    0.0176   -0.1311   -0.0251    0.0455    0.0999    0.0276    0.0135
          51    0.0048    0.0186   -0.0480   -0.0312    0.0187    0.0394    0.0048    0.0015
          52    0.0060   -0.0107    0.0101   -0.0092   -0.0169    0.0122    0.0086    0.0249
          53   -0.0285   -0.0773    0.0356    0.1428    0.0007   -0.0342    0.0977   -0.1239
          54    0.0032   -0.0195    0.0073    0.0163   -0.0078    0.0009    0.0191    0.0017
          55   -0.0029   -0.0126   -0.0137   -0.0237   -0.0025   -0.0065   -0.0040    0.0004
          56    0.1006   -0.0341   -0.1181    0.1060    0.0763   -0.0942   -0.0076   -0.0680
          57    0.0138   -0.0224   -0.0692   -0.0364    0.0212   -0.0413   -0.0148    0.0091
          58    0.0053   -0.0100   -0.0102    0.0040    0.0008   -0.0023    0.0045    0.0221
          59   -0.0526   -0.0561    0.0071   -0.1387   -0.0156    0.0268   -0.0663   -0.1397
          60    0.0292    0.0537   -0.0184    0.0898    0.0085   -0.0251    0.0658    0.1416
          61   -0.0067   -0.0019    0.0019   -0.0055    0.0040    0.0004    0.0070    0.0487
          62   -0.0002    0.0000    0.0002   -0.0010    0.0000    0.0001    0.0001    0.0026
          63   -0.0002   -0.0001   -0.0001    0.0002   -0.0003   -0.0000   -0.0003   -0.0016


   Root No.      33        34        35        36        37        38        39        40

                33 A      34 A      35 A      36 A      37 A      38 A      39 A      40 A   

                1253.4    1291.6    1327.4    1365.6    1381.5    1394.1    1401.8    1406.1
  
           1   -0.0036   -0.0028   -0.0011   -0.0014    0.0020   -0.0012    0.0002    0.0009
           2    0.0224    0.0039    0.0126    0.0015    0.0054   -0.0017    0.0001   -0.0009
           3   -0.0077   -0.0002   -0.0043    0.0003   -0.0022    0.0005    0.0003    0.0001
           4   -0.0016   -0.0003   -0.0005   -0.0002    0.0011   -0.0004    0.0009    0.0007
           5    0.0036    0.0010    0.0036    0.0004    0.0052   -0.0024    0.0020    0.0010
           6   -0.0014   -0.0002   -0.0014   -0.0000   -0.0021    0.0010   -0.0008   -0.0004
           7   -0.0048    0.0072    0.0001   -0.0120   -0.0011   -0.0057    0.0061   -0.0069
           8   -0.0027    0.0125   -0.0072   -0.0177   -0.0025   -0.0097   -0.0102   -0.0156
           9    0.0160   -0.0238   -0.0120    0.0372    0.0163    0.0195   -0.0073    0.0318
          10   -0.0067   -0.0008    0.0044    0.0099    0.0037    0.0075    0.0072   -0.0097
          11   -0.0178    0.0168    0.0393    0.0324   -0.0106    0.0332    0.0114    0.0116
          12    0.0112    0.0070   -0.0055   -0.0067    0.0036   -0.0038    0.0112   -0.0372
          13    0.0016    0.0030   -0.0043   -0.0035    0.0085   -0.0004    0.0060    0.0134
          14    0.0077   -0.0199    0.0138   -0.0042   -0.0246   -0.0146    0.0154    0.0048
          15    0.0015   -0.0213    0.0290   -0.0152   -0.0320   -0.0198    0.0111   -0.0154
          16    0.0022   -0.0025   -0.0015    0.0031   -0.0028   -0.0172   -0.0152   -0.0003
          17   -0.0243   -0.0203   -0.0072   -0.0026    0.0233   -0.0351   -0.0077   -0.0017
          18   -0.0271   -0.0081   -0.0007    0.0020    0.0102   -0.0041    0.0041    0.0041
          19   -0.0005   -0.0008    0.0004   -0.0018   -0.0054    0.0073   -0.0102   -0.0096
          20   -0.0024   -0.0003    0.0208   -0.0205    0.0510    0.0156   -0.0036    0.0098
          21   -0.0095    0.0085   -0.0060   -0.0031    0.0093    0.0201   -0.0196   -0.0093
          22    0.0203    0.0170    0.0139    0.0090    0.0104   -0.0075    0.0033   -0.0034
          23   -0.0331   -0.0098   -0.0276   -0.0063   -0.0243    0.0147   -0.0055    0.0006
          24    0.0076   -0.0124    0.0054   -0.0093    0.0052    0.0051    0.0021    0.0053
          25   -0.0021   -0.0082    0.0033   -0.0060    0.0065    0.0019    0.0016    0.0040
          26   -0.0076    0.0158   -0.0127    0.0143   -0.0175   -0.0072   -0.0002   -0.0070
          27    0.0158   -0.0039    0.0052   -0.0007   -0.0008   -0.0024   -0.0003    0.0001
          28    0.0333    0.0333   -0.0056   -0.0745   -0.0596   -0.0257   -0.0766    0.1532
          29    0.1274   -0.0397   -0.0891   -0.0345    0.0205   -0.0322   -0.0215   -0.0190
          30   -0.0118    0.0466    0.0300   -0.0364   -0.0451   -0.0026   -0.0304    0.0748
          31    0.0064   -0.0108   -0.0131    0.0038    0.0160   -0.0029    0.0173   -0.0450
          32    0.0630   -0.0238   -0.0749   -0.0774    0.0041   -0.0553   -0.0303    0.0206
          33   -0.0099    0.0398    0.0203   -0.0504   -0.0619   -0.0068   -0.0786    0.1815
          34    0.0007   -0.0458    0.0646    0.0351   -0.0615    0.0055   -0.0497    0.0053
          35    0.0348   -0.0361   -0.0505    0.0083    0.0321   -0.0033    0.0092    0.0227
          36   -0.0605    0.1063    0.0311   -0.0446   -0.0118   -0.0002   -0.0057   -0.0524
          37    0.0092   -0.0185   -0.0020    0.0216    0.0050    0.0086   -0.0037    0.0148
          38    0.0289   -0.0142   -0.0555    0.0141    0.0620    0.0080    0.0571    0.0239
          39   -0.0324    0.0645   -0.0026   -0.0792   -0.0034   -0.0304    0.0296   -0.0449
          40    0.0081   -0.0159    0.0048    0.0133   -0.0151   -0.0007   -0.0103   -0.0165
          41    0.0065    0.0164   -0.0513    0.0819    0.0210    0.0436   -0.0673   -0.0474
          42   -0.0219    0.0634   -0.0413   -0.0187    0.0737    0.0169    0.0172    0.0531
          43    0.0277   -0.0440   -0.0187    0.1019   -0.0408    0.0308   -0.0605   -0.0624
          44   -0.0117    0.0421   -0.0582    0.0275    0.0075    0.0152   -0.0234   -0.0074
          45   -0.0342    0.0833   -0.0791    0.0134    0.0260    0.0203   -0.0345   -0.0182
          46    0.0110   -0.0428   -0.0488   -0.0802   -0.0142    0.1429    0.0940    0.0153
          47    0.1168    0.0657   -0.0249   -0.0129   -0.0450    0.0189   -0.0046   -0.0265
          48    0.0745    0.0469   -0.0187   -0.0163   -0.0378    0.0520    0.0196   -0.0128
          49   -0.0255   -0.0232   -0.0290   -0.0303   -0.0158    0.0645    0.0354    0.0130
          50    0.1089    0.0397   -0.0045   -0.0323   -0.0520    0.1314    0.0557    0.0203
          51    0.0738    0.0510    0.0527    0.0525    0.0112   -0.0971   -0.0656   -0.0149
          52   -0.0231    0.0476   -0.0549    0.0600   -0.0054   -0.0934    0.1057    0.0771
          53    0.0579    0.0103   -0.0431    0.0443   -0.0547   -0.0164    0.0028   -0.0004
          54   -0.0108    0.0319   -0.0397    0.0340   -0.0077   -0.0303    0.0334    0.0273
          55   -0.0012   -0.0011    0.0016   -0.0037   -0.0011    0.0094   -0.0116   -0.0093
          56    0.0183   -0.0118   -0.0181    0.0217   -0.0686   -0.0133   -0.0073   -0.0214
          57   -0.0124    0.0435   -0.0508    0.0674   -0.0355   -0.1122    0.1165    0.0709
          58   -0.0113   -0.0006    0.0029   -0.0071    0.0155    0.0054   -0.0022    0.0029
          59   -0.0045   -0.0646   -0.0137   -0.0147   -0.0281    0.0016    0.0037    0.0063
          60    0.0040    0.0742    0.0044    0.0240    0.0160   -0.0062   -0.0084   -0.0134
          61   -0.0699   -0.0073   -0.0726   -0.0004   -0.1094    0.0499   -0.0405   -0.0233
          62   -0.0024    0.0004   -0.0031    0.0004   -0.0056    0.0026   -0.0020   -0.0014
          63    0.0010   -0.0005    0.0012   -0.0003    0.0021   -0.0008    0.0010    0.0007


   Root No.      41        42        43        44        45        46        47        48

                41 A      42 A      43 A      44 A      45 A      46 A      47 A      48 A   

                1406.7    1414.6    1429.8    1445.7    1852.8    2939.4    2943.5    2945.3
  
           1    0.0016   -0.0010   -0.0025   -0.0158    0.0047    0.0000    0.0002   -0.0000
           2   -0.0008    0.0015    0.0090    0.0526    0.0200   -0.0001   -0.0003    0.0001
           3    0.0005   -0.0005   -0.0054   -0.0176   -0.0071   -0.0001   -0.0001    0.0000
           4    0.0018   -0.0012   -0.0051   -0.0187   -0.0084    0.0000    0.0000    0.0000
           5    0.0040   -0.0020   -0.0092   -0.0172   -0.0022    0.0000   -0.0000    0.0000
           6   -0.0016    0.0008    0.0034    0.0069    0.0003   -0.0000   -0.0000    0.0000
           7    0.0076    0.0241    0.0011   -0.0009   -0.0003   -0.0037   -0.0048   -0.0270
           8    0.0045   -0.0337    0.0026    0.0018    0.0002   -0.0019   -0.0028   -0.0164
           9   -0.0145   -0.0073   -0.0048    0.0016    0.0000   -0.0019   -0.0023   -0.0146
          10   -0.0041   -0.0032    0.0005   -0.0006   -0.0017    0.0018    0.0051    0.0068
          11   -0.0070    0.0145    0.0062   -0.0100   -0.0012   -0.0004   -0.0011   -0.0016
          12   -0.0054   -0.0083    0.0090   -0.0066    0.0021   -0.0004   -0.0013   -0.0025
          13   -0.0240   -0.0096   -0.0039    0.0008   -0.0003    0.0034   -0.0005    0.0058
          14   -0.0179    0.0058   -0.0118    0.0001    0.0007   -0.0022    0.0003   -0.0047
          15    0.0158    0.0132    0.0017   -0.0003   -0.0030    0.0020   -0.0002    0.0040
          16   -0.0118    0.0073    0.0234   -0.0281    0.0182   -0.0074   -0.0182    0.0037
          17    0.0073   -0.0027   -0.0229    0.0352   -0.0053    0.0055    0.0149   -0.0033
          18    0.0096   -0.0032   -0.0265    0.0310   -0.0293   -0.0101   -0.0264    0.0061
          19   -0.0041    0.0061   -0.0146    0.0000    0.0067   -0.0324    0.0125    0.0022
          20    0.0155   -0.0070    0.0437    0.0008   -0.0326   -0.0030    0.0012    0.0004
          21   -0.0090    0.0052   -0.0164   -0.0040    0.0214    0.0161   -0.0067   -0.0015
          22    0.0056   -0.0015   -0.0265    0.0397   -0.0710   -0.0002   -0.0001    0.0000
          23   -0.0104    0.0028    0.0185   -0.0739   -0.0978    0.0002    0.0002    0.0000
          24    0.0017   -0.0016    0.0254   -0.0153    0.2334    0.0002    0.0001    0.0000
          25    0.0023   -0.0018    0.0140   -0.0062    0.0412    0.0009   -0.0004   -0.0000
          26   -0.0038    0.0022   -0.0352    0.0052    0.1272   -0.0005    0.0002    0.0001
          27   -0.0019    0.0010    0.0082    0.0109   -0.2121   -0.0012    0.0004    0.0001
          28    0.0466    0.0291   -0.0139    0.0063    0.0069   -0.0038   -0.0120   -0.0220
          29   -0.0105   -0.0323    0.0183   -0.0136    0.0119    0.0028    0.0088    0.0123
          30    0.0276    0.0258   -0.0055    0.0010    0.0018    0.0080    0.0252    0.0430
          31   -0.0105   -0.0118    0.0044   -0.0021   -0.0008   -0.0191   -0.0507   -0.0612
          32    0.0259   -0.0141   -0.0228    0.0278   -0.0041    0.0025    0.0068    0.0037
          33    0.0531    0.0282   -0.0303    0.0218   -0.0015   -0.0043   -0.0115   -0.0136
          34   -0.0162   -0.2090   -0.0015    0.0065    0.0005    0.0050    0.0081    0.0525
          35   -0.0075    0.0617   -0.0092    0.0026   -0.0001    0.0216    0.0342    0.2181
          36    0.0225   -0.0346    0.0198   -0.0059    0.0004    0.0103    0.0167    0.1053
          37   -0.0037   -0.0010   -0.0010    0.0001   -0.0003    0.0403    0.0490    0.2733
          38   -0.0115    0.2179   -0.0066   -0.0093    0.0003   -0.0037   -0.0043   -0.0225
          39    0.0210    0.0902    0.0019   -0.0030    0.0001    0.0100    0.0126    0.0697
          40    0.0382    0.0057    0.0076   -0.0003   -0.0005   -0.0444    0.0071   -0.0698
          41    0.1491    0.0110    0.0447   -0.0021   -0.0046    0.0066   -0.0016    0.0068
          42   -0.0976   -0.0326   -0.0075    0.0015   -0.0022   -0.0104    0.0010   -0.0201
          43    0.1653    0.0448    0.0226   -0.0041    0.0047   -0.0003   -0.0000   -0.0015
          44    0.0042   -0.0110   -0.0149   -0.0009    0.0087    0.0199   -0.0027    0.0462
          45    0.0087   -0.0215   -0.0114   -0.0012    0.0108   -0.0113    0.0010   -0.0304
          46    0.0714   -0.0530   -0.0682    0.0883    0.0437   -0.0167   -0.0445    0.0110
          47   -0.0231    0.0013    0.0427   -0.0790   -0.0414   -0.0503   -0.1384    0.0350
          48   -0.0015   -0.0079    0.0091   -0.0336   -0.0441    0.0694    0.1913   -0.0486
          49    0.0260   -0.0189   -0.0238    0.0184   -0.0113    0.1075    0.2647   -0.0550
          50    0.0277   -0.0269   -0.0103    0.0016   -0.0024   -0.0143   -0.0354    0.0076
          51   -0.0523    0.0369    0.0631   -0.0597    0.0260    0.0502    0.1246   -0.0258
          52    0.0533   -0.0556    0.0890   -0.0014    0.0144    0.0712   -0.0306   -0.0077
          53   -0.0355    0.0016   -0.0526    0.0161   -0.0478    0.0294   -0.0124   -0.0031
          54    0.0102   -0.0211    0.0155   -0.0024    0.0191   -0.2130    0.0897    0.0220
          55   -0.0051    0.0068   -0.0132   -0.0004    0.0038    0.3193   -0.1197   -0.0194
          56   -0.0171    0.0110   -0.0500    0.0009    0.0172    0.0054   -0.0022   -0.0002
          57    0.0667   -0.0563    0.0858    0.0055   -0.0229    0.0266   -0.0097   -0.0015
          58    0.0040   -0.0019    0.0092   -0.0106    0.0719   -0.0123    0.0030    0.0010
          59   -0.0071    0.0024    0.0417   -0.0448   -0.1155    0.0075   -0.0019   -0.0006
          60    0.0016    0.0011   -0.0648    0.0492   -0.0319    0.0123   -0.0035   -0.0010
          61   -0.0829    0.0435    0.1805    0.3910    0.0107   -0.0000   -0.0000    0.0000
          62   -0.0043    0.0024    0.0092    0.0243    0.0003   -0.0000   -0.0001    0.0000
          63    0.0017   -0.0010   -0.0034   -0.0094    0.0018    0.0000    0.0000   -0.0000


   Root No.      49        50        51        52        53        54        55        56

                49 A      50 A      51 A      52 A      53 A      54 A      55 A      56 A   

                2955.7    2956.9    3020.5    3023.1    3026.0    3034.5    3035.0    3047.3
  
           1   -0.0000   -0.0000    0.0001    0.0000    0.0000   -0.0000    0.0000   -0.0002
           2    0.0000    0.0000   -0.0000   -0.0000   -0.0000    0.0000   -0.0000   -0.0003
           3    0.0000    0.0000   -0.0001   -0.0000   -0.0000   -0.0000   -0.0000    0.0005
           4    0.0000    0.0000   -0.0000   -0.0000   -0.0000   -0.0000   -0.0000    0.0001
           5    0.0000    0.0000   -0.0000    0.0000   -0.0000   -0.0000   -0.0000   -0.0000
           6    0.0000    0.0000   -0.0000    0.0000   -0.0000   -0.0000   -0.0000    0.0001
           7   -0.0008    0.0076    0.0022   -0.0014   -0.0131    0.0013    0.0034    0.0000
           8   -0.0006    0.0067   -0.0035    0.0019    0.0178   -0.0033   -0.0079   -0.0004
           9   -0.0006    0.0050   -0.0008    0.0005    0.0035   -0.0005   -0.0024   -0.0002
          10    0.0216    0.0217    0.0034    0.0013   -0.0042    0.0061   -0.0098   -0.0001
          11   -0.0060   -0.0059    0.0002    0.0001   -0.0001    0.0013   -0.0029   -0.0001
          12   -0.0108   -0.0111    0.0021    0.0004   -0.0049    0.0098   -0.0187   -0.0005
          13   -0.0173    0.0127    0.0030   -0.0043   -0.0057   -0.0177   -0.0068   -0.0010
          14    0.0178   -0.0133    0.0010   -0.0014   -0.0026   -0.0132   -0.0060   -0.0016
          15   -0.0143    0.0109    0.0001   -0.0003    0.0010    0.0050    0.0024    0.0007
          16    0.0008    0.0004    0.0163    0.0112    0.0024   -0.0008    0.0009    0.0007
          17   -0.0018   -0.0014    0.0089    0.0056    0.0012   -0.0007    0.0012    0.0007
          18    0.0027    0.0021   -0.0086   -0.0053   -0.0014    0.0011   -0.0020   -0.0011
          19   -0.0025    0.0014    0.0039   -0.0080    0.0018   -0.0000   -0.0002   -0.0008
          20   -0.0004    0.0002   -0.0015    0.0026   -0.0008   -0.0008   -0.0003   -0.0011
          21    0.0025   -0.0016    0.0114   -0.0199    0.0049    0.0034    0.0013    0.0067
[...]
 FREQ.      1365.63         C  3 -- C  4         +15.1% ( 48.9%)     81.5%
 T-DIPOLE    0.0482         C  3 -- H 13         +11.6% ( 42.8%)      0.0%
 TRAVEL      0.0973         C  3 -- C  5          +9.5% ( 38.9%)     71.6%
 RED. MASS   0.6526         C  3 -- H 12          +9.5% ( 38.8%)      0.0%
 EFF. MASS   5.2176

 VIBRATION   37   37A         ATOM PAIR      ENERGY CONTRIBUTION    RADIAL
 FREQ.      1381.54         C  5 -- C  7         +15.8% ( 55.6%)     78.7%
 T-DIPOLE    0.1973         C  7 -- C  9         +11.3% ( 47.0%)     75.0%
 TRAVEL      0.0827         C  7 -- H 19         +10.5% ( 45.4%)      0.1%
 RED. MASS   1.0788         C  7 -- H 18          +9.5% ( 43.1%)      0.2%
 EFF. MASS   7.1321

 VIBRATION   38   38A         ATOM PAIR      ENERGY CONTRIBUTION    RADIAL
 FREQ.      1394.09         C  6 -- H 17         +15.5% ( 48.7%)      2.2%
 T-DIPOLE    0.1288         C  6 -- H 16         +12.0% ( 42.9%)      5.7%
 TRAVEL      0.0972         C  4 -- C  6         +11.8% ( 42.5%)     91.1%
 RED. MASS   0.4714         C  7 -- H 19          +6.7% ( 32.0%)      2.5%
 EFF. MASS   5.1215

 VIBRATION   39   39A         ATOM PAIR      ENERGY CONTRIBUTION    RADIAL
 FREQ.      1401.81         C  7 -- H 19         +12.5% ( 37.5%)      4.2%
 T-DIPOLE    0.0559         C  7 -- H 18         +10.8% ( 35.0%)      6.3%
 TRAVEL      0.1244         C  6 -- H 16          +7.9% ( 29.9%)      4.6%
 RED. MASS   0.1841         C  5 -- C  7          +7.6% ( 29.3%)     86.9%
 EFF. MASS   3.1096

 VIBRATION   40   40A         ATOM PAIR      ENERGY CONTRIBUTION    RADIAL
 FREQ.      1406.11         C  4 -- H 11         +20.1% ( 52.3%)      3.8%
 T-DIPOLE    0.0958         C  4 -- H 10         +16.6% ( 47.6%)      6.8%
 TRAVEL      0.1063         C  3 -- C  4         +14.6% ( 44.6%)     80.5%
 RED. MASS   0.5122         C  3 -- C  5          +8.3% ( 33.6%)     74.9%
 EFF. MASS   4.2477

 VIBRATION   41   41A         ATOM PAIR      ENERGY CONTRIBUTION    RADIAL
 FREQ.      1406.74         C  5 -- H 14         +23.1% ( 51.8%)      3.7%
 T-DIPOLE    0.0586         C  5 -- H 15         +18.9% ( 46.9%)      6.9%
 TRAVEL      0.1216         C  3 -- C  5          +9.0% ( 32.3%)     66.3%
 RED. MASS   0.3200         C  5 -- C  7          +8.1% ( 30.7%)     13.8%
 EFF. MASS   3.2422

 VIBRATION   42   42A         ATOM PAIR      ENERGY CONTRIBUTION    RADIAL
 FREQ.      1414.65         C  3 -- H 13         +31.6% ( 58.4%)      4.4%
 T-DIPOLE    0.0612         C  3 -- H 12         +27.3% ( 54.3%)      6.0%
 TRAVEL      0.1280         C  3 -- C  5         +10.2% ( 33.1%)     51.6%
 RED. MASS   0.4580         C  3 -- C  4         +10.1% ( 33.0%)     50.2%
 EFF. MASS   2.9080

 VIBRATION   43   43A         ATOM PAIR      ENERGY CONTRIBUTION    RADIAL
 FREQ.      1429.77         C  7 -- C  9         +14.6% ( 51.6%)     99.6%
 T-DIPOLE    0.2793         C  6 -- C  8         +12.7% ( 48.0%)     99.8%
 TRAVEL      0.0826         O  2 -- H 21         +10.5% ( 43.6%)      2.9%
 RED. MASS   0.8649         C  7 -- H 18          +8.6% ( 39.6%)      3.3%
 EFF. MASS   6.9196

 VIBRATION   44   44A         ATOM PAIR      ENERGY CONTRIBUTION    RADIAL
 FREQ.      1445.75         O  2 -- H 21         +27.8% ( 64.0%)      2.0%
 T-DIPOLE    0.4077         O  1 -- C  8         +20.7% ( 55.3%)     92.1%
 TRAVEL      0.0828         C  6 -- C  8         +18.5% ( 52.3%)     78.9%
 RED. MASS   1.2906         C  8 -- C  9         +11.1% ( 40.4%)      0.5%
 EFF. MASS   6.8093

 VIBRATION   45   45A         ATOM PAIR      ENERGY CONTRIBUTION    RADIAL
 FREQ.      1852.78         C  8 -- C  9         +43.4% ( 97.2%)     99.2%
 T-DIPOLE    0.3986         C  6 -- C  8         +14.7% ( 56.6%)     38.9%
 TRAVEL      0.0553         O  1 -- C  8         +14.4% ( 56.0%)     32.3%
 RED. MASS   5.5048         C  7 -- C  9         +13.7% ( 54.7%)     54.4%
 EFF. MASS  11.8811         C  9 -- H 20         +12.6% ( 52.4%)      3.7%

 VIBRATION   46   46A         ATOM PAIR      ENERGY CONTRIBUTION    RADIAL
 FREQ.      2939.40         C  7 -- H 19         +54.0% ( 76.3%)     97.9%
 T-DIPOLE    0.0480         C  7 -- H 18         +28.7% ( 55.6%)     94.2%
 TRAVEL      0.1219         C  6 -- H 17          +7.6% ( 28.5%)     97.9%
 RED. MASS   0.4133         C  6 -- H 16          +4.2% ( 21.4%)     94.5%
 EFF. MASS   1.5427

 VIBRATION   47   47A         ATOM PAIR      ENERGY CONTRIBUTION    RADIAL
 FREQ.      2943.50         C  6 -- H 17         +47.5% ( 71.6%)     97.4%
 T-DIPOLE    0.0873         C  6 -- H 16         +32.7% ( 59.4%)     95.3%
 TRAVEL      0.1216         C  7 -- H 19          +7.8% ( 29.1%)     97.4%
 RED. MASS   0.3722         C  7 -- H 18          +5.2% ( 23.7%)     95.1%
 EFF. MASS   1.5482

 VIBRATION   48   48A         ATOM PAIR      ENERGY CONTRIBUTION    RADIAL
 FREQ.      2945.31         C  3 -- H 13         +47.0% ( 71.3%)     97.1%
 T-DIPOLE    0.0358         C  3 -- H 12         +36.8% ( 63.1%)     95.7%
 TRAVEL      0.1218         C  5 -- H 14          +3.1% ( 18.4%)     97.4%
 RED. MASS   0.3911         C  4 -- H 11          +2.3% ( 15.9%)     97.2%
 EFF. MASS   1.5445

 VIBRATION   49   49A         ATOM PAIR      ENERGY CONTRIBUTION    RADIAL
 FREQ.      2955.67         C  5 -- H 15         +30.0% ( 56.9%)     97.0%
 T-DIPOLE    0.0202         C  5 -- H 14         +24.6% ( 51.5%)     95.9%
 TRAVEL      0.1217         C  4 -- H 10         +23.2% ( 50.0%)     97.1%
 RED. MASS   0.2576         C  4 -- H 11         +18.1% ( 44.1%)     95.7%
 EFF. MASS   1.5398

 VIBRATION   50   50A         ATOM PAIR      ENERGY CONTRIBUTION    RADIAL
 FREQ.      2956.92         C  4 -- H 10         +28.5% ( 55.4%)     97.2%
 T-DIPOLE    0.0458         C  4 -- H 11         +21.6% ( 48.3%)     95.6%
 TRAVEL      0.1212         C  5 -- H 15         +20.2% ( 46.6%)     97.1%
 RED. MASS   0.2184         C  5 -- H 14         +16.2% ( 41.8%)     95.8%
 EFF. MASS   1.5524

 VIBRATION   51   51A         ATOM PAIR      ENERGY CONTRIBUTION    RADIAL
 FREQ.      3020.46         C  6 -- H 16         +41.1% ( 63.3%)     98.6%
 T-DIPOLE    0.1096         C  6 -- H 17         +27.3% ( 51.5%)     96.1%
 TRAVEL      0.1320         C  7 -- H 18         +15.8% ( 39.2%)     99.1%
 RED. MASS   0.2721         C  7 -- H 19          +7.8% ( 27.6%)     94.4%
 EFF. MASS   1.2804

 VIBRATION   52   52A         ATOM PAIR      ENERGY CONTRIBUTION    RADIAL
 FREQ.      3023.12         C  7 -- H 18         +42.6% ( 64.4%)     98.9%
 T-DIPOLE    0.0720         C  7 -- H 19         +24.7% ( 49.0%)     95.5%
 TRAVEL      0.1319         C  6 -- H 16         +15.5% ( 38.8%)     98.3%
 RED. MASS   0.2766         C  6 -- H 17         +11.8% ( 33.8%)     96.7%
 EFF. MASS   1.2821

 VIBRATION   53   53A         ATOM PAIR      ENERGY CONTRIBUTION    RADIAL
 FREQ.      3025.96         C  3 -- H 12         +41.6% ( 63.5%)     98.0%
 T-DIPOLE    0.0136         C  3 -- H 13         +38.7% ( 61.3%)     97.4%
 TRAVEL      0.1323         C  4 -- H 11          +4.4% ( 20.6%)     99.0%
 RED. MASS   0.3264         C  5 -- H 14          +4.1% ( 20.0%)     98.8%
 EFF. MASS   1.2726

 VIBRATION   54   54A         ATOM PAIR      ENERGY CONTRIBUTION    RADIAL
 FREQ.      3034.47         C  5 -- H 14         +39.7% ( 62.0%)     98.0%
 T-DIPOLE    0.0383         C  5 -- H 15         +35.4% ( 58.6%)     97.3%
 TRAVEL      0.1322         C  4 -- H 11         +11.4% ( 33.2%)     98.5%
 RED. MASS   0.3006         C  4 -- H 10          +8.3% ( 28.3%)     96.6%
 EFF. MASS   1.2711

 VIBRATION   55   55A         ATOM PAIR      ENERGY CONTRIBUTION    RADIAL
 FREQ.      3034.97         C  4 -- H 11         +37.4% ( 60.2%)     97.9%
 T-DIPOLE    0.0645         C  4 -- H 10         +33.7% ( 57.2%)     97.3%
 TRAVEL      0.1320         C  3 -- H 12          +8.7% ( 29.1%)     99.1%
 RED. MASS   0.2698         C  5 -- H 15          +7.4% ( 26.7%)     98.0%
 EFF. MASS   1.2749

 VIBRATION   56   56A         ATOM PAIR      ENERGY CONTRIBUTION    RADIAL
 FREQ.      3047.28         C  9 -- H 20         +95.6% ( 99.1%)    100.0%
 T-DIPOLE    0.3802         C  8 -- C  9          +1.4% ( 12.1%)     36.1%
 TRAVEL      0.1211         C  7 -- C  9          +1.3% ( 11.7%)     22.5%
 RED. MASS   0.8979         C  7 -- H 18          +1.3% ( 11.7%)     99.7%
 EFF. MASS   1.5079

 VIBRATION   57   57A         ATOM PAIR      ENERGY CONTRIBUTION    RADIAL
 FREQ.      3988.01         O  2 -- H 21         +99.6% (100.0%)     99.9%
 T-DIPOLE    0.4019         O  1 -- O  2          +0.4% (  6.0%)      0.0%
 TRAVEL      0.1106
 RED. MASS   0.9479
 EFF. MASS   1.3829

      SYMMETRY NUMBER FOR POINT-GROUP C1  =  1


          SYSTEM IS A GROUND STATE



 InChI=1S/C7H12O2/c8-9-7-5-3-1-2-4-6-7/h5,8H,1-4,6H2


          MOLECULE IS NOT LINEAR

          THERE ARE 57 GENUINE VIBRATIONS IN THIS SYSTEM
          THIS THERMODYNAMICS CALCULATION IS LIMITED TO
          MOLECULES WHICH HAVE NO INTERNAL ROTATIONS




                    CALCULATED THERMODYNAMIC PROPERTIES
                                          *
   TEMP. (K)   PARTITION FUNCTION   H.O.F.    ENTHALPY  HEAT CAPACITY ENTROPY
                                   KCAL/MOL   CAL/MOLE    CAL/K/MOL  CAL/K/MOL


 298.00  VIB.     0.2817D+03                  4042.0696    29.0589    24.7733
         ROT.     0.4985D+06                   888.2813     2.9808    29.0518
         INT.     0.1404D+09                  4930.3509    32.0397    53.8251
         TRA.     0.1403D+28                  1480.4688     4.9680    40.4556
         TOT.                      -32.961    6410.8198    37.0077    94.2806

 200.00  VIB.     0.3142D+02                  1737.4216    18.2583    15.5382
         ROT.     0.2741D+06                   596.1620     2.9808    27.8631
         INT.     0.8614D+07                  2333.5836    21.2391    43.4013
         TRA.     0.7713D+27                   993.6033     4.9680    38.4745
         TOT.                      -36.045    3327.1868    26.2072    81.8758

 210.00  VIB.     0.3912D+02                  1925.0579    19.2727    16.4535
         ROT.     0.2949D+06                   625.9700     2.9808    28.0085
         INT.     0.1154D+08                  2551.0279    22.2535    44.4620
         TRA.     0.8299D+27                  1043.2834     4.9680    38.7168
         TOT.                      -35.778    3594.3113    27.2215    83.1789

 220.00  VIB.     0.4876D+02                  2122.9519    20.3100    17.3739
         ROT.     0.3162D+06                   655.7781     2.9808    28.1472
         INT.     0.1542D+08                  2778.7300    23.2908    45.5211
         TRA.     0.8899D+27                  1092.9636     4.9680    38.9480
         TOT.                      -35.500    3871.6936    28.2588    84.4691

 230.00  VIB.     0.6084D+02                  2331.3334    21.3701    18.3000
         ROT.     0.3380D+06                   685.5862     2.9808    28.2797
         INT.     0.2056D+08                  3016.9196    24.3509    46.5797
         TRA.     0.9512D+27                  1142.6437     4.9680    39.1688
         TOT.                      -35.212    4159.5634    29.3189    85.7485

 240.00  VIB.     0.7598D+02                  2550.4277    22.4523    19.2323
         ROT.     0.3603D+06                   715.3943     2.9808    28.4066
         INT.     0.2738D+08                  3265.8220    25.4331    47.6389
         TRA.     0.1014D+28                  1192.3239     4.9680    39.3802
         TOT.                      -34.914    4458.1459    30.4011    87.0191

 250.00  VIB.     0.9499D+02                  2780.4482    23.5550    20.1711
         ROT.     0.3831D+06                   745.2024     2.9808    28.5283
         INT.     0.3639D+08                  3525.6506    26.5359    48.6994
         TRA.     0.1078D+28                  1242.0041     4.9680    39.5830
         TOT.                      -34.604    4767.6547    31.5039    88.2824

 260.00  VIB.     0.1189D+03                  3021.5901    24.6762    21.1168
         ROT.     0.4063D+06                   775.0105     2.9808    28.6452
         INT.     0.4830D+08                  3796.6007    27.6570    49.7619
         TRA.     0.1143D+28                  1291.6842     4.9680    39.7779
         TOT.                      -34.284    5088.2849    32.6251    89.5398

 270.00  VIB.     0.1490D+03                  3274.0261    25.8134    22.0693
         ROT.     0.4299D+06                   804.8186     2.9808    28.7577
         INT.     0.6404D+08                  4078.8447    28.7942    50.8270
         TRA.     0.1210D+28                  1341.3644     4.9680    39.9654
         TOT.                      -33.952    5420.2091    33.7622    90.7924

 280.00  VIB.     0.1868D+03                  3537.9025    26.9639    23.0289
         ROT.     0.4540D+06                   834.6267     2.9808    28.8661
         INT.     0.8483D+08                  4372.5292    29.9447    51.8949
         TRA.     0.1278D+28                  1391.0445     4.9680    40.1461
         TOT.                      -33.608    5763.5738    34.9127    92.0410

 290.00  VIB.     0.2346D+03                  3813.3379    28.1247    23.9953
         ROT.     0.4786D+06                   864.4348     2.9808    28.9707
         INT.     0.1123D+09                  4677.7727    31.1055    52.9660
         TRA.     0.1347D+28                  1440.7247     4.9680    40.3204
         TOT.                      -33.253    6118.4974    36.0735    93.2863

 300.00  VIB.     0.2949D+03                  4100.4215    29.2930    24.9684
         ROT.     0.5036D+06                   894.2429     2.9808    29.0717
         INT.     0.1485D+09                  4994.6644    32.2738    54.0402
         TRA.     0.1417D+28                  1490.4049     4.9680    40.4888
         TOT.                      -32.887    6485.0693    37.2419    94.5290

 310.00  VIB.     0.3711D+03                  4399.2136    30.4659    25.9481
         ROT.     0.5289D+06                   924.0510     2.9808    29.1695
         INT.     0.1963D+09                  5323.2646    33.4467    55.1175
         TRA.     0.1488D+28                  1540.0850     4.9680    40.6517
         TOT.                      -32.508    6863.3497    38.4147    95.7692

 320.00  VIB.     0.4674D+03                  4709.7457    31.6406    26.9339
         ROT.     0.5547D+06                   953.8591     2.9808    29.2641
         INT.     0.2593D+09                  5663.6049    34.6214    56.1980
         TRA.     0.1561D+28                  1589.7652     4.9680    40.8094
         TOT.                      -32.118    7253.3701    39.5894    97.0074

 330.00  VIB.     0.5895D+03                  5032.0220    32.8143    27.9255
         ROT.     0.5809D+06                   983.6672     2.9808    29.3558
         INT.     0.3425D+09                  6015.6892    35.7951    57.2813
         TRA.     0.1635D+28                  1639.4454     4.9680    40.9623
         TOT.                      -31.717    7655.1346    40.7631    98.2436

 340.00  VIB.     0.7442D+03                  5366.0206    33.9846    28.9225
         ROT.     0.6075D+06                  1013.4753     2.9808    29.4448
         INT.     0.4521D+09                  6379.4959    36.9655    58.3673
         TRA.     0.1710D+28                  1689.1255     4.9680    41.1106
         TOT.                      -31.303    8068.6215    41.9335    99.4779

 350.00  VIB.     0.9405D+03                  5711.6958    35.1493    29.9244
         ROT.     0.6345D+06                  1043.2834     2.9808    29.5312
         INT.     0.5968D+09                  6754.9793    38.1301    59.4556
         TRA.     0.1786D+28                  1738.8057     4.9680    41.2546
         TOT.                      -30.878    8493.7849    43.0981   100.7103

 360.00  VIB.     0.1190D+04                  6068.9799    36.3061    30.9308
         ROT.     0.6619D+06                  1073.0915     2.9808    29.6152
         INT.     0.7876D+09                  7142.0714    39.2869    60.5460
         TRA.     0.1863D+28                  1788.4859     4.9680    41.3946
         TOT.                      -30.441    8930.5573    44.2549   101.9406

 370.00  VIB.     0.1507D+04                  6437.7852    37.4532    31.9413
         ROT.     0.6897D+06                  1102.8996     2.9808    29.6969
         INT.     0.1039D+10                  7540.6848    40.4340    61.6381
         TRA.     0.1941D+28                  1838.1660     4.9680    41.5307
         TOT.                      -29.993    9378.8509    45.4021   103.1688

 380.00  VIB.     0.1910D+04                  6818.0066    38.5890    32.9552
         ROT.     0.7179D+06                  1132.7077     2.9808    29.7764
         INT.     0.1371D+10                  7950.7143    41.5698    62.7315
         TRA.     0.2020D+28                  1887.8462     4.9680    41.6632
         TOT.                      -29.533    9838.5605    46.5379   104.3947

 390.00  VIB.     0.2423D+04                  7209.5234    39.7121    33.9721
         ROT.     0.7464D+06                  1162.5158     2.9808    29.8538
         INT.     0.1809D+10                  8372.0392    42.6929    63.8259
         TRA.     0.2100D+28                  1937.5263     4.9680    41.7923
         TOT.                      -29.062   10309.5655    47.6609   105.6181

 400.00  VIB.     0.3078D+04                  7612.2014    40.8211    34.9915
         ROT.     0.7753D+06                  1192.3239     2.9808    29.9292
         INT.     0.2386D+10                  8804.5253    43.8019    64.9208
         TRA.     0.2182D+28                  1987.2065     4.9680    41.9180
         TOT.                      -28.580   10791.7318    48.7699   106.8388

   *: NOTE: HEATS OF FORMATION ARE RELATIVE TO THE
            ELEMENTS IN THEIR STANDARD STATE AT 298K
              (=  Standard Enthalpy of Formation).

            Hvib:  Zero-point energy is not included.
                   frequencies of less than zero cm-1 are not included.
            Hrot = (3/2)RT
            Htra = (3/2)RT + pV = (5/2)RT

            Heat capacity is Cp, not Cv

          For more information, see: HTTP://OpenMOPAC.net/Manual/thermochemistry.html


           FORCE CONSTANT IN CARTESIAN COORDINATES (Millidynes/A)

    ATOM   CHEMICAL       X               Y               Z
   NUMBER   SYMBOL  FORCE CONSTANT  FORCE CONSTANT  FORCE CONSTANT

      1       O        3.974877        6.650282        1.458383
      2       O        2.992741        8.266770        1.327747
      3       C        8.194314        8.380690        8.165545
      4       C        8.289279        8.029476        8.351816
      5       C        8.211880        8.319895        8.129335
      6       C        8.129810        8.302064        8.521940
      7       C        8.053541        8.594735        8.580668
      8       C        5.908900        9.186163       12.313927
      9       C        5.387245        9.135927       12.425119
     10       H        1.626322        1.044653        3.705142
     11       H        4.759590        0.778788        0.883728
     12       H        0.963604        3.895752        1.528584
     13       H        4.641545        0.734375        1.021096
     14       H        4.620545        0.784899        1.010379
     15       H        0.701886        3.703930        1.974569
     16       H        0.778880        2.154147        3.481218
     17       H        3.992435        0.796714        1.508614
     18       H        1.248600        0.801688        4.313330
     19       H        4.870952        0.682085        0.719926
     20       H        2.150289        1.839427        2.252035
     21       H        1.178963        7.622398        1.210375

 **********************
 *                    *
 * JOB ENDED NORMALLY *
 *                    *
 **********************



 TOTAL JOB TIME:            11.99 SECONDS

 == MOPAC DONE ==
