 *******************************************************************************
 ** Site#: 14399        For non-commercial use only    Version 18.184L 64BITS **
 *******************************************************************************
 ** Cite this program as: MOPAC2016, Version: 18.184L, James J. P. Stewart,   **
 ** Stewart Computational Chemistry, web: HTTP://OpenMOPAC.net. Days left:  20**
 *******************************************************************************
 **                                                                           **
 **                                MOPAC2016                                  **
 **                                                                           **
 *******************************************************************************

                              PM3 CALCULATION RESULTS

 *******************************************************************************
 *  CALCULATION DONE:                                Thu Jun 13 15:38:44 2019  *
 *  PM3        - The PM3 Hamiltonian to be used
 *  PRECISE    - CRITERIA TO BE INCREASED BY 100 TIMES
 *  NOSYM      - POINT-GROUP SYMMETRY SET TO C1
 *  THREADS=1  - MULTI-THREADING NOT USED
 *  T=         - A TIME OF 172800.0 SECONDS REQUESTED
 *  DUMP=N     - RESTART FILE WRITTEN EVERY  7200.000 SECONDS
 *******************************************************************************
pm3  precise nosym THREADS=1
 InChI=1S/C10H10/c1-2-6-10(7-3-1)8-4-5-9-10/h2-9H,1H2

   ATOM   CHEMICAL          X               Y               Z
  NUMBER   SYMBOL      (ANGSTROMS)     (ANGSTROMS)     (ANGSTROMS)
 
     1       C         -0.42260000  *  -0.02620000  *   0.01130000  *
     2       C          2.54390000  *  -0.17890000  *  -0.07950000  *
     3       C          0.35060000  *  -0.12900000  *  -1.28250000  *
     4       C          0.42350000  *  -0.21720000  *   1.24810000  *
     5       C         -1.56960000  *  -0.99040000  *   0.01070000  *
     6       C         -1.15070000  *   1.28110000  *   0.07780000  *
     7       C          1.68910000  *  -0.17730000  *  -1.31990000  *
     8       C          1.76180000  *  -0.26530000  *   1.20510000  *
     9       C         -2.72200000  *  -0.34220000  *   0.06640000  *
    10       C         -2.45900000  *   1.08400000  *   0.10860000  *
    11       H          3.16280000  *   0.74240000  *  -0.06520000  *
    12       H          3.22480000  *  -1.05430000  *  -0.12960000  *
    13       H         -1.48090000  *  -2.06870000  *  -0.02940000  *
    14       H         -0.19590000  *  -0.11960000  *  -2.22220000  *
    15       H         -0.06820000  *  -0.27420000  *   2.21610000  *
    16       H         -0.68310000  *   2.25740000  *   0.09830000  *
    17       H          2.18550000  *  -0.21250000  *  -2.28490000  *
    18       H          2.31280000  *  -0.36660000  *   2.13520000  *
    19       H         -3.69800000  *  -0.80860000  *   0.07830000  *
    20       H         -3.20470000  *   1.86620000  *   0.15730000  *
 


          CARTESIAN COORDINATES 

    NO.       ATOM           X           Y           Z

     1         C         -0.4226     -0.0262      0.0113
     2         C          2.5439     -0.1789     -0.0795
     3         C          0.3506     -0.1290     -1.2825
     4         C          0.4235     -0.2172      1.2481
     5         C         -1.5696     -0.9904      0.0107
     6         C         -1.1507      1.2811      0.0778
     7         C          1.6891     -0.1773     -1.3199
     8         C          1.7618     -0.2653      1.2051
     9         C         -2.7220     -0.3422      0.0664
    10         C         -2.4590      1.0840      0.1086
    11         H          3.1628      0.7424     -0.0652
    12         H          3.2248     -1.0543     -0.1296
    13         H         -1.4809     -2.0687     -0.0294
    14         H         -0.1959     -0.1196     -2.2222
    15         H         -0.0682     -0.2742      2.2161
    16         H         -0.6831      2.2574      0.0983
    17         H          2.1855     -0.2125     -2.2849
    18         H          2.3128     -0.3666      2.1352
    19         H         -3.6980     -0.8086      0.0783
    20         H         -3.2047      1.8662      0.1573

  H: (PM3): J. J. P. STEWART, J. COMP. CHEM. 10, 209 (1989).
  C: (PM3): J. J. P. STEWART, J. COMP. CHEM. 10, 209 (1989).

           Empirical Formula: C10 H10  =    20 atoms



      MOLECULAR POINT GROUP   :   C1  


      RHF CALCULATION, NO. OF DOUBLY OCCUPIED LEVELS = 25


          Geometry optimization using EF

          DIAGONAL MATRIX USED AS START HESSIAN

 CYCLE:     1 TIME:   0.031 TIME LEFT:  2.00D  GRAD.:   114.014 HEAT:  71.65735
 CYCLE:     2 TIME:   0.043 TIME LEFT:  2.00D  GRAD.:    59.575 HEAT:  69.46411
 CYCLE:     3 TIME:   0.027 TIME LEFT:  2.00D  GRAD.:    41.136 HEAT:  68.49272
 CYCLE:     4 TIME:   0.039 TIME LEFT:  2.00D  GRAD.:    27.204 HEAT:  67.98570
 CYCLE:     5 TIME:   0.023 TIME LEFT:  2.00D  GRAD.:    34.122 HEAT:  67.78553
 CYCLE:     6 TIME:   0.031 TIME LEFT:  2.00D  GRAD.:    22.005 HEAT:  67.49633
 CYCLE:     7 TIME:   0.027 TIME LEFT:  2.00D  GRAD.:    18.674 HEAT:  67.34216
 CYCLE:     8 TIME:   0.023 TIME LEFT:  2.00D  GRAD.:    20.640 HEAT:  67.23661
 CYCLE:     9 TIME:   0.020 TIME LEFT:  2.00D  GRAD.:    25.514 HEAT:  67.16144
 CYCLE:    10 TIME:   0.031 TIME LEFT:  2.00D  GRAD.:    14.356 HEAT:  67.06422
 CYCLE:    11 TIME:   0.020 TIME LEFT:  2.00D  GRAD.:     8.742 HEAT:  67.00762
 CYCLE:    12 TIME:   0.031 TIME LEFT:  2.00D  GRAD.:     9.238 HEAT:  66.99309
 CYCLE:    13 TIME:   0.023 TIME LEFT:  2.00D  GRAD.:     9.230 HEAT:  66.98584
 CYCLE:    14 TIME:   0.027 TIME LEFT:  2.00D  GRAD.:     4.333 HEAT:  66.97404
 CYCLE:    15 TIME:   0.023 TIME LEFT:  2.00D  GRAD.:     6.511 HEAT:  66.97862
 CYCLE:    16 TIME:   0.027 TIME LEFT:  2.00D  GRAD.:     3.627 HEAT:  66.97078
 CYCLE:    17 TIME:   0.023 TIME LEFT:  2.00D  GRAD.:     4.526 HEAT:  66.97248
 CYCLE:    18 TIME:   0.023 TIME LEFT:  2.00D  GRAD.:     1.493 HEAT:  66.96675
 CYCLE:    19 TIME:   0.023 TIME LEFT:  2.00D  GRAD.:     3.958 HEAT:  66.96841
 CYCLE:    20 TIME:   0.023 TIME LEFT:  2.00D  GRAD.:     1.268 HEAT:  66.96466
 CYCLE:    21 TIME:   0.020 TIME LEFT:  2.00D  GRAD.:     2.896 HEAT:  66.96467
 CYCLE:    22 TIME:   0.023 TIME LEFT:  2.00D  GRAD.:     1.694 HEAT:  66.96178
 CYCLE:    23 TIME:   0.023 TIME LEFT:  2.00D  GRAD.:     2.835 HEAT:  66.96076
 CYCLE:    24 TIME:   0.023 TIME LEFT:  2.00D  GRAD.:     1.161 HEAT:  66.95716
 CYCLE:    25 TIME:   0.023 TIME LEFT:  2.00D  GRAD.:     1.275 HEAT:  66.95538
 CYCLE:    26 TIME:   0.023 TIME LEFT:  2.00D  GRAD.:     1.465 HEAT:  66.95457
 CYCLE:    27 TIME:   0.023 TIME LEFT:  2.00D  GRAD.:     1.044 HEAT:  66.95354
 CYCLE:    28 TIME:   0.020 TIME LEFT:  2.00D  GRAD.:     1.857 HEAT:  66.95320
 CYCLE:    29 TIME:   0.023 TIME LEFT:  2.00D  GRAD.:     1.232 HEAT:  66.95205
 CYCLE:    30 TIME:   0.023 TIME LEFT:  2.00D  GRAD.:     0.961 HEAT:  66.95104
 CYCLE:    31 TIME:   0.023 TIME LEFT:  2.00D  GRAD.:     0.913 HEAT:  66.94989
 CYCLE:    32 TIME:   0.023 TIME LEFT:  2.00D  GRAD.:     1.175 HEAT:  66.94857
 CYCLE:    33 TIME:   0.023 TIME LEFT:  2.00D  GRAD.:     0.861 HEAT:  66.94782
 CYCLE:    34 TIME:   0.020 TIME LEFT:  2.00D  GRAD.:     0.747 HEAT:  66.94721
 CYCLE:    35 TIME:   0.023 TIME LEFT:  2.00D  GRAD.:     0.774 HEAT:  66.94663
 CYCLE:    36 TIME:   0.023 TIME LEFT:  2.00D  GRAD.:     0.892 HEAT:  66.94598
 CYCLE:    37 TIME:   0.039 TIME LEFT:  2.00D  GRAD.:     0.675 HEAT:  66.94527
 CYCLE:    38 TIME:   0.023 TIME LEFT:  2.00D  GRAD.:     0.639 HEAT:  66.94445
 CYCLE:    39 TIME:   0.023 TIME LEFT:  2.00D  GRAD.:     0.575 HEAT:  66.94405
 CYCLE:    40 TIME:   0.023 TIME LEFT:  2.00D  GRAD.:     0.738 HEAT:  66.94310
 CYCLE:    41 TIME:   0.023 TIME LEFT:  2.00D  GRAD.:     1.153 HEAT:  66.94141
 CYCLE:    42 TIME:   0.023 TIME LEFT:  2.00D  GRAD.:     1.484 HEAT:  66.93888
 CYCLE:    43 TIME:   0.023 TIME LEFT:  2.00D  GRAD.:     2.482 HEAT:  66.93232
 CYCLE:    44 TIME:   0.020 TIME LEFT:  2.00D  GRAD.:     2.357 HEAT:  66.92517
 CYCLE:    45 TIME:   0.023 TIME LEFT:  2.00D  GRAD.:     1.850 HEAT:  66.90991
 CYCLE:    46 TIME:   0.023 TIME LEFT:  2.00D  GRAD.:     1.563 HEAT:  66.90360
 CYCLE:    47 TIME:   0.023 TIME LEFT:  2.00D  GRAD.:     1.700 HEAT:  66.90045
 CYCLE:    48 TIME:   0.023 TIME LEFT:  2.00D  GRAD.:     1.970 HEAT:  66.89701
 CYCLE:    49 TIME:   0.023 TIME LEFT:  2.00D  GRAD.:     1.552 HEAT:  66.89305
 CYCLE:    50 TIME:   0.023 TIME LEFT:  2.00D  GRAD.:     0.947 HEAT:  66.89028
 CYCLE:    51 TIME:   0.020 TIME LEFT:  2.00D  GRAD.:     0.655 HEAT:  66.88922
 CYCLE:    52 TIME:   0.023 TIME LEFT:  2.00D  GRAD.:     0.660 HEAT:  66.88830
 CYCLE:    53 TIME:   0.023 TIME LEFT:  2.00D  GRAD.:     0.609 HEAT:  66.88732
 CYCLE:    54 TIME:   0.023 TIME LEFT:  2.00D  GRAD.:     0.356 HEAT:  66.88668
 CYCLE:    55 TIME:   0.023 TIME LEFT:  2.00D  GRAD.:     0.251 HEAT:  66.88643
 CYCLE:    56 TIME:   0.023 TIME LEFT:  2.00D  GRAD.:     0.240 HEAT:  66.88632
 CYCLE:    57 TIME:   0.020 TIME LEFT:  2.00D  GRAD.:     0.152 HEAT:  66.88625
 CYCLE:    58 TIME:   0.023 TIME LEFT:  2.00D  GRAD.:     0.152 HEAT:  66.88625
 CYCLE:    59 TIME:   0.023 TIME LEFT:  2.00D  GRAD.:     0.083 HEAT:  66.88620
 CYCLE:    60 TIME:   0.023 TIME LEFT:  2.00D  GRAD.:     0.054 HEAT:  66.88618
 CYCLE:    61 TIME:   0.023 TIME LEFT:  2.00D  GRAD.:     0.050 HEAT:  66.88618
 CYCLE:    62 TIME:   0.023 TIME LEFT:  2.00D  GRAD.:     0.141 HEAT:  66.88620
 CYCLE:    63 TIME:   0.023 TIME LEFT:  2.00D  GRAD.:     0.042 HEAT:  66.88617

     GRADIENT =  0.04215  IS LESS THAN CUTOFF =  0.05000



 -------------------------------------------------------------------------------
 pm3  precise nosym THREADS=1
 InChI=1S/C10H10/c1-2-6-10(7-3-1)8-4-5-9-10/h2-9H,1H2



     GEOMETRY OPTIMISED USING EIGENVECTOR FOLLOWING (EF).     
     SCF FIELD WAS ACHIEVED                                   


                              PM3 CALCULATION
                                                       MOPAC2016 (Version: 18.184L)
                                                       Thu Jun 13 15:38:46 2019
                                                       No. of days remaining =  20




          FINAL HEAT OF FORMATION =         66.88617 KCAL/MOL =     279.85172 KJ/MOL


          TOTAL ENERGY            =      -1336.83048 EV
          ELECTRONIC ENERGY       =      -7110.58572 EV  POINT GROUP:     C1  
          CORE-CORE REPULSION     =       5773.75524 EV
          COSMO AREA              =        170.55 SQUARE ANGSTROMS
          COSMO VOLUME            =        173.25 CUBIC ANGSTROMS

          GRADIENT NORM           =          0.04215 = 0.00942 PER ATOM
          IONIZATION POTENTIAL    =          9.216338 EV
          HOMO LUMO ENERGIES (EV) =         -9.216  0.293
          NO. OF FILLED LEVELS    =         25
          MOLECULAR WEIGHT        =        130.1890

          MOLECULAR DIMENSIONS (Angstroms)

            Atom       Atom       Distance
            H    20    H    12     7.12560
            H    15    H    17     4.44107
            H    13    H    11     4.19835


          SCF CALCULATIONS        =         73
 
          WALL-CLOCK TIME         =          1.594 SECONDS
          COMPUTATION TIME        =          0.603 SECONDS




   ATOM   CHEMICAL          X               Y               Z
  NUMBER   SYMBOL      (ANGSTROMS)     (ANGSTROMS)     (ANGSTROMS)
 
     1       C         -0.40588382  *   0.04185829  *   0.01292791  *
     2       C          2.53119461  *  -0.32475010  *  -0.08410263  *
     3       C          0.36990674  *  -0.01630814  *  -1.26452987  *
     4       C          0.44164697  *  -0.10358058  *   1.23673664  *
     5       C         -1.50663286  *  -1.01164148  *   0.00820053  *
     6       C         -1.20972613  *   1.33441150  *   0.08096146  *
     7       C          1.69188123  *  -0.18132626  *  -1.30105888  *
     8       C          1.76315875  *  -0.26845831  *   1.18592051  *
     9       C         -2.71151140  *  -0.40798976  *   0.06430659  *
    10       C         -2.52730967  *   1.04730847  *   0.10934189  *
    11       H          3.30328455  *   0.47183949  *  -0.07832469  *
    12       H          3.08298194  *  -1.28588766  *  -0.13359226  *
    13       H         -1.28646194  *  -2.07571835  *  -0.03511018  *
    14       H         -0.21836593  *   0.08608297  *  -2.18332130  *
    15       H         -0.09284840  *  -0.06651329  *   2.19259710  *
    16       H         -0.73133563  *   2.31082616  *   0.10062540  *
    17       H          2.22427794  *  -0.21851978  *  -2.25830815  *
    18       H          2.34930579  *  -0.37172659  *   2.10619396  *
    19       H         -3.69027979  *  -0.88383482  *   0.07643952  *
    20       H         -3.35689058  *   1.75011787  *   0.15771086  *

                             CARTESIAN COORDINATES

   1    C       -0.405883818     0.041858286     0.012927907
   2    C        2.531194609    -0.324750104    -0.084102628
   3    C        0.369906737    -0.016308138    -1.264529871
   4    C        0.441646966    -0.103580578     1.236736637
   5    C       -1.506632857    -1.011641484     0.008200534
   6    C       -1.209726125     1.334411499     0.080961460
   7    C        1.691881233    -0.181326258    -1.301058881
   8    C        1.763158750    -0.268458309     1.185920508
   9    C       -2.711511398    -0.407989763     0.064306594
  10    C       -2.527309669     1.047308466     0.109341889
  11    H        3.303284547     0.471839489    -0.078324688
  12    H        3.082981943    -1.285887656    -0.133592258
  13    H       -1.286461941    -2.075718350    -0.035110185
  14    H       -0.218365931     0.086082970    -2.183321302
  15    H       -0.092848405    -0.066513288     2.192597103
  16    H       -0.731335634     2.310826162     0.100625405
  17    H        2.224277937    -0.218519784    -2.258308152
  18    H        2.349305791    -0.371726591     2.106193964
  19    H       -3.690279786    -0.883834824     0.076439522
  20    H       -3.356890580     1.750117866     0.157710861


           Empirical Formula: C10 H10  =    20 atoms



      MOLECULAR POINT GROUP   :   C1  


                  EIGENVALUES  
 -41.46008 -36.24160 -29.96717 -28.81465 -27.32907 -23.34462 -20.82109 -19.56188
 -18.68441 -18.18767 -17.17406 -16.20086 -15.29041 -14.82336 -14.63043 -13.98619
 -13.51647 -13.19455 -13.18344 -12.37923 -12.09777 -11.10862 -10.53050  -9.47656
  -9.21634   0.29263   0.93360   1.07011   2.05072   3.19986   3.36199   3.37205
   3.49062   3.49940   3.82942   3.83975   3.94236   4.01529   4.35052   4.42461
   4.44137   4.50320   4.67528   5.27093   5.32688   5.58681   5.75523   6.02716
   6.13084   6.13721


              NET ATOMIC CHARGES AND DIPOLE CONTRIBUTIONS

  ATOM NO.   TYPE          CHARGE      No. of ELECS.   s-Pop       p-Pop       
    1          C           0.064927        3.9351     1.15087     2.78420
    2          C          -0.023699        4.0237     1.13151     2.89219
    3          C          -0.119190        4.1192     1.18941     2.92978
    4          C          -0.119197        4.1192     1.18942     2.92978
    5          C          -0.141209        4.1412     1.21074     2.93047
    6          C          -0.141201        4.1412     1.21073     2.93047
    7          C          -0.143542        4.1435     1.19336     2.95018
    8          C          -0.143551        4.1436     1.19336     2.95019
    9          C          -0.119636        4.1196     1.19293     2.92671
   10          C          -0.119647        4.1196     1.19292     2.92673
   11          H           0.062423        0.9376     0.93758
   12          H           0.062399        0.9376     0.93760
   13          H           0.120455        0.8795     0.87954
   14          H           0.106831        0.8932     0.89317
   15          H           0.106836        0.8932     0.89316
   16          H           0.120465        0.8795     0.87954
   17          H           0.099110        0.9009     0.90089
   18          H           0.099108        0.9009     0.90089
   19          H           0.114166        0.8858     0.88583
   20          H           0.114151        0.8858     0.88585
 DIPOLE           X         Y         Z       TOTAL
 POINT-CHG.     0.492    -0.061    -0.016     0.496
 HYBRID        -0.010     0.001     0.001     0.011
 SUM            0.481    -0.060    -0.016     0.485


          ATOMIC ORBITAL ELECTRON POPULATIONS

     Atom    s        px        py        pz   
    1  C   1.15087   0.93479   0.92325   0.92616
    2  C   1.13151   0.96534   1.00672   0.92012
    3  C   1.18941   0.95061   1.01159   0.96757
    4  C   1.18942   0.94763   1.01113   0.97101
    5  C   1.21074   0.94627   0.97908   1.00512
    6  C   1.21073   0.95333   0.97208   1.00505
    7  C   1.19336   0.95880   1.01096   0.98042
    8  C   1.19336   0.96030   1.01119   0.97870
    9  C   1.19293   0.97221   0.94553   1.00897
   10  C   1.19292   0.96389   0.95379   1.00905
   11  H   0.93758
   12  H   0.93760
   13  H   0.87954
   14  H   0.89317
   15  H   0.89316
   16  H   0.87954
   17  H   0.90089
   18  H   0.90089
   19  H   0.88583
   20  H   0.88585
 *******************************************************************************
 ** Site#: 14399        For non-commercial use only    Version 18.184L 64BITS **
 *******************************************************************************
 ** Cite this program as: MOPAC2016, Version: 18.184L, James J. P. Stewart,   **
 ** Stewart Computational Chemistry, web: HTTP://OpenMOPAC.net. Days left:  20**
 *******************************************************************************
 **                                                                           **
 **                                MOPAC2016                                  **
 **                                                                           **
 *******************************************************************************

                              PM3 CALCULATION RESULTS

 *******************************************************************************
 *  CALCULATION DONE:                                Thu Jun 13 15:38:46 2019  *
 *  PM3        - The PM3 Hamiltonian to be used
 *  OLDGEO     - PREVIOUS GEOMETRY TO BE USED
 *  PRECISE    - CRITERIA TO BE INCREASED BY 100 TIMES
 *  NOSYM      - POINT-GROUP SYMMETRY SET TO C1
 *  THREADS=1  - MULTI-THREADING NOT USED
 *  T=         - A TIME OF 172800.0 SECONDS REQUESTED
 *  DUMP=N     - RESTART FILE WRITTEN EVERY  7200.000 SECONDS
 *  THERMO     - THERMODYNAMIC QUANTITIES TO BE CALCULATED
 *******************************************************************************
oldgeo thermo nosym precise THREADS=1  pm3
 InChI=1S/C10H10/c1-2-6-10(7-3-1)8-4-5-9-10/h2-9H,1H2

   ATOM   CHEMICAL          X               Y               Z
  NUMBER   SYMBOL      (ANGSTROMS)     (ANGSTROMS)     (ANGSTROMS)
 
     1       C         -0.40588382  *   0.04185829  *   0.01292791  *
     2       C          2.53119461  *  -0.32475010  *  -0.08410263  *
     3       C          0.36990674  *  -0.01630814  *  -1.26452987  *
     4       C          0.44164697  *  -0.10358058  *   1.23673664  *
     5       C         -1.50663286  *  -1.01164148  *   0.00820053  *
     6       C         -1.20972613  *   1.33441150  *   0.08096146  *
     7       C          1.69188123  *  -0.18132626  *  -1.30105888  *
     8       C          1.76315875  *  -0.26845831  *   1.18592051  *
     9       C         -2.71151140  *  -0.40798976  *   0.06430659  *
    10       C         -2.52730967  *   1.04730847  *   0.10934189  *
    11       H          3.30328455  *   0.47183949  *  -0.07832469  *
    12       H          3.08298194  *  -1.28588766  *  -0.13359226  *
    13       H         -1.28646194  *  -2.07571835  *  -0.03511018  *
    14       H         -0.21836593  *   0.08608297  *  -2.18332130  *
    15       H         -0.09284840  *  -0.06651329  *   2.19259710  *
    16       H         -0.73133563  *   2.31082616  *   0.10062540  *
    17       H          2.22427794  *  -0.21851978  *  -2.25830815  *
    18       H          2.34930579  *  -0.37172659  *   2.10619396  *
    19       H         -3.69027979  *  -0.88383482  *   0.07643952  *
    20       H         -3.35689058  *   1.75011787  *   0.15771086  *
 


          CARTESIAN COORDINATES 

    NO.       ATOM           X           Y           Z

     1         C         -0.4059      0.0419      0.0129
     2         C          2.5312     -0.3248     -0.0841
     3         C          0.3699     -0.0163     -1.2645
     4         C          0.4416     -0.1036      1.2367
     5         C         -1.5066     -1.0116      0.0082
     6         C         -1.2097      1.3344      0.0810
     7         C          1.6919     -0.1813     -1.3011
     8         C          1.7632     -0.2685      1.1859
     9         C         -2.7115     -0.4080      0.0643
    10         C         -2.5273      1.0473      0.1093
    11         H          3.3033      0.4718     -0.0783
    12         H          3.0830     -1.2859     -0.1336
    13         H         -1.2865     -2.0757     -0.0351
    14         H         -0.2184      0.0861     -2.1833
    15         H         -0.0928     -0.0665      2.1926
    16         H         -0.7313      2.3108      0.1006
    17         H          2.2243     -0.2185     -2.2583
    18         H          2.3493     -0.3717      2.1062
    19         H         -3.6903     -0.8838      0.0764
    20         H         -3.3569      1.7501      0.1577

  H: (PM3): J. J. P. STEWART, J. COMP. CHEM. 10, 209 (1989).
  C: (PM3): J. J. P. STEWART, J. COMP. CHEM. 10, 209 (1989).

           Empirical Formula: C10 H10  =    20 atoms



      MOLECULAR POINT GROUP   :   C1  


      RHF CALCULATION, NO. OF DOUBLY OCCUPIED LEVELS = 25



          HEAT OF FORMATION =      66.886166 KCALS/MOLE


          CARTESIAN COORDINATE DERIVATIVES

   NUMBER  ATOM         X            Y            Z

     1       C      0.001788     0.001102     0.002113
     2       C     -0.004458     0.002132     0.005588
     3       C      0.004061    -0.001668     0.006296
     4       C     -0.000443    -0.000967    -0.003153
     5       C      0.002620    -0.002493     0.000028
     6       C      0.010725     0.001508     0.001102
     7       C      0.010637    -0.001957     0.012089
     8       C     -0.000403     0.000580    -0.002099
     9       C     -0.006090    -0.004653     0.003415
    10       C      0.009468    -0.003463    -0.008725
    11       H     -0.005959     0.002654    -0.003471
    12       H     -0.010674    -0.002109     0.003365
    13       H     -0.006354    -0.003007     0.001674
    14       H     -0.000878     0.001479     0.000115
    15       H     -0.001839    -0.000719     0.003800
    16       H     -0.001138     0.009748     0.004258
    17       H      0.005919     0.000480     0.000550
    18       H     -0.000888     0.003668    -0.011280
    19       H     -0.015971    -0.005097    -0.004391
    20       H      0.009877     0.002781    -0.011273
 


          GRADIENT NORM =   0.04318


          TIME FOR SCF CALCULATION =    0.02

          TIME FOR DERIVATIVES     =    0.01

          MOLECULAR WEIGHT =  130.19



          ROTATIONAL CONSTANTS IN CM(-1)

          A =    0.10826374   B =    0.03452615   C =    0.03236467



           PRINCIPAL MOMENTS OF INERTIA IN UNITS OF 10**(-40)*GRAM-CM**2

          A =      258.5609   B =      810.7702   C =      864.9177


          ORIENTATION OF MOLECULE IN FORCE CALCULATION

    NO.       ATOM         X         Y         Z

     1          C      -0.2762    0.0002   -0.0002
     2          C       2.6853    0.0002   -0.0002
     3          C       0.5423    1.2521   -0.0002
     4          C       0.5423   -1.2517   -0.0012
     5          C      -1.2373    0.0002   -1.1825
     6          C      -1.2356   -0.0002    1.1834
     7          C       1.8750    1.2449   -0.0000
     8          C       1.8750   -1.2446   -0.0014
     9          C      -2.5088   -0.0005   -0.7325
    10          C      -2.5077   -0.0006    0.7351
    11          H       3.3522   -0.0003    0.8863
    12          H       3.3532    0.0007   -0.8861
    13          H      -0.8858    0.0004   -2.2116
    14          H      -0.0237    2.1904   -0.0003
    15          H      -0.0237   -2.1900   -0.0019
    16          H      -0.8827    0.0001    2.2120
    17          H       2.4390    2.1847    0.0002
    18          H       2.4390   -2.1843   -0.0024
    19          H      -3.4210   -0.0009   -1.3262
    20          H      -3.4191   -0.0009    1.3300


    FIRST DERIVATIVES WILL BE USED IN THE CALCULATION OF SECOND DERIVATIVES

          ESTIMATED TIME TO COMPLETE CALCULATION =        7.50 SECONDS

    FOR POINT-GROUP C1   THERE ARE   1 UNIQUE SYMMETRY FUNCTIONS.

 STEP:   1 TIME =     0.05 SECS, INTEGRAL =      0.05 TIME LEFT: 172799.92
 STEP:   2 TIME =     0.05 SECS, INTEGRAL =      0.09 TIME LEFT: 172799.88
 STEP:   3 TIME =     0.05 SECS, INTEGRAL =      0.14 TIME LEFT: 172799.83
 STEP:   4 TIME =     0.04 SECS, INTEGRAL =      0.18 TIME LEFT: 172799.79
 STEP:   5 TIME =     0.04 SECS, INTEGRAL =      0.23 TIME LEFT: 172799.74
 STEP:   6 TIME =     0.04 SECS, INTEGRAL =      0.27 TIME LEFT: 172799.70
 STEP:   7 TIME =     0.04 SECS, INTEGRAL =      0.31 TIME LEFT: 172799.66
 STEP:   8 TIME =     0.04 SECS, INTEGRAL =      0.36 TIME LEFT: 172799.61
 STEP:   9 TIME =     0.04 SECS, INTEGRAL =      0.40 TIME LEFT: 172799.57
 STEP:  10 TIME =     0.04 SECS, INTEGRAL =      0.44 TIME LEFT: 172799.53
 STEP:  11 TIME =     0.04 SECS, INTEGRAL =      0.48 TIME LEFT: 172799.48
 STEP:  12 TIME =     0.05 SECS, INTEGRAL =      0.53 TIME LEFT: 172799.44
 STEP:  13 TIME =     0.04 SECS, INTEGRAL =      0.57 TIME LEFT: 172799.39
 STEP:  14 TIME =     0.05 SECS, INTEGRAL =      0.62 TIME LEFT: 172799.35
 STEP:  15 TIME =     0.04 SECS, INTEGRAL =      0.66 TIME LEFT: 172799.30
 STEP:  16 TIME =     0.04 SECS, INTEGRAL =      0.71 TIME LEFT: 172799.26
 STEP:  17 TIME =     0.05 SECS, INTEGRAL =      0.75 TIME LEFT: 172799.21
 STEP:  18 TIME =     0.04 SECS, INTEGRAL =      0.80 TIME LEFT: 172799.17
 STEP:  19 TIME =     0.04 SECS, INTEGRAL =      0.84 TIME LEFT: 172799.13
 STEP:  20 TIME =     0.04 SECS, INTEGRAL =      0.88 TIME LEFT: 172799.09
 STEP:  21 TIME =     0.05 SECS, INTEGRAL =      0.93 TIME LEFT: 172799.04
 STEP:  22 TIME =     0.04 SECS, INTEGRAL =      0.97 TIME LEFT: 172799.00
 STEP:  23 TIME =     0.04 SECS, INTEGRAL =      1.02 TIME LEFT: 172798.95
 STEP:  24 TIME =     0.05 SECS, INTEGRAL =      1.06 TIME LEFT: 172798.91
 STEP:  25 TIME =     0.04 SECS, INTEGRAL =      1.11 TIME LEFT: 172798.86
 STEP:  26 TIME =     0.05 SECS, INTEGRAL =      1.15 TIME LEFT: 172798.82
 STEP:  27 TIME =     0.05 SECS, INTEGRAL =      1.20 TIME LEFT: 172798.77
 STEP:  28 TIME =     0.04 SECS, INTEGRAL =      1.24 TIME LEFT: 172798.73
 STEP:  29 TIME =     0.05 SECS, INTEGRAL =      1.29 TIME LEFT: 172798.68
 STEP:  30 TIME =     0.05 SECS, INTEGRAL =      1.34 TIME LEFT: 172798.63
 STEP:  31 TIME =     0.04 SECS, INTEGRAL =      1.38 TIME LEFT: 172798.59
 STEP:  32 TIME =     0.04 SECS, INTEGRAL =      1.42 TIME LEFT: 172798.55
 STEP:  33 TIME =     0.04 SECS, INTEGRAL =      1.46 TIME LEFT: 172798.50
 STEP:  34 TIME =     0.04 SECS, INTEGRAL =      1.51 TIME LEFT: 172798.46
 STEP:  35 TIME =     0.05 SECS, INTEGRAL =      1.55 TIME LEFT: 172798.41
 STEP:  36 TIME =     0.04 SECS, INTEGRAL =      1.60 TIME LEFT: 172798.37
 STEP:  37 TIME =     0.04 SECS, INTEGRAL =      1.64 TIME LEFT: 172798.33
 STEP:  38 TIME =     0.05 SECS, INTEGRAL =      1.69 TIME LEFT: 172798.28
 STEP:  39 TIME =     0.04 SECS, INTEGRAL =      1.73 TIME LEFT: 172798.24
 STEP:  40 TIME =     0.04 SECS, INTEGRAL =      1.77 TIME LEFT: 172798.20
 STEP:  41 TIME =     0.04 SECS, INTEGRAL =      1.82 TIME LEFT: 172798.15
 STEP:  42 TIME =     0.04 SECS, INTEGRAL =      1.86 TIME LEFT: 172798.11
 STEP:  43 TIME =     0.05 SECS, INTEGRAL =      1.91 TIME LEFT: 172798.06
 STEP:  44 TIME =     0.04 SECS, INTEGRAL =      1.95 TIME LEFT: 172798.02
 STEP:  45 TIME =     0.05 SECS, INTEGRAL =      2.00 TIME LEFT: 172797.97
 STEP:  46 TIME =     0.05 SECS, INTEGRAL =      2.04 TIME LEFT: 172797.93
 STEP:  47 TIME =     0.05 SECS, INTEGRAL =      2.09 TIME LEFT: 172797.88
 STEP:  48 TIME =     0.04 SECS, INTEGRAL =      2.13 TIME LEFT: 172797.84
 STEP:  49 TIME =     0.05 SECS, INTEGRAL =      2.18 TIME LEFT: 172797.79
 STEP:  50 TIME =     0.04 SECS, INTEGRAL =      2.22 TIME LEFT: 172797.75
 STEP:  51 TIME =     0.05 SECS, INTEGRAL =      2.27 TIME LEFT: 172797.70
 STEP:  52 TIME =     0.05 SECS, INTEGRAL =      2.32 TIME LEFT: 172797.65
 STEP:  53 TIME =     0.04 SECS, INTEGRAL =      2.36 TIME LEFT: 172797.61
 STEP:  54 TIME =     0.05 SECS, INTEGRAL =      2.41 TIME LEFT: 172797.56
 STEP:  55 TIME =     0.04 SECS, INTEGRAL =      2.45 TIME LEFT: 172797.52
 STEP:  56 TIME =     0.04 SECS, INTEGRAL =      2.49 TIME LEFT: 172797.48
 STEP:  57 TIME =     0.05 SECS, INTEGRAL =      2.54 TIME LEFT: 172797.43
 STEP:  58 TIME =     0.04 SECS, INTEGRAL =      2.58 TIME LEFT: 172797.39
 STEP:  59 TIME =     0.04 SECS, INTEGRAL =      2.62 TIME LEFT: 172797.34
 STEP:  60 TIME =     0.04 SECS, INTEGRAL =      2.67 TIME LEFT: 172797.30

(To convert to Hartree/Bohr^2, multiply by (10^(-21) x N x a0^2)/(4.184 x 627.51) =  0.0642)


           FORCE MATRIX IN MILLIDYNES/ANGSTROM


                  C  1       C  2       C  3       C  4       C  5       C  6
 ------------------------------------------------------------------------------
     C    1  15.662346
     C    2   0.194983  15.148437
     C    3   4.648584   0.844105  18.321441
     C    4   4.648075   0.843774   0.693450  18.322224
     C    5   3.748369   0.015451   0.650593   0.651286  17.835271
     C    6   3.748102   0.015239   0.651098   0.650999   1.055397  17.835038
     C    7   0.828672   5.041984  10.735980   0.052284   0.036848   0.036950
     C    8   0.828749   5.042227   0.052365  10.736726   0.036936   0.036877
     C    9   1.146017   0.004025   0.063211   0.063337   9.879948   1.536129
     C   10   1.146461   0.003765   0.063102   0.063075   1.536833   9.880106
     H   11   0.014735   4.391766   0.037312   0.037232   0.003992   0.002166
     H   12   0.014697   4.391717   0.037284   0.037245   0.002033   0.004094
     H   13   0.404623   0.001255   0.011353   0.011306   5.092472   0.042125
     H   14   0.432410   0.123622   4.830790   0.043025   0.015751   0.015779
     H   15   0.432375   0.123726   0.042988   4.830755   0.015786   0.015630
     H   16   0.404637   0.001319   0.011325   0.011281   0.042056   5.092252
     H   17   0.120894   0.424024   0.440952   0.003403   0.016338   0.016385
     H   18   0.120900   0.424084   0.003387   0.440894   0.016379   0.016444
     H   19   0.112787   0.000759   0.016580   0.016614   0.445455   0.048976
     H   20   0.112573   0.000722   0.016609   0.016602   0.048912   0.445461


                  C  7       C  8       C  9       C 10       H 11       H 12
 ------------------------------------------------------------------------------
     C    7  18.289211
     C    8   0.737376  18.290318
     C    9   0.010109   0.010238  18.332239
     C   10   0.009956   0.010044   5.122504  18.332980
     H   11   0.419778   0.419761   0.000575   0.000371   4.975932
     H   12   0.419775   0.419816   0.000424   0.000569   0.563425   4.975975
     H   13   0.002613   0.002610   0.441279   0.102616   0.000724   0.000808
     H   14   0.441595   0.003123   0.003883   0.003849   0.016048   0.016120
     H   15   0.003128   0.441610   0.003895   0.003869   0.016077   0.016129
     H   16   0.002660   0.002645   0.102636   0.441302   0.000787   0.000749
     H   17   4.818569   0.045337   0.003362   0.003335   0.028005   0.028082
     H   18   0.045323   4.818792   0.003356   0.003350   0.028043   0.028109
     H   19   0.002253   0.002242   5.063084   0.420212   0.000310   0.000125
     H   20   0.002283   0.002275   0.420211   5.064059   0.000114   0.000305


                  H 13       H 14       H 15       H 16       H 17       H 18
 ------------------------------------------------------------------------------
     H   13   5.485671
     H   14   0.003670   5.201411
     H   15   0.003675   0.006196   5.201373
     H   16   0.009878   0.003674   0.003680   5.485445
     H   17   0.000894   0.069941   0.000826   0.000903   5.193543
     H   18   0.000880   0.000826   0.070006   0.000897   0.006443   5.193705
     H   19   0.043016   0.000872   0.000873   0.005425   0.001040   0.001044
     H   20   0.005437   0.000863   0.000868   0.043024   0.001049   0.001044


                  H 19       H 20
 ------------------------------
     H   19   5.452788
     H   20   0.009788   5.453706


          HEAT OF FORMATION =      66.886166 KCALS/MOLE

          ZERO POINT ENERGY     104.967 KCAL/MOL


           NORMAL COORDINATE ANALYSIS (Total motion = 1 Angstrom)


   Root No.       1         2         3         4         5         6         7         8

                 1 A       2 A       3 A       4 A       5 A       6 A       7 A       8 A   

                  50.7     143.3     209.3     251.4     371.4     405.8     485.0     497.2
  
           1    0.0000    0.0000   -0.0000   -0.0000   -0.0194    0.0000    0.0000   -0.0000
           2   -0.0000   -0.0441   -0.0000    0.0000    0.0000    0.0000   -0.0365   -0.0001
           3   -0.0300   -0.0000   -0.0000   -0.0394    0.0000   -0.0001    0.0001   -0.0329
           4   -0.0001    0.0000    0.0000    0.0000    0.0697   -0.0000    0.0000    0.0000
           5   -0.0000    0.0226   -0.0000    0.0000    0.0000    0.0000    0.0072    0.0000
           6    0.0687   -0.0000   -0.0001   -0.0248    0.0001    0.0000   -0.0000    0.0012
           7   -0.0000   -0.0256   -0.0000    0.0000    0.0337    0.0000   -0.0208   -0.0000
           8   -0.0000   -0.0256   -0.0000   -0.0000   -0.0278    0.0000   -0.0352   -0.0001
           9   -0.0444    0.0000    0.0168   -0.0052   -0.0001    0.0551   -0.0001    0.0421
          10   -0.0000    0.0256    0.0000   -0.0000    0.0337   -0.0000    0.0208    0.0001
          11   -0.0000   -0.0256    0.0000    0.0000    0.0278    0.0000   -0.0352   -0.0001
          12   -0.0444   -0.0000   -0.0168   -0.0051   -0.0001   -0.0550   -0.0002    0.0422
          13   -0.0277    0.0000    0.0000   -0.0228   -0.0477   -0.0001    0.0001   -0.0220
          14   -0.0001   -0.0285   -0.0453    0.0001   -0.0000    0.0045    0.0586    0.0000
          15   -0.0069   -0.0000   -0.0000   -0.0198    0.0104   -0.0001    0.0001   -0.0262
          16    0.0278    0.0000   -0.0000    0.0227   -0.0477    0.0001   -0.0001    0.0220
          17    0.0000   -0.0285    0.0453   -0.0000    0.0000   -0.0046    0.0586    0.0003
          18   -0.0069   -0.0000   -0.0000   -0.0198   -0.0103   -0.0001    0.0001   -0.0263
          19   -0.0000   -0.0260   -0.0000    0.0000    0.0384    0.0000   -0.0245   -0.0000
          20    0.0000    0.0052   -0.0000   -0.0000   -0.0221    0.0000   -0.0112   -0.0000
          21    0.0043    0.0000    0.0501    0.0476   -0.0001   -0.0378    0.0000   -0.0165
          22   -0.0000    0.0260    0.0000    0.0000    0.0384   -0.0000    0.0245    0.0001
          23    0.0000    0.0052    0.0000   -0.0000    0.0221   -0.0000   -0.0112   -0.0000
          24    0.0041    0.0000   -0.0499    0.0476    0.0000    0.0378    0.0001   -0.0166
          25   -0.0172   -0.0000    0.0000   -0.0143   -0.0530   -0.0000    0.0001   -0.0154
          26   -0.0000    0.0549   -0.0398    0.0000   -0.0000   -0.0296   -0.0119    0.0001
          27    0.0231   -0.0000   -0.0000    0.0069    0.0014    0.0000    0.0000   -0.0004
          28    0.0173   -0.0000   -0.0000    0.0143   -0.0530    0.0001   -0.0001    0.0153
          29    0.0001    0.0548    0.0399   -0.0001   -0.0000    0.0296   -0.0119   -0.0002
          30    0.0230    0.0000   -0.0000    0.0069   -0.0014    0.0000    0.0000   -0.0005
          31   -0.0707    0.0001    0.0002    0.1013    0.0714   -0.0001    0.0003   -0.0833
          32   -0.0001    0.0368   -0.0413    0.0001    0.0000    0.0466    0.0247   -0.0000
          33    0.1220   -0.0001   -0.0003   -0.1022   -0.0010    0.0001   -0.0002    0.0664
          34    0.0706   -0.0001   -0.0002   -0.1011    0.0714    0.0001   -0.0003    0.0833
          35    0.0000    0.0369    0.0412    0.0001   -0.0000   -0.0467    0.0248    0.0001
          36    0.1221   -0.0001   -0.0003   -0.1023    0.0011    0.0000   -0.0002    0.0665
          37   -0.0522    0.0000    0.0000   -0.0466   -0.0597   -0.0001    0.0001   -0.0479
          38   -0.0001   -0.0655   -0.0942    0.0002   -0.0000   -0.0004    0.1976    0.0002
          39   -0.0152   -0.0000   -0.0000   -0.0278    0.0063   -0.0001    0.0002   -0.0348
          40   -0.0000   -0.0469    0.0000    0.0000    0.0594   -0.0000   -0.0399   -0.0001
          41   -0.0000   -0.0382   -0.0000    0.0000   -0.0119    0.0000   -0.0461   -0.0001
          42   -0.0928    0.0001    0.0263    0.0101   -0.0002    0.1395   -0.0004    0.1586
          43    0.0000    0.0469    0.0000    0.0000    0.0594   -0.0000    0.0399    0.0002
          44    0.0000   -0.0382    0.0000   -0.0000    0.0120    0.0001   -0.0461   -0.0002
          45   -0.0928   -0.0000   -0.0262    0.0105   -0.0003   -0.1391   -0.0008    0.1588
          46    0.0522    0.0000   -0.0000    0.0465   -0.0597    0.0002   -0.0002    0.0478
          47    0.0001   -0.0656    0.0941   -0.0001    0.0000    0.0003    0.1975    0.0009
          48   -0.0153   -0.0000   -0.0000   -0.0279   -0.0062   -0.0001    0.0001   -0.0349
          49   -0.0000   -0.0475   -0.0000    0.0000    0.0205    0.0000   -0.0488   -0.0001
          50    0.0000    0.0180   -0.0000   -0.0000   -0.0107    0.0000    0.0029   -0.0000
          51   -0.0019    0.0000    0.1015    0.1229   -0.0002   -0.0948   -0.0000   -0.0110
          52    0.0000    0.0475    0.0000    0.0000    0.0205   -0.0000    0.0488    0.0002
          53    0.0000    0.0180    0.0001   -0.0001    0.0107   -0.0001    0.0029   -0.0000
          54   -0.0023    0.0001   -0.1013    0.1231   -0.0001    0.0951    0.0001   -0.0113
          55   -0.0312   -0.0000    0.0000   -0.0271   -0.0504   -0.0000    0.0001   -0.0312
          56   -0.0000    0.1068   -0.0850    0.0001    0.0000   -0.0916   -0.0077    0.0005
          57    0.0445    0.0000   -0.0000    0.0264   -0.0033    0.0001   -0.0001    0.0234
          58    0.0313   -0.0000   -0.0000    0.0271   -0.0504    0.0001   -0.0001    0.0312
          59    0.0001    0.1067    0.0851   -0.0002   -0.0000    0.0917   -0.0077   -0.0005
          60    0.0445    0.0000   -0.0000    0.0264    0.0034    0.0001   -0.0001    0.0234


   Root No.       9        10        11        12        13        14        15        16

                 9 A      10 A      11 A      12 A      13 A      14 A      15 A      16 A   

                 524.4     591.4     677.5     735.5     775.8     778.6     819.7     821.1
  
           1   -0.0000    0.0000   -0.0423   -0.0001    0.0000    0.0000   -0.0000   -0.0000
           2   -0.0000   -0.0440   -0.0000   -0.0000    0.0016   -0.0000    0.0000   -0.0000
           3   -0.0001   -0.0000    0.0000   -0.0034    0.0000   -0.0000   -0.0471   -0.0006
           4    0.0000   -0.0000    0.0540    0.0001    0.0000   -0.0000   -0.0000   -0.0000
           5    0.0000    0.0448    0.0000    0.0000   -0.0042   -0.0000   -0.0000   -0.0000
           6   -0.0000    0.0000    0.0001   -0.0253    0.0000   -0.0001    0.0163    0.0002
           7    0.0000    0.0699   -0.0281   -0.0000    0.0015   -0.0000   -0.0000    0.0000
           8   -0.0000   -0.0705   -0.0476   -0.0001    0.0154    0.0000    0.0000    0.0000
           9   -0.0218    0.0000    0.0001   -0.0242   -0.0000   -0.0233    0.0041    0.0119
          10    0.0000   -0.0699   -0.0281   -0.0000   -0.0015    0.0000   -0.0000   -0.0000
          11   -0.0000   -0.0705    0.0476    0.0001    0.0154   -0.0000   -0.0000    0.0000
          12    0.0220    0.0000    0.0001   -0.0244    0.0000    0.0232    0.0048   -0.0117
          13   -0.0001   -0.0000    0.0162    0.0142    0.0000    0.0000    0.0392    0.0005
          14    0.0423   -0.0016    0.0000   -0.0000   -0.0274   -0.0095    0.0010   -0.0306
          15   -0.0001   -0.0000   -0.0349    0.0093    0.0000    0.0000   -0.0371   -0.0005
          16    0.0001    0.0000    0.0163   -0.0142    0.0000   -0.0000   -0.0392   -0.0005
          17   -0.0423   -0.0015    0.0000   -0.0000   -0.0274    0.0094   -0.0010    0.0306
          18   -0.0001   -0.0000    0.0348    0.0094   -0.0000    0.0000   -0.0371   -0.0005
          19    0.0000    0.0712   -0.0291   -0.0000    0.0044    0.0000   -0.0000    0.0000
          20   -0.0000    0.0726   -0.0622   -0.0001    0.0024    0.0000   -0.0000    0.0000
          21    0.0092    0.0000   -0.0000   -0.0065    0.0000   -0.0190    0.0004    0.0094
          22    0.0000   -0.0712   -0.0292   -0.0000   -0.0044    0.0000   -0.0000   -0.0000
          23    0.0000    0.0726    0.0622    0.0001    0.0024   -0.0000    0.0000    0.0000
          24   -0.0093    0.0000    0.0001   -0.0066   -0.0000    0.0190    0.0010   -0.0094
          25   -0.0000   -0.0000    0.0324    0.0153   -0.0000    0.0001    0.0680    0.0009
          26   -0.0419   -0.0039    0.0000    0.0000   -0.0207   -0.0076    0.0007   -0.0215
          27   -0.0000   -0.0000   -0.0048    0.0096   -0.0000    0.0000    0.0579    0.0008
          28    0.0000    0.0000    0.0324   -0.0153    0.0000   -0.0001   -0.0680   -0.0009
          29    0.0419   -0.0039    0.0000   -0.0000   -0.0208    0.0076   -0.0007    0.0215
          30   -0.0000   -0.0000    0.0047    0.0096   -0.0000    0.0000    0.0580    0.0008
          31   -0.0002   -0.0001    0.0591   -0.0981    0.0000   -0.0002    0.0483    0.0007
          32   -0.0158   -0.0077    0.0000   -0.0002   -0.0109    0.0366    0.0005   -0.0167
          33    0.0002    0.0000   -0.0033    0.0519   -0.0000    0.0001   -0.0216   -0.0003
          34    0.0003    0.0001    0.0587    0.0981   -0.0000    0.0002   -0.0482   -0.0007
          35    0.0158   -0.0079   -0.0000    0.0001   -0.0109   -0.0367   -0.0005    0.0167
          36    0.0002    0.0000    0.0031    0.0520   -0.0000    0.0001   -0.0216   -0.0003
          37   -0.0002   -0.0000    0.0431    0.0179   -0.0000    0.0000   -0.0470   -0.0007
          38    0.1245    0.0285   -0.0000   -0.0002    0.1490    0.0817   -0.0056    0.1789
          39   -0.0001   -0.0000   -0.0260    0.0102    0.0001    0.0000   -0.0676   -0.0009
          40    0.0000    0.0286   -0.0035    0.0000    0.0101   -0.0000    0.0000    0.0000
          41   -0.0000   -0.0945   -0.0323   -0.0000    0.0202    0.0000    0.0000    0.0000
          42   -0.0733    0.0001   -0.0001    0.0789   -0.0001    0.1426    0.0131   -0.0398
          43    0.0000   -0.0286   -0.0035    0.0000   -0.0102    0.0001    0.0000   -0.0000
          44   -0.0000   -0.0945    0.0322   -0.0000    0.0202    0.0001   -0.0000   -0.0000
          45    0.0742    0.0001   -0.0002    0.0797    0.0001   -0.1421    0.0109    0.0400
          46    0.0001    0.0000    0.0433   -0.0178   -0.0000   -0.0000    0.0470    0.0007
          47   -0.1244    0.0285   -0.0000    0.0002    0.1493   -0.0817    0.0056   -0.1787
          48   -0.0001   -0.0000    0.0258    0.0103   -0.0000    0.0000   -0.0678   -0.0009
          49   -0.0000    0.0318   -0.0841   -0.0001    0.0196    0.0000    0.0000    0.0000
          50   -0.0000    0.0951   -0.0301   -0.0001   -0.0063   -0.0001   -0.0000    0.0000
          51    0.0165    0.0000   -0.0004    0.1792   -0.0000    0.1508   -0.0776   -0.0786
          52    0.0000   -0.0318   -0.0841   -0.0000   -0.0196   -0.0001   -0.0000    0.0000
          53    0.0000    0.0951    0.0301   -0.0001   -0.0063    0.0001    0.0001   -0.0001
          54   -0.0166   -0.0002   -0.0005    0.1801    0.0000   -0.1500   -0.0823    0.0763
          55   -0.0000   -0.0000    0.0183    0.0277   -0.0001    0.0001    0.0869    0.0011
          56   -0.1539    0.0139   -0.0000    0.0000    0.2251    0.0297   -0.0034    0.1133
          57    0.0001    0.0000    0.0177   -0.0088   -0.0001   -0.0000    0.0311    0.0004
          58    0.0000    0.0000    0.0184   -0.0278   -0.0000   -0.0001   -0.0868   -0.0011
          59    0.1539    0.0139   -0.0000    0.0000    0.2253   -0.0295    0.0037   -0.1131
          60    0.0001   -0.0000   -0.0177   -0.0088    0.0000   -0.0000    0.0313    0.0004


   Root No.      17        18        19        20        21        22        23        24

                17 A      18 A      19 A      20 A      21 A      22 A      23 A      24 A   

                 886.0     899.1     946.7     959.4     974.4     996.7    1002.0    1012.1
  
           1    0.0261   -0.0001   -0.0012    0.0000    0.0000   -0.0000    0.0107    0.0000
           2    0.0000    0.0000    0.0000   -0.0063   -0.0000    0.0000   -0.0000   -0.0000
           3    0.0000    0.0005   -0.0000    0.0000    0.0000   -0.0000   -0.0000    0.0079
           4    0.0342   -0.0001    0.0257    0.0000   -0.0000   -0.0000    0.0585    0.0002
           5   -0.0000   -0.0000    0.0000   -0.0044   -0.0000    0.0000   -0.0000   -0.0000
           6    0.0002    0.0554   -0.0000    0.0000   -0.0000   -0.0001   -0.0001    0.0381
           7   -0.0193    0.0001   -0.0089   -0.0009    0.0000    0.0000   -0.0146   -0.0000
           8    0.0330   -0.0001    0.0585    0.0096    0.0000   -0.0000    0.0114    0.0000
           9   -0.0001   -0.0313    0.0000    0.0000   -0.0289   -0.0138   -0.0001    0.0271
          10   -0.0193    0.0001   -0.0090    0.0009   -0.0000   -0.0000   -0.0146   -0.0001
          11   -0.0330    0.0001   -0.0585    0.0096   -0.0000   -0.0000   -0.0114   -0.0001
          12   -0.0002   -0.0313   -0.0000   -0.0000    0.0288    0.0137   -0.0001    0.0272
          13    0.0147   -0.0002   -0.0100    0.0000    0.0000   -0.0000   -0.0016   -0.0006
          14    0.0000   -0.0000   -0.0000   -0.0408   -0.0057    0.0323    0.0000    0.0001
          15    0.0663    0.0120   -0.0343   -0.0000   -0.0000    0.0000   -0.0022   -0.0099
          16    0.0146    0.0001   -0.0099    0.0000   -0.0000    0.0000   -0.0016    0.0005
          17    0.0000    0.0000   -0.0000   -0.0409    0.0056   -0.0323   -0.0000   -0.0000
          18   -0.0661    0.0124    0.0343   -0.0000    0.0000    0.0000    0.0023   -0.0099
          19   -0.0203    0.0001   -0.0019    0.0031    0.0000    0.0000   -0.0044   -0.0000
          20   -0.0373    0.0001   -0.0158    0.0045   -0.0000   -0.0000    0.0384    0.0001
          21   -0.0001   -0.0158   -0.0000   -0.0000    0.0219    0.0063    0.0002   -0.0454
          22   -0.0202    0.0001   -0.0019   -0.0031   -0.0000   -0.0000   -0.0044   -0.0000
          23    0.0373   -0.0001    0.0158    0.0045    0.0001    0.0000   -0.0384   -0.0001
          24   -0.0001   -0.0158    0.0000    0.0000   -0.0219   -0.0062    0.0001   -0.0454
          25   -0.0142   -0.0042    0.0056   -0.0000   -0.0000    0.0000    0.0009    0.0011
          26   -0.0000   -0.0000    0.0000    0.0313    0.0140   -0.0457   -0.0000   -0.0001
          27    0.0025   -0.0049    0.0026    0.0000   -0.0000    0.0000    0.0034    0.0013
          28   -0.0141    0.0043    0.0056   -0.0000    0.0000   -0.0000    0.0009   -0.0011
          29    0.0000    0.0000   -0.0000    0.0315   -0.0140    0.0457    0.0000    0.0000
          30   -0.0026   -0.0049   -0.0026    0.0000   -0.0000   -0.0000   -0.0034    0.0012
          31    0.0438    0.1380    0.0366    0.0001   -0.0001   -0.0002    0.0819    0.0858
          32   -0.0000    0.0001    0.0001   -0.0211   -0.0771   -0.0345   -0.0002   -0.0003
          33   -0.0052   -0.0524   -0.0057   -0.0000    0.0000    0.0000   -0.0168   -0.0281
          34    0.0428   -0.1382    0.0367   -0.0000    0.0001    0.0001    0.0824   -0.0852
          35    0.0000    0.0001    0.0000   -0.0214    0.0769    0.0346   -0.0000    0.0007
          36    0.0049   -0.0526    0.0058   -0.0000    0.0001    0.0001    0.0171   -0.0280
          37    0.0489    0.0198   -0.0652    0.0000   -0.0000   -0.0000   -0.0317   -0.0116
          38   -0.0001   -0.0000    0.0000    0.1906    0.0212   -0.1070   -0.0001   -0.0002
          39    0.0788    0.0188   -0.0534    0.0001   -0.0000   -0.0000   -0.0123   -0.0136
          40   -0.0075    0.0001    0.0422   -0.0025    0.0000    0.0001   -0.1150   -0.0004
          41    0.0406   -0.0001    0.0899    0.0086    0.0001    0.0001   -0.0458   -0.0001
          42    0.0009    0.2026   -0.0002   -0.0003    0.1426    0.0543    0.0005   -0.0968
          43   -0.0074   -0.0000    0.0422    0.0024    0.0001    0.0000   -0.1149   -0.0004
          44   -0.0406   -0.0000   -0.0899    0.0086    0.0000    0.0000    0.0457    0.0002
          45    0.0010    0.2026    0.0000    0.0002   -0.1425   -0.0540    0.0003   -0.0973
          46    0.0485   -0.0202   -0.0651    0.0000   -0.0000    0.0000   -0.0319    0.0113
          47   -0.0001    0.0000    0.0000    0.1910   -0.0207    0.1068   -0.0000    0.0001
          48   -0.0786    0.0194    0.0535   -0.0001    0.0000   -0.0000    0.0125   -0.0135
          49   -0.0183    0.0001    0.0569    0.0213    0.0001    0.0000   -0.1035   -0.0003
          50   -0.0389    0.0001   -0.0495   -0.0061   -0.0000   -0.0000    0.0977    0.0002
          51   -0.0000   -0.0138    0.0001    0.0003   -0.1325   -0.0374   -0.0006    0.1639
          52   -0.0183    0.0001    0.0569   -0.0213    0.0001    0.0001   -0.1035   -0.0002
          53    0.0389   -0.0001    0.0495   -0.0061   -0.0000    0.0001   -0.0977   -0.0004
          54   -0.0000   -0.0136   -0.0001   -0.0002    0.1321    0.0368   -0.0005    0.1641
          55    0.0391    0.0019   -0.0355    0.0000    0.0000   -0.0000   -0.0075   -0.0118
          56    0.0000    0.0000    0.0000   -0.1639   -0.0570    0.1694    0.0001    0.0002
          57   -0.0774   -0.0141    0.0643    0.0001    0.0000   -0.0001    0.0161    0.0210
          58    0.0392   -0.0022   -0.0356    0.0000   -0.0000   -0.0000   -0.0076    0.0119
          59   -0.0000   -0.0000    0.0000   -0.1644    0.0566   -0.1691   -0.0001   -0.0001
          60    0.0772   -0.0147   -0.0643    0.0000    0.0000   -0.0001   -0.0161    0.0209


   Root No.      25        26        27        28        29        30        31        32

                25 A      26 A      27 A      28 A      29 A      30 A      31 A      32 A   

                1042.1    1063.1    1065.6    1076.1    1090.8    1141.5    1151.6    1188.4
  
           1    0.0000   -0.0409   -0.0000   -0.0000    0.0089    0.0000   -0.0084    0.0000
           2    0.0175    0.0000    0.0001    0.0000   -0.0000    0.0202    0.0000   -0.0001
           3    0.0000    0.0000    0.0000   -0.0159    0.0000   -0.0000   -0.0000    0.0670
           4    0.0000    0.0139    0.0000    0.0000   -0.0031    0.0000   -0.0042   -0.0000
           5    0.0279   -0.0000    0.0001    0.0000    0.0000   -0.0016    0.0000    0.0000
           6   -0.0000    0.0000    0.0001    0.0024   -0.0000    0.0000    0.0000   -0.0033
           7    0.0159   -0.0020    0.0000    0.0000    0.0009   -0.0001    0.0039   -0.0000
           8   -0.0133    0.0150   -0.0000   -0.0000   -0.0036   -0.0088   -0.0012    0.0000
           9    0.0000    0.0000   -0.0129    0.0054   -0.0000    0.0000    0.0000   -0.0136
          10   -0.0159   -0.0020   -0.0000   -0.0000    0.0009    0.0001    0.0039    0.0000
          11   -0.0133   -0.0150   -0.0001    0.0000    0.0036   -0.0088    0.0012    0.0000
          12   -0.0000   -0.0000    0.0130    0.0055   -0.0000    0.0000   -0.0000   -0.0136
          13    0.0000   -0.0040    0.0000   -0.0081    0.0027   -0.0000    0.0037    0.0159
          14   -0.0079    0.0000    0.0023   -0.0000    0.0000   -0.0040   -0.0000    0.0000
          15    0.0000   -0.0184   -0.0001    0.0277    0.0176   -0.0000    0.0085   -0.0099
          16    0.0000   -0.0040   -0.0000    0.0082    0.0027    0.0000    0.0037   -0.0159
          17   -0.0079    0.0000   -0.0024    0.0000    0.0000   -0.0039   -0.0000    0.0000
          18   -0.0000    0.0184   -0.0000    0.0277   -0.0178    0.0000   -0.0084   -0.0099
          19    0.0005    0.0062   -0.0000    0.0000   -0.0012   -0.0052   -0.0043   -0.0000
          20   -0.0274    0.0194   -0.0001    0.0000   -0.0042   -0.0008    0.0062    0.0000
          21   -0.0001   -0.0000    0.0390   -0.0032    0.0000   -0.0000   -0.0000    0.0047
          22   -0.0005    0.0062    0.0000   -0.0000   -0.0012    0.0052   -0.0043    0.0000
          23   -0.0274   -0.0194   -0.0001   -0.0000    0.0042   -0.0008   -0.0062    0.0000
          24    0.0001   -0.0000   -0.0392   -0.0033    0.0000    0.0000   -0.0000    0.0047
          25   -0.0000   -0.0122   -0.0000   -0.0028    0.0003   -0.0000    0.0046    0.0104
          26    0.0025   -0.0000   -0.0015    0.0000   -0.0000    0.0009    0.0000   -0.0000
          27    0.0000   -0.0280   -0.0000   -0.0033    0.0170   -0.0000    0.0068   -0.0185
          28   -0.0000   -0.0122   -0.0000    0.0027    0.0002   -0.0000    0.0046   -0.0104
          29    0.0025   -0.0000    0.0015   -0.0000   -0.0000    0.0009    0.0000   -0.0000
          30    0.0000    0.0280    0.0000   -0.0033   -0.0169    0.0000   -0.0068   -0.0185
          31   -0.0001    0.0235    0.0002    0.0050   -0.0057    0.0001   -0.0144   -0.0068
          32    0.2084   -0.0003    0.3428    0.0003    0.0000   -0.1293   -0.0002   -0.0001
          33    0.0001   -0.0064    0.0001   -0.0014    0.0017   -0.0001    0.0046    0.0018
          34    0.0001    0.0234   -0.0000   -0.0050   -0.0057    0.0000   -0.0144    0.0068
          35    0.2098    0.0002   -0.3416   -0.0002    0.0000   -0.1293   -0.0002   -0.0000
          36    0.0002    0.0063   -0.0002   -0.0014   -0.0017   -0.0001   -0.0046    0.0018
          37    0.0000    0.2277    0.0004   -0.1943    0.1127   -0.0000   -0.0315   -0.2099
          38    0.0212    0.0000   -0.0059    0.0000    0.0000    0.0090    0.0000   -0.0001
          39    0.0000    0.0582    0.0001   -0.0343    0.0564    0.0000   -0.0027   -0.0855
          40    0.1339    0.0372    0.0006   -0.0000   -0.0127    0.0977    0.1866    0.0002
          41    0.0557    0.0396    0.0003   -0.0000   -0.0120    0.0507    0.1081    0.0002
          42    0.0001   -0.0000    0.0241   -0.0140    0.0000   -0.0000   -0.0000    0.0314
          43   -0.1340    0.0372   -0.0005   -0.0000   -0.0128   -0.0981    0.1863   -0.0000
          44    0.0557   -0.0396    0.0002    0.0000    0.0120    0.0509   -0.1080   -0.0000
          45   -0.0000    0.0000   -0.0243   -0.0140    0.0000    0.0000   -0.0001    0.0314
          46   -0.0000    0.2274    0.0000    0.1949    0.1117   -0.0000   -0.0317    0.2098
          47    0.0210    0.0001    0.0060    0.0000   -0.0000    0.0089    0.0000    0.0000
          48    0.0000   -0.0585   -0.0001   -0.0349   -0.0564    0.0000    0.0029   -0.0858
          49   -0.0384    0.0124   -0.0001   -0.0000   -0.0056   -0.1917   -0.1592   -0.0001
          50   -0.0023    0.0176    0.0000    0.0000   -0.0020    0.1083    0.0988    0.0000
          51    0.0001    0.0001   -0.0677    0.0056    0.0000    0.0001    0.0000    0.0025
          52    0.0383    0.0124    0.0001   -0.0000   -0.0056    0.1921   -0.1588   -0.0001
          53   -0.0024   -0.0175   -0.0001   -0.0000    0.0020    0.1085   -0.0986   -0.0001
          54   -0.0003   -0.0000    0.0682    0.0057    0.0000    0.0000   -0.0000    0.0025
          55    0.0000    0.0028   -0.0002    0.1198   -0.1541    0.0000   -0.0000   -0.0776
          56   -0.0051    0.0000    0.0037   -0.0001   -0.0000    0.0013    0.0000   -0.0000
          57   -0.0000   -0.0526    0.0002   -0.1915    0.2534   -0.0000    0.0151    0.1153
          58    0.0000    0.0030    0.0002   -0.1207   -0.1539   -0.0000   -0.0001    0.0777
          59   -0.0050    0.0000   -0.0037    0.0000    0.0000    0.0013    0.0000   -0.0000
          60    0.0000    0.0528    0.0003   -0.1924   -0.2524   -0.0000   -0.0152    0.1151


   Root No.      33        34        35        36        37        38        39        40

                33 A      34 A      35 A      36 A      37 A      38 A      39 A      40 A   

                1212.8    1263.6    1279.5    1356.5    1364.2    1396.2    1420.5    1461.0
  
           1   -0.0000    0.0526   -0.0000    0.0525    0.0001    0.0230    0.0735   -0.0001
           2    0.0347    0.0000   -0.0001   -0.0002    0.1045    0.0000    0.0000   -0.0721
           3    0.0000   -0.0000    0.1101   -0.0000    0.0001    0.0000   -0.0000   -0.0001
           4    0.0000   -0.0132    0.0000   -0.0460   -0.0002    0.0312    0.0286   -0.0000
           5   -0.0208   -0.0000   -0.0000   -0.0002    0.0657    0.0000    0.0001    0.1314
           6   -0.0000    0.0000   -0.0032   -0.0000    0.0000    0.0000    0.0000    0.0001
           7    0.0162    0.0180    0.0000   -0.0007   -0.0001   -0.0142   -0.0168    0.0317
           8    0.0068    0.0148    0.0001   -0.0140   -0.0439   -0.0154   -0.0212    0.0472
           9   -0.0000    0.0000   -0.0124    0.0000   -0.0000    0.0000    0.0000    0.0000
          10   -0.0162    0.0180   -0.0000   -0.0007    0.0001   -0.0142   -0.0168   -0.0317
          11    0.0068   -0.0148    0.0000    0.0142   -0.0438    0.0154    0.0212    0.0472
          12    0.0000   -0.0000   -0.0124    0.0000   -0.0000    0.0000    0.0000    0.0000
          13    0.0000   -0.0090   -0.0438   -0.0007   -0.0000    0.0187   -0.0226    0.0000
          14   -0.0063    0.0000    0.0000    0.0000   -0.0108    0.0000   -0.0000    0.0048
          15    0.0000   -0.0230   -0.0668   -0.0092   -0.0001    0.0078   -0.0212    0.0000
          16   -0.0000   -0.0089    0.0437   -0.0007    0.0000    0.0187   -0.0226    0.0000
          17   -0.0063   -0.0000    0.0000    0.0000   -0.0108    0.0000   -0.0000    0.0048
          18    0.0000    0.0230   -0.0669    0.0092   -0.0000   -0.0078    0.0212   -0.0000
          19    0.0134    0.0064    0.0000   -0.0121   -0.0206   -0.0147   -0.0222    0.0238
          20   -0.0133   -0.0318   -0.0000   -0.0012   -0.0134    0.0158    0.0158   -0.0660
          21    0.0000   -0.0000    0.0041   -0.0000   -0.0000   -0.0000    0.0000   -0.0000
          22   -0.0134    0.0064   -0.0000   -0.0122    0.0206   -0.0146   -0.0222   -0.0237
          23   -0.0133    0.0318   -0.0000    0.0012   -0.0134   -0.0158   -0.0159   -0.0659
          24   -0.0000    0.0000    0.0042    0.0000   -0.0000   -0.0000   -0.0000   -0.0000
          25    0.0000   -0.0148   -0.0045   -0.0106   -0.0000   -0.0087   -0.0061    0.0000
          26    0.0011   -0.0000   -0.0000   -0.0000    0.0018   -0.0000   -0.0000   -0.0009
          27   -0.0000   -0.0217    0.0334   -0.0243   -0.0001   -0.0619    0.0367   -0.0000
          28   -0.0000   -0.0147    0.0046   -0.0106   -0.0000   -0.0086   -0.0061    0.0000
          29    0.0011   -0.0000    0.0000   -0.0000    0.0018   -0.0000   -0.0000   -0.0009
          30   -0.0000    0.0217    0.0334    0.0243    0.0001    0.0619   -0.0366    0.0000
          31    0.0000   -0.0770   -0.0061    0.2290    0.0007   -0.0655   -0.0410    0.0001
          32    0.0805    0.0000    0.0001    0.0003   -0.1069   -0.0001   -0.0001   -0.1248
          33    0.0000    0.0407    0.0013   -0.1785   -0.0006    0.0629    0.0452   -0.0001
          34    0.0000   -0.0770    0.0061    0.2288    0.0007   -0.0654   -0.0409    0.0000
          35    0.0803    0.0000    0.0001    0.0002   -0.1068   -0.0000   -0.0001   -0.1247
          36    0.0001   -0.0407    0.0013    0.1787    0.0005   -0.0629   -0.0452   -0.0000
          37   -0.0001    0.0426    0.0694    0.0036   -0.0000   -0.0632    0.0761   -0.0001
          38    0.0134   -0.0000   -0.0000   -0.0001    0.0202   -0.0000    0.0000   -0.0089
          39   -0.0000   -0.0079   -0.0280   -0.0097   -0.0001   -0.0220    0.0118    0.0000
          40   -0.1703   -0.0600   -0.0000    0.0454   -0.0389    0.0483    0.0716   -0.0679
          41   -0.1034   -0.0324    0.0000    0.0114   -0.0683    0.0216    0.0303   -0.0142
          42    0.0000   -0.0000    0.0297   -0.0000    0.0000   -0.0000    0.0000   -0.0000
          43    0.1703   -0.0600    0.0001    0.0452    0.0390    0.0484    0.0717    0.0678
          44   -0.1034    0.0324   -0.0001   -0.0111   -0.0683   -0.0217   -0.0303   -0.0142
          45   -0.0000   -0.0000    0.0297   -0.0000   -0.0000   -0.0000   -0.0000    0.0000
          46    0.0001    0.0425   -0.0696    0.0035    0.0000   -0.0632    0.0761   -0.0001
          47    0.0134    0.0000   -0.0000   -0.0000    0.0202   -0.0000    0.0000   -0.0089
          48   -0.0000    0.0078   -0.0279    0.0097   -0.0000    0.0221   -0.0119    0.0000
          49   -0.1157   -0.1270   -0.0001    0.0003    0.0860    0.0531    0.0537   -0.0514
          50    0.0624    0.0449    0.0001   -0.0108   -0.0799   -0.0238   -0.0296   -0.0227
          51    0.0000    0.0000    0.0099    0.0000    0.0000    0.0000    0.0000   -0.0000
          52    0.1157   -0.1269    0.0001    0.0007   -0.0860    0.0530    0.0536    0.0513
          53    0.0624   -0.0448    0.0001    0.0112   -0.0799    0.0238    0.0296   -0.0228
          54   -0.0000    0.0000    0.0099    0.0000   -0.0000    0.0000    0.0000   -0.0001
          55   -0.0001   -0.0211    0.1172   -0.0303   -0.0001   -0.0730    0.0382   -0.0000
          56    0.0038   -0.0000    0.0000   -0.0000    0.0109   -0.0000    0.0000   -0.0064
          57    0.0001   -0.0173   -0.1528    0.0008   -0.0000    0.0295   -0.0314    0.0000
          58    0.0001   -0.0211   -0.1173   -0.0303   -0.0001   -0.0730    0.0382    0.0000
          59    0.0038   -0.0000   -0.0000   -0.0000    0.0109   -0.0000    0.0000   -0.0065
          60    0.0001    0.0173   -0.1526   -0.0008   -0.0001   -0.0294    0.0313   -0.0000


   Root No.      41        42        43        44        45        46        47        48

                41 A      42 A      43 A      44 A      45 A      46 A      47 A      48 A   

                1740.2    1792.7    1876.5    1894.5    2932.5    3010.1    3044.9    3046.4
  
           1   -0.0172   -0.0000    0.0000   -0.0308   -0.0000   -0.0001    0.0000   -0.0002
           2   -0.0000    0.0000    0.0292    0.0000   -0.0000    0.0000    0.0004    0.0000
           3    0.0000    0.0007    0.0000    0.0000    0.0001    0.0000    0.0000    0.0000
           4    0.0010    0.0000   -0.0000    0.0284    0.0000   -0.0382   -0.0000    0.0025
           5    0.0000   -0.0000    0.0310    0.0000    0.0000   -0.0000   -0.0002   -0.0000
           6   -0.0000   -0.0002    0.0000    0.0000   -0.0610   -0.0000   -0.0000   -0.0000
           7    0.0026    0.0000   -0.1398    0.1341    0.0000    0.0002   -0.0089    0.0086
           8   -0.0014    0.0000   -0.0224    0.0184    0.0000   -0.0001    0.0152   -0.0147
           9   -0.0000   -0.0031   -0.0000    0.0000   -0.0003    0.0000   -0.0000    0.0000
          10    0.0026    0.0000    0.1396    0.1342    0.0000    0.0001    0.0088    0.0088
          11    0.0014   -0.0000   -0.0224   -0.0184   -0.0000    0.0001    0.0149    0.0150
          12   -0.0000   -0.0031   -0.0000   -0.0000   -0.0003   -0.0000    0.0000    0.0000
          13    0.1332    0.1274    0.0000   -0.0048    0.0000    0.0000    0.0000   -0.0000
          14    0.0000    0.0000    0.0020    0.0000    0.0000    0.0000    0.0001    0.0000
          15   -0.0421   -0.0296   -0.0000    0.0001   -0.0000   -0.0000    0.0000    0.0000
          16    0.1333   -0.1274    0.0000   -0.0048   -0.0000    0.0000    0.0000   -0.0000
          17    0.0000   -0.0000    0.0020    0.0000   -0.0000   -0.0000    0.0001    0.0000
          18    0.0419   -0.0294    0.0000   -0.0001   -0.0000    0.0000    0.0000   -0.0000
          19   -0.0036   -0.0000    0.1401   -0.1339   -0.0000    0.0022   -0.0109    0.0098
          20    0.0014    0.0000   -0.0248    0.0203   -0.0000    0.0043   -0.0179    0.0164
          21    0.0000    0.0002    0.0000   -0.0000   -0.0000    0.0000   -0.0000    0.0000
          22   -0.0036   -0.0000   -0.1399   -0.1341   -0.0000    0.0022    0.0107    0.0100
          23   -0.0014   -0.0000   -0.0248   -0.0203    0.0000   -0.0044   -0.0175   -0.0167
          24    0.0000    0.0002   -0.0000   -0.0000   -0.0000   -0.0000   -0.0000   -0.0000
          25   -0.1178   -0.1302   -0.0000    0.0039   -0.0000   -0.0000   -0.0000    0.0000
          26   -0.0000   -0.0001    0.0001    0.0000    0.0000    0.0000    0.0000   -0.0000
          27    0.0590    0.0501    0.0000   -0.0000    0.0000   -0.0000   -0.0000    0.0000
          28   -0.1179    0.1303   -0.0000    0.0039    0.0000   -0.0000    0.0000    0.0000
          29   -0.0000    0.0000    0.0001    0.0000    0.0000   -0.0000    0.0000    0.0000
          30   -0.0588    0.0499   -0.0000    0.0000    0.0000    0.0000   -0.0000   -0.0000
          31    0.0005   -0.0004   -0.0000    0.0152    0.2858    0.2284    0.0002   -0.0163
          32    0.0000    0.0000    0.0265    0.0000   -0.0002   -0.0002   -0.0024   -0.0000
          33    0.0001    0.0000    0.0000    0.0036    0.3688    0.3523    0.0003   -0.0244
          34    0.0005    0.0004   -0.0000    0.0152   -0.2861    0.2288    0.0002   -0.0164
          35    0.0000    0.0000    0.0266    0.0000   -0.0002    0.0002   -0.0024   -0.0000
          36   -0.0002    0.0000    0.0000   -0.0036    0.3684   -0.3521   -0.0002    0.0244
          37    0.0008   -0.0005   -0.0000   -0.0006    0.0000   -0.0001    0.0000    0.0000
          38    0.0000    0.0000    0.0002    0.0000   -0.0000   -0.0000    0.0000    0.0000
          39   -0.1137   -0.0981   -0.0000    0.0025    0.0000    0.0002   -0.0000   -0.0001
          40    0.0004   -0.0000   -0.0221    0.0085   -0.0000    0.0014    0.1077   -0.1025
          41   -0.0031    0.0000    0.0766   -0.0843   -0.0000   -0.0014   -0.1838    0.1743
          42    0.0000    0.0009   -0.0000    0.0000   -0.0008    0.0000    0.0000   -0.0000
          43    0.0004   -0.0000    0.0221    0.0085    0.0000    0.0014   -0.1056   -0.1048
          44    0.0031    0.0000    0.0765    0.0845    0.0000    0.0014   -0.1802   -0.1783
          45    0.0000    0.0009    0.0001    0.0001   -0.0008    0.0000   -0.0001   -0.0001
          46    0.0010    0.0003    0.0000   -0.0006   -0.0000   -0.0001    0.0000    0.0000
          47    0.0000   -0.0000    0.0002   -0.0000    0.0000   -0.0000    0.0000    0.0000
          48    0.1137   -0.0981    0.0000   -0.0025    0.0001   -0.0002    0.0000    0.0001
          49    0.0022   -0.0000    0.0187   -0.0048    0.0000   -0.0299    0.1266   -0.1138
          50   -0.0025    0.0000    0.0750   -0.0827    0.0000   -0.0444    0.2163   -0.1947
          51   -0.0000    0.0008    0.0000   -0.0000   -0.0017   -0.0000    0.0001   -0.0000
          52    0.0022   -0.0000   -0.0187   -0.0049    0.0000   -0.0299   -0.1239   -0.1161
          53    0.0025   -0.0000    0.0749    0.0828   -0.0000    0.0445    0.2117    0.1985
          54   -0.0000    0.0008    0.0001    0.0001   -0.0017    0.0000    0.0002    0.0002
          55   -0.0789   -0.0476   -0.0000    0.0047    0.0000    0.0001    0.0000   -0.0002
          56   -0.0000   -0.0000    0.0005   -0.0000    0.0000   -0.0000   -0.0001   -0.0000
          57   -0.0473   -0.1164   -0.0000    0.0015    0.0000    0.0000    0.0000   -0.0001
          58   -0.0788    0.0474   -0.0000    0.0047   -0.0000    0.0001   -0.0000   -0.0002
          59   -0.0000    0.0000    0.0005    0.0000    0.0000   -0.0000   -0.0001   -0.0000
          60    0.0474   -0.1165   -0.0000   -0.0015    0.0000   -0.0000    0.0000    0.0001


   Root No.      49        50        51        52        53        54

                49 A      50 A      51 A      52 A      53 A      54 A   

                3064.4    3067.0    3130.6    3133.6    3147.8    3156.5
  
           1    0.0000   -0.0004    0.0000    0.0005   -0.0000    0.0008
           2   -0.0003   -0.0000    0.0000    0.0000   -0.0000    0.0000
           3   -0.0000    0.0000    0.0003   -0.0000   -0.0002   -0.0000
           4   -0.0000    0.0030    0.0000   -0.0000    0.0000    0.0000
           5    0.0000   -0.0000   -0.0000    0.0000   -0.0000    0.0000
           6    0.0000    0.0000    0.0000    0.0000    0.0000   -0.0000
           7    0.0139   -0.0130   -0.0000   -0.0000    0.0000   -0.0000
           8   -0.0176    0.0166    0.0000   -0.0000   -0.0000   -0.0000
           9    0.0000   -0.0000    0.0001   -0.0000   -0.0001   -0.0000
          10   -0.0138   -0.0131   -0.0000   -0.0000    0.0000   -0.0000
          11   -0.0174   -0.0167   -0.0000    0.0000    0.0000    0.0000
          12   -0.0000   -0.0000    0.0001   -0.0000   -0.0001   -0.0000
          13   -0.0000    0.0001   -0.0032   -0.0045    0.0116    0.0105
          14   -0.0001   -0.0000   -0.0000   -0.0000    0.0000    0.0000
          15   -0.0000    0.0001    0.0117    0.0147   -0.0260   -0.0231
          16   -0.0000    0.0001    0.0030   -0.0048   -0.0116    0.0105
          17   -0.0001    0.0000    0.0000   -0.0000   -0.0000    0.0000
          18    0.0000   -0.0001    0.0109   -0.0156   -0.0258    0.0231
          19   -0.0122    0.0118    0.0000    0.0000    0.0000    0.0000
          20   -0.0150    0.0146    0.0000    0.0000   -0.0000    0.0000
          21   -0.0000    0.0000    0.0000    0.0000   -0.0000    0.0000
          22    0.0122    0.0119    0.0000    0.0000    0.0000    0.0000
          23   -0.0149   -0.0148   -0.0000   -0.0000    0.0000   -0.0000
          24   -0.0000   -0.0000    0.0000   -0.0000   -0.0000   -0.0000
          25   -0.0000    0.0001   -0.0242   -0.0188   -0.0130   -0.0170
          26   -0.0000   -0.0000   -0.0000   -0.0000   -0.0000   -0.0000
          27   -0.0000    0.0000   -0.0149   -0.0121   -0.0053   -0.0089
          28    0.0000    0.0001    0.0228   -0.0201    0.0131   -0.0172
          29   -0.0000   -0.0000    0.0000   -0.0000    0.0000   -0.0000
          30   -0.0000   -0.0000   -0.0140    0.0130   -0.0054    0.0090
          31    0.0000   -0.0153    0.0000   -0.0000   -0.0000   -0.0001
          32   -0.0018    0.0000    0.0000    0.0000    0.0000    0.0000
          33    0.0001   -0.0229   -0.0000    0.0000   -0.0000   -0.0002
          34    0.0000   -0.0154   -0.0000    0.0000    0.0000   -0.0001
          35   -0.0019   -0.0000    0.0000    0.0000    0.0000   -0.0000
          36   -0.0001    0.0229   -0.0000   -0.0000   -0.0000    0.0002
          37    0.0000    0.0000    0.0471    0.0599   -0.1014   -0.0850
          38   -0.0001   -0.0000    0.0000    0.0000   -0.0001   -0.0001
          39   -0.0000   -0.0001   -0.1425   -0.1787    0.2993    0.2499
          40   -0.1278    0.1176    0.0000    0.0001   -0.0000    0.0001
          41    0.2126   -0.1950   -0.0000   -0.0001    0.0000   -0.0001
          42   -0.0000    0.0000   -0.0000    0.0000   -0.0001    0.0000
          43    0.1264    0.1184    0.0000    0.0001   -0.0000    0.0001
          44    0.2104    0.1965    0.0000    0.0001   -0.0000    0.0001
          45    0.0001    0.0001   -0.0000    0.0000   -0.0001   -0.0000
          46   -0.0000    0.0000   -0.0439    0.0636    0.1010   -0.0853
          47   -0.0001   -0.0000   -0.0000    0.0000    0.0001   -0.0001
          48   -0.0000    0.0001   -0.1323    0.1892    0.2968   -0.2495
          49    0.1081   -0.1032   -0.0000   -0.0001    0.0000   -0.0002
          50    0.1801   -0.1719   -0.0000   -0.0002    0.0000   -0.0004
          51    0.0000   -0.0000   -0.0001   -0.0000    0.0001   -0.0000
          52   -0.1074   -0.1042   -0.0000   -0.0001    0.0000   -0.0002
          53    0.1790    0.1736    0.0000    0.0002   -0.0000    0.0004
          54    0.0002    0.0002   -0.0001   -0.0000    0.0001    0.0000
          55    0.0000   -0.0004    0.2724    0.2149    0.1190    0.1582
          56    0.0001   -0.0000    0.0001    0.0001    0.0001    0.0001
          57    0.0000   -0.0002    0.1772    0.1420    0.0762    0.1034
          58   -0.0000   -0.0003   -0.2566    0.2291   -0.1206    0.1601
          59    0.0001   -0.0000   -0.0001    0.0001   -0.0000    0.0000
          60    0.0000    0.0002    0.1673   -0.1517    0.0775   -0.1049


           MASS-WEIGHTED COORDINATE ANALYSIS (NORMAL COORDINATES)


   Root No.       1         2         3         4         5         6         7         8

                 1 A       2 A       3 A       4 A       5 A       6 A       7 A       8 A   

                  50.7     143.3     209.3     251.4     371.4     405.8     485.0     497.2
  
           1    0.0000    0.0001   -0.0000   -0.0002   -0.1206    0.0000    0.0000   -0.0002
           2   -0.0001   -0.3286   -0.0001    0.0001    0.0000    0.0001   -0.2517   -0.0007
           3   -0.2195   -0.0000   -0.0001   -0.3132    0.0002   -0.0009    0.0008   -0.2686
           4   -0.0005    0.0000    0.0000    0.0004    0.4327   -0.0001    0.0000    0.0002
           5   -0.0001    0.1685   -0.0001    0.0001    0.0000    0.0000    0.0493    0.0001
           6    0.5031   -0.0002   -0.0008   -0.1970    0.0005    0.0001   -0.0001    0.0094
           7   -0.0002   -0.1904   -0.0000    0.0002    0.2094    0.0001   -0.1432   -0.0004
           8   -0.0000   -0.1907   -0.0001   -0.0001   -0.1723    0.0002   -0.2428   -0.0007
           9   -0.3251    0.0002    0.1266   -0.0414   -0.0003    0.4194   -0.0007    0.3441
          10   -0.0000    0.1904    0.0001   -0.0000    0.2093   -0.0003    0.1431    0.0008
          11   -0.0001   -0.1907    0.0001    0.0000    0.1723    0.0002   -0.2428   -0.0008
          12   -0.3250   -0.0000   -0.1262   -0.0402   -0.0005   -0.4185   -0.0014    0.3443
          13   -0.2028    0.0001    0.0001   -0.1809   -0.2959   -0.0005    0.0005   -0.1800
          14   -0.0004   -0.2120   -0.3406    0.0006   -0.0000    0.0346    0.4041    0.0002
          15   -0.0504   -0.0000   -0.0001   -0.1570    0.0644   -0.0005    0.0008   -0.2141
          16    0.2031    0.0000   -0.0002    0.1804   -0.2959    0.0006   -0.0007    0.1793
          17    0.0003   -0.2125    0.3405   -0.0003    0.0000   -0.0351    0.4043    0.0023
          18   -0.0507   -0.0000   -0.0001   -0.1574   -0.0640   -0.0005    0.0007   -0.2144
          19   -0.0003   -0.1936   -0.0000    0.0002    0.2382    0.0002   -0.1693   -0.0004
          20    0.0001    0.0385   -0.0002   -0.0002   -0.1373    0.0002   -0.0773   -0.0003
          21    0.0312    0.0001    0.3767    0.3782   -0.0004   -0.2877    0.0002   -0.1350
          22   -0.0000    0.1937    0.0001    0.0000    0.2381   -0.0003    0.1693    0.0009
          23    0.0000    0.0385    0.0001   -0.0001    0.1374   -0.0001   -0.0773   -0.0003
          24    0.0299    0.0001   -0.3757    0.3783    0.0000    0.2878    0.0005   -0.1358
          25   -0.1257   -0.0002    0.0001   -0.1139   -0.3291   -0.0002    0.0005   -0.1254
          26   -0.0001    0.4085   -0.2997    0.0003   -0.0001   -0.2252   -0.0822    0.0009
          27    0.1688   -0.0000   -0.0001    0.0552    0.0090    0.0001    0.0000   -0.0036
          28    0.1264   -0.0002   -0.0001    0.1137   -0.3291    0.0004   -0.0004    0.1250
          29    0.0004    0.4083    0.3001   -0.0006   -0.0001    0.2252   -0.0821   -0.0014
          30    0.1686    0.0000   -0.0001    0.0551   -0.0086    0.0001    0.0000   -0.0039
          31   -0.1499    0.0002    0.0005    0.2331    0.1284   -0.0002    0.0006   -0.1970
          32   -0.0002    0.0794   -0.0899    0.0001    0.0001    0.1028    0.0494   -0.0001
          33    0.2586   -0.0002   -0.0007   -0.2352   -0.0018    0.0002   -0.0005    0.1571
          34    0.1496   -0.0002   -0.0005   -0.2327    0.1284    0.0001   -0.0006    0.1970
          35    0.0001    0.0795    0.0898    0.0002   -0.0001   -0.1029    0.0495    0.0002
          36    0.2588   -0.0002   -0.0006   -0.2354    0.0021    0.0001   -0.0005    0.1573
          37   -0.1106    0.0001    0.0001   -0.1073   -0.1073   -0.0003    0.0003   -0.1134
          38   -0.0003   -0.1412   -0.2052    0.0004   -0.0000   -0.0009    0.3948    0.0004
          39   -0.0323   -0.0000   -0.0001   -0.0640    0.0113   -0.0002    0.0003   -0.0823
          40   -0.0001   -0.1011    0.0000    0.0001    0.1068   -0.0000   -0.0798   -0.0002
          41   -0.0000   -0.0825   -0.0000    0.0000   -0.0215    0.0000   -0.0921   -0.0002
          42   -0.1968    0.0001    0.0572    0.0234   -0.0004    0.3077   -0.0008    0.3752
          43    0.0000    0.1012    0.0001    0.0000    0.1067   -0.0001    0.0798    0.0004
          44    0.0000   -0.0825    0.0000   -0.0000    0.0215    0.0002   -0.0921   -0.0005
          45   -0.1968   -0.0000   -0.0570    0.0241   -0.0006   -0.3068   -0.0015    0.3756
          46    0.1107    0.0001   -0.0001    0.1071   -0.1074    0.0004   -0.0005    0.1131
          47    0.0002   -0.1416    0.2051   -0.0002    0.0001    0.0006    0.3947    0.0021
          48   -0.0325   -0.0000   -0.0000   -0.0642   -0.0111   -0.0002    0.0002   -0.0825
          49   -0.0001   -0.1024   -0.0000    0.0000    0.0369    0.0001   -0.0975   -0.0002
          50    0.0000    0.0388   -0.0001   -0.0001   -0.0192    0.0001    0.0059   -0.0000
          51   -0.0041    0.0000    0.2212    0.2829   -0.0004   -0.2092   -0.0001   -0.0260
          52    0.0001    0.1025    0.0000    0.0000    0.0369   -0.0000    0.0975    0.0004
          53    0.0001    0.0388    0.0001   -0.0002    0.0192   -0.0001    0.0058   -0.0000
          54   -0.0048    0.0001   -0.2208    0.2834   -0.0002    0.2098    0.0001   -0.0267
          55   -0.0660   -0.0001    0.0000   -0.0623   -0.0906   -0.0001    0.0003   -0.0737
          56   -0.0001    0.2304   -0.1852    0.0002    0.0000   -0.2021   -0.0153    0.0011
          57    0.0944    0.0000   -0.0000    0.0607   -0.0060    0.0002   -0.0002    0.0554
          58    0.0663   -0.0001   -0.0001    0.0623   -0.0906    0.0002   -0.0002    0.0737
          59    0.0002    0.2302    0.1854   -0.0004   -0.0001    0.2023   -0.0154   -0.0012
          60    0.0943    0.0000   -0.0000    0.0607    0.0061    0.0002   -0.0002    0.0553


   Root No.       9        10        11        12        13        14        15        16

                 9 A      10 A      11 A      12 A      13 A      14 A      15 A      16 A   

                 524.4     591.4     677.5     735.5     775.8     778.6     819.7     821.1
  
           1   -0.0000    0.0001   -0.2528   -0.0005    0.0000    0.0000   -0.0000   -0.0000
           2   -0.0000   -0.2011   -0.0000   -0.0000    0.0127   -0.0001    0.0001   -0.0000
           3   -0.0005   -0.0001    0.0001   -0.0310    0.0001   -0.0003   -0.2791   -0.0057
           4    0.0001   -0.0000    0.3225    0.0006    0.0001   -0.0000   -0.0000   -0.0000
           5    0.0000    0.2047    0.0000    0.0001   -0.0337   -0.0001   -0.0001   -0.0001
           6   -0.0000    0.0001    0.0005   -0.2319    0.0000   -0.0006    0.0968    0.0021
           7    0.0000    0.3194   -0.1680   -0.0001    0.0119   -0.0000   -0.0000    0.0001
           8   -0.0001   -0.3222   -0.2845   -0.0006    0.1240    0.0003    0.0002    0.0001
[...]
 T-DIPOLE    0.0869         C  3 -- H 14         +18.6% ( 52.0%)      0.1%
 TRAVEL      0.1462         C  8 -- H 18          +9.9% ( 37.9%)      0.2%
 RED. MASS   0.2769         C  7 -- H 17          +9.9% ( 37.9%)      0.2%
 EFF. MASS   2.6009

 VIBRATION   34   34A         ATOM PAIR      ENERGY CONTRIBUTION    RADIAL
 FREQ.      1263.59         C  1 -- C  5         +10.3% ( 49.3%)     74.4%
 T-DIPOLE    0.0899         C  1 -- C  6         +10.3% ( 49.3%)     74.3%
 TRAVEL      0.0815         C  1 -- C  3          +7.9% ( 43.1%)      3.0%
 RED. MASS   0.7470         C  1 -- C  4          +7.9% ( 43.1%)      3.0%
 EFF. MASS   8.0304

 VIBRATION   35   35A         ATOM PAIR      ENERGY CONTRIBUTION    RADIAL
 FREQ.      1279.52         C  1 -- C  6         +18.3% ( 69.2%)     81.9%
 T-DIPOLE    0.0775         C  1 -- C  5         +18.3% ( 69.2%)     81.9%
 TRAVEL      0.0738         C  1 -- C  4          +8.5% ( 47.2%)      0.0%
 RED. MASS   2.3015         C  1 -- C  3          +8.5% ( 47.2%)      0.0%
 EFF. MASS   9.6794

 VIBRATION   36   36A         ATOM PAIR      ENERGY CONTRIBUTION    RADIAL
 FREQ.      1356.53         C  2 -- H 12         +19.6% ( 53.8%)      4.5%
 T-DIPOLE    0.0216         C  2 -- H 11         +19.6% ( 53.8%)      4.5%
 TRAVEL      0.1049         C  1 -- C  4          +7.9% ( 34.0%)     56.0%
 RED. MASS   0.5433         C  1 -- C  3          +7.8% ( 34.0%)     54.7%
 EFF. MASS   4.5172

 VIBRATION   37   37A         ATOM PAIR      ENERGY CONTRIBUTION    RADIAL
 FREQ.      1364.16         C  1 -- C  3         +18.0% ( 66.6%)     70.2%
 T-DIPOLE    0.1857         C  1 -- C  4         +18.0% ( 66.5%)     70.1%
 TRAVEL      0.0717         C  1 -- C  5         +12.3% ( 55.1%)      0.0%
 RED. MASS   2.6261         C  1 -- C  6         +12.3% ( 55.1%)      0.0%
 EFF. MASS   9.6270

 VIBRATION   38   38A         ATOM PAIR      ENERGY CONTRIBUTION    RADIAL
 FREQ.      1396.16         C  9 -- C 10         +21.3% ( 72.7%)    100.0%
 T-DIPOLE    0.3376         C  5 -- C 10          +8.3% ( 45.3%)     98.6%
 TRAVEL      0.0722         C  6 -- C  9          +8.3% ( 45.3%)     98.6%
 RED. MASS   1.5226         C  6 -- C 10          +7.9% ( 44.4%)      0.1%
 EFF. MASS   9.2686

 VIBRATION   39   39A         ATOM PAIR      ENERGY CONTRIBUTION    RADIAL
 FREQ.      1420.46         C  1 -- C  5         +11.8% ( 54.7%)     61.3%
 T-DIPOLE    0.0429         C  1 -- C  6         +11.8% ( 54.7%)     61.2%
 TRAVEL      0.0710         C  1 -- C  4         +11.7% ( 54.4%)     52.4%
 RED. MASS   1.4786         C  1 -- C  3         +11.7% ( 54.4%)     52.4%
 EFF. MASS   9.4125

 VIBRATION   40   40A         ATOM PAIR      ENERGY CONTRIBUTION    RADIAL
 FREQ.      1461.02         C  2 -- C  7         +17.8% ( 66.8%)     80.5%
 T-DIPOLE    0.1134         C  2 -- C  8         +17.8% ( 66.8%)     80.5%
 TRAVEL      0.0649         C  2 -- H 11         +11.9% ( 54.7%)      0.0%
 RED. MASS   2.5904         C  2 -- H 12         +11.9% ( 54.7%)      0.0%
 EFF. MASS  10.9602

 VIBRATION   41   41A         ATOM PAIR      ENERGY CONTRIBUTION    RADIAL
 FREQ.      1740.23         C  5 -- C  9         +18.2% ( 72.5%)     99.8%
 T-DIPOLE    0.0938         C  6 -- C 10         +18.2% ( 72.5%)     99.8%
 TRAVEL      0.0568         C  6 -- C  9         +10.7% ( 55.5%)     24.6%
 RED. MASS   2.7162         C  5 -- C 10         +10.7% ( 55.5%)     24.6%
 EFF. MASS  12.0234

 VIBRATION   42   42A         ATOM PAIR      ENERGY CONTRIBUTION    RADIAL
 FREQ.      1792.65         C  6 -- C 10         +17.9% ( 70.3%)     99.8%
 T-DIPOLE    0.3295         C  5 -- C  9         +17.9% ( 70.3%)     99.8%
 TRAVEL      0.0564         C  9 -- C 10         +12.1% ( 57.8%)      0.0%
 RED. MASS   2.6914         C  5 -- C 10         +10.9% ( 54.7%)     66.0%
 EFF. MASS  11.8192         C  6 -- C  9         +10.9% ( 54.7%)     66.1%

 VIBRATION   43   43A         ATOM PAIR      ENERGY CONTRIBUTION    RADIAL
 FREQ.      1876.52         C  3 -- C  7         +22.2% ( 69.8%)    100.0%
 T-DIPOLE    0.0114         C  4 -- C  8         +22.1% ( 69.7%)    100.0%
 TRAVEL      0.0549         C  2 -- C  7          +7.3% ( 40.0%)     66.8%
 RED. MASS   2.7275         C  2 -- C  8          +7.2% ( 39.9%)     66.8%
 EFF. MASS  11.9137

 VIBRATION   44   44A         ATOM PAIR      ENERGY CONTRIBUTION    RADIAL
 FREQ.      1894.46         C  4 -- C  8         +22.1% ( 69.1%)    100.0%
 T-DIPOLE    0.1656         C  3 -- C  7         +22.0% ( 69.0%)    100.0%
 TRAVEL      0.0548         C  1 -- C  4          +7.3% ( 39.6%)     40.5%
 RED. MASS   2.6875         C  1 -- C  3          +7.3% ( 39.6%)     40.5%
 EFF. MASS  11.8588

 VIBRATION   45   45A         ATOM PAIR      ENERGY CONTRIBUTION    RADIAL
 FREQ.      2932.51         C  2 -- H 11         +48.9% ( 72.6%)     96.6%
 T-DIPOLE    0.0485         C  2 -- H 12         +48.9% ( 72.5%)     96.5%
 TRAVEL      0.1224         C  2 -- C  8          +1.1% ( 10.8%)      0.0%
 RED. MASS   0.5176         C  2 -- C  7          +1.1% ( 10.8%)      0.0%
 EFF. MASS   1.5351

 VIBRATION   46   46A         ATOM PAIR      ENERGY CONTRIBUTION    RADIAL
 FREQ.      3010.13         C  2 -- H 12         +48.4% ( 68.7%)     97.7%
 T-DIPOLE    0.1033         C  2 -- H 11         +48.4% ( 68.7%)     97.7%
 TRAVEL      0.1321         C  8 -- H 18          +0.9% (  9.3%)     99.9%
 RED. MASS   0.4682         C  7 -- H 17          +0.9% (  9.3%)     99.9%
 EFF. MASS   1.2839

 VIBRATION   47   47A         ATOM PAIR      ENERGY CONTRIBUTION    RADIAL
 FREQ.      3044.86         C  7 -- H 17         +28.9% ( 54.6%)    100.0%
 T-DIPOLE    0.0104         C  8 -- H 18         +27.7% ( 53.4%)    100.0%
 TRAVEL      0.1237         C  3 -- H 14         +20.9% ( 46.4%)    100.0%
 RED. MASS   0.2386         C  4 -- H 15         +20.1% ( 45.5%)    100.0%
 EFF. MASS   1.4465

 VIBRATION   48   48A         ATOM PAIR      ENERGY CONTRIBUTION    RADIAL
 FREQ.      3046.36         C  8 -- H 18         +27.3% ( 53.0%)    100.0%
 T-DIPOLE    0.4093         C  7 -- H 17         +26.3% ( 52.0%)    100.0%
 TRAVEL      0.1229         C  4 -- H 15         +22.1% ( 47.7%)    100.0%
 RED. MASS   0.2312         C  3 -- H 14         +21.1% ( 46.6%)    100.0%
 EFF. MASS   1.4653

 VIBRATION   49   49A         ATOM PAIR      ENERGY CONTRIBUTION    RADIAL
 FREQ.      3064.37         C  3 -- H 14         +28.3% ( 54.0%)     99.9%
 T-DIPOLE    0.4359         C  4 -- H 15         +27.7% ( 53.4%)     99.9%
 TRAVEL      0.1182         C  7 -- H 17         +20.3% ( 45.8%)     99.9%
 RED. MASS   0.2390         C  8 -- H 18         +20.1% ( 45.5%)     99.9%
 EFF. MASS   1.5740

 VIBRATION   50   50A         ATOM PAIR      ENERGY CONTRIBUTION    RADIAL
 FREQ.      3067.01         C  4 -- H 15         +27.1% ( 52.8%)     99.9%
 T-DIPOLE    0.0259         C  3 -- H 14         +26.7% ( 52.4%)     99.9%
 TRAVEL      0.1170         C  8 -- H 18         +21.1% ( 46.6%)     99.9%
 RED. MASS   0.2332         C  7 -- H 17         +20.7% ( 46.1%)     99.9%
 EFF. MASS   1.6052

 VIBRATION   51   51A         ATOM PAIR      ENERGY CONTRIBUTION    RADIAL
 FREQ.      3130.60         C  9 -- H 19         +41.9% ( 66.3%)    100.0%
 T-DIPOLE    0.0457         C 10 -- H 20         +37.2% ( 62.5%)    100.0%
 TRAVEL      0.1200         C  5 -- H 13          +8.9% ( 30.5%)    100.0%
 RED. MASS   0.3337         C  6 -- H 16          +7.7% ( 28.4%)    100.0%
 EFF. MASS   1.4951

 VIBRATION   52   52A         ATOM PAIR      ENERGY CONTRIBUTION    RADIAL
 FREQ.      3133.62         C 10 -- H 20         +33.4% ( 59.1%)    100.0%
 T-DIPOLE    0.5236         C  9 -- H 19         +29.3% ( 55.4%)    100.0%
 TRAVEL      0.1208         C  6 -- H 16         +17.5% ( 42.8%)    100.0%
 RED. MASS   0.2560         C  5 -- H 13         +15.6% ( 40.5%)    100.0%
 EFF. MASS   1.4756

 VIBRATION   53   53A         ATOM PAIR      ENERGY CONTRIBUTION    RADIAL
 FREQ.      3147.84         C  5 -- H 13         +39.5% ( 64.5%)    100.0%
 T-DIPOLE    0.5939         C  6 -- H 16         +38.8% ( 64.0%)    100.0%
 TRAVEL      0.1162         C 10 -- H 20          +8.2% ( 29.4%)     99.7%
 RED. MASS   0.3330         C  9 -- H 19          +8.0% ( 29.0%)     99.7%
 EFF. MASS   1.5860

 VIBRATION   54   54A         ATOM PAIR      ENERGY CONTRIBUTION    RADIAL
 FREQ.      3156.52         C  5 -- H 13         +30.7% ( 57.1%)     99.9%
 T-DIPOLE    0.2006         C  6 -- H 16         +30.7% ( 57.0%)     99.9%
 TRAVEL      0.1123         C 10 -- H 20         +16.2% ( 41.5%)     99.9%
 RED. MASS   0.2571         C  9 -- H 19         +15.8% ( 41.0%)     99.9%
 EFF. MASS   1.6929

      SYMMETRY NUMBER FOR POINT-GROUP C1  =  1


          SYSTEM IS A GROUND STATE



 InChI=1S/C10H10/c1-2-6-10(7-3-1)8-4-5-9-10/h2-9H,1H2


          MOLECULE IS NOT LINEAR

          THERE ARE 54 GENUINE VIBRATIONS IN THIS SYSTEM
          THIS THERMODYNAMICS CALCULATION IS LIMITED TO
          MOLECULES WHICH HAVE NO INTERNAL ROTATIONS




                    CALCULATED THERMODYNAMIC PROPERTIES
                                          *
   TEMP. (K)   PARTITION FUNCTION   H.O.F.    ENTHALPY  HEAT CAPACITY ENTROPY
                                   KCAL/MOL   CAL/MOLE    CAL/K/MOL  CAL/K/MOL


 298.00  VIB.     0.5390D+02                  3237.4451    26.2849    18.7870
         ROT.     0.4804D+06                   888.2813     2.9808    28.9780
         INT.     0.2589D+08                  4125.7264    29.2657    47.7650
         TRA.     0.1436D+28                  1480.4688     4.9680    40.5022
         TOT.                       66.886    5606.1953    34.2337    88.2671

 200.00  VIB.     0.1016D+02                  1247.0345    14.6145    10.8425
         ROT.     0.2641D+06                   596.1620     2.9808    27.7893
         INT.     0.2683D+07                  1843.1965    17.5953    38.6318
         TRA.     0.7896D+27                   993.6033     4.9680    38.5210
         TOT.                       64.117    2836.7997    22.5633    77.1528

 210.00  VIB.     0.1190D+02                  1398.6079    15.7059    11.5818
         ROT.     0.2842D+06                   625.9700     2.9808    27.9347
         INT.     0.3382D+07                  2024.5779    18.6867    39.5166
         TRA.     0.8496D+27                  1043.2834     4.9680    38.7634
         TOT.                       64.348    3067.8613    23.6547    78.2800

 220.00  VIB.     0.1398D+02                  1561.2616    16.8300    12.3383
         ROT.     0.3047D+06                   655.7781     2.9808    28.0734
         INT.     0.4260D+07                  2217.0397    19.8108    40.4117
         TRA.     0.9110D+27                  1092.9636     4.9680    38.9945
         TOT.                       64.590    3310.0033    24.7789    79.4062

 230.00  VIB.     0.1647D+02                  1735.3056    17.9833    13.1117
         ROT.     0.3257D+06                   685.5862     2.9808    28.2059
         INT.     0.5364D+07                  2420.8919    20.9641    41.3177
         TRA.     0.9738D+27                  1142.6437     4.9680    39.2154
         TOT.                       64.844    3563.5356    25.9321    80.5330

 240.00  VIB.     0.1945D+02                  1921.0121    19.1618    13.9019
         ROT.     0.3472D+06                   715.3943     2.9808    28.3328
         INT.     0.6753D+07                  2636.4065    22.1427    42.2347
         TRA.     0.1038D+28                  1192.3239     4.9680    39.4268
         TOT.                       65.109    3828.7304    27.1107    81.6615

 250.00  VIB.     0.2304D+02                  2118.6130    20.3615    14.7084
         ROT.     0.3691D+06                   745.2024     2.9808    28.4545
         INT.     0.8502D+07                  2863.8154    23.3423    43.1629
         TRA.     0.1103D+28                  1242.0041     4.9680    39.6296
         TOT.                       65.386    4105.8195    28.3103    82.7925

 260.00  VIB.     0.2736D+02                  2328.2986    21.5781    15.5307
         ROT.     0.3915D+06                   775.0105     2.9808    28.5714
         INT.     0.1071D+08                  3103.3091    24.5589    44.1020
         TRA.     0.1170D+28                  1291.6842     4.9680    39.8245
         TOT.                       65.675    4394.9933    29.5269    83.9265

 270.00  VIB.     0.3258D+02                  2550.2176    22.8075    16.3680
         ROT.     0.4143D+06                   804.8186     2.9808    28.6839
         INT.     0.1350D+08                  3355.0363    25.7883    45.0519
         TRA.     0.1239D+28                  1341.3644     4.9680    40.0120
         TOT.                       65.976    4696.4007    30.7563    85.0639

 280.00  VIB.     0.3890D+02                  2784.4783    24.0458    17.2199
         ROT.     0.4375D+06                   834.6267     2.9808    28.7923
         INT.     0.1702D+08                  3619.1050    27.0266    46.0121
         TRA.     0.1308D+28                  1391.0445     4.9680    40.1926
         TOT.                       66.290    5010.1495    31.9946    86.2048

 290.00  VIB.     0.4658D+02                  3031.1495    25.2890    18.0853
         ROT.     0.4611D+06                   864.4348     2.9808    28.8969
         INT.     0.2148D+08                  3895.5844    28.2698    46.9822
         TRA.     0.1379D+28                  1440.7247     4.9680    40.3670
         TOT.                       66.616    5336.3091    33.2379    87.3492

 300.00  VIB.     0.5591D+02                  3290.2638    26.5338    18.9636
         ROT.     0.4852D+06                   894.2429     2.9808    28.9979
         INT.     0.2713D+08                  4184.5067    29.5146    47.9616
         TRA.     0.1451D+28                  1490.4049     4.9680    40.5354
         TOT.                       66.955    5674.9116    34.4826    88.4970

 310.00  VIB.     0.6729D+02                  3561.8191    27.7767    19.8540
         ROT.     0.5097D+06                   924.0510     2.9808    29.0957
         INT.     0.3430D+08                  4485.8702    30.7575    48.9496
         TRA.     0.1524D+28                  1540.0850     4.9680    40.6983
         TOT.                       67.306    6025.9552    35.7256    89.6479

 320.00  VIB.     0.8119D+02                  3845.7825    29.0149    20.7554
         ROT.     0.5345D+06                   953.8591     2.9808    29.1903
         INT.     0.4340D+08                  4799.6416    31.9957    49.9457
         TRA.     0.1598D+28                  1589.7652     4.9680    40.8560
         TOT.                       67.669    6389.4068    36.9637    90.8017

 330.00  VIB.     0.9820D+02                  4142.0923    30.2456    21.6671
         ROT.     0.5598D+06                   983.6672     2.9808    29.2820
         INT.     0.5497D+08                  5125.7595    33.2264    50.9491
         TRA.     0.1674D+28                  1639.4454     4.9680    41.0089
         TOT.                       68.045    6765.2048    38.1944    91.9580

 340.00  VIB.     0.1191D+03                  4450.6617    31.4665    22.5882
         ROT.     0.5854D+06                  1013.4753     2.9808    29.3710
         INT.     0.6969D+08                  5464.1370    34.4473    51.9592
         TRA.     0.1750D+28                  1689.1255     4.9680    41.1572
         TOT.                       68.433    7153.2626    39.4153    93.1164

 350.00  VIB.     0.1447D+03                  4771.3816    32.6754    23.5178
         ROT.     0.6114D+06                  1043.2834     2.9808    29.4574
         INT.     0.8845D+08                  5814.6650    35.6562    52.9752
         TRA.     0.1828D+28                  1738.8057     4.9680    41.3012
         TOT.                       68.833    7553.4707    40.6242    94.2764

 360.00  VIB.     0.1762D+03                  5104.1233    33.8705    24.4551
         ROT.     0.6378D+06                  1073.0915     2.9808    29.5414
         INT.     0.1124D+09                  6177.2148    36.8513    53.9965
         TRA.     0.1907D+28                  1788.4859     4.9680    41.4412
         TOT.                       69.246    7965.7007    41.8194    95.4376

 370.00  VIB.     0.2150D+03                  5448.7413    35.0504    25.3992
         ROT.     0.6646D+06                  1102.8996     2.9808    29.6231
         INT.     0.1429D+09                  6551.6409    38.0312    55.0223
         TRA.     0.1987D+28                  1838.1660     4.9680    41.5773
         TOT.                       69.670    8389.8069    42.9992    96.5996

 380.00  VIB.     0.2630D+03                  5805.0760    36.2137    26.3494
         ROT.     0.6917D+06                  1132.7077     2.9808    29.7026
         INT.     0.1819D+09                  6937.7837    39.1945    56.0520
         TRA.     0.2068D+28                  1887.8462     4.9680    41.7098
         TOT.                       70.106    8825.6299    44.1625    97.7618

 390.00  VIB.     0.3223D+03                  6172.9557    37.3593    27.3049
         ROT.     0.7192D+06                  1162.5158     2.9808    29.7800
         INT.     0.2318D+09                  7335.4715    40.3401    57.0849
         TRA.     0.2150D+28                  1937.5263     4.9680    41.8388
         TOT.                       70.553    9272.9979    45.3081    98.9238

 400.00  VIB.     0.3957D+03                  6552.1994    38.4863    28.2650
         ROT.     0.7470D+06                  1192.3239     2.9808    29.8554
         INT.     0.2956D+09                  7744.5233    41.4671    58.1205
         TRA.     0.2233D+28                  1987.2065     4.9680    41.9646
         TOT.                       71.012    9731.7298    46.4351   100.0851

   *: NOTE: HEATS OF FORMATION ARE RELATIVE TO THE
            ELEMENTS IN THEIR STANDARD STATE AT 298K
              (=  Standard Enthalpy of Formation).

            Hvib:  Zero-point energy is not included.
                   frequencies of less than zero cm-1 are not included.
            Hrot = (3/2)RT
            Htra = (3/2)RT + pV = (5/2)RT

            Heat capacity is Cp, not Cv

          For more information, see: HTTP://OpenMOPAC.net/Manual/thermochemistry.html


           FORCE CONSTANT IN CARTESIAN COORDINATES (Millidynes/A)

    ATOM   CHEMICAL       X               Y               Z
   NUMBER   SYMBOL  FORCE CONSTANT  FORCE CONSTANT  FORCE CONSTANT

      1       C       10.444851        9.230307        7.142518
      2       C        9.034413        9.438692        7.665873
      3       C       15.538992        9.385675        2.452803
      4       C       15.539577        9.385532        2.455482
      5       C       12.805271        2.484557       11.343247
      6       C       12.814340        2.483718       11.333937
      7       C       15.391985        9.587170        2.373909
      8       C       15.392415        9.587541        2.378113
      9       C       15.139465        2.205505       10.092260
     10       C       15.139461        2.205132       10.093289
     11       H        2.059538        0.669628        3.454726
     12       H        2.063911        0.669457        3.450499
     13       H        1.176170        0.335688        4.946240
     14       H        1.902946        3.989593        0.347107
     15       H        1.902952        3.989538        0.347054
     16       H        1.180157        0.335734        4.942035
     17       H        1.897500        3.994659        0.353393
     18       H        1.897472        3.994792        0.353102
     19       H        3.990888        0.352092        2.105800
     20       H        3.985468        0.351949        2.112036

 **********************
 *                    *
 * JOB ENDED NORMALLY *
 *                    *
 **********************



 TOTAL JOB TIME:             6.60 SECONDS

 == MOPAC DONE ==
