 *******************************************************************************
 ** Site#: 14399        For non-commercial use only    Version 18.184L 64BITS **
 *******************************************************************************
 ** Cite this program as: MOPAC2016, Version: 18.184L, James J. P. Stewart,   **
 ** Stewart Computational Chemistry, web: HTTP://OpenMOPAC.net. Days left:  20**
 *******************************************************************************
 **                                                                           **
 **                                MOPAC2016                                  **
 **                                                                           **
 *******************************************************************************

                              PM3 CALCULATION RESULTS

 *******************************************************************************
 *  CALCULATION DONE:                                Thu Jun 13 15:51:12 2019  *
 *  PM3        - The PM3 Hamiltonian to be used
 *  PRECISE    - CRITERIA TO BE INCREASED BY 100 TIMES
 *  NOSYM      - POINT-GROUP SYMMETRY SET TO C1
 *  THREADS=1  - MULTI-THREADING NOT USED
 *  T=         - A TIME OF 172800.0 SECONDS REQUESTED
 *  DUMP=N     - RESTART FILE WRITTEN EVERY  7200.000 SECONDS
 *******************************************************************************
pm3  precise nosym THREADS=1
 InChI=1S/C10H8/c1-8-6-7-9-4-2-3-5-10(8)9/h2-7H,1H2

   ATOM   CHEMICAL          X               Y               Z
  NUMBER   SYMBOL      (ANGSTROMS)     (ANGSTROMS)     (ANGSTROMS)
 
     1       C         -0.15450000  *   0.34240000  *  -0.02090000  *
     2       C          0.34740000  *  -0.93560000  *   0.05730000  *
     3       C         -1.60670000  *   0.23600000  *  -0.00880000  *
     4       C         -1.90670000  *  -1.19820000  *   0.08200000  *
     5       C          0.68630000  *   1.45470000  *  -0.09360000  *
     6       C         -0.76270000  *  -1.88350000  *   0.12070000  *
     7       C          1.72030000  *  -1.17830000  *   0.06740000  *
     8       C          2.07490000  *   1.23520000  *  -0.08500000  *
     9       C          2.58980000  *  -0.07590000  *  -0.00480000  *
    10       C         -2.49370000  *   1.22550000  *  -0.06750000  *
    11       H         -2.89350000  *  -1.64170000  *   0.11340000  *
    12       H          0.28670000  *   2.45820000  *  -0.15490000  *
    13       H         -0.68240000  *  -2.96040000  *   0.18780000  *
    14       H          2.75270000  *   2.07700000  *  -0.14020000  *
    15       H          2.10690000  *  -2.18730000  *   0.12910000  *
    16       H          3.66040000  *  -0.23420000  *   0.00120000  *
    17       H         -2.17080000  *   2.25600000  *  -0.13320000  *
    18       H         -3.55430000  *   1.01020000  *  -0.05010000  *
 


          CARTESIAN COORDINATES 

    NO.       ATOM           X           Y           Z

     1         C         -0.1545      0.3424     -0.0209
     2         C          0.3474     -0.9356      0.0573
     3         C         -1.6067      0.2360     -0.0088
     4         C         -1.9067     -1.1982      0.0820
     5         C          0.6863      1.4547     -0.0936
     6         C         -0.7627     -1.8835      0.1207
     7         C          1.7203     -1.1783      0.0674
     8         C          2.0749      1.2352     -0.0850
     9         C          2.5898     -0.0759     -0.0048
    10         C         -2.4937      1.2255     -0.0675
    11         H         -2.8935     -1.6417      0.1134
    12         H          0.2867      2.4582     -0.1549
    13         H         -0.6824     -2.9604      0.1878
    14         H          2.7527      2.0770     -0.1402
    15         H          2.1069     -2.1873      0.1291
    16         H          3.6604     -0.2342      0.0012
    17         H         -2.1708      2.2560     -0.1332
    18         H         -3.5543      1.0102     -0.0501

  H: (PM3): J. J. P. STEWART, J. COMP. CHEM. 10, 209 (1989).
  C: (PM3): J. J. P. STEWART, J. COMP. CHEM. 10, 209 (1989).

           Empirical Formula: C10 H8  =    18 atoms



      MOLECULAR POINT GROUP   :   C1  


      RHF CALCULATION, NO. OF DOUBLY OCCUPIED LEVELS = 24


          Geometry optimization using EF

          DIAGONAL MATRIX USED AS START HESSIAN

 CYCLE:     1 TIME:   0.016 TIME LEFT:  2.00D  GRAD.:   115.897 HEAT:  67.52870
 CYCLE:     2 TIME:   0.043 TIME LEFT:  2.00D  GRAD.:    48.474 HEAT:  65.40457
 CYCLE:     3 TIME:   0.027 TIME LEFT:  2.00D  GRAD.:    34.883 HEAT:  65.02817
 CYCLE:     4 TIME:   0.023 TIME LEFT:  2.00D  GRAD.:    34.465 HEAT:  64.77760
 CYCLE:     5 TIME:   0.023 TIME LEFT:  2.00D  GRAD.:    31.863 HEAT:  64.58890
 CYCLE:     6 TIME:   0.027 TIME LEFT:  2.00D  GRAD.:    22.538 HEAT:  64.43987
 CYCLE:     7 TIME:   0.023 TIME LEFT:  2.00D  GRAD.:    17.941 HEAT:  64.34417
 CYCLE:     8 TIME:   0.023 TIME LEFT:  2.00D  GRAD.:    25.096 HEAT:  64.30468
 CYCLE:     9 TIME:   0.023 TIME LEFT:  2.00D  GRAD.:    22.424 HEAT:  64.26409
 CYCLE:    10 TIME:   0.023 TIME LEFT:  2.00D  GRAD.:    18.616 HEAT:  64.21545
 CYCLE:    11 TIME:   0.020 TIME LEFT:  2.00D  GRAD.:    17.138 HEAT:  64.19831
 CYCLE:    12 TIME:   0.023 TIME LEFT:  2.00D  GRAD.:    10.372 HEAT:  64.16186
 CYCLE:    13 TIME:   0.031 TIME LEFT:  2.00D  GRAD.:     4.946 HEAT:  64.14231
 CYCLE:    14 TIME:   0.027 TIME LEFT:  2.00D  GRAD.:     2.601 HEAT:  64.13712
 CYCLE:    15 TIME:   0.023 TIME LEFT:  2.00D  GRAD.:     2.213 HEAT:  64.13434
 CYCLE:    16 TIME:   0.020 TIME LEFT:  2.00D  GRAD.:     1.692 HEAT:  64.13134
 CYCLE:    17 TIME:   0.023 TIME LEFT:  2.00D  GRAD.:     2.199 HEAT:  64.13077
 CYCLE:    18 TIME:   0.023 TIME LEFT:  2.00D  GRAD.:     1.062 HEAT:  64.12947
 CYCLE:    19 TIME:   0.023 TIME LEFT:  2.00D  GRAD.:     1.352 HEAT:  64.12949
 CYCLE:    20 TIME:   0.023 TIME LEFT:  2.00D  GRAD.:     0.454 HEAT:  64.12899
 CYCLE:    21 TIME:   0.023 TIME LEFT:  2.00D  GRAD.:     0.513 HEAT:  64.12890
 CYCLE:    22 TIME:   0.023 TIME LEFT:  2.00D  GRAD.:     0.453 HEAT:  64.12872
 CYCLE:    23 TIME:   0.023 TIME LEFT:  2.00D  GRAD.:     0.611 HEAT:  64.12847
 CYCLE:    24 TIME:   0.020 TIME LEFT:  2.00D  GRAD.:     0.520 HEAT:  64.12831
 CYCLE:    25 TIME:   0.023 TIME LEFT:  2.00D  GRAD.:     0.373 HEAT:  64.12816
 CYCLE:    26 TIME:   0.023 TIME LEFT:  2.00D  GRAD.:     0.480 HEAT:  64.12793
 CYCLE:    27 TIME:   0.023 TIME LEFT:  2.00D  GRAD.:     0.526 HEAT:  64.12775
 CYCLE:    28 TIME:   0.023 TIME LEFT:  2.00D  GRAD.:     0.340 HEAT:  64.12765
 CYCLE:    29 TIME:   0.023 TIME LEFT:  2.00D  GRAD.:     0.236 HEAT:  64.12759
 CYCLE:    30 TIME:   0.020 TIME LEFT:  2.00D  GRAD.:     0.122 HEAT:  64.12756
 CYCLE:    31 TIME:   0.023 TIME LEFT:  2.00D  GRAD.:     0.092 HEAT:  64.12755
 CYCLE:    32 TIME:   0.023 TIME LEFT:  2.00D  GRAD.:     0.094 HEAT:  64.12754
 CYCLE:    33 TIME:   0.023 TIME LEFT:  2.00D  GRAD.:     0.063 HEAT:  64.12754
 CYCLE:    34 TIME:   0.023 TIME LEFT:  2.00D  GRAD.:     0.066 HEAT:  64.12753
 CYCLE:    35 TIME:   0.023 TIME LEFT:  2.00D  GRAD.:     0.044 HEAT:  64.12753

     GRADIENT =  0.04398  IS LESS THAN CUTOFF =  0.05000



 -------------------------------------------------------------------------------
 pm3  precise nosym THREADS=1
 InChI=1S/C10H8/c1-8-6-7-9-4-2-3-5-10(8)9/h2-7H,1H2



     GEOMETRY OPTIMISED USING EIGENVECTOR FOLLOWING (EF).     
     SCF FIELD WAS ACHIEVED                                   


                              PM3 CALCULATION
                                                       MOPAC2016 (Version: 18.184L)
                                                       Thu Jun 13 15:51:13 2019
                                                       No. of days remaining =  20




          FINAL HEAT OF FORMATION =         64.12753 KCAL/MOL =     268.30958 KJ/MOL


          TOTAL ENERGY            =      -1306.28475 EV
          ELECTRONIC ENERGY       =      -6614.09602 EV  POINT GROUP:     C1  
          CORE-CORE REPULSION     =       5307.81127 EV
          COSMO AREA              =        168.90 SQUARE ANGSTROMS
          COSMO VOLUME            =        167.71 CUBIC ANGSTROMS

          GRADIENT NORM           =          0.04398 = 0.01037 PER ATOM
          IONIZATION POTENTIAL    =          8.934823 EV
          HOMO LUMO ENERGIES (EV) =         -8.935 -0.678
          NO. OF FILLED LEVELS    =         24
          MOLECULAR WEIGHT        =        128.1732

          MOLECULAR DIMENSIONS (Angstroms)

            Atom       Atom       Distance
            H    18    H    16     7.36161
            H    14    H    13     5.57352
            H    18    H    12     0.00044


          SCF CALCULATIONS        =         42
 
          WALL-CLOCK TIME         =          0.895 SECONDS
          COMPUTATION TIME        =          0.320 SECONDS




   ATOM   CHEMICAL          X               Y               Z
  NUMBER   SYMBOL      (ANGSTROMS)     (ANGSTROMS)     (ANGSTROMS)
 
     1       C         -0.15203508  *   0.35360850  *  -0.02167991  *
     2       C          0.37319359  *  -0.96343433  *   0.05884781  *
     3       C         -1.62191483  *   0.24897093  *  -0.00962793  *
     4       C         -1.91223343  *  -1.19932841  *   0.08214439  *
     5       C          0.68830766  *   1.44685233  *  -0.09322262  *
     6       C         -0.75491158  *  -1.90046825  *   0.12170862  *
     7       C          1.73748244  *  -1.18187999  *   0.06755904  *
     8       C          2.06880475  *   1.21860827  *  -0.08390690  *
     9       C          2.58270351  *  -0.06966763  *  -0.00507614  *
    10       C         -2.51136500  *   1.23732528  *  -0.06810646  *
    11       H         -2.92700989  *  -1.59249898  *   0.11059268  *
    12       H          0.28675858  *   2.46337935  *  -0.15543874  *
    13       H         -0.63206238  *  -2.97985731  *   0.18881709  *
    14       H          2.75275676  *   2.07189104  *  -0.13981593  *
    15       H          2.14551774  *  -2.19515180  *   0.12948029  *
    16       H          3.66737306  *  -0.21996762  *   0.00050471  *
    17       H         -2.21794760  *   2.28123165  *  -0.13457645  *
    18       H         -3.58222429  *   1.05825048  *  -0.05281518  *

                             CARTESIAN COORDINATES

   1    C       -0.152035081     0.353608501    -0.021679914
   2    C        0.373193591    -0.963434327     0.058847812
   3    C       -1.621914829     0.248970925    -0.009627927
   4    C       -1.912233434    -1.199328410     0.082144395
   5    C        0.688307658     1.446852334    -0.093222615
   6    C       -0.754911579    -1.900468248     0.121708621
   7    C        1.737482438    -1.181879990     0.067559044
   8    C        2.068804747     1.218608270    -0.083906900
   9    C        2.582703513    -0.069667635    -0.005076143
  10    C       -2.511365005     1.237325285    -0.068106459
  11    H       -2.927009894    -1.592498979     0.110592682
  12    H        0.286758576     2.463379354    -0.155438745
  13    H       -0.632062377    -2.979857312     0.188817091
  14    H        2.752756757     2.071891041    -0.139815927
  15    H        2.145517738    -2.195151799     0.129480289
  16    H        3.667373062    -0.219967617     0.000504709
  17    H       -2.217947597     2.281231654    -0.134576451
  18    H       -3.582224286     1.058250485    -0.052815177


           Empirical Formula: C10 H8  =    18 atoms



      MOLECULAR POINT GROUP   :   C1  


                  EIGENVALUES  
 -41.15702 -35.43064 -31.49629 -28.45123 -26.97281 -22.89987 -21.36932 -20.04397
 -19.20571 -17.44710 -16.35293 -15.95547 -15.04262 -14.91623 -14.30931 -13.96262
 -13.95392 -12.88647 -12.51433 -12.12976 -11.88395 -10.51135  -9.24724  -8.93482
  -0.67845   0.28309   1.11245   2.23584   2.99343   3.06425   3.10959   3.31355
   3.38997   3.52519   3.75016   3.81463   3.91589   4.04237   4.57450   4.76982
   4.81790   5.01501   5.32120   5.50914   5.62506   6.13087   6.26719   6.46591


              NET ATOMIC CHARGES AND DIPOLE CONTRIBUTIONS

  ATOM NO.   TYPE          CHARGE      No. of ELECS.   s-Pop       p-Pop       
    1          C          -0.060053        4.0601     1.17334     2.88671
    2          C          -0.062095        4.0621     1.17752     2.88457
    3          C          -0.049827        4.0498     1.17570     2.87412
    4          C          -0.114414        4.1144     1.19316     2.92126
    5          C          -0.071960        4.0720     1.16983     2.90213
    6          C          -0.085367        4.0854     1.18674     2.89863
    7          C          -0.073066        4.0731     1.17097     2.90210
    8          C          -0.104405        4.1044     1.17959     2.92482
    9          C          -0.102843        4.1028     1.17967     2.92317
   10          C          -0.090667        4.0907     1.17668     2.91398
   11          H           0.116223        0.8838     0.88378
   12          H           0.105752        0.8942     0.89425
   13          H           0.116076        0.8839     0.88392
   14          H           0.101207        0.8988     0.89879
   15          H           0.106483        0.8935     0.89352
   16          H           0.101142        0.8989     0.89886
   17          H           0.083883        0.9161     0.91612
   18          H           0.083930        0.9161     0.91607
 DIPOLE           X         Y         Z       TOTAL
 POINT-CHG.    -0.347     0.187    -0.010     0.395
 HYBRID        -0.019     0.040    -0.002     0.044
 SUM           -0.366     0.227    -0.013     0.431


          ATOMIC ORBITAL ELECTRON POPULATIONS

     Atom    s        px        py        pz   
    1  C   1.17334   0.92888   0.94600   1.01183
    2  C   1.17752   0.94039   0.94100   1.00318
    3  C   1.17570   0.92615   0.94326   1.00471
    4  C   1.19316   0.97531   0.93095   1.01500
    5  C   1.16983   0.93730   0.96740   0.99744
    6  C   1.18674   0.93001   0.96938   0.99923
    7  C   1.17097   0.92985   0.97487   0.99738
    8  C   1.17959   0.95316   0.96553   1.00612
    9  C   1.17967   0.98093   0.93842   1.00382
   10  C   1.17668   0.97956   0.97491   0.95952
   11  H   0.88378
   12  H   0.89425
   13  H   0.88392
   14  H   0.89879
   15  H   0.89352
   16  H   0.89886
   17  H   0.91612
   18  H   0.91607
 *******************************************************************************
 ** Site#: 14399        For non-commercial use only    Version 18.184L 64BITS **
 *******************************************************************************
 ** Cite this program as: MOPAC2016, Version: 18.184L, James J. P. Stewart,   **
 ** Stewart Computational Chemistry, web: HTTP://OpenMOPAC.net. Days left:  20**
 *******************************************************************************
 **                                                                           **
 **                                MOPAC2016                                  **
 **                                                                           **
 *******************************************************************************

                              PM3 CALCULATION RESULTS

 *******************************************************************************
 *  CALCULATION DONE:                                Thu Jun 13 15:51:13 2019  *
 *  PM3        - The PM3 Hamiltonian to be used
 *  OLDGEO     - PREVIOUS GEOMETRY TO BE USED
 *  PRECISE    - CRITERIA TO BE INCREASED BY 100 TIMES
 *  NOSYM      - POINT-GROUP SYMMETRY SET TO C1
 *  THREADS=1  - MULTI-THREADING NOT USED
 *  T=         - A TIME OF 172800.0 SECONDS REQUESTED
 *  DUMP=N     - RESTART FILE WRITTEN EVERY  7200.000 SECONDS
 *  THERMO     - THERMODYNAMIC QUANTITIES TO BE CALCULATED
 *******************************************************************************
oldgeo thermo nosym precise THREADS=1  pm3
 InChI=1S/C10H8/c1-8-6-7-9-4-2-3-5-10(8)9/h2-7H,1H2

   ATOM   CHEMICAL          X               Y               Z
  NUMBER   SYMBOL      (ANGSTROMS)     (ANGSTROMS)     (ANGSTROMS)
 
     1       C         -0.15203508  *   0.35360850  *  -0.02167991  *
     2       C          0.37319359  *  -0.96343433  *   0.05884781  *
     3       C         -1.62191483  *   0.24897093  *  -0.00962793  *
     4       C         -1.91223343  *  -1.19932841  *   0.08214439  *
     5       C          0.68830766  *   1.44685233  *  -0.09322262  *
     6       C         -0.75491158  *  -1.90046825  *   0.12170862  *
     7       C          1.73748244  *  -1.18187999  *   0.06755904  *
     8       C          2.06880475  *   1.21860827  *  -0.08390690  *
     9       C          2.58270351  *  -0.06966763  *  -0.00507614  *
    10       C         -2.51136500  *   1.23732528  *  -0.06810646  *
    11       H         -2.92700989  *  -1.59249898  *   0.11059268  *
    12       H          0.28675858  *   2.46337935  *  -0.15543874  *
    13       H         -0.63206238  *  -2.97985731  *   0.18881709  *
    14       H          2.75275676  *   2.07189104  *  -0.13981593  *
    15       H          2.14551774  *  -2.19515180  *   0.12948029  *
    16       H          3.66737306  *  -0.21996762  *   0.00050471  *
    17       H         -2.21794760  *   2.28123165  *  -0.13457645  *
    18       H         -3.58222429  *   1.05825048  *  -0.05281518  *
 


          CARTESIAN COORDINATES 

    NO.       ATOM           X           Y           Z

     1         C         -0.1520      0.3536     -0.0217
     2         C          0.3732     -0.9634      0.0588
     3         C         -1.6219      0.2490     -0.0096
     4         C         -1.9122     -1.1993      0.0821
     5         C          0.6883      1.4469     -0.0932
     6         C         -0.7549     -1.9005      0.1217
     7         C          1.7375     -1.1819      0.0676
     8         C          2.0688      1.2186     -0.0839
     9         C          2.5827     -0.0697     -0.0051
    10         C         -2.5114      1.2373     -0.0681
    11         H         -2.9270     -1.5925      0.1106
    12         H          0.2868      2.4634     -0.1554
    13         H         -0.6321     -2.9799      0.1888
    14         H          2.7528      2.0719     -0.1398
    15         H          2.1455     -2.1952      0.1295
    16         H          3.6674     -0.2200      0.0005
    17         H         -2.2179      2.2812     -0.1346
    18         H         -3.5822      1.0583     -0.0528

  H: (PM3): J. J. P. STEWART, J. COMP. CHEM. 10, 209 (1989).
  C: (PM3): J. J. P. STEWART, J. COMP. CHEM. 10, 209 (1989).

           Empirical Formula: C10 H8  =    18 atoms



      MOLECULAR POINT GROUP   :   C1  


      RHF CALCULATION, NO. OF DOUBLY OCCUPIED LEVELS = 24



          HEAT OF FORMATION =      64.127530 KCALS/MOLE


          CARTESIAN COORDINATE DERIVATIVES

   NUMBER  ATOM         X            Y            Z

     1       C      0.003630     0.008351    -0.000362
     2       C     -0.004006     0.030735     0.005717
     3       C      0.002021    -0.001447     0.003582
     4       C      0.000700    -0.006526     0.003148
     5       C      0.002160    -0.012456     0.000557
     6       C      0.005449    -0.009140    -0.008815
     7       C     -0.005445    -0.018281     0.008354
     8       C     -0.010984    -0.001878     0.004561
     9       C      0.014537    -0.007512    -0.013206
    10       C      0.001946    -0.005033    -0.003162
    11       H     -0.006009    -0.000207    -0.001622
    12       H      0.002140     0.001750    -0.000216
    13       H     -0.005148     0.009259     0.001138
    14       H     -0.003843     0.011462     0.000427
    15       H      0.000034    -0.006320     0.000830
    16       H      0.004584    -0.000512    -0.001249
    17       H      0.002290     0.004890     0.001124
    18       H     -0.004056     0.002866    -0.000807
 


          GRADIENT NORM =   0.05463


          TIME FOR SCF CALCULATION =    0.03

          TIME FOR DERIVATIVES     =    0.01

          MOLECULAR WEIGHT =  128.17



          ROTATIONAL CONSTANTS IN CM(-1)

          A =    0.09118310   B =    0.04357265   C =    0.02948363



           PRINCIPAL MOMENTS OF INERTIA IN UNITS OF 10**(-40)*GRAM-CM**2

          A =      306.9952   B =      642.4392   C =      949.4344


          ORIENTATION OF MOLECULE IN FORCE CALCULATION

    NO.       ATOM         X         Y         Z

     1          C      -0.4653    0.0244    0.0001
     2          C       0.9549    0.0244    0.0001
     3          C      -0.9112    1.4290    0.0001
     4          C       0.3298    2.2354    0.0001
     5          C      -1.1724   -1.1616    0.0000
     6          C       1.4103    1.4198    0.0001
     7          C       1.6625   -1.1624   -0.0000
     8          C      -0.4496   -2.3597   -0.0002
     9          C       0.9396   -2.3599   -0.0003
    10          C      -2.1600    1.8892   -0.0000
    11          H       0.3207    3.3240    0.0001
    12          H      -2.2671   -1.1651    0.0001
    13          H       2.4605    1.7056    0.0001
    14          H      -0.9912   -3.3114   -0.0003
    15          H       2.7566   -1.1660   -0.0000
    16          H       1.4804   -3.3120   -0.0005
    17          H      -3.0233    1.2297   -0.0000
    18          H      -2.3891    2.9506   -0.0001


    FIRST DERIVATIVES WILL BE USED IN THE CALCULATION OF SECOND DERIVATIVES

          ESTIMATED TIME TO COMPLETE CALCULATION =        8.44 SECONDS

    FOR POINT-GROUP C1   THERE ARE   1 UNIQUE SYMMETRY FUNCTIONS.

 STEP:   1 TIME =     0.05 SECS, INTEGRAL =      0.05 TIME LEFT: 172799.91
 STEP:   2 TIME =     0.04 SECS, INTEGRAL =      0.09 TIME LEFT: 172799.87
 STEP:   3 TIME =     0.04 SECS, INTEGRAL =      0.13 TIME LEFT: 172799.83
 STEP:   4 TIME =     0.04 SECS, INTEGRAL =      0.18 TIME LEFT: 172799.79
 STEP:   5 TIME =     0.04 SECS, INTEGRAL =      0.22 TIME LEFT: 172799.74
 STEP:   6 TIME =     0.04 SECS, INTEGRAL =      0.26 TIME LEFT: 172799.70
 STEP:   7 TIME =     0.04 SECS, INTEGRAL =      0.30 TIME LEFT: 172799.66
 STEP:   8 TIME =     0.04 SECS, INTEGRAL =      0.34 TIME LEFT: 172799.62
 STEP:   9 TIME =     0.04 SECS, INTEGRAL =      0.38 TIME LEFT: 172799.58
 STEP:  10 TIME =     0.04 SECS, INTEGRAL =      0.43 TIME LEFT: 172799.54
 STEP:  11 TIME =     0.04 SECS, INTEGRAL =      0.47 TIME LEFT: 172799.49
 STEP:  12 TIME =     0.04 SECS, INTEGRAL =      0.51 TIME LEFT: 172799.45
 STEP:  13 TIME =     0.04 SECS, INTEGRAL =      0.55 TIME LEFT: 172799.41
 STEP:  14 TIME =     0.04 SECS, INTEGRAL =      0.59 TIME LEFT: 172799.37
 STEP:  15 TIME =     0.04 SECS, INTEGRAL =      0.64 TIME LEFT: 172799.32
 STEP:  16 TIME =     0.04 SECS, INTEGRAL =      0.68 TIME LEFT: 172799.29
 STEP:  17 TIME =     0.04 SECS, INTEGRAL =      0.72 TIME LEFT: 172799.24
 STEP:  18 TIME =     0.04 SECS, INTEGRAL =      0.76 TIME LEFT: 172799.20
 STEP:  19 TIME =     0.04 SECS, INTEGRAL =      0.80 TIME LEFT: 172799.16
 STEP:  20 TIME =     0.04 SECS, INTEGRAL =      0.84 TIME LEFT: 172799.12
 STEP:  21 TIME =     0.04 SECS, INTEGRAL =      0.89 TIME LEFT: 172799.07
 STEP:  22 TIME =     0.04 SECS, INTEGRAL =      0.93 TIME LEFT: 172799.03
 STEP:  23 TIME =     0.04 SECS, INTEGRAL =      0.97 TIME LEFT: 172798.99
 STEP:  24 TIME =     0.04 SECS, INTEGRAL =      1.02 TIME LEFT: 172798.95
 STEP:  25 TIME =     0.05 SECS, INTEGRAL =      1.06 TIME LEFT: 172798.90
 STEP:  26 TIME =     0.04 SECS, INTEGRAL =      1.11 TIME LEFT: 172798.86
 STEP:  27 TIME =     0.04 SECS, INTEGRAL =      1.15 TIME LEFT: 172798.81
 STEP:  28 TIME =     0.04 SECS, INTEGRAL =      1.19 TIME LEFT: 172798.77
 STEP:  29 TIME =     0.04 SECS, INTEGRAL =      1.23 TIME LEFT: 172798.73
 STEP:  30 TIME =     0.04 SECS, INTEGRAL =      1.27 TIME LEFT: 172798.69
 STEP:  31 TIME =     0.04 SECS, INTEGRAL =      1.31 TIME LEFT: 172798.65
 STEP:  32 TIME =     0.04 SECS, INTEGRAL =      1.36 TIME LEFT: 172798.61
 STEP:  33 TIME =     0.04 SECS, INTEGRAL =      1.40 TIME LEFT: 172798.56
 STEP:  34 TIME =     0.04 SECS, INTEGRAL =      1.44 TIME LEFT: 172798.52
 STEP:  35 TIME =     0.04 SECS, INTEGRAL =      1.48 TIME LEFT: 172798.48
 STEP:  36 TIME =     0.04 SECS, INTEGRAL =      1.52 TIME LEFT: 172798.44
 STEP:  37 TIME =     0.04 SECS, INTEGRAL =      1.56 TIME LEFT: 172798.40
 STEP:  38 TIME =     0.04 SECS, INTEGRAL =      1.60 TIME LEFT: 172798.36
 STEP:  39 TIME =     0.04 SECS, INTEGRAL =      1.64 TIME LEFT: 172798.32
 STEP:  40 TIME =     0.04 SECS, INTEGRAL =      1.68 TIME LEFT: 172798.28
 STEP:  41 TIME =     0.04 SECS, INTEGRAL =      1.72 TIME LEFT: 172798.24
 STEP:  42 TIME =     0.04 SECS, INTEGRAL =      1.77 TIME LEFT: 172798.20
 STEP:  43 TIME =     0.04 SECS, INTEGRAL =      1.80 TIME LEFT: 172798.16
 STEP:  44 TIME =     0.04 SECS, INTEGRAL =      1.85 TIME LEFT: 172798.11
 STEP:  45 TIME =     0.04 SECS, INTEGRAL =      1.89 TIME LEFT: 172798.07
 STEP:  46 TIME =     0.04 SECS, INTEGRAL =      1.93 TIME LEFT: 172798.04
 STEP:  47 TIME =     0.04 SECS, INTEGRAL =      1.96 TIME LEFT: 172798.00
 STEP:  48 TIME =     0.04 SECS, INTEGRAL =      2.01 TIME LEFT: 172797.95
 STEP:  49 TIME =     0.04 SECS, INTEGRAL =      2.05 TIME LEFT: 172797.91
 STEP:  50 TIME =     0.04 SECS, INTEGRAL =      2.09 TIME LEFT: 172797.87
 STEP:  51 TIME =     0.04 SECS, INTEGRAL =      2.13 TIME LEFT: 172797.83
 STEP:  52 TIME =     0.04 SECS, INTEGRAL =      2.17 TIME LEFT: 172797.79
 STEP:  53 TIME =     0.04 SECS, INTEGRAL =      2.21 TIME LEFT: 172797.75
 STEP:  54 TIME =     0.04 SECS, INTEGRAL =      2.25 TIME LEFT: 172797.71

(To convert to Hartree/Bohr^2, multiply by (10^(-21) x N x a0^2)/(4.184 x 627.51) =  0.0642)


           FORCE MATRIX IN MILLIDYNES/ANGSTROM


                  C  1       C  2       C  3       C  4       C  5       C  6
 ------------------------------------------------------------------------------
     C    1  18.817114
     C    2   5.861037  18.751259
     C    3   4.827062   1.178549  19.558566
     C    4   1.142948   1.564334   4.704167  18.150413
     C    5   7.424928   2.181153   0.628873   0.040141  17.368384
     C    6   1.212614   5.041498   1.405225   9.638721   0.076406  18.228769
     C    7   2.114879   7.328009   0.083037   0.124462   1.702578   0.739465
     C    8   2.382526   1.690478   0.124634   0.040467   6.701171   0.053049
     C    9   1.629462   2.441279   0.033681   0.067793   2.399400   0.153136
     C   10   0.819323   0.077478  10.584779   0.851669   0.055041   0.106863
     H   11   0.039190   0.106730   0.423752   5.052220   0.008743   0.442065
     H   12   0.449619   0.090286   0.042296   0.003968   4.858545   0.008823
     H   13   0.043534   0.427201   0.112106   0.442555   0.007254   5.061505
     H   14   0.084009   0.007747   0.006459   0.001634   0.434653   0.007176
     H   15   0.089332   0.449068   0.009452   0.005383   0.010143   0.041188
     H   16   0.008028   0.086400   0.008293   0.001892   0.089223   0.007267
     H   17   0.095222   0.015380   0.475212   0.130732   0.011882   0.017402
     H   18   0.133789   0.017416   0.471562   0.093736   0.007843   0.014005


                  C  7       C  8       C  9       C 10       H 11       H 12
 ------------------------------------------------------------------------------
     C    7  17.361781
     C    8   2.409644  17.123219
     C    9   6.716637   7.035892  17.128757
     C   10   0.018786   0.013440   0.007729  17.896665
     H   11   0.006552   0.001406   0.006012   0.015165   5.447209
     H   12   0.009594   0.437472   0.084134   0.011061   0.000646   5.233277
     H   13   0.010795   0.001989   0.002466   0.008751   0.043498   0.001342
     H   14   0.089279   4.856983   0.436654   0.000684   0.000892   0.038550
     H   15   4.883621   0.084768   0.437906   0.001855   0.002110   0.008429
     H   16   0.434812   0.437206   4.855821   0.000797   0.000439   0.006773
     H   17   0.004842   0.006925   0.003267   5.086742   0.002725   0.015695
     H   18   0.006469   0.006221   0.002785   5.107545   0.009173   0.004502


                  H 13       H 14       H 15       H 16       H 17       H 18
 ------------------------------------------------------------------------------
     H   13   5.453170
     H   14   0.000429   5.220346
     H   15   0.005933   0.006705   5.253873
     H   16   0.000517   0.044390   0.038797   5.218875
     H   17   0.008487   0.000659   0.000439   0.000392   5.448954
     H   18   0.005307   0.000962   0.000521   0.000503   0.398046   5.467948


          HEAT OF FORMATION =      64.127530 KCALS/MOLE

          ZERO POINT ENERGY      91.599 KCAL/MOL


           NORMAL COORDINATE ANALYSIS (Total motion = 1 Angstrom)


   Root No.       1         2         3         4         5         6         7         8

                 1 A       2 A       3 A       4 A       5 A       6 A       7 A       8 A   

                 123.8     196.1     272.4     294.0     382.7     478.1     500.4     557.5
  
           1   -0.0000   -0.0000   -0.0317   -0.0000   -0.0000    0.0456   -0.0000   -0.0043
           2   -0.0000    0.0000   -0.0143   -0.0000   -0.0000   -0.0135    0.0000   -0.0404
           3   -0.0289   -0.0682    0.0001   -0.0355   -0.0514    0.0000   -0.0147    0.0000
           4   -0.0000   -0.0000   -0.0294   -0.0000    0.0000    0.0496   -0.0000    0.0033
           5   -0.0000    0.0000   -0.0095   -0.0000    0.0000    0.0112   -0.0000   -0.0040
           6    0.0018   -0.0681   -0.0000    0.0160   -0.0376    0.0000    0.0416    0.0000
           7   -0.0000    0.0000   -0.0188   -0.0000   -0.0000   -0.0111    0.0000    0.0086
           8   -0.0000    0.0000   -0.0035   -0.0000   -0.0000   -0.0384    0.0000   -0.0630
           9   -0.0097   -0.0029    0.0001   -0.0616   -0.0296    0.0000    0.0077   -0.0000
          10   -0.0000   -0.0000   -0.0110   -0.0000   -0.0000   -0.0462    0.0000   -0.0057
          11   -0.0000    0.0000   -0.0130   -0.0000   -0.0000    0.0015   -0.0000   -0.0486
          12   -0.0401    0.0693    0.0001   -0.0395    0.0176   -0.0000    0.0130   -0.0000
          13    0.0000   -0.0000    0.0046    0.0000   -0.0000    0.0182   -0.0000   -0.0727
          14   -0.0000    0.0000   -0.0389   -0.0000   -0.0000    0.0069    0.0000    0.0071
          15   -0.0572   -0.0322    0.0000    0.0065    0.0609   -0.0000   -0.0327    0.0000
          16   -0.0000   -0.0000   -0.0179   -0.0000    0.0000   -0.0123    0.0000    0.0101
          17   -0.0000    0.0000   -0.0169   -0.0000    0.0000    0.0447   -0.0000   -0.0200
          18   -0.0222    0.0008   -0.0001    0.0774   -0.0090   -0.0000   -0.0279    0.0000
          19   -0.0000    0.0000    0.0024    0.0000    0.0000    0.0049    0.0000    0.0512
          20   -0.0000    0.0000    0.0106    0.0000    0.0000   -0.0227    0.0000    0.0418
          21    0.0496   -0.0325    0.0000   -0.0273    0.0606    0.0000    0.0282   -0.0000
          22    0.0000    0.0000    0.0343    0.0000    0.0000   -0.0235    0.0000   -0.0155
          23   -0.0000   -0.0000   -0.0248   -0.0000   -0.0000   -0.0134    0.0000    0.0485
          24   -0.0258    0.0497   -0.0000    0.0400   -0.0175    0.0000    0.0505   -0.0000
          25    0.0000    0.0000    0.0345    0.0000   -0.0000   -0.0246   -0.0000   -0.0108
          26   -0.0000   -0.0000   -0.0061   -0.0000    0.0000   -0.0133    0.0000    0.0838
          27    0.0397    0.0496    0.0000   -0.0266   -0.0307   -0.0000   -0.0488    0.0000
          28   -0.0000    0.0000    0.0185    0.0000    0.0000    0.0104    0.0000    0.0312
          29    0.0000    0.0000    0.0987    0.0001    0.0000    0.0199   -0.0000   -0.0166
          30    0.0786    0.0053   -0.0001    0.0282    0.0056   -0.0000   -0.0010    0.0000
          31   -0.0000   -0.0000   -0.0063   -0.0000   -0.0000   -0.1011    0.0000   -0.0389
          32   -0.0000    0.0000   -0.0127   -0.0000   -0.0000    0.0018   -0.0000   -0.0496
          33   -0.0647    0.1585    0.0001   -0.0768    0.0682   -0.0000    0.0062   -0.0000
          34    0.0000   -0.0000    0.0049    0.0000   -0.0000    0.0181   -0.0000   -0.0720
          35   -0.0000    0.0000   -0.0709   -0.0001   -0.0000    0.0539    0.0000    0.0200
          36   -0.0978   -0.0394   -0.0000    0.0160    0.1894   -0.0001   -0.0980    0.0000
          37   -0.0000   -0.0000   -0.0151   -0.0000   -0.0000   -0.0305    0.0000    0.0091
          38   -0.0000    0.0000   -0.0272   -0.0000    0.0000    0.1102   -0.0000   -0.0176
          39   -0.0281    0.0142   -0.0002    0.1906    0.0063   -0.0001   -0.1229    0.0000
          40    0.0000    0.0000    0.0530    0.0001    0.0000   -0.0434    0.0000    0.0362
          41   -0.0000   -0.0000   -0.0356   -0.0000   -0.0000   -0.0019   -0.0000    0.0196
          42   -0.0479    0.1186   -0.0001    0.1023   -0.0471    0.0000    0.1570   -0.0001
          43    0.0000    0.0000    0.0026    0.0000    0.0000    0.0050    0.0000    0.0504
          44   -0.0000    0.0000    0.0451    0.0000   -0.0000   -0.0758    0.0000    0.0412
          45    0.0916   -0.0400   -0.0000   -0.0498    0.1883   -0.0000    0.0465   -0.0001
          46    0.0000    0.0000    0.0542    0.0000    0.0000   -0.0364   -0.0000   -0.0304
          47   -0.0000   -0.0000    0.0052    0.0000    0.0000   -0.0205    0.0001    0.0731
          48    0.0791    0.1184    0.0000   -0.0615   -0.0836   -0.0001   -0.1673    0.0001
          49   -0.0000    0.0000   -0.0455   -0.0001   -0.0000   -0.0446    0.0000   -0.0153
          50    0.0001    0.0000    0.1848    0.0002    0.0000    0.0947   -0.0000    0.0467
          51    0.1208   -0.0575   -0.0002    0.0864   -0.0243   -0.0001   -0.0739   -0.0001
          52    0.0000   -0.0000    0.1253    0.0001    0.0000    0.1027   -0.0000    0.1172
          53    0.0000    0.0000    0.1230    0.0001    0.0000    0.0414   -0.0000    0.0024
          54    0.1165    0.0747   -0.0001    0.0581    0.0724    0.0001    0.0620    0.0001


   Root No.       9        10        11        12        13        14        15        16

                 9 A      10 A      11 A      12 A      13 A      14 A      15 A      16 A   

                 568.4     613.3     627.2     736.2     740.6     784.8     830.1     831.4
  
           1    0.0142   -0.0000   -0.0000    0.0088   -0.0000    0.0000    0.0109    0.0000
           2    0.0313    0.0000    0.0000    0.0111    0.0000    0.0000   -0.0161    0.0000
           3    0.0000    0.0003   -0.0269   -0.0000    0.0573    0.0341    0.0000   -0.0205
           4    0.0222   -0.0000   -0.0000    0.0167   -0.0000    0.0000    0.0259    0.0000
           5   -0.0458    0.0000    0.0000    0.0388    0.0000    0.0000   -0.0194   -0.0000
           6    0.0000    0.0387   -0.0315    0.0000   -0.0492    0.0094   -0.0000    0.0276
           7   -0.0485    0.0000   -0.0000   -0.0494   -0.0000   -0.0000   -0.0060   -0.0000
           8    0.0139    0.0000    0.0000   -0.0080    0.0000   -0.0000    0.0390    0.0000
           9   -0.0000   -0.0310    0.0861    0.0000   -0.0072   -0.0184   -0.0000    0.0303
          10   -0.0176    0.0000    0.0000    0.0284    0.0000    0.0000    0.0045    0.0000
          11   -0.0410    0.0000   -0.0000   -0.0742   -0.0000   -0.0000    0.0245   -0.0000
          12    0.0000    0.0029   -0.0309    0.0000   -0.0205   -0.0033    0.0000   -0.0339
          13    0.0092    0.0000   -0.0000    0.0393    0.0000    0.0000   -0.0051    0.0000
          14    0.0555   -0.0000    0.0000   -0.0050   -0.0000    0.0000   -0.0330    0.0000
          15    0.0000    0.0191   -0.0065    0.0000    0.0007   -0.0119   -0.0000   -0.0145
          16   -0.0151    0.0000    0.0000    0.0843    0.0000    0.0000   -0.0203   -0.0000
          17   -0.0466    0.0000   -0.0000   -0.0048   -0.0000    0.0000   -0.0090   -0.0000
          18   -0.0000   -0.0047    0.0315   -0.0000   -0.0092   -0.0040    0.0000   -0.0308
          19    0.0530   -0.0000   -0.0000   -0.0295   -0.0000   -0.0000    0.0707    0.0000
          20   -0.0382    0.0000    0.0000    0.0343    0.0000    0.0000   -0.0052   -0.0000
          21   -0.0000   -0.0163   -0.0008    0.0000    0.0093   -0.0157   -0.0000    0.0149
          22    0.0232   -0.0000    0.0000   -0.0158    0.0000   -0.0000   -0.0335   -0.0000
          23    0.0654   -0.0000   -0.0000   -0.0389   -0.0000   -0.0000   -0.0503   -0.0000
          24   -0.0000   -0.0148    0.0005   -0.0000    0.0164   -0.0268   -0.0000   -0.0110
          25    0.0237   -0.0000    0.0000   -0.0243   -0.0000   -0.0000   -0.0270   -0.0000
          26   -0.0195   -0.0000   -0.0000    0.0293    0.0000    0.0000    0.0492    0.0000
          27    0.0000    0.0188   -0.0058    0.0000   -0.0052   -0.0307    0.0000    0.0062
          28   -0.0560    0.0000   -0.0000   -0.0595   -0.0000   -0.0000   -0.0195   -0.0000
          29    0.0215   -0.0000    0.0000    0.0123    0.0000   -0.0000    0.0344    0.0000
          30   -0.0000    0.0018   -0.0057   -0.0000    0.0002   -0.0007    0.0000    0.0033
          31    0.0249    0.0000    0.0000    0.0383    0.0000    0.0000    0.0736    0.0000
          32   -0.0409    0.0000   -0.0000   -0.0752   -0.0000   -0.0000    0.0258    0.0000
          33   -0.0000   -0.0249   -0.2488   -0.0001    0.0881    0.0558   -0.0001    0.1871
          34    0.0096    0.0000    0.0000    0.0394    0.0000    0.0000   -0.0056    0.0000
          35    0.0588   -0.0000   -0.0000    0.0240   -0.0000    0.0000   -0.0162    0.0000
          36    0.0000    0.0201    0.0584    0.0000   -0.1678    0.0835    0.0000    0.1323
          37   -0.0206    0.0000    0.0000    0.0833    0.0000    0.0000   -0.0215   -0.0000
          38   -0.0261   -0.0000   -0.0000    0.0042   -0.0000   -0.0000   -0.0029   -0.0000
          39   -0.0001   -0.0628    0.0446   -0.0001    0.1805   -0.0015   -0.0001    0.1949
          40   -0.0106   -0.0000    0.0000   -0.0155   -0.0000    0.0000    0.0237    0.0000
          41    0.0847   -0.0000   -0.0000   -0.0387    0.0000   -0.0000   -0.0845   -0.0000
          42   -0.0001   -0.0873    0.0545   -0.0001   -0.0330    0.2362   -0.0000    0.0594
          43    0.0531   -0.0000   -0.0000   -0.0297   -0.0000   -0.0000    0.0718    0.0000
          44   -0.0408    0.0000    0.0000    0.0179   -0.0000   -0.0000   -0.0805    0.0000
          45   -0.0000   -0.1131    0.0818   -0.0001    0.0786    0.1556    0.0001   -0.1294
          46   -0.0346    0.0000    0.0000    0.0283    0.0000    0.0000   -0.0381    0.0000
          47   -0.0525   -0.0000   -0.0000    0.0599    0.0000   -0.0000    0.0426    0.0000
          48    0.0000    0.0376    0.0323   -0.0001   -0.0750    0.2406    0.0000   -0.0256
          49   -0.0675    0.0000    0.0000   -0.0894    0.0000   -0.0000    0.0470    0.0000
          50    0.0353   -0.0001   -0.0000    0.0488   -0.0000    0.0000   -0.0573   -0.0000
          51   -0.0001   -0.2263   -0.1974    0.0001   -0.0926   -0.0157   -0.0000   -0.0562
          52   -0.0519   -0.0001   -0.0000   -0.0418   -0.0000   -0.0000   -0.1575   -0.0000
          53    0.0235   -0.0000   -0.0000    0.0179    0.0000    0.0000    0.0042    0.0000
          54    0.0001    0.2795    0.0560   -0.0001    0.1090    0.0561    0.0000   -0.0221


   Root No.      17        18        19        20        21        22        23        24

                17 A      18 A      19 A      20 A      21 A      22 A      23 A      24 A   

                 907.4     913.2     946.9     956.0     979.9    1009.7    1026.2    1078.6
  
           1   -0.0000    0.0166    0.0056   -0.0000   -0.0000    0.0000   -0.0000   -0.0066
           2   -0.0000    0.0171    0.0070    0.0000    0.0000    0.0000    0.0000    0.0051
           3    0.0362    0.0001   -0.0000    0.0174    0.0036    0.0175   -0.0154    0.0000
           4    0.0000   -0.0165   -0.0066   -0.0000    0.0000   -0.0000   -0.0000    0.0063
           5    0.0000   -0.0101   -0.0006    0.0000    0.0000    0.0000   -0.0000   -0.0019
           6   -0.0351   -0.0001    0.0000    0.0043    0.0218   -0.0219    0.0028    0.0000
           7   -0.0000    0.0062    0.0114    0.0000    0.0000    0.0000    0.0000    0.0070
           8    0.0000   -0.0042   -0.0089   -0.0000    0.0000    0.0000    0.0000    0.0102
           9   -0.0190   -0.0000   -0.0000   -0.0011   -0.0070    0.0010    0.0432    0.0000
          10    0.0000   -0.0032   -0.0334   -0.0000    0.0000   -0.0000   -0.0000   -0.0076
          11   -0.0000    0.0154   -0.0468   -0.0001    0.0000   -0.0000   -0.0000   -0.0248
          12    0.0193    0.0000    0.0001   -0.0215    0.0465   -0.0094   -0.0207   -0.0000
          13   -0.0001    0.0575    0.0328    0.0000   -0.0000   -0.0000    0.0000   -0.0012
          14   -0.0000    0.0149    0.0161    0.0000   -0.0000   -0.0000   -0.0000    0.0050
          15   -0.0282   -0.0001    0.0001   -0.0417   -0.0215   -0.0353    0.0127    0.0000
          16    0.0001   -0.0455   -0.0186    0.0000    0.0000   -0.0000    0.0000   -0.0196
          17    0.0001   -0.0408   -0.0208   -0.0000    0.0000   -0.0000    0.0000   -0.0148
          18    0.0077    0.0000   -0.0001    0.0197   -0.0523    0.0153    0.0099    0.0000
          19    0.0000   -0.0014   -0.0175   -0.0000    0.0000    0.0000    0.0000   -0.0142
          20   -0.0000    0.0171    0.0149    0.0000   -0.0000   -0.0000   -0.0000    0.0048
          21    0.0321    0.0001    0.0000   -0.0380   -0.0173    0.0396   -0.0027   -0.0000
          22    0.0000   -0.0152   -0.0012    0.0000    0.0000    0.0000   -0.0000    0.0045
          23    0.0000   -0.0212   -0.0019    0.0000    0.0000   -0.0000    0.0000   -0.0002
          24   -0.0241   -0.0000   -0.0000    0.0198    0.0207    0.0507   -0.0087   -0.0000
          25    0.0000   -0.0159   -0.0065    0.0000    0.0000   -0.0000   -0.0000   -0.0046
          26   -0.0001    0.0294    0.0090   -0.0000   -0.0000    0.0000    0.0000    0.0032
          27    0.0207    0.0001   -0.0000    0.0289   -0.0022   -0.0526    0.0057    0.0000
          28   -0.0000    0.0053    0.0424    0.0001   -0.0000    0.0000    0.0000    0.0096
          29    0.0000   -0.0298    0.0361    0.0001   -0.0000    0.0000    0.0000   -0.0114
          30   -0.0058   -0.0000    0.0000   -0.0000   -0.0136   -0.0071   -0.0784   -0.0000
          31   -0.0001    0.0621   -0.0991   -0.0002    0.0001    0.0000   -0.0001    0.3086
          32   -0.0000    0.0149   -0.0490   -0.0001    0.0000   -0.0000   -0.0000   -0.0243
          33   -0.1035   -0.0002   -0.0003    0.0985   -0.1830    0.0301    0.0695    0.0001
          34   -0.0001    0.0591    0.0336    0.0000   -0.0000    0.0000    0.0000   -0.0010
          35   -0.0002    0.0963    0.0533    0.0000   -0.0001    0.0000   -0.0000   -0.0332
          36    0.1313    0.0004   -0.0002    0.1891    0.0939    0.1155   -0.0474   -0.0000
          37    0.0000   -0.0212   -0.0315   -0.0000   -0.0000   -0.0000    0.0000   -0.1194
          38    0.0002   -0.1354    0.0183    0.0001    0.0001    0.0000   -0.0000    0.3441
          39   -0.0216   -0.0001    0.0002   -0.0929    0.2130   -0.0538   -0.0278   -0.0001
          40    0.0001   -0.0485   -0.0390   -0.0001    0.0000    0.0000    0.0000    0.0252
          41   -0.0000   -0.0016    0.0206    0.0001    0.0000    0.0000   -0.0000   -0.0116
          42    0.1524    0.0003    0.0001   -0.0883   -0.0865   -0.1746    0.0275    0.0000
          43    0.0000   -0.0018   -0.0183   -0.0000    0.0000    0.0000    0.0000   -0.0151
          44   -0.0001    0.0508    0.0524    0.0000   -0.0001    0.0000   -0.0000   -0.0112
          45   -0.1484   -0.0002   -0.0002    0.1721    0.0795   -0.1333    0.0024    0.0000
          46   -0.0000    0.0188    0.0255   -0.0000   -0.0000    0.0000   -0.0000    0.0477
          47   -0.0001    0.0508    0.0285    0.0000   -0.0000   -0.0000    0.0000    0.0332
          48   -0.1351   -0.0003    0.0002   -0.1346    0.0101    0.1825   -0.0167   -0.0000
          49    0.0001   -0.0667    0.1891    0.0002   -0.0001    0.0000    0.0000    0.0044
          50   -0.0001    0.0691   -0.1589   -0.0002    0.0001   -0.0000   -0.0000   -0.0016
          51    0.0286    0.0001    0.0001   -0.0152    0.0770    0.0212    0.3053   -0.0000
          52   -0.0002    0.1428   -0.1607   -0.0002    0.0001   -0.0000   -0.0000    0.0607
          53   -0.0000    0.0010   -0.0123   -0.0000    0.0000   -0.0000    0.0000   -0.0015
          54    0.0508    0.0001   -0.0000    0.0168    0.0506    0.0387    0.3032    0.0000


   Root No.      25        26        27        28        29        30        31        32

                25 A      26 A      27 A      28 A      29 A      30 A      31 A      32 A   

                1081.1    1105.7    1137.1    1152.3    1192.2    1264.0    1325.5    1336.2
  
           1    0.0191   -0.0190    0.0256    0.0073   -0.0305   -0.0259   -0.0026    0.0395
           2   -0.0229    0.0106   -0.0277    0.0059   -0.0077    0.0276   -0.0042   -0.0233
           3   -0.0000   -0.0000   -0.0000    0.0000   -0.0000    0.0000    0.0000    0.0000
           4    0.0033   -0.0116    0.0121   -0.0089   -0.0276    0.0126    0.0516    0.0196
           5   -0.0022   -0.0088    0.0217   -0.0003    0.0104    0.0134    0.0297    0.0162
           6    0.0000   -0.0000    0.0000   -0.0000    0.0000    0.0000    0.0000   -0.0000
           7   -0.0046    0.0036   -0.0127    0.0014   -0.0018   -0.0095    0.0344   -0.0062
           8   -0.0036    0.0072   -0.0289    0.0031   -0.0070    0.0111    0.0429    0.0472
           9    0.0000    0.0000    0.0000   -0.0000    0.0000   -0.0000    0.0000    0.0000
          10    0.0056    0.0044   -0.0057   -0.0014    0.0047   -0.0345   -0.0176    0.0077
          11    0.0096   -0.0053    0.0099   -0.0047   -0.0024   -0.0236   -0.0246   -0.0024
          12    0.0000   -0.0000    0.0000    0.0000    0.0000   -0.0000   -0.0000   -0.0000
          13   -0.0327    0.0173    0.0046    0.0097    0.0083   -0.0151   -0.0338   -0.0183
          14    0.0006   -0.0068   -0.0112   -0.0009   -0.0168    0.0211    0.0226   -0.0301
          15    0.0000    0.0000   -0.0000   -0.0000    0.0000    0.0000   -0.0000   -0.0000
          16    0.0015    0.0118   -0.0135    0.0006    0.0064    0.0055   -0.0246   -0.0093
          17    0.0066    0.0068    0.0053   -0.0016    0.0091    0.0287   -0.0318   -0.0345
          18   -0.0000    0.0000   -0.0000   -0.0000   -0.0000    0.0000    0.0000    0.0000
          19    0.0073    0.0344   -0.0177   -0.0099    0.0127    0.0280   -0.0057   -0.0271
          20    0.0021    0.0056    0.0097   -0.0049    0.0178    0.0080    0.0535    0.0040
          21   -0.0000    0.0000    0.0000    0.0000    0.0000   -0.0000    0.0000    0.0000
          22   -0.0174   -0.0128    0.0091    0.0061    0.0173   -0.0094    0.0204    0.0074
          23   -0.0171   -0.0113    0.0217    0.0031   -0.0087   -0.0265   -0.0349    0.0071
          24    0.0000   -0.0000    0.0000   -0.0000   -0.0000    0.0000   -0.0000    0.0000
          25    0.0244   -0.0042   -0.0008   -0.0085    0.0197    0.0014    0.0014    0.0166
          26   -0.0291   -0.0048   -0.0006    0.0048    0.0037   -0.0262   -0.0287    0.0130
          27   -0.0000   -0.0000   -0.0000    0.0000   -0.0000   -0.0000   -0.0000    0.0000
          28   -0.0088    0.0012   -0.0006    0.0016    0.0049    0.0044    0.0138   -0.0320
          29    0.0092   -0.0072    0.0164   -0.0014   -0.0011   -0.0044   -0.0162    0.0047
          30   -0.0000    0.0000   -0.0000    0.0000    0.0000    0.0000   -0.0000    0.0000
          31    0.0696   -0.0525    0.2129   -0.0083    0.0393    0.1155   -0.0512   -0.0985
          32    0.0104   -0.0054    0.0105   -0.0049   -0.0025   -0.0239   -0.0269   -0.0025
          33   -0.0000    0.0000    0.0000   -0.0000   -0.0000    0.0000    0.0000    0.0000
          34   -0.0359    0.0175    0.0056    0.0114    0.0072   -0.0174   -0.0372   -0.0201
          35    0.2595   -0.1086   -0.0929    0.1203    0.2439   -0.0095   -0.0260    0.0197
          36    0.0000   -0.0000   -0.0000    0.0000    0.0000    0.0000   -0.0000   -0.0000
          37    0.0006   -0.0117    0.0232   -0.0084   -0.0002    0.0524   -0.0227   -0.0275
          38    0.0120    0.0944   -0.1286    0.0302    0.0334   -0.1394   -0.0479    0.0281
          39    0.0000   -0.0000    0.0000    0.0000    0.0000   -0.0000   -0.0000   -0.0000
          40   -0.0561   -0.1685   -0.0625    0.2985   -0.1136    0.0295   -0.0346   -0.0560
          41    0.0039    0.0747    0.0634   -0.1633    0.0662   -0.0524   -0.0077    0.0442
          42   -0.0000    0.0000    0.0000   -0.0000    0.0000   -0.0000    0.0000    0.0000
          43    0.0094    0.0363   -0.0191   -0.0117    0.0124    0.0314   -0.0059   -0.0298
          44    0.2469    0.1910    0.0376    0.1230   -0.2158   -0.0040   -0.0319    0.0014
          45    0.0000   -0.0000    0.0000    0.0000   -0.0000   -0.0000   -0.0000    0.0000
          46    0.1075   -0.1480   -0.1199   -0.2647   -0.1244    0.0178   -0.0662   -0.0477
          47    0.0162   -0.0854   -0.0669   -0.1407   -0.0791   -0.0207   -0.0707   -0.0221
          48   -0.0000    0.0000   -0.0000   -0.0000   -0.0000   -0.0000   -0.0000   -0.0000
          49   -0.0108   -0.0069    0.0252    0.0011    0.0115    0.1035   -0.1166    0.0900
          50    0.0089    0.0048   -0.0198   -0.0006   -0.0100   -0.1247    0.1498   -0.1457
          51    0.0000   -0.0000    0.0000   -0.0000   -0.0000   -0.0000    0.0000   -0.0000
          52   -0.0567    0.0352   -0.0693    0.0054   -0.0010    0.1727   -0.1081    0.2135
          53   -0.0002   -0.0001    0.0014   -0.0006   -0.0033    0.0260   -0.0372    0.0539
          54    0.0000    0.0000    0.0000   -0.0000   -0.0000   -0.0000    0.0000    0.0000


   Root No.      33        34        35        36        37        38        39        40

                33 A      34 A      35 A      36 A      37 A      38 A      39 A      40 A   

                1374.5    1464.8    1577.0    1591.9    1754.4    1801.8    1830.5    1915.5
  
           1    0.0358   -0.0516   -0.0799   -0.0305    0.0076   -0.1009   -0.0388   -0.0009
           2    0.0096   -0.0449    0.0924   -0.0505    0.0178   -0.0740   -0.1287    0.0577
           3   -0.0000    0.0000   -0.0000   -0.0000   -0.0000   -0.0000   -0.0000    0.0000
           4   -0.0381    0.0448    0.0970   -0.0052    0.0047    0.0893   -0.0570   -0.0191
           5    0.0066   -0.0503    0.0810    0.0744    0.0145   -0.0621    0.1438    0.0196
           6   -0.0000    0.0000    0.0000    0.0000    0.0000   -0.0000    0.0000    0.0000
           7    0.0381    0.0149   -0.0194    0.0084   -0.0094    0.0349    0.0175    0.2304
           8    0.0706    0.0370   -0.0404    0.0239    0.0011    0.0067    0.0194   -0.0940
           9    0.0000   -0.0000   -0.0000    0.0000   -0.0000    0.0000    0.0000    0.0000
          10   -0.0639   -0.0215    0.0041    0.0155    0.1876    0.0039   -0.0056   -0.0240
          11   -0.0560   -0.0042    0.0188   -0.0133   -0.1203    0.0001    0.0009   -0.0135
          12   -0.0000    0.0000   -0.0000   -0.0000    0.0000    0.0000   -0.0000   -0.0000
          13    0.0025    0.0168   -0.0116    0.0549   -0.0115    0.0555    0.0172   -0.0101
          14   -0.0587   -0.0143   -0.0735   -0.0529    0.0040    0.0364    0.1367   -0.0170
          15    0.0000   -0.0000    0.0000   -0.0000    0.0000    0.0000    0.0000    0.0000
          16    0.0126    0.0111   -0.0150   -0.0180   -0.1677   -0.0077    0.0049   -0.0138
          17    0.0394    0.0359   -0.0537   -0.0186    0.1386    0.0254   -0.0316   -0.0010
          18   -0.0000   -0.0000    0.0000   -0.0000   -0.0000   -0.0000    0.0000    0.0000
          19   -0.0073   -0.0156   -0.0095    0.0547   -0.0012   -0.0523    0.0275    0.0108
          20   -0.0548   -0.0150   -0.0845    0.0321   -0.0352    0.0151   -0.1389   -0.0046
          21   -0.0000   -0.0000   -0.0000    0.0000   -0.0000   -0.0000   -0.0000   -0.0000
          22   -0.0315    0.0887    0.0016   -0.0521    0.0174   -0.1033    0.0340    0.0158
          23    0.0277    0.0143    0.0102    0.0852   -0.0134    0.0246   -0.0517   -0.0047
          24   -0.0000   -0.0000   -0.0000    0.0000   -0.0000    0.0000   -0.0000   -0.0000
          25    0.0365   -0.0878    0.0157   -0.0506   -0.0009    0.1074    0.0121   -0.0177
          26    0.0347    0.0168    0.0359   -0.0796    0.0142    0.0335    0.0447   -0.0064
          27    0.0000    0.0000    0.0000   -0.0000    0.0000    0.0000    0.0000   -0.0000
          28    0.0193   -0.0070    0.0278   -0.0038   -0.0057   -0.0280   -0.0127   -0.1675
          29   -0.0204   -0.0039   -0.0075   -0.0026   -0.0025    0.0073    0.0023    0.0624
          30    0.0000   -0.0000    0.0000   -0.0000   -0.0000   -0.0000   -0.0000   -0.0000
          31    0.0702    0.0239   -0.0119   -0.0264   -0.0626    0.0034   -0.0062    0.0300
          32   -0.0585   -0.0013    0.0188   -0.0165   -0.1598    0.0022    0.0013   -0.0210
          33    0.0000    0.0000    0.0000    0.0000   -0.0000   -0.0000    0.0000   -0.0000
          34    0.0025    0.0201   -0.0182    0.0646   -0.0145    0.0676    0.0251   -0.0135
          35    0.0160    0.1129    0.0960    0.0344   -0.0001   -0.0176   -0.0518    0.0125
          36   -0.0000    0.0000   -0.0000    0.0000    0.0000    0.0000   -0.0000   -0.0000
          37    0.0462    0.0393   -0.0245   -0.0270   -0.1420    0.0089   -0.0092   -0.0213
          38   -0.0859   -0.0543   -0.0202    0.0020   -0.0988   -0.0275    0.0201   -0.0072
          39    0.0000   -0.0000   -0.0000    0.0000    0.0000   -0.0000   -0.0000   -0.0000
          40   -0.0277   -0.0187   -0.0340    0.1161   -0.0169    0.0243   -0.0220   -0.0040
          41    0.0270    0.0865    0.0323   -0.0011    0.0053   -0.0545   -0.0240    0.0070
          42    0.0000    0.0000    0.0000    0.0000   -0.0000   -0.0000   -0.0000    0.0000
          43   -0.0077   -0.0190   -0.0066    0.0657   -0.0011   -0.0634    0.0376    0.0141
          44    0.0090    0.1069    0.1038   -0.0084    0.0213   -0.0102    0.0526    0.0006
          45    0.0000   -0.0000    0.0000    0.0000   -0.0000   -0.0000    0.0000    0.0000
          46    0.0053    0.0158   -0.0066    0.1194   -0.0088   -0.0289   -0.0175    0.0049
          47    0.0191    0.0870    0.0276    0.0083    0.0125   -0.0493    0.0334    0.0072
          48   -0.0000    0.0000    0.0000   -0.0000    0.0000   -0.0000   -0.0000   -0.0000
          49   -0.0890   -0.0087    0.0086   -0.0080   -0.0080   -0.0135   -0.0091   -0.0723
          50    0.1211   -0.0004    0.0179    0.0027   -0.0026   -0.0184   -0.0055   -0.1150
          51   -0.0000    0.0000   -0.0000   -0.0000   -0.0000   -0.0000   -0.0000   -0.0000
          52   -0.0484    0.0337   -0.0356    0.0143    0.0037    0.0146    0.0114    0.0146
          53   -0.0312    0.0051   -0.0240    0.0018   -0.0015    0.0203    0.0100    0.1341
          54   -0.0000    0.0000   -0.0000    0.0000    0.0000   -0.0000    0.0000   -0.0000


   Root No.      41        42        43        44        45        46        47        48

                41 A      42 A      43 A      44 A      45 A      46 A      47 A      48 A   

                3054.2    3062.8    3072.5    3080.0    3128.1    3130.9    3141.2    3145.0
  
           1   -0.0003    0.0005    0.0009    0.0000   -0.0001   -0.0001   -0.0004    0.0009
           2   -0.0002    0.0011    0.0016   -0.0010    0.0002   -0.0000    0.0002    0.0012
           3   -0.0000    0.0000    0.0000   -0.0000    0.0000    0.0000    0.0000   -0.0000
           4   -0.0003   -0.0002    0.0008    0.0006   -0.0001   -0.0001    0.0000   -0.0004
           5   -0.0001    0.0005   -0.0010   -0.0019    0.0002    0.0001    0.0001    0.0017
           6    0.0000   -0.0000   -0.0000   -0.0000   -0.0000   -0.0000   -0.0000    0.0000
           7    0.0001   -0.0000   -0.0000    0.0000   -0.0006    0.0055   -0.0020    0.0019
           8    0.0000   -0.0001   -0.0002    0.0001    0.0003   -0.0022    0.0003   -0.0003
           9    0.0000   -0.0000   -0.0000   -0.0000   -0.0000    0.0000   -0.0000    0.0000
          10   -0.0000    0.0000    0.0000   -0.0000    0.0003    0.0001    0.0007    0.0045
          11   -0.0000    0.0000   -0.0000    0.0000   -0.0383   -0.0028   -0.0016   -0.0385
          12    0.0000   -0.0000    0.0000   -0.0000    0.0000   -0.0000    0.0000    0.0000
          13    0.0124   -0.0250   -0.0309    0.0127   -0.0002    0.0014    0.0007   -0.0001
          14    0.0010   -0.0010    0.0003   -0.0004   -0.0000    0.0001    0.0000   -0.0001
          15   -0.0000    0.0000    0.0000   -0.0000    0.0000   -0.0000   -0.0000   -0.0000
          16    0.0000    0.0001   -0.0001   -0.0001    0.0316    0.0046   -0.0025   -0.0431
          17    0.0000   -0.0000    0.0001    0.0001    0.0092    0.0012   -0.0004   -0.0077
          18   -0.0000    0.0000    0.0000    0.0000    0.0000    0.0000   -0.0000   -0.0000
          19    0.0078    0.0136   -0.0245   -0.0323    0.0000    0.0001   -0.0000    0.0002
          20   -0.0008   -0.0011    0.0005   -0.0003   -0.0000   -0.0001   -0.0000   -0.0003
          21    0.0000    0.0000   -0.0000   -0.0000   -0.0000    0.0000    0.0000    0.0000
          22   -0.0143    0.0095   -0.0101    0.0089   -0.0000   -0.0000    0.0000    0.0001
          23   -0.0263    0.0132   -0.0198    0.0146    0.0000    0.0001    0.0001   -0.0000
          24   -0.0000    0.0000   -0.0000    0.0000   -0.0000    0.0000   -0.0000   -0.0000
          25   -0.0135   -0.0128    0.0031   -0.0102    0.0000    0.0000   -0.0000   -0.0000
          26    0.0252    0.0205   -0.0018    0.0188    0.0000   -0.0000    0.0000   -0.0000
          27    0.0000    0.0000   -0.0000    0.0000   -0.0000    0.0000    0.0000    0.0000
          28    0.0002   -0.0005   -0.0007    0.0002    0.0044   -0.0456   -0.0076   -0.0016
          29    0.0002   -0.0003   -0.0005    0.0002   -0.0003   -0.0028   -0.0626    0.0027
          30    0.0000    0.0000   -0.0000   -0.0000    0.0000   -0.0000    0.0000   -0.0000
          31    0.0000    0.0000   -0.0000   -0.0000   -0.0011   -0.0001    0.0006   -0.0032
          32    0.0001   -0.0007    0.0001    0.0002    0.4467    0.0326    0.0159    0.4037
          33   -0.0000   -0.0000   -0.0000    0.0000   -0.0000   -0.0000   -0.0000   -0.0000
          34   -0.1441    0.2884    0.3438   -0.1374    0.0015   -0.0156   -0.0076    0.0003
          35   -0.0026    0.0022    0.0001    0.0004   -0.0000    0.0003    0.0004   -0.0001
          36    0.0000   -0.0000   -0.0000    0.0000    0.0000    0.0000    0.0000    0.0000
          37    0.0000   -0.0007    0.0005    0.0010   -0.3750   -0.0548    0.0264    0.4446
          38   -0.0001   -0.0003    0.0003    0.0006   -0.1041   -0.0151    0.0072    0.1209
          39   -0.0000   -0.0000   -0.0000   -0.0000   -0.0000   -0.0000    0.0000    0.0000
          40    0.1711   -0.0942    0.1204   -0.0905   -0.0001   -0.0001   -0.0004   -0.0003
          41    0.3033   -0.1590    0.2152   -0.1581   -0.0001   -0.0005   -0.0008   -0.0004
          42    0.0000   -0.0000    0.0000   -0.0000   -0.0000   -0.0000    0.0000   -0.0000
          43   -0.0914   -0.1603    0.2796    0.3583    0.0010   -0.0008    0.0003   -0.0015
          44    0.0022    0.0020   -0.0010    0.0001    0.0002    0.0000   -0.0000   -0.0003
          45   -0.0000   -0.0000    0.0000    0.0000   -0.0000    0.0000   -0.0000   -0.0000
          46    0.1627    0.1374   -0.0186    0.1124    0.0002   -0.0003    0.0002    0.0001
          47   -0.2898   -0.2379    0.0268   -0.2001   -0.0003    0.0005   -0.0003   -0.0002
          48   -0.0001   -0.0001    0.0000   -0.0000   -0.0000    0.0000    0.0000   -0.0000
          49   -0.0029    0.0063    0.0084   -0.0029   -0.0404    0.4298    0.2395    0.0040
          50   -0.0021    0.0046    0.0061   -0.0021   -0.0318    0.3386    0.1705    0.0041
          51   -0.0000   -0.0000   -0.0000   -0.0000   -0.0000    0.0000    0.0000    0.0000
          52    0.0000   -0.0001   -0.0001    0.0002   -0.0062    0.0479   -0.1254    0.0067
          53    0.0004   -0.0008   -0.0008   -0.0005    0.0320   -0.2806    0.5692   -0.0351
          54    0.0000    0.0000    0.0000    0.0000   -0.0000    0.0000   -0.0000    0.0000


           MASS-WEIGHTED COORDINATE ANALYSIS (NORMAL COORDINATES)


   Root No.       1         2         3         4         5         6         7         8

                 1 A       2 A       3 A       4 A       5 A       6 A       7 A       8 A   

                 123.8     196.1     272.4     294.0     382.7     478.1     500.4     557.5
  
           1   -0.0001   -0.0000   -0.2001   -0.0002   -0.0000    0.3342   -0.0001   -0.0241
           2   -0.0000    0.0000   -0.0904   -0.0001   -0.0001   -0.0986    0.0000   -0.2240
           3   -0.1943   -0.4178    0.0004   -0.2357   -0.3495    0.0001   -0.1120    0.0000
           4   -0.0000   -0.0000   -0.1854   -0.0001    0.0001    0.3631   -0.0001    0.0183
           5   -0.0000    0.0000   -0.0600   -0.0001    0.0000    0.0819   -0.0001   -0.0221
           6    0.0119   -0.4173   -0.0000    0.1067   -0.2557    0.0001    0.3173    0.0001
           7   -0.0001    0.0000   -0.1189   -0.0002   -0.0000   -0.0811    0.0000    0.0478
           8   -0.0000    0.0000   -0.0219   -0.0000   -0.0001   -0.2810    0.0000   -0.3493
           9   -0.0651   -0.0178    0.0004   -0.4095   -0.2012    0.0001    0.0585   -0.0001
          10   -0.0000   -0.0000   -0.0696   -0.0001   -0.0001   -0.3383    0.0001   -0.0318
          11   -0.0000    0.0000   -0.0822   -0.0001   -0.0001    0.0110   -0.0001   -0.2698
          12   -0.2689    0.4246    0.0003   -0.2627    0.1198   -0.0000    0.0991   -0.0001
          13    0.0000   -0.0000    0.0287    0.0001   -0.0000    0.1332   -0.0001   -0.4030
          14   -0.0000    0.0000   -0.2455   -0.0002   -0.0000    0.0505    0.0001    0.0391
          15   -0.3837   -0.1975    0.0000    0.0433    0.4144   -0.0002   -0.2490    0.0001
          16   -0.0000   -0.0000   -0.1127   -0.0001    0.0000   -0.0904    0.0001    0.0559
          17   -0.0000    0.0000   -0.1070   -0.0001    0.0000    0.3276   -0.0002   -0.1109
          18   -0.1493    0.0051   -0.0005    0.5143   -0.0613   -0.0001   -0.2124    0.0000
          19   -0.0000    0.0000    0.0154    0.0000    0.0000    0.0362    0.0001    0.2837
          20   -0.0000    0.0000    0.0667    0.0001    0.0000   -0.1665    0.0001    0.2317
          21    0.3329   -0.1988    0.0000   -0.1816    0.4121    0.0000    0.2147   -0.0002
          22    0.0001    0.0000    0.2168    0.0002    0.0000   -0.1724    0.0000   -0.0859
          23   -0.0000   -0.0000   -0.1564   -0.0002   -0.0000   -0.0984    0.0000    0.2692
          24   -0.1733    0.3047   -0.0002    0.2659   -0.1187    0.0001    0.3853   -0.0001
          25    0.0001    0.0000    0.2175    0.0002   -0.0000   -0.1806   -0.0000   -0.0600
          26   -0.0001   -0.0001   -0.0387   -0.0000    0.0001   -0.0977    0.0003    0.4650
          27    0.2666    0.3039    0.0001   -0.1766   -0.2091   -0.0001   -0.3719    0.0003
          28   -0.0000    0.0000    0.1166    0.0001    0.0000    0.0762    0.0000    0.1728
          29    0.0002    0.0000    0.6232    0.0007    0.0001    0.1458   -0.0001   -0.0922
          30    0.5278    0.0322   -0.0003    0.1878    0.0383   -0.0001   -0.0078    0.0000
          31   -0.0000   -0.0000   -0.0116   -0.0000   -0.0000   -0.2145    0.0001   -0.0625
          32   -0.0000    0.0000   -0.0233   -0.0000   -0.0000    0.0038   -0.0000   -0.0797
          33   -0.1257    0.2812    0.0002   -0.1480    0.1342   -0.0000    0.0137   -0.0001
          34    0.0000   -0.0000    0.0089    0.0000   -0.0000    0.0383   -0.0000   -0.1157
          35   -0.0000    0.0000   -0.1298   -0.0001   -0.0000    0.1145    0.0000    0.0321
          36   -0.1901   -0.0700   -0.0000    0.0308    0.3730   -0.0002   -0.2165    0.0000
          37   -0.0000   -0.0000   -0.0276   -0.0000   -0.0000   -0.0648    0.0000    0.0146
          38   -0.0000    0.0000   -0.0498   -0.0000    0.0000    0.2340   -0.0001   -0.0283
          39   -0.0547    0.0253   -0.0004    0.3670    0.0124   -0.0001   -0.2715    0.0000
          40    0.0000    0.0000    0.0969    0.0001    0.0000   -0.0921    0.0001    0.0581
          41   -0.0000   -0.0000   -0.0651   -0.0001   -0.0000   -0.0040   -0.0000    0.0315
          42   -0.0931    0.2104   -0.0002    0.1970   -0.0928    0.0001    0.3467   -0.0001
          43    0.0000    0.0000    0.0048    0.0000    0.0000    0.0106    0.0000    0.0810
          44   -0.0000    0.0000    0.0826    0.0001   -0.0001   -0.1608    0.0001    0.0662
          45    0.1780   -0.0709   -0.0000   -0.0958    0.3708   -0.0000    0.1028   -0.0002
          46    0.0001    0.0000    0.0992    0.0001    0.0000   -0.0773   -0.0000   -0.0488
          47   -0.0000   -0.0001    0.0095    0.0000    0.0001   -0.0436    0.0001    0.1174
          48    0.1538    0.2100    0.0001   -0.1184   -0.1646   -0.0001   -0.3695    0.0002
          49   -0.0000    0.0000   -0.0833   -0.0001   -0.0000   -0.0947    0.0000   -0.0246
          50    0.0001    0.0000    0.3380    0.0004    0.0001    0.2009   -0.0001    0.0750
          51    0.2349   -0.1020   -0.0003    0.1664   -0.0478   -0.0003   -0.1632   -0.0002
          52    0.0001   -0.0000    0.2291    0.0002    0.0001    0.2179   -0.0001    0.1884
          53    0.0001    0.0000    0.2250    0.0003    0.0001    0.0879   -0.0000    0.0038
          54    0.2266    0.1325   -0.0001    0.1119    0.1426    0.0002    0.1370    0.0002


   Root No.       9        10        11        12        13        14        15        16

                 9 A      10 A      11 A      12 A      13 A      14 A      15 A      16 A   

                 568.4     613.3     627.2     736.2     740.6     784.8     830.1     831.4
  
           1    0.0819   -0.0000   -0.0001    0.0496   -0.0001    0.0000    0.0712    0.0000
           2    0.1802    0.0001    0.0000    0.0628    0.0000    0.0000   -0.1048    0.0000
           3    0.0000    0.0026   -0.1844   -0.0001    0.4651    0.2663    0.0001   -0.1704
           4    0.1277   -0.0001   -0.0000    0.0940   -0.0000    0.0000    0.1684    0.0000
           5   -0.2637    0.0001    0.0000    0.2187    0.0000    0.0001   -0.1260   -0.0000
           6    0.0001    0.2989   -0.2160    0.0000   -0.3989    0.0737   -0.0000    0.2292
           7   -0.2795    0.0001   -0.0000   -0.2786   -0.0001   -0.0001   -0.0389   -0.0000
           8    0.0798    0.0001    0.0000   -0.0448    0.0000   -0.0001    0.2537    0.0000
           9   -0.0001   -0.2389    0.5902    0.0000   -0.0586   -0.1439   -0.0001    0.2517
          10   -0.1014    0.0001    0.0000    0.1599    0.0001    0.0000    0.0291    0.0000
          11   -0.2359    0.0002   -0.0001   -0.4183   -0.0001   -0.0001    0.1595   -0.0000
          12    0.0001    0.0226   -0.2121    0.0002   -0.1664   -0.0258    0.0001   -0.2821
          13    0.0530    0.0001   -0.0000    0.2214    0.0001    0.0001   -0.0334    0.0000
          14    0.3196   -0.0001    0.0000   -0.0280   -0.0000    0.0000   -0.2149    0.0000
          15    0.0001    0.1475   -0.0449    0.0000    0.0054   -0.0933   -0.0000   -0.1207
          16   -0.0870    0.0000    0.0001    0.4752    0.0001    0.0002   -0.1321   -0.0000
          17   -0.2685    0.0001   -0.0000   -0.0268   -0.0000    0.0000   -0.0583   -0.0001
          18   -0.0001   -0.0364    0.2163   -0.0000   -0.0747   -0.0312    0.0000   -0.2563
          19    0.3053   -0.0003   -0.0000   -0.1664   -0.0000   -0.0001    0.4599    0.0001
          20   -0.2198    0.0000    0.0001    0.1933    0.0001    0.0000   -0.0340   -0.0000
          21   -0.0001   -0.1258   -0.0055    0.0000    0.0757   -0.1228   -0.0001    0.1243
          22    0.1334   -0.0000    0.0001   -0.0888    0.0000   -0.0000   -0.2179   -0.0000
          23    0.3765   -0.0002   -0.0000   -0.2194   -0.0001   -0.0000   -0.3272   -0.0001
          24   -0.0000   -0.1140    0.0037   -0.0000    0.1329   -0.2094   -0.0001   -0.0916
          25    0.1363   -0.0000    0.0000   -0.1368   -0.0000   -0.0000   -0.1759   -0.0000
          26   -0.1124   -0.0002   -0.0000    0.1654    0.0001    0.0001    0.3204    0.0001
          27    0.0000    0.1449   -0.0398    0.0002   -0.0422   -0.2401    0.0001    0.0514
          28   -0.3225    0.0000   -0.0000   -0.3355   -0.0001   -0.0001   -0.1269   -0.0001
          29    0.1240   -0.0001    0.0000    0.0693    0.0000   -0.0000    0.2238    0.0000
          30   -0.0000    0.0136   -0.0393   -0.0001    0.0018   -0.0053    0.0000    0.0271
          31    0.0416    0.0000    0.0001    0.0625    0.0000    0.0000    0.1388    0.0000
          32   -0.0683    0.0001   -0.0000   -0.1228   -0.0000   -0.0000    0.0487    0.0000
          33   -0.0000   -0.0557   -0.4943   -0.0001    0.2071    0.1264   -0.0001    0.4507
          34    0.0160    0.0000    0.0000    0.0643    0.0000    0.0000   -0.0106    0.0000
          35    0.0981   -0.0001   -0.0000    0.0393   -0.0000    0.0000   -0.0305    0.0000
          36    0.0000    0.0450    0.1160    0.0000   -0.3945    0.1891    0.0001    0.3188
          37   -0.0344    0.0000    0.0000    0.1361    0.0000    0.0001   -0.0405   -0.0000
          38   -0.0435   -0.0000   -0.0000    0.0069   -0.0000   -0.0000   -0.0055   -0.0000
          39   -0.0001   -0.1404    0.0886   -0.0001    0.4242   -0.0034   -0.0001    0.4696
          40   -0.0177   -0.0000    0.0000   -0.0253   -0.0000    0.0000    0.0446    0.0000
          41    0.1414   -0.0000   -0.0000   -0.0632    0.0000   -0.0001   -0.1592   -0.0001
          42   -0.0001   -0.1951    0.1082   -0.0002   -0.0776    0.5348   -0.0000    0.1430
          43    0.0885   -0.0001   -0.0000   -0.0485   -0.0000   -0.0000    0.1354    0.0000
          44   -0.0681    0.0001    0.0000    0.0293   -0.0000   -0.0000   -0.1517    0.0000
          45   -0.0001   -0.2528    0.1625   -0.0002    0.1846    0.3523    0.0001   -0.3117
          46   -0.0577    0.0001    0.0000    0.0461    0.0000    0.0001   -0.0718    0.0000
          47   -0.0876   -0.0000   -0.0000    0.0979    0.0001   -0.0001    0.0803    0.0001
          48    0.0000    0.0839    0.0643   -0.0001   -0.1763    0.5447    0.0000   -0.0617
          49   -0.1126    0.0001    0.0000   -0.1460    0.0000   -0.0001    0.0885    0.0000
          50    0.0589   -0.0001   -0.0000    0.0797   -0.0000    0.0000   -0.1080   -0.0000
          51   -0.0002   -0.5059   -0.3921    0.0001   -0.2177   -0.0356   -0.0000   -0.1355
          52   -0.0866   -0.0001   -0.0001   -0.0683   -0.0001   -0.0000   -0.2970   -0.0000
          53    0.0392   -0.0000   -0.0000    0.0293    0.0000    0.0000    0.0080    0.0000
          54    0.0002    0.6247    0.1112   -0.0001    0.2562    0.1271    0.0000   -0.0533


   Root No.      17        18        19        20        21        22        23        24

                17 A      18 A      19 A      20 A      21 A      22 A      23 A      24 A   

                 907.4     913.2     946.9     956.0     979.9    1009.7    1026.2    1078.6
  
           1   -0.0003    0.1252    0.0412   -0.0000   -0.0000    0.0000   -0.0000   -0.0444
           2   -0.0002    0.1288    0.0507    0.0000    0.0000    0.0000    0.0001    0.0344
           3    0.3039    0.0006   -0.0002    0.1431    0.0282    0.1315   -0.0967    0.0000
           4    0.0002   -0.1246   -0.0481   -0.0001    0.0000   -0.0000   -0.0000    0.0426
           5    0.0002   -0.0761   -0.0045    0.0000    0.0000    0.0000   -0.0000   -0.0127
           6   -0.2944   -0.0006    0.0001    0.0355    0.1723   -0.1641    0.0175    0.0000
           7   -0.0001    0.0468    0.0831    0.0001    0.0000    0.0000    0.0000    0.0472
           8    0.0001   -0.0314   -0.0649   -0.0001    0.0001    0.0000    0.0000    0.0690
           9   -0.1595   -0.0003   -0.0001   -0.0087   -0.0554    0.0073    0.2712    0.0000
          10    0.0000   -0.0244   -0.2433   -0.0003    0.0001   -0.0000   -0.0000   -0.0512
          11   -0.0002    0.1157   -0.3410   -0.0005    0.0001   -0.0000   -0.0001   -0.1670
          12    0.1616    0.0002    0.0005   -0.1767    0.3668   -0.0706   -0.1298   -0.0001
          13   -0.0009    0.4331    0.2388    0.0002   -0.0001   -0.0000    0.0000   -0.0078
          14   -0.0002    0.1120    0.1171    0.0001   -0.0001   -0.0000   -0.0000    0.0339
          15   -0.2368   -0.0006    0.0004   -0.3424   -0.1697   -0.2652    0.0799    0.0000
          16    0.0006   -0.3422   -0.1359    0.0000    0.0000   -0.0000    0.0000   -0.1318
          17    0.0006   -0.3070   -0.1518   -0.0001    0.0001   -0.0000    0.0000   -0.0994
          18    0.0649    0.0002   -0.0004    0.1615   -0.4128    0.1152    0.0620    0.0001
          19    0.0000   -0.0106   -0.1279   -0.0002    0.0000    0.0000    0.0000   -0.0954
          20   -0.0003    0.1284    0.1083    0.0001   -0.0001   -0.0001   -0.0000    0.0324
          21    0.2693    0.0004    0.0003   -0.3124   -0.1365    0.2969   -0.0170   -0.0000
          22    0.0002   -0.1148   -0.0084    0.0001    0.0000    0.0000   -0.0000    0.0306
          23    0.0004   -0.1593   -0.0135    0.0001    0.0000   -0.0000    0.0000   -0.0014
          24   -0.2024   -0.0003   -0.0002    0.1623    0.1637    0.3806   -0.0549   -0.0000
          25    0.0003   -0.1196   -0.0475    0.0000    0.0000   -0.0000   -0.0000   -0.0308
          26   -0.0005    0.2210    0.0654   -0.0001   -0.0000    0.0001    0.0000    0.0213
          27    0.1738    0.0005   -0.0003    0.2375   -0.0175   -0.3946    0.0358    0.0001
          28   -0.0000    0.0396    0.3093    0.0004   -0.0001    0.0000    0.0000    0.0650
          29    0.0004   -0.2243    0.2633    0.0004   -0.0002    0.0000    0.0000   -0.0766
          30   -0.0485   -0.0001    0.0000   -0.0001   -0.1077   -0.0536   -0.4926   -0.0000
          31   -0.0003    0.1353   -0.2092   -0.0004    0.0001    0.0000   -0.0001    0.6025
          32   -0.0001    0.0326   -0.1035   -0.0002    0.0000   -0.0000   -0.0000   -0.0475
          33   -0.2515   -0.0004   -0.0005    0.2343   -0.4184    0.0654    0.1265    0.0001
          34   -0.0002    0.1289    0.0710    0.0001   -0.0000    0.0000    0.0000   -0.0020
          35   -0.0004    0.2099    0.1126    0.0001   -0.0002    0.0000   -0.0000   -0.0648
          36    0.3190    0.0008   -0.0005    0.4499    0.2146    0.2511   -0.0862   -0.0000
          37    0.0001   -0.0462   -0.0666   -0.0000   -0.0000   -0.0000    0.0000   -0.2331
          38    0.0006   -0.2952    0.0387    0.0002    0.0001    0.0000   -0.0000    0.6717
          39   -0.0525   -0.0002    0.0005   -0.2210    0.4871   -0.1169   -0.0505   -0.0001
          40    0.0002   -0.1057   -0.0822   -0.0002    0.0000    0.0000    0.0000    0.0492
          41   -0.0000   -0.0035    0.0435    0.0002    0.0000    0.0000   -0.0000   -0.0226
          42    0.3704    0.0006    0.0002   -0.2102   -0.1977   -0.3795    0.0500    0.0000
          43    0.0000   -0.0040   -0.0387   -0.0001    0.0000    0.0000    0.0000   -0.0295
          44   -0.0002    0.1108    0.1106    0.0001   -0.0001    0.0000   -0.0001   -0.0219
          45   -0.3608   -0.0005   -0.0004    0.4093    0.1817   -0.2898    0.0044    0.0000
          46   -0.0001    0.0410    0.0539   -0.0000   -0.0001    0.0000   -0.0000    0.0931
          47   -0.0001    0.1109    0.0601    0.0001   -0.0000   -0.0001    0.0000    0.0648
          48   -0.3283   -0.0007    0.0005   -0.3202    0.0230    0.3968   -0.0304   -0.0000
          49    0.0003   -0.1455    0.3993    0.0006   -0.0002    0.0000    0.0001    0.0086
          50   -0.0003    0.1506   -0.3354   -0.0005    0.0002   -0.0000   -0.0001   -0.0031
          51    0.0696    0.0001    0.0001   -0.0361    0.1760    0.0460    0.5556   -0.0000
          52   -0.0006    0.3114   -0.3392   -0.0006    0.0002   -0.0001   -0.0000    0.1185
          53   -0.0000    0.0022   -0.0260   -0.0000    0.0000   -0.0000    0.0001   -0.0030
          54    0.1235    0.0003   -0.0001    0.0399    0.1157    0.0842    0.5517    0.0000


   Root No.      25        26        27        28        29        30        31        32

                25 A      26 A      27 A      28 A      29 A      30 A      31 A      32 A   

                1081.1    1105.7    1137.1    1152.3    1192.2    1264.0    1325.5    1336.2
  
           1    0.1456   -0.1633    0.2196    0.0514   -0.2400   -0.2053   -0.0177    0.2924
           2   -0.1742    0.0912   -0.2372    0.0411   -0.0605    0.2185   -0.0282   -0.1726
           3   -0.0000   -0.0000   -0.0000    0.0000   -0.0000    0.0000    0.0000    0.0000
           4    0.0250   -0.0996    0.1035   -0.0626   -0.2171    0.1002    0.3447    0.1454
           5   -0.0171   -0.0758    0.1857   -0.0023    0.0820    0.1065    0.1986    0.1199
           6    0.0000   -0.0000    0.0000   -0.0000    0.0000    0.0000    0.0000   -0.0000
           7   -0.0351    0.0308   -0.1092    0.0099   -0.0138   -0.0755    0.2302   -0.0458
           8   -0.0274    0.0620   -0.2476    0.0220   -0.0555    0.0880    0.2869    0.3496
           9    0.0000    0.0000    0.0000   -0.0000    0.0000   -0.0000    0.0000    0.0000
          10    0.0422    0.0378   -0.0492   -0.0095    0.0370   -0.2734   -0.1174    0.0569
          11    0.0733   -0.0457    0.0846   -0.0327   -0.0193   -0.1874   -0.1646   -0.0180
          12    0.0000   -0.0000    0.0000    0.0000    0.0000   -0.0000   -0.0000   -0.0000
          13   -0.2489    0.1485    0.0391    0.0675    0.0655   -0.1198   -0.2261   -0.1356
          14    0.0048   -0.0585   -0.0961   -0.0064   -0.1320    0.1673    0.1510   -0.2232
          15    0.0000    0.0000   -0.0000   -0.0000    0.0000    0.0000   -0.0000   -0.0000
          16    0.0110    0.1019   -0.1158    0.0045    0.0501    0.0436   -0.1646   -0.0686
          17    0.0499    0.0589    0.0457   -0.0114    0.0715    0.2279   -0.2123   -0.2555
          18   -0.0001    0.0000   -0.0000   -0.0000   -0.0000    0.0000    0.0000    0.0000
          19    0.0558    0.2958   -0.1513   -0.0691    0.1000    0.2220   -0.0383   -0.2005
          20    0.0161    0.0485    0.0834   -0.0343    0.1402    0.0636    0.3577    0.0296
          21   -0.0000    0.0001    0.0000    0.0000    0.0000   -0.0000    0.0000    0.0000
          22   -0.1323   -0.1103    0.0779    0.0427    0.1362   -0.0745    0.1362    0.0551
          23   -0.1300   -0.0971    0.1860    0.0215   -0.0682   -0.2103   -0.2334    0.0529
          24    0.0000   -0.0001    0.0000   -0.0000   -0.0000    0.0000   -0.0000    0.0000
          25    0.1857   -0.0359   -0.0069   -0.0594    0.1550    0.0112    0.0091    0.1227
          26   -0.2213   -0.0409   -0.0049    0.0338    0.0291   -0.2074   -0.1920    0.0965
          27   -0.0001   -0.0001   -0.0000    0.0000   -0.0000   -0.0000   -0.0000    0.0000
          28   -0.0668    0.0100   -0.0050    0.0109    0.0387    0.0353    0.0921   -0.2369
          29    0.0701   -0.0621    0.1409   -0.0096   -0.0090   -0.0347   -0.1083    0.0350
          30   -0.0001    0.0000   -0.0000    0.0000    0.0000    0.0000   -0.0000    0.0000
          31    0.1533   -0.1307    0.5287   -0.0168    0.0898    0.2653   -0.0992   -0.2114
          32    0.0230   -0.0134    0.0261   -0.0100   -0.0058   -0.0548   -0.0521   -0.0054
          33   -0.0000    0.0000    0.0000   -0.0000   -0.0000    0.0000    0.0000    0.0000
[...]
 FREQ.      1137.14         C  4 -- H 11         +15.3% ( 52.8%)      1.2%
 T-DIPOLE    0.0379         C  1 -- C  2          +9.3% ( 41.1%)      7.0%
 TRAVEL      0.1103         C  1 -- C  3          +8.0% ( 38.2%)      7.4%
 RED. MASS   0.3710         C  6 -- H 13          +6.9% ( 35.5%)      3.1%
 EFF. MASS   4.8714

 VIBRATION   28   28A         ATOM PAIR      ENERGY CONTRIBUTION    RADIAL
 FREQ.      1152.29         C  8 -- H 14         +44.1% ( 67.4%)      0.2%
 T-DIPOLE    0.0100         C  9 -- H 16         +34.2% ( 59.3%)      0.5%
 TRAVEL      0.2050         C  7 -- H 15          +6.5% ( 25.9%)      2.4%
 RED. MASS   0.3745         C  5 -- H 12          +5.9% ( 24.6%)      2.9%
 EFF. MASS   1.3927

 VIBRATION   29   29A         ATOM PAIR      ENERGY CONTRIBUTION    RADIAL
 FREQ.      1192.23         C  5 -- H 12         +21.0% ( 57.2%)      0.5%
 T-DIPOLE    0.0694         C  7 -- H 15         +17.3% ( 51.9%)      1.2%
 TRAVEL      0.1404         C  9 -- H 16          +9.7% ( 38.9%)      0.5%
 RED. MASS   0.2884         C  8 -- H 14          +8.2% ( 35.8%)      0.0%
 EFF. MASS   2.8707

 VIBRATION   30   30A         ATOM PAIR      ENERGY CONTRIBUTION    RADIAL
 FREQ.      1264.03         C  4 -- H 11          +8.6% ( 40.2%)      5.3%
 T-DIPOLE    0.1775         C  6 -- H 13          +8.3% ( 39.5%)      1.6%
 TRAVEL      0.0906         C  4 -- C  6          +7.7% ( 38.0%)      0.0%
 RED. MASS   0.4577         C  7 -- C  9          +7.2% ( 36.9%)     98.6%
 EFF. MASS   6.4962

 VIBRATION   31   31A         ATOM PAIR      ENERGY CONTRIBUTION    RADIAL
 FREQ.      1325.54         C  2 -- C  6         +10.8% ( 51.4%)     70.3%
 T-DIPOLE    0.2867         C  2 -- C  7          +9.6% ( 48.5%)     64.4%
 TRAVEL      0.0736         C  7 -- C  9          +8.7% ( 46.2%)     65.4%
 RED. MASS   0.9780         C  5 -- C  8          +8.6% ( 46.0%)     95.5%
 EFF. MASS   9.4021

 VIBRATION   32   32A         ATOM PAIR      ENERGY CONTRIBUTION    RADIAL
 FREQ.      1336.19         C  1 -- C  3         +14.3% ( 51.3%)     93.0%
 T-DIPOLE    0.1840         C 10 -- H 18         +13.0% ( 49.0%)      0.9%
 TRAVEL      0.0857         C 10 -- H 17          +8.8% ( 40.3%)      5.6%
 RED. MASS   0.6143         C  1 -- C  5          +8.5% ( 39.7%)     37.2%
 EFF. MASS   6.8791

 VIBRATION   33   33A         ATOM PAIR      ENERGY CONTRIBUTION    RADIAL
 FREQ.      1374.50         C  3 -- C  4         +15.0% ( 63.9%)     90.3%
 T-DIPOLE    0.3836         C  4 -- C  6          +7.7% ( 45.9%)      0.1%
 TRAVEL      0.0672         C  2 -- C  4          +7.6% ( 45.6%)     61.7%
 RED. MASS   1.4017         C  7 -- C  9          +7.6% ( 45.4%)     99.2%
 EFF. MASS  10.8492

 VIBRATION   34   34A         ATOM PAIR      ENERGY CONTRIBUTION    RADIAL
 FREQ.      1464.82         C  8 -- C  9         +22.4% ( 76.7%)    100.0%
 T-DIPOLE    0.5193         C  1 -- C  2         +11.0% ( 53.7%)     99.7%
 TRAVEL      0.0648         C  7 -- C  9          +7.1% ( 43.2%)      1.6%
 RED. MASS   1.8704         C  5 -- C  8          +7.1% ( 43.2%)      2.7%
 EFF. MASS  10.9665

 VIBRATION   35   35A         ATOM PAIR      ENERGY CONTRIBUTION    RADIAL
 FREQ.      1577.01         C  1 -- C  2         +18.6% ( 67.1%)     99.6%
 T-DIPOLE    1.2126         C  2 -- C  7         +13.6% ( 57.3%)     19.8%
 TRAVEL      0.0610         C  1 -- C  5         +12.9% ( 55.8%)     35.9%
 RED. MASS   2.3892         C  2 -- C  6         +11.5% ( 52.7%)     86.4%
 EFF. MASS  11.5063

 VIBRATION   36   36A         ATOM PAIR      ENERGY CONTRIBUTION    RADIAL
 FREQ.      1591.89         C  5 -- C  8         +15.8% ( 60.6%)     98.6%
 T-DIPOLE    0.3305         C  8 -- C  9         +13.0% ( 54.9%)      0.0%
 TRAVEL      0.0608         C  7 -- C  9         +12.6% ( 54.1%)     95.5%
 RED. MASS   1.7879         C  1 -- C  2          +8.2% ( 43.8%)      3.9%
 EFF. MASS  11.4533

 VIBRATION   37   37A         ATOM PAIR      ENERGY CONTRIBUTION    RADIAL
 FREQ.      1754.39         C  4 -- C  6         +39.5% ( 99.9%)    100.0%
 T-DIPOLE    0.3180         C  2 -- C  4         +12.3% ( 55.9%)     62.4%
 TRAVEL      0.0567         C  3 -- C  4         +12.3% ( 55.8%)     18.3%
 RED. MASS   5.1408         C  2 -- C  6         +11.5% ( 53.9%)      9.2%
 EFF. MASS  11.9508         C  4 -- H 11         +11.5% ( 53.9%)     12.0%
                            C  6 -- H 13         +10.8% ( 52.3%)     13.9%

 VIBRATION   38   38A         ATOM PAIR      ENERGY CONTRIBUTION    RADIAL
 FREQ.      1801.84         C  1 -- C  2         +15.0% ( 56.2%)     99.6%
 T-DIPOLE    0.1675         C  8 -- C  9         +13.7% ( 53.8%)     99.8%
 TRAVEL      0.0561         C  1 -- C  5         +12.6% ( 51.4%)     83.5%
 RED. MASS   2.1223         C  2 -- C  7          +8.8% ( 43.1%)     74.1%
 EFF. MASS  11.8746

 VIBRATION   39   39A         ATOM PAIR      ENERGY CONTRIBUTION    RADIAL
 FREQ.      1830.52         C  2 -- C  7         +18.7% ( 64.3%)     94.0%
 T-DIPOLE    0.3039         C  1 -- C  5         +15.5% ( 58.6%)     89.5%
 TRAVEL      0.0556         C  1 -- C  2         +14.5% ( 56.7%)      0.4%
 RED. MASS   2.5047         C  2 -- C  6          +8.6% ( 43.8%)     62.9%
 EFF. MASS  11.9192

 VIBRATION   40   40A         ATOM PAIR      ENERGY CONTRIBUTION    RADIAL
 FREQ.      1915.55         C  3 -- C 10         +41.8% ( 96.3%)    100.0%
 T-DIPOLE    0.9575         C  1 -- C  3         +20.0% ( 66.7%)     60.2%
 TRAVEL      0.0544         C  3 -- C  4         +18.7% ( 64.4%)     40.3%
 RED. MASS   5.4749         C 10 -- H 17          +7.8% ( 41.6%)     11.1%
 EFF. MASS  11.9126

 VIBRATION   41   41A         ATOM PAIR      ENERGY CONTRIBUTION    RADIAL
 FREQ.      3054.16         C  8 -- H 14         +45.2% ( 68.4%)    100.0%
 T-DIPOLE    0.0765         C  9 -- H 16         +41.2% ( 65.3%)    100.0%
 TRAVEL      0.1216         C  5 -- H 12          +7.8% ( 28.3%)     99.9%
 RED. MASS   0.3746         C  7 -- H 15          +3.1% ( 18.0%)     99.8%
 EFF. MASS   1.4924

 VIBRATION   42   42A         ATOM PAIR      ENERGY CONTRIBUTION    RADIAL
 FREQ.      3062.76         C  5 -- H 12         +36.9% ( 61.8%)    100.0%
 T-DIPOLE    0.3002         C  9 -- H 16         +33.5% ( 58.8%)    100.0%
 TRAVEL      0.1208         C  8 -- H 14         +15.2% ( 39.6%)     99.9%
 RED. MASS   0.2812         C  7 -- H 15         +11.4% ( 34.3%)     99.9%
 EFF. MASS   1.5079

 VIBRATION   43   43A         ATOM PAIR      ENERGY CONTRIBUTION    RADIAL
 FREQ.      3072.53         C  5 -- H 12         +44.3% ( 67.6%)    100.0%
 T-DIPOLE    0.5085         C  7 -- H 15         +29.3% ( 54.9%)    100.0%
 TRAVEL      0.1192         C  8 -- H 14         +22.7% ( 48.4%)    100.0%
 RED. MASS   0.3316         C  5 -- C  8          +1.2% ( 11.0%)     93.5%
 EFF. MASS   1.5441

 VIBRATION   44   44A         ATOM PAIR      ENERGY CONTRIBUTION    RADIAL
 FREQ.      3080.04         C  7 -- H 15         +53.2% ( 74.0%)    100.0%
 T-DIPOLE    0.3936         C  9 -- H 16         +21.8% ( 47.3%)    100.0%
 TRAVEL      0.1177         C  8 -- H 14         +13.7% ( 37.6%)    100.0%
 RED. MASS   0.3540         C  5 -- H 12          +7.8% ( 28.4%)    100.0%
 EFF. MASS   1.5795

 VIBRATION   45   45A         ATOM PAIR      ENERGY CONTRIBUTION    RADIAL
 FREQ.      3128.14         C  4 -- H 11         +54.3% ( 75.2%)    100.0%
 T-DIPOLE    0.4195         C  6 -- H 13         +41.2% ( 65.5%)    100.0%
 TRAVEL      0.1208         C  4 -- C  6          +1.2% ( 11.1%)      0.4%
 RED. MASS   0.4642         C  2 -- C  4          +0.9% (  9.5%)     93.2%
 EFF. MASS   1.4775

 VIBRATION   46   46A         ATOM PAIR      ENERGY CONTRIBUTION    RADIAL
 FREQ.      3130.85         C 10 -- H 17         +77.0% ( 88.0%)     98.6%
 T-DIPOLE    0.2726         C 10 -- H 18         +20.2% ( 45.1%)     82.2%
 TRAVEL      0.1237         C  3 -- C 10          +1.5% ( 12.2%)     87.3%
 RED. MASS   0.6191         C  6 -- H 13          +0.9% (  9.3%)    100.0%
 EFF. MASS   1.4085

 VIBRATION   47   47A         ATOM PAIR      ENERGY CONTRIBUTION    RADIAL
 FREQ.      3141.22         C 10 -- H 18         +76.6% ( 89.5%)     99.2%
 T-DIPOLE    0.2551         C 10 -- H 17         +21.8% ( 47.7%)     90.3%
 TRAVEL      0.1163         C  3 -- C 10          +1.3% ( 11.7%)      6.9%
 RED. MASS   0.6693         C  6 -- H 13          +0.2% (  4.2%)     99.9%
 EFF. MASS   1.5876

 VIBRATION   48   48A         ATOM PAIR      ENERGY CONTRIBUTION    RADIAL
 FREQ.      3145.02         C  6 -- H 13         +53.4% ( 74.8%)    100.0%
 T-DIPOLE    0.4244         C  4 -- H 11         +41.0% ( 65.6%)     99.9%
 TRAVEL      0.1140         C  4 -- C  6          +2.4% ( 15.9%)     99.5%
 RED. MASS   0.4721         C  2 -- C  6          +1.1% ( 10.6%)     25.6%
 EFF. MASS   1.6506

      SYMMETRY NUMBER FOR POINT-GROUP C1  =  1


          SYSTEM IS A GROUND STATE



 InChI=1S/C10H8/c1-8-6-7-9-4-2-3-5-10(8)9/h2-7H,1H2


          MOLECULE IS NOT LINEAR

          THERE ARE 48 GENUINE VIBRATIONS IN THIS SYSTEM
          THIS THERMODYNAMICS CALCULATION IS LIMITED TO
          MOLECULES WHICH HAVE NO INTERNAL ROTATIONS




                    CALCULATED THERMODYNAMIC PROPERTIES
                                          *
   TEMP. (K)   PARTITION FUNCTION   H.O.F.    ENTHALPY  HEAT CAPACITY ENTROPY
                                   KCAL/MOL   CAL/MOLE    CAL/K/MOL  CAL/K/MOL


 298.00  VIB.     0.1503D+02                  2826.3114    24.1808    14.8695
         ROT.     0.4882D+06                   888.2813     2.9808    29.0100
         INT.     0.7336D+07                  3714.5927    27.1617    43.8795
         TRA.     0.1403D+28                  1480.4688     4.9680    40.4556
         TOT.                       64.128    5195.0615    32.1297    84.3352

 200.00  VIB.     0.3673D+01                   996.9617    13.2779     7.5703
         ROT.     0.2684D+06                   596.1620     2.9808    27.8213
         INT.     0.9859D+06                  1593.1236    16.2587    35.3916
         TRA.     0.7713D+27                   993.6033     4.9680    38.4745
         TOT.                       61.519    2586.7269    21.2268    73.8661

 210.00  VIB.     0.4173D+01                  1135.0214    14.3377     8.2437
         ROT.     0.2888D+06                   625.9700     2.9808    27.9668
         INT.     0.1205D+07                  1760.9915    17.3185    36.2104
         TRA.     0.8299D+27                  1043.2834     4.9680    38.7169
         TOT.                       61.737    2804.2749    22.2865    74.9273

 220.00  VIB.     0.4759D+01                  1283.7847    15.4181     8.9355
         ROT.     0.3096D+06                   655.7781     2.9808    28.1054
         INT.     0.1474D+07                  1939.5628    18.3989    37.0409
         TRA.     0.8899D+27                  1092.9636     4.9680    38.9480
         TOT.                       61.965    3032.5264    23.3669    75.9889

 230.00  VIB.     0.5449D+01                  1443.4402    16.5156     9.6450
         ROT.     0.3310D+06                   685.5862     2.9808    28.2379
         INT.     0.1804D+07                  2129.0265    19.4964    37.8829
         TRA.     0.9512D+27                  1142.6437     4.9680    39.1689
         TOT.                       62.204    3271.6702    24.4644    77.0518

 240.00  VIB.     0.6263D+01                  1614.1431    17.6270    10.3714
         ROT.     0.3528D+06                   715.3943     2.9808    28.3648
         INT.     0.2210D+07                  2329.5374    20.6078    38.7361
         TRA.     0.1014D+28                  1192.3239     4.9680    39.3803
         TOT.                       62.454    3521.8613    25.5758    78.1164

 250.00  VIB.     0.7224D+01                  1796.0143    18.7487    11.1136
         ROT.     0.3751D+06                   745.2024     2.9808    28.4865
         INT.     0.2710D+07                  2541.2167    21.7296    39.6001
         TRA.     0.1078D+28                  1242.0041     4.9680    39.5831
         TOT.                       62.716    3783.2208    26.6976    79.1832

 260.00  VIB.     0.8363D+01                  1989.1419    19.8777    11.8710
         ROT.     0.3978D+06                   775.0105     2.9808    28.6034
         INT.     0.3327D+07                  2764.1525    22.8585    40.4743
         TRA.     0.1143D+28                  1291.6842     4.9680    39.7779
         TOT.                       62.988    4055.8367    27.8265    80.2523

 270.00  VIB.     0.9714D+01                  2193.5821    21.0107    12.6424
         ROT.     0.4210D+06                   804.8186     2.9808    28.7159
         INT.     0.4089D+07                  2998.4007    23.9916    41.3583
         TRA.     0.1210D+28                  1341.3644     4.9680    39.9654
         TOT.                       63.272    4339.7651    28.9596    81.3237

 280.00  VIB.     0.1132D+02                  2409.3607    22.1449    13.4270
         ROT.     0.4446D+06                   834.6267     2.9808    28.8243
         INT.     0.5033D+07                  3243.9875    25.1257    42.2513
         TRA.     0.1278D+28                  1391.0445     4.9680    40.1461
         TOT.                       63.568    4635.0320    30.0938    82.3974

 290.00  VIB.     0.1323D+02                  2636.4756    23.2776    14.2239
         ROT.     0.4686D+06                   864.4348     2.9808    28.9289
         INT.     0.6202D+07                  3500.9104    26.2584    43.1527
         TRA.     0.1347D+28                  1440.7247     4.9680    40.3205
         TOT.                       63.874    4941.6351    31.2264    83.4732

 300.00  VIB.     0.1552D+02                  2874.8984    24.4061    15.0320
         ROT.     0.4931D+06                   894.2429     2.9808    29.0299
         INT.     0.7652D+07                  3769.1413    27.3869    44.0620
         TRA.     0.1417D+28                  1490.4049     4.9680    40.4889
         TOT.                       64.192    5259.5462    32.3550    84.5508

 310.00  VIB.     0.1825D+02                  3124.5770    25.5284    15.8506
         ROT.     0.5179D+06                   924.0510     2.9808    29.1277
         INT.     0.9453D+07                  4048.6281    28.5092    44.9783
         TRA.     0.1488D+28                  1540.0850     4.9680    40.6518
         TOT.                       64.521    5588.7131    33.4772    85.6301

 320.00  VIB.     0.2153D+02                  3385.4381    26.6423    16.6787
         ROT.     0.5432D+06                   953.8591     2.9808    29.2223
         INT.     0.1169D+08                  4339.2972    29.6231    45.9010
         TRA.     0.1561D+28                  1589.7652     4.9680    40.8095
         TOT.                       64.862    5929.0624    34.5911    86.7106

 330.00  VIB.     0.2546D+02                  3657.3890    27.7461    17.5155
         ROT.     0.5689D+06                   983.6672     2.9808    29.3140
         INT.     0.1448D+08                  4641.0562    30.7269    46.8295
         TRA.     0.1635D+28                  1639.4454     4.9680    40.9624
         TOT.                       65.213    6280.5016    35.6949    87.7919

 340.00  VIB.     0.3018D+02                  3940.3201    28.8381    18.3600
         ROT.     0.5949D+06                  1013.4753     2.9808    29.4030
         INT.     0.1796D+08                  4953.7954    31.8189    47.7631
         TRA.     0.1710D+28                  1689.1255     4.9680    41.1107
         TOT.                       65.575    6642.9210    36.7869    88.8738

 350.00  VIB.     0.3587D+02                  4234.1073    29.9170    19.2116
         ROT.     0.6213D+06                  1043.2834     2.9808    29.4894
         INT.     0.2229D+08                  5277.3907    32.8979    48.7010
         TRA.     0.1786D+28                  1738.8057     4.9680    41.2547
         TOT.                       65.949    7016.1964    37.8659    89.9557

 360.00  VIB.     0.4274D+02                  4538.6135    30.9817    20.0693
         ROT.     0.6482D+06                  1073.0915     2.9808    29.5734
         INT.     0.2770D+08                  5611.7050    33.9625    49.6427
         TRA.     0.1863D+28                  1788.4859     4.9680    41.3947
         TOT.                       66.333    7400.1909    38.9306    91.0374

 370.00  VIB.     0.5103D+02                  4853.6911    32.0312    20.9325
         ROT.     0.6754D+06                  1102.8996     2.9808    29.6551
         INT.     0.3446D+08                  5956.5907    35.0120    50.5876
         TRA.     0.1941D+28                  1838.1660     4.9680    41.5308
         TOT.                       66.727    7794.7567    39.9800    92.1184

 380.00  VIB.     0.6106D+02                  5179.1831    33.0645    21.8005
         ROT.     0.7029D+06                  1132.7077     2.9808    29.7346
         INT.     0.4292D+08                  6311.8908    36.0453    51.5351
         TRA.     0.2020D+28                  1887.8462     4.9680    41.6633
         TOT.                       67.132    8199.7369    41.0133    93.1983

 390.00  VIB.     0.7321D+02                  5514.9254    34.0811    22.6726
         ROT.     0.7308D+06                  1162.5158     2.9808    29.8120
         INT.     0.5351D+08                  6677.4412    37.0619    52.4846
         TRA.     0.2100D+28                  1937.5263     4.9680    41.7923
         TOT.                       67.547    8614.9675    42.0299    94.2769

 400.00  VIB.     0.8795D+02                  5860.7478    35.0805    23.5481
         ROT.     0.7591D+06                  1192.3239     2.9808    29.8875
         INT.     0.6676D+08                  7053.0717    38.0613    53.4355
         TRA.     0.2182D+28                  1987.2065     4.9680    41.9181
         TOT.                       67.973    9040.2782    43.0293    95.3536

   *: NOTE: HEATS OF FORMATION ARE RELATIVE TO THE
            ELEMENTS IN THEIR STANDARD STATE AT 298K
              (=  Standard Enthalpy of Formation).

            Hvib:  Zero-point energy is not included.
                   frequencies of less than zero cm-1 are not included.
            Hrot = (3/2)RT
            Htra = (3/2)RT + pV = (5/2)RT

            Heat capacity is Cp, not Cv

          For more information, see: HTTP://OpenMOPAC.net/Manual/thermochemistry.html


           FORCE CONSTANT IN CARTESIAN COORDINATES (Millidynes/A)

    ATOM   CHEMICAL       X               Y               Z
   NUMBER   SYMBOL  FORCE CONSTANT  FORCE CONSTANT  FORCE CONSTANT

      1       C       11.695235       14.312792        2.490397
      2       C       11.544789       14.357831        2.478044
      3       C       16.244931        9.812092        2.402735
      4       C       11.280867       13.637992        2.187093
      5       C       12.266455       12.063379        2.324694
      6       C       14.751993       10.339727        2.205795
      7       C       12.286560       12.033615        2.324493
      8       C       12.111177       11.875759        2.342354
      9       C       12.104917       11.888592        2.350176
     10       C       14.520679        9.872226        1.985707
     11       H        0.699990        5.391320        0.338863
     12       H        5.167866        0.742966        0.357442
     13       H        5.068052        1.021608        0.346394
     14       H        1.835133        4.079771        0.350121
     15       H        5.190712        0.729996        0.355607
     16       H        1.831766        4.081635        0.352025
     17       H        3.646666        2.428857        0.337957
     18       H        0.873110        5.211602        0.335144

 **********************
 *                    *
 * JOB ENDED NORMALLY *
 *                    *
 **********************



 TOTAL JOB TIME:             4.75 SECONDS

 == MOPAC DONE ==
