 *******************************************************************************
 ** Site#: 14399        For non-commercial use only    Version 18.184L 64BITS **
 *******************************************************************************
 ** Cite this program as: MOPAC2016, Version: 18.184L, James J. P. Stewart,   **
 ** Stewart Computational Chemistry, web: HTTP://OpenMOPAC.net. Days left:  20**
 *******************************************************************************
 **                                                                           **
 **                                MOPAC2016                                  **
 **                                                                           **
 *******************************************************************************

                              PM3 CALCULATION RESULTS

 *******************************************************************************
 *  CALCULATION DONE:                                Thu Jun 13 21:07:35 2019  *
 *  PM3        - The PM3 Hamiltonian to be used
 *  PRECISE    - CRITERIA TO BE INCREASED BY 100 TIMES
 *  NOSYM      - POINT-GROUP SYMMETRY SET TO C1
 *  THREADS=1  - MULTI-THREADING NOT USED
 *  T=         - A TIME OF 172800.0 SECONDS REQUESTED
 *  DUMP=N     - RESTART FILE WRITTEN EVERY  7200.000 SECONDS
 *******************************************************************************
pm3  precise nosym THREADS=1
 InChI=1S/C7H10/c1-3-7-5-4-6(7)2/h3,6-7H,1,4H2,2H3/lp5

   ATOM   CHEMICAL          X               Y               Z
  NUMBER   SYMBOL      (ANGSTROMS)     (ANGSTROMS)     (ANGSTROMS)
 
     1       C         -0.67820000  *   0.03250000  *  -0.32590000  *
     2       C          0.41560000  *  -0.32860000  *   0.68200000  *
     3       C         -1.45640000  *  -1.21370000  *   0.08550000  *
     4       C         -1.40030000  *   1.34200000  *   0.00320000  *
     5       C          1.73560000  *  -0.66110000  *   0.03930000  *
     6       C          2.51610000  *   0.30010000  *  -0.46030000  *
     7       C         -0.36010000  *  -1.57780000  *   1.07500000  *
     8       H         -0.34840000  *  -0.01220000  *  -1.38880000  *
     9       H          0.51350000  *   0.37630000  *   1.53740000  *
    10       H         -2.42050000  *  -1.00630000  *   0.59910000  *
    11       H         -1.53180000  *  -1.96010000  *  -0.73400000  *
    12       H         -1.73870000  *   1.36160000  *   1.06190000  *
    13       H         -0.71380000  *   2.19720000  *  -0.17020000  *
    14       H         -2.28440000  *   1.45570000  *  -0.65870000  *
    15       H          2.07220000  *  -1.69320000  *  -0.00990000  *
    16       H          2.21140000  *   1.34170000  *  -0.42110000  *
    17       H          3.46820000  *   0.04590000  *  -0.91460000  *
 


          CARTESIAN COORDINATES 

    NO.       ATOM           X           Y           Z

     1         C         -0.6782      0.0325     -0.3259
     2         C          0.4156     -0.3286      0.6820
     3         C         -1.4564     -1.2137      0.0855
     4         C         -1.4003      1.3420      0.0032
     5         C          1.7356     -0.6611      0.0393
     6         C          2.5161      0.3001     -0.4603
     7         C         -0.3601     -1.5778      1.0750
     8         H         -0.3484     -0.0122     -1.3888
     9         H          0.5135      0.3763      1.5374
    10         H         -2.4205     -1.0063      0.5991
    11         H         -1.5318     -1.9601     -0.7340
    12         H         -1.7387      1.3616      1.0619
    13         H         -0.7138      2.1972     -0.1702
    14         H         -2.2844      1.4557     -0.6587
    15         H          2.0722     -1.6932     -0.0099
    16         H          2.2114      1.3417     -0.4211
    17         H          3.4682      0.0459     -0.9146

  H: (PM3): J. J. P. STEWART, J. COMP. CHEM. 10, 209 (1989).
  C: (PM3): J. J. P. STEWART, J. COMP. CHEM. 10, 209 (1989).

           Empirical Formula: C7 H10  =    17 atoms



      MOLECULAR POINT GROUP   :   C1  


      RHF CALCULATION, NO. OF DOUBLY OCCUPIED LEVELS = 19


          Geometry optimization using EF

          DIAGONAL MATRIX USED AS START HESSIAN

 CYCLE:     1 TIME:   0.023 TIME LEFT:  2.00D  GRAD.:    78.148 HEAT:  109.3389
 CYCLE:     2 TIME:   0.031 TIME LEFT:  2.00D  GRAD.:   105.653 HEAT:  109.1241
 CYCLE:     3 TIME:   0.031 TIME LEFT:  2.00D  GRAD.:    69.998 HEAT:  107.4200
 CYCLE:     4 TIME:   0.031 TIME LEFT:  2.00D  GRAD.:    24.852 HEAT:  106.5342
 CYCLE:     5 TIME:   0.023 TIME LEFT:  2.00D  GRAD.:    31.626 HEAT:  106.4025
 CYCLE:     6 TIME:   0.023 TIME LEFT:  2.00D  GRAD.:    36.043 HEAT:  106.1767
 CYCLE:     7 TIME:   0.031 TIME LEFT:  2.00D  GRAD.:    15.822 HEAT:  105.8507
 CYCLE:     8 TIME:   0.031 TIME LEFT:  2.00D  GRAD.:    12.800 HEAT:  105.7839
 CYCLE:     9 TIME:   0.031 TIME LEFT:  2.00D  GRAD.:    11.188 HEAT:  105.7244
 CYCLE:    10 TIME:   0.023 TIME LEFT:  2.00D  GRAD.:    12.757 HEAT:  105.6961
 CYCLE:    11 TIME:   0.016 TIME LEFT:  2.00D  GRAD.:    13.407 HEAT:  105.6868
 CYCLE:    12 TIME:   0.031 TIME LEFT:  2.00D  GRAD.:     4.856 HEAT:  105.6358
 CYCLE:    13 TIME:   0.039 TIME LEFT:  2.00D  GRAD.:     3.971 HEAT:  105.6245
 CYCLE:    14 TIME:   0.023 TIME LEFT:  2.00D  GRAD.:     4.601 HEAT:  105.6132
 CYCLE:    15 TIME:   0.023 TIME LEFT:  2.00D  GRAD.:     6.804 HEAT:  105.5982
 CYCLE:    16 TIME:   0.023 TIME LEFT:  2.00D  GRAD.:     6.384 HEAT:  105.5758
 CYCLE:    17 TIME:   0.023 TIME LEFT:  2.00D  GRAD.:     4.405 HEAT:  105.5504
 CYCLE:    18 TIME:   0.023 TIME LEFT:  2.00D  GRAD.:     4.783 HEAT:  105.5348
 CYCLE:    19 TIME:   0.023 TIME LEFT:  2.00D  GRAD.:     5.068 HEAT:  105.5195
 CYCLE:    20 TIME:   0.023 TIME LEFT:  2.00D  GRAD.:     3.369 HEAT:  105.5068
 CYCLE:    21 TIME:   0.023 TIME LEFT:  2.00D  GRAD.:     3.168 HEAT:  105.4944
 CYCLE:    22 TIME:   0.023 TIME LEFT:  2.00D  GRAD.:     3.490 HEAT:  105.4766
 CYCLE:    23 TIME:   0.023 TIME LEFT:  2.00D  GRAD.:     3.972 HEAT:  105.4538
 CYCLE:    24 TIME:   0.023 TIME LEFT:  2.00D  GRAD.:     3.181 HEAT:  105.4382
 CYCLE:    25 TIME:   0.023 TIME LEFT:  2.00D  GRAD.:     2.569 HEAT:  105.4281
 CYCLE:    26 TIME:   0.023 TIME LEFT:  2.00D  GRAD.:     2.751 HEAT:  105.4218
 CYCLE:    27 TIME:   0.023 TIME LEFT:  2.00D  GRAD.:     2.221 HEAT:  105.4147
 CYCLE:    28 TIME:   0.023 TIME LEFT:  2.00D  GRAD.:     2.212 HEAT:  105.4030
 CYCLE:    29 TIME:   0.023 TIME LEFT:  2.00D  GRAD.:     1.974 HEAT:  105.3940
 CYCLE:    30 TIME:   0.023 TIME LEFT:  2.00D  GRAD.:     1.698 HEAT:  105.3870
 CYCLE:    31 TIME:   0.023 TIME LEFT:  2.00D  GRAD.:     2.142 HEAT:  105.3773
 CYCLE:    32 TIME:   0.023 TIME LEFT:  2.00D  GRAD.:     2.653 HEAT:  105.3661
 CYCLE:    33 TIME:   0.016 TIME LEFT:  2.00D  GRAD.:     2.784 HEAT:  105.3535
 CYCLE:    34 TIME:   0.023 TIME LEFT:  2.00D  GRAD.:     2.903 HEAT:  105.3377
 CYCLE:    35 TIME:   0.023 TIME LEFT:  2.00D  GRAD.:     3.495 HEAT:  105.3193
 CYCLE:    36 TIME:   0.023 TIME LEFT:  2.00D  GRAD.:     4.301 HEAT:  105.2946
 CYCLE:    37 TIME:   0.031 TIME LEFT:  2.00D  GRAD.:     4.238 HEAT:  105.2648
 CYCLE:    38 TIME:   0.031 TIME LEFT:  2.00D  GRAD.:     4.553 HEAT:  105.2396
 CYCLE:    39 TIME:   0.023 TIME LEFT:  2.00D  GRAD.:     4.341 HEAT:  105.2275
 CYCLE:    40 TIME:   0.016 TIME LEFT:  2.00D  GRAD.:     2.436 HEAT:  105.2127
 CYCLE:    41 TIME:   0.023 TIME LEFT:  2.00D  GRAD.:     1.920 HEAT:  105.2044
 CYCLE:    42 TIME:   0.023 TIME LEFT:  2.00D  GRAD.:     1.691 HEAT:  105.1960
 CYCLE:    43 TIME:   0.031 TIME LEFT:  2.00D  GRAD.:     1.803 HEAT:  105.1868
 CYCLE:    44 TIME:   0.023 TIME LEFT:  2.00D  GRAD.:     2.036 HEAT:  105.1777
 CYCLE:    45 TIME:   0.023 TIME LEFT:  2.00D  GRAD.:     2.124 HEAT:  105.1674
 CYCLE:    46 TIME:   0.023 TIME LEFT:  2.00D  GRAD.:     2.141 HEAT:  105.1544
 CYCLE:    47 TIME:   0.023 TIME LEFT:  2.00D  GRAD.:     2.217 HEAT:  105.1420
 CYCLE:    48 TIME:   0.125 TIME LEFT:  2.00D  GRAD.:     2.097 HEAT:  105.1318
 CYCLE:    49 TIME:   0.023 TIME LEFT:  2.00D  GRAD.:     2.120 HEAT:  105.1244
 CYCLE:    50 TIME:   0.031 TIME LEFT:  2.00D  GRAD.:     1.596 HEAT:  105.1187
 CYCLE:    51 TIME:   0.023 TIME LEFT:  2.00D  GRAD.:     1.525 HEAT:  105.1131
 CYCLE:    52 TIME:   0.023 TIME LEFT:  2.00D  GRAD.:     1.651 HEAT:  105.1086
 CYCLE:    53 TIME:   0.031 TIME LEFT:  2.00D  GRAD.:     2.079 HEAT:  105.0991
 CYCLE:    54 TIME:   0.023 TIME LEFT:  2.00D  GRAD.:     2.354 HEAT:  105.0884
 CYCLE:    55 TIME:   0.023 TIME LEFT:  2.00D  GRAD.:     2.419 HEAT:  105.0744
 CYCLE:    56 TIME:   0.023 TIME LEFT:  2.00D  GRAD.:     2.541 HEAT:  105.0600
 CYCLE:    57 TIME:   0.023 TIME LEFT:  2.00D  GRAD.:     2.687 HEAT:  105.0453
 CYCLE:    58 TIME:   0.023 TIME LEFT:  2.00D  GRAD.:     2.416 HEAT:  105.0320
 CYCLE:    59 TIME:   0.023 TIME LEFT:  2.00D  GRAD.:     3.438 HEAT:  105.0217
 CYCLE:    60 TIME:   0.023 TIME LEFT:  2.00D  GRAD.:     2.821 HEAT:  105.0155
 CYCLE:    61 TIME:   0.023 TIME LEFT:  2.00D  GRAD.:     1.818 HEAT:  105.0053
 CYCLE:    62 TIME:   0.023 TIME LEFT:  2.00D  GRAD.:     2.002 HEAT:  104.9976
 CYCLE:    63 TIME:   0.023 TIME LEFT:  2.00D  GRAD.:     1.798 HEAT:  104.9924
 CYCLE:    64 TIME:   0.023 TIME LEFT:  2.00D  GRAD.:     1.422 HEAT:  104.9872
 CYCLE:    65 TIME:   0.016 TIME LEFT:  2.00D  GRAD.:     1.177 HEAT:  104.9829
 CYCLE:    66 TIME:   0.023 TIME LEFT:  2.00D  GRAD.:     0.829 HEAT:  104.9807
 CYCLE:    67 TIME:   0.031 TIME LEFT:  2.00D  GRAD.:     0.513 HEAT:  104.9797
 CYCLE:    68 TIME:   0.023 TIME LEFT:  2.00D  GRAD.:     0.544 HEAT:  104.9792
 CYCLE:    69 TIME:   0.023 TIME LEFT:  2.00D  GRAD.:     0.417 HEAT:  104.9788
 CYCLE:    70 TIME:   0.023 TIME LEFT:  2.00D  GRAD.:     0.300 HEAT:  104.9786
 CYCLE:    71 TIME:   0.016 TIME LEFT:  2.00D  GRAD.:     0.212 HEAT:  104.9785
 CYCLE:    72 TIME:   0.023 TIME LEFT:  2.00D  GRAD.:     0.137 HEAT:  104.9784
 CYCLE:    73 TIME:   0.023 TIME LEFT:  2.00D  GRAD.:     0.139 HEAT:  104.9784
 CYCLE:    74 TIME:   0.031 TIME LEFT:  2.00D  GRAD.:     0.073 HEAT:  104.9784
 CYCLE:    75 TIME:   0.023 TIME LEFT:  2.00D  GRAD.:     0.059 HEAT:  104.9784
 CYCLE:    76 TIME:   0.031 TIME LEFT:  2.00D  GRAD.:     0.047 HEAT:  104.9784

     GRADIENT =  0.04680  IS LESS THAN CUTOFF =  0.05000



 -------------------------------------------------------------------------------
 pm3  precise nosym THREADS=1
 InChI=1S/C7H10/c1-3-7-5-4-6(7)2/h3,6-7H,1,4H2,2H3/lp5



     GEOMETRY OPTIMISED USING EIGENVECTOR FOLLOWING (EF).     
     SCF FIELD WAS ACHIEVED                                   


                              PM3 CALCULATION
                                                       MOPAC2016 (Version: 18.184L)
                                                       Thu Jun 13 21:07:37 2019
                                                       No. of days remaining =  20




          FINAL HEAT OF FORMATION =        104.97836 KCAL/MOL =     439.22946 KJ/MOL


          TOTAL ENERGY            =       -979.25740 EV
          ELECTRONIC ENERGY       =      -4511.55083 EV  POINT GROUP:     C1  
          CORE-CORE REPULSION     =       3532.29343 EV
          COSMO AREA              =        149.71 SQUARE ANGSTROMS
          COSMO VOLUME            =        146.10 CUBIC ANGSTROMS

          GRADIENT NORM           =          0.04680 = 0.01135 PER ATOM
          IONIZATION POTENTIAL    =          9.223049 EV
          HOMO LUMO ENERGIES (EV) =         -9.223 -0.600
          NO. OF FILLED LEVELS    =         19
          MOLECULAR WEIGHT        =         94.1560

          MOLECULAR DIMENSIONS (Angstroms)

            Atom       Atom       Distance
            H    17    H    10     6.13216
            H    14    H    15     4.40458
            H    11    H     9     3.42041


          SCF CALCULATIONS        =         84
 
          WALL-CLOCK TIME         =          2.023 SECONDS
          COMPUTATION TIME        =          0.845 SECONDS




   ATOM   CHEMICAL          X               Y               Z
  NUMBER   SYMBOL      (ANGSTROMS)     (ANGSTROMS)     (ANGSTROMS)
 
     1       C         -0.66503139  *   0.09483896  *  -0.30377741  *
     2       C          0.41451694  *  -0.39131479  *   0.71655454  *
     3       C         -1.44257446  *  -1.20760302  *   0.02515051  *
     4       C         -1.36064798  *   1.37855256  *   0.05165353  *
     5       C          1.80352873  *  -0.58161377  *   0.24305504  *
     6       C          2.40123266  *   0.22603460  *  -0.62475727  *
     7       C         -0.35257331  *  -1.67518856  *   0.93459683  *
     8       H         -0.29268803  *   0.13465177  *  -1.34913430  *
     9       H          0.43217127  *   0.21566105  *   1.65125883  *
    10       H         -2.41327616  *  -1.07060472  *   0.53041050  *
    11       H         -1.61771497  *  -1.88693949  *  -0.82494865  *
    12       H         -1.74125752  *   1.37162442  *   1.08224468  *
    13       H         -0.67771395  *   2.23300071  *  -0.04134299  *
    14       H         -2.21555173  *   1.55998701  *  -0.61235631  *
    15       H          2.32251812  *  -1.44479143  *   0.67903789  *
    16       H          1.91469042  *   1.08987405  *  -1.07038028  *
    17       H          3.42624654  *   0.07568431  *  -0.94925364  *

                             CARTESIAN COORDINATES

   1    C       -0.665031386     0.094838962    -0.303777409
   2    C        0.414516939    -0.391314790     0.716554545
   3    C       -1.442574456    -1.207603017     0.025150509
   4    C       -1.360647979     1.378552564     0.051653525
   5    C        1.803528727    -0.581613765     0.243055044
   6    C        2.401232659     0.226034603    -0.624757273
   7    C       -0.352573306    -1.675188558     0.934596830
   8    H       -0.292688032     0.134651771    -1.349134295
   9    H        0.432171265     0.215661046     1.651258832
  10    H       -2.413276158    -1.070604722     0.530410501
  11    H       -1.617714972    -1.886939491    -0.824948651
  12    H       -1.741257524     1.371624422     1.082244684
  13    H       -0.677713953     2.233000710    -0.041342995
  14    H       -2.215551729     1.559987011    -0.612356308
  15    H        2.322518121    -1.444791431     0.679037891
  16    H        1.914690419     1.089874051    -1.070380278
  17    H        3.426246536     0.075684306    -0.949253635


           Empirical Formula: C7 H10  =    17 atoms



      MOLECULAR POINT GROUP   :   C1  


                  EIGENVALUES  
 -40.68700 -32.75217 -29.44923 -25.30987 -21.39979 -19.96122 -17.68470 -16.91171
 -16.07543 -15.12626 -14.71966 -14.15157 -13.33271 -12.80465 -12.69116 -12.49712
 -11.84828 -10.23047  -9.22305  -0.60006   1.03527   2.88383   2.96266   3.25955
   3.51166   3.61640   3.69761   3.86755   3.95700   4.03412   4.12195   4.25618
   4.28698   4.53244   4.80673   5.04198   5.50366   5.72921


              NET ATOMIC CHARGES AND DIPOLE CONTRIBUTIONS

  ATOM NO.   TYPE          CHARGE      No. of ELECS.   s-Pop       p-Pop       
    1          C          -0.094090        4.0941     1.19756     2.89653
    2          C          -0.222391        4.2224     1.20589     3.01650
    3          C          -0.273994        4.2740     1.19885     3.07514
    4          C          -0.105411        4.1054     1.13659     2.96882
    5          C          -0.093061        4.0931     1.18333     2.90973
    6          C          -0.173720        4.1737     1.18186     2.99186
    7          C           0.129269        3.8707     1.73188     2.13885
    8          H           0.081899        0.9181     0.91810
    9          H           0.122410        0.8776     0.87759
   10          H           0.110540        0.8895     0.88946
   11          H           0.109689        0.8903     0.89031
   12          H           0.041019        0.9590     0.95898
   13          H           0.045316        0.9547     0.95468
   14          H           0.044141        0.9559     0.95586
   15          H           0.110704        0.8893     0.88930
   16          H           0.083898        0.9161     0.91610
   17          H           0.083783        0.9162     0.91622
 DIPOLE           X         Y         Z       TOTAL
 POINT-CHG.    -0.153    -0.297     0.215     0.397
 HYBRID        -0.460     1.837    -1.101     2.190
 SUM           -0.613     1.540    -0.886     1.880


          ATOMIC ORBITAL ELECTRON POPULATIONS

     Atom    s        px        py        pz   
    1  C   1.19756   0.95296   0.94617   0.99740
    2  C   1.20589   0.96226   1.05660   0.99765
    3  C   1.19885   1.03392   0.99194   1.04929
    4  C   1.13659   0.99789   0.96328   1.00765
    5  C   1.18333   0.93691   0.99270   0.98013
    6  C   1.18186   1.00113   0.99453   0.99620
    7  C   1.73188   0.70525   0.93677   0.49683
    8  H   0.91810
    9  H   0.87759
   10  H   0.88946
   11  H   0.89031
   12  H   0.95898
   13  H   0.95468
   14  H   0.95586
   15  H   0.88930
   16  H   0.91610
   17  H   0.91622
 *******************************************************************************
 ** Site#: 14399        For non-commercial use only    Version 18.184L 64BITS **
 *******************************************************************************
 ** Cite this program as: MOPAC2016, Version: 18.184L, James J. P. Stewart,   **
 ** Stewart Computational Chemistry, web: HTTP://OpenMOPAC.net. Days left:  20**
 *******************************************************************************
 **                                                                           **
 **                                MOPAC2016                                  **
 **                                                                           **
 *******************************************************************************

                              PM3 CALCULATION RESULTS

 *******************************************************************************
 *  CALCULATION DONE:                                Thu Jun 13 21:07:37 2019  *
 *  PM3        - The PM3 Hamiltonian to be used
 *  OLDGEO     - PREVIOUS GEOMETRY TO BE USED
 *  PRECISE    - CRITERIA TO BE INCREASED BY 100 TIMES
 *  NOSYM      - POINT-GROUP SYMMETRY SET TO C1
 *  THREADS=1  - MULTI-THREADING NOT USED
 *  T=         - A TIME OF 172800.0 SECONDS REQUESTED
 *  DUMP=N     - RESTART FILE WRITTEN EVERY  7200.000 SECONDS
 *  THERMO     - THERMODYNAMIC QUANTITIES TO BE CALCULATED
 *******************************************************************************
oldgeo thermo nosym precise THREADS=1  pm3
 InChI=1S/C7H10/c1-3-7-5-4-6(7)2/h3,6-7H,1,4H2,2H3/lp5

   ATOM   CHEMICAL          X               Y               Z
  NUMBER   SYMBOL      (ANGSTROMS)     (ANGSTROMS)     (ANGSTROMS)
 
     1       C         -0.66503139  *   0.09483896  *  -0.30377741  *
     2       C          0.41451694  *  -0.39131479  *   0.71655454  *
     3       C         -1.44257446  *  -1.20760302  *   0.02515051  *
     4       C         -1.36064798  *   1.37855256  *   0.05165353  *
     5       C          1.80352873  *  -0.58161377  *   0.24305504  *
     6       C          2.40123266  *   0.22603460  *  -0.62475727  *
     7       C         -0.35257331  *  -1.67518856  *   0.93459683  *
     8       H         -0.29268803  *   0.13465177  *  -1.34913430  *
     9       H          0.43217127  *   0.21566105  *   1.65125883  *
    10       H         -2.41327616  *  -1.07060472  *   0.53041050  *
    11       H         -1.61771497  *  -1.88693949  *  -0.82494865  *
    12       H         -1.74125752  *   1.37162442  *   1.08224468  *
    13       H         -0.67771395  *   2.23300071  *  -0.04134299  *
    14       H         -2.21555173  *   1.55998701  *  -0.61235631  *
    15       H          2.32251812  *  -1.44479143  *   0.67903789  *
    16       H          1.91469042  *   1.08987405  *  -1.07038028  *
    17       H          3.42624654  *   0.07568431  *  -0.94925364  *
 


          CARTESIAN COORDINATES 

    NO.       ATOM           X           Y           Z

     1         C         -0.6650      0.0948     -0.3038
     2         C          0.4145     -0.3913      0.7166
     3         C         -1.4426     -1.2076      0.0252
     4         C         -1.3606      1.3786      0.0517
     5         C          1.8035     -0.5816      0.2431
     6         C          2.4012      0.2260     -0.6248
     7         C         -0.3526     -1.6752      0.9346
     8         H         -0.2927      0.1347     -1.3491
     9         H          0.4322      0.2157      1.6513
    10         H         -2.4133     -1.0706      0.5304
    11         H         -1.6177     -1.8869     -0.8249
    12         H         -1.7413      1.3716      1.0822
    13         H         -0.6777      2.2330     -0.0413
    14         H         -2.2156      1.5600     -0.6124
    15         H          2.3225     -1.4448      0.6790
    16         H          1.9147      1.0899     -1.0704
    17         H          3.4262      0.0757     -0.9493

  H: (PM3): J. J. P. STEWART, J. COMP. CHEM. 10, 209 (1989).
  C: (PM3): J. J. P. STEWART, J. COMP. CHEM. 10, 209 (1989).

           Empirical Formula: C7 H10  =    17 atoms



      MOLECULAR POINT GROUP   :   C1  


      RHF CALCULATION, NO. OF DOUBLY OCCUPIED LEVELS = 19



          HEAT OF FORMATION =     104.978360 KCALS/MOLE


          CARTESIAN COORDINATE DERIVATIVES

   NUMBER  ATOM         X            Y            Z

     1       C      0.000965     0.001784    -0.003154
     2       C      0.000070    -0.004130    -0.001747
     3       C     -0.002629     0.002434    -0.011501
     4       C     -0.000785     0.001011    -0.004310
     5       C     -0.005472    -0.028395     0.007187
     6       C      0.001079     0.017487    -0.001189
     7       C     -0.001820    -0.002058     0.003260
     8       H      0.012306     0.006545     0.011068
     9       H     -0.002744     0.008547    -0.000393
    10       H     -0.006529     0.004013     0.000612
    11       H      0.006355    -0.003793    -0.001435
    12       H     -0.007536     0.001703    -0.005239
    13       H      0.002795     0.003184    -0.002028
    14       H      0.004312    -0.005079     0.002613
    15       H      0.003829     0.009331     0.006032
    16       H     -0.003680    -0.011977    -0.001401
    17       H     -0.000516    -0.000607     0.001625
 


          GRADIENT NORM =   0.04887


          TIME FOR SCF CALCULATION =    0.02

          TIME FOR DERIVATIVES     =    0.01

          MOLECULAR WEIGHT =   94.16



          ROTATIONAL CONSTANTS IN CM(-1)

          A =    0.13804748   B =    0.07476859   C =    0.05556372



           PRINCIPAL MOMENTS OF INERTIA IN UNITS OF 10**(-40)*GRAM-CM**2

          A =      202.7764   B =      374.3922   C =      503.7959


          ORIENTATION OF MOLECULE IN FORCE CALCULATION

    NO.       ATOM         X         Y         Z

     1          C      -0.9096    0.0477   -0.2149
     2          C       0.6534    0.0477   -0.2149
     3          C      -0.8268    1.5976   -0.2149
     4          C      -1.5573   -0.5720   -1.4209
     5          C       1.3628   -0.6276    0.8943
     6          C       0.9579   -1.7687    1.4390
     7          C       0.6652    1.5570   -0.1370
     8          H      -1.3472   -0.3710    0.7158
     9          H       1.0870   -0.2960   -1.1825
    10          H      -1.2100    2.0972   -1.1204
    11          H      -1.2914    2.1008    0.6487
    12          H      -1.1453   -0.1786   -2.3603
    13          H      -1.4121   -1.6602   -1.4280
    14          H      -2.6377   -0.3788   -1.4305
    15          H       2.2744   -0.1188    1.2329
    16          H       0.0623   -2.2972    1.1228
    17          H       1.5009   -2.2544    2.2439


    FIRST DERIVATIVES WILL BE USED IN THE CALCULATION OF SECOND DERIVATIVES

          ESTIMATED TIME TO COMPLETE CALCULATION =        6.38 SECONDS

    FOR POINT-GROUP C1   THERE ARE   1 UNIQUE SYMMETRY FUNCTIONS.

 STEP:   1 TIME =     0.04 SECS, INTEGRAL =      0.04 TIME LEFT: 172799.93
 STEP:   2 TIME =     0.03 SECS, INTEGRAL =      0.07 TIME LEFT: 172799.90
 STEP:   3 TIME =     0.02 SECS, INTEGRAL =      0.09 TIME LEFT: 172799.88
 STEP:   4 TIME =     0.03 SECS, INTEGRAL =      0.12 TIME LEFT: 172799.84
 STEP:   5 TIME =     0.03 SECS, INTEGRAL =      0.16 TIME LEFT: 172799.81
 STEP:   6 TIME =     0.03 SECS, INTEGRAL =      0.19 TIME LEFT: 172799.78
 STEP:   7 TIME =     0.03 SECS, INTEGRAL =      0.22 TIME LEFT: 172799.75
 STEP:   8 TIME =     0.04 SECS, INTEGRAL =      0.26 TIME LEFT: 172799.71
 STEP:   9 TIME =     0.03 SECS, INTEGRAL =      0.29 TIME LEFT: 172799.68
 STEP:  10 TIME =     0.04 SECS, INTEGRAL =      0.33 TIME LEFT: 172799.64
 STEP:  11 TIME =     0.04 SECS, INTEGRAL =      0.37 TIME LEFT: 172799.60
 STEP:  12 TIME =     0.04 SECS, INTEGRAL =      0.41 TIME LEFT: 172799.56
 STEP:  13 TIME =     0.04 SECS, INTEGRAL =      0.45 TIME LEFT: 172799.52
 STEP:  14 TIME =     0.03 SECS, INTEGRAL =      0.48 TIME LEFT: 172799.49
 STEP:  15 TIME =     0.05 SECS, INTEGRAL =      0.53 TIME LEFT: 172799.44
 STEP:  16 TIME =     0.05 SECS, INTEGRAL =      0.58 TIME LEFT: 172799.39
 STEP:  17 TIME =     0.03 SECS, INTEGRAL =      0.61 TIME LEFT: 172799.36
 STEP:  18 TIME =     0.05 SECS, INTEGRAL =      0.66 TIME LEFT: 172799.31
 STEP:  19 TIME =     0.04 SECS, INTEGRAL =      0.70 TIME LEFT: 172799.27
 STEP:  20 TIME =     0.03 SECS, INTEGRAL =      0.73 TIME LEFT: 172799.24
 STEP:  21 TIME =     0.03 SECS, INTEGRAL =      0.76 TIME LEFT: 172799.21
 STEP:  22 TIME =     0.02 SECS, INTEGRAL =      0.78 TIME LEFT: 172799.19
 STEP:  23 TIME =     0.03 SECS, INTEGRAL =      0.81 TIME LEFT: 172799.16
 STEP:  24 TIME =     0.02 SECS, INTEGRAL =      0.84 TIME LEFT: 172799.13
 STEP:  25 TIME =     0.03 SECS, INTEGRAL =      0.87 TIME LEFT: 172799.10
 STEP:  26 TIME =     0.03 SECS, INTEGRAL =      0.90 TIME LEFT: 172799.07
 STEP:  27 TIME =     0.03 SECS, INTEGRAL =      0.93 TIME LEFT: 172799.04
 STEP:  28 TIME =     0.03 SECS, INTEGRAL =      0.96 TIME LEFT: 172799.01
 STEP:  29 TIME =     0.04 SECS, INTEGRAL =      1.00 TIME LEFT: 172798.97
 STEP:  30 TIME =     0.02 SECS, INTEGRAL =      1.02 TIME LEFT: 172798.95
 STEP:  31 TIME =     0.02 SECS, INTEGRAL =      1.05 TIME LEFT: 172798.92
 STEP:  32 TIME =     0.02 SECS, INTEGRAL =      1.07 TIME LEFT: 172798.90
 STEP:  33 TIME =     0.03 SECS, INTEGRAL =      1.10 TIME LEFT: 172798.87
 STEP:  34 TIME =     0.03 SECS, INTEGRAL =      1.13 TIME LEFT: 172798.84
 STEP:  35 TIME =     0.03 SECS, INTEGRAL =      1.16 TIME LEFT: 172798.80
 STEP:  36 TIME =     0.03 SECS, INTEGRAL =      1.20 TIME LEFT: 172798.77
 STEP:  37 TIME =     0.04 SECS, INTEGRAL =      1.23 TIME LEFT: 172798.73
 STEP:  38 TIME =     0.02 SECS, INTEGRAL =      1.26 TIME LEFT: 172798.71
 STEP:  39 TIME =     0.02 SECS, INTEGRAL =      1.28 TIME LEFT: 172798.69
 STEP:  40 TIME =     0.03 SECS, INTEGRAL =      1.31 TIME LEFT: 172798.66
 STEP:  41 TIME =     0.03 SECS, INTEGRAL =      1.34 TIME LEFT: 172798.62
 STEP:  42 TIME =     0.05 SECS, INTEGRAL =      1.39 TIME LEFT: 172798.58
 STEP:  43 TIME =     0.03 SECS, INTEGRAL =      1.42 TIME LEFT: 172798.55
 STEP:  44 TIME =     0.03 SECS, INTEGRAL =      1.45 TIME LEFT: 172798.52
 STEP:  45 TIME =     0.03 SECS, INTEGRAL =      1.48 TIME LEFT: 172798.48
 STEP:  46 TIME =     0.03 SECS, INTEGRAL =      1.52 TIME LEFT: 172798.45
 STEP:  47 TIME =     0.03 SECS, INTEGRAL =      1.55 TIME LEFT: 172798.42
 STEP:  48 TIME =     0.04 SECS, INTEGRAL =      1.59 TIME LEFT: 172798.38
 STEP:  49 TIME =     0.04 SECS, INTEGRAL =      1.62 TIME LEFT: 172798.34
 STEP:  50 TIME =     0.04 SECS, INTEGRAL =      1.66 TIME LEFT: 172798.30
 STEP:  51 TIME =     0.03 SECS, INTEGRAL =      1.70 TIME LEFT: 172798.27

(To convert to Hartree/Bohr^2, multiply by (10^(-21) x N x a0^2)/(4.184 x 627.51) =  0.0642)


           FORCE MATRIX IN MILLIDYNES/ANGSTROM


                  C  1       C  2       C  3       C  4       C  5       C  6
 ------------------------------------------------------------------------------
     C    1  14.364157
     C    2   2.957608  14.468885
     C    3   3.301888   2.069881  14.070187
     C    4   4.705789   0.536989   0.547108  14.536733
     C    5   0.507005   5.112519   0.063317   0.035022  18.259662
     C    6   0.048225   0.886500   0.018665   0.004761  11.047969  18.007503
     C    7   2.013382   4.161747   4.635994   0.057733   0.563729   0.055465
     H    8   4.434117   0.429225   0.422139   0.421411   0.016779   0.014896
     H    9   0.442066   4.286279   0.047778   0.029381   0.401500   0.021060
     H   10   0.443906   0.047209   4.609231   0.020813   0.007763   0.002296
     H   11   0.432113   0.050778   4.634938   0.032198   0.013711   0.002941
     H   12   0.469048   0.017639   0.016372   4.709432   0.001565   0.001071
     H   13   0.452337   0.010392   0.049521   4.745648   0.002085   0.001448
     H   14   0.450985   0.047293   0.010008   4.749708   0.006375   0.000620
     H   15   0.036923   0.437995   0.008077   0.005027   4.782730   0.450460
     H   16   0.018222   0.097858   0.004976   0.003232   0.493328   5.062686
     H   17   0.006390   0.131588   0.004850   0.000629   0.458302   5.110790


                  C  7       H  8       H  9       H 10       H 11       H 12
 ------------------------------------------------------------------------------
     C    7   8.787359
     H    8   0.041741   4.933616
     H    9   0.305579   0.028732   4.762387
     H   10   0.335937   0.029413   0.012229   5.243785
     H   11   0.346048   0.026675   0.007327   0.559999   5.260044
     H   12   0.007472   0.044084   0.021994   0.015987   0.001439   5.446601
     H   13   0.007418   0.030209   0.004222   0.003303   0.005452   0.569880
     H   14   0.008065   0.029806   0.003305   0.004089   0.002119   0.572368
     H   15   0.035613   0.002649   0.014169   0.000594   0.001176   0.000469
     H   16   0.007892   0.026112   0.012618   0.000651   0.001077   0.000613
     H   17   0.011773   0.001228   0.016352   0.000636   0.000702   0.000309


                  H 13       H 14       H 15       H 16       H 17
 ------------------------------------------------------------------
     H   13   5.464941
     H   14   0.566032   5.472774
     H   15   0.000408   0.001014   5.140612
     H   16   0.005946   0.000615   0.116691   5.455528
     H   17   0.000491   0.000204   0.077762   0.419085   5.496658


          HEAT OF FORMATION =     104.978360 KCALS/MOLE

          ZERO POINT ENERGY      90.832 KCAL/MOL


           NORMAL COORDINATE ANALYSIS (Total motion = 1 Angstrom)


   Root No.       1         2         3         4         5         6         7         8

                 1 A       2 A       3 A       4 A       5 A       6 A       7 A       8 A   

                  85.4     147.0     164.4     216.9     287.9     371.6     456.0     503.4
  
           1    0.0009   -0.0097   -0.0003   -0.0238   -0.0256    0.0197    0.0224   -0.0200
           2   -0.0192   -0.0073    0.0023    0.0142    0.0182   -0.0245    0.0108    0.0024
           3   -0.0113   -0.0011    0.0034   -0.0112    0.0295    0.0205   -0.0397   -0.0267
           4    0.0009   -0.0090   -0.0008   -0.0228   -0.0284    0.0228    0.0184   -0.0069
           5   -0.0144   -0.0217   -0.0057   -0.0101   -0.0001    0.0104    0.0280   -0.0024
           6   -0.0214    0.0003   -0.0035    0.0198    0.0250    0.0320    0.0084    0.0401
           7   -0.0048    0.0042    0.0070    0.0017   -0.0125   -0.0222   -0.0064    0.0125
           8   -0.0189   -0.0078    0.0020    0.0143    0.0183   -0.0268    0.0127    0.0051
           9    0.0382    0.0141    0.0069   -0.0417    0.0056   -0.0325    0.0037    0.0049
          10   -0.0031   -0.0139    0.0043   -0.0193    0.0511   -0.0101   -0.0202   -0.0274
          11    0.0261    0.0341    0.0021    0.0173    0.0017    0.0409   -0.0149   -0.0220
          12   -0.0331   -0.0215    0.0009   -0.0166   -0.0044    0.0037   -0.0053   -0.0219
          13    0.0180   -0.0194   -0.0126    0.0095    0.0031    0.0300   -0.0225    0.0394
          14   -0.0068    0.0260    0.0068   -0.0167   -0.0211   -0.0107   -0.0302    0.0209
          15   -0.0272    0.0377    0.0122   -0.0049   -0.0106    0.0185    0.0075    0.0292
          16   -0.0081    0.0417   -0.0065    0.0529    0.0073   -0.0103    0.0112   -0.0004
          17    0.0395   -0.0111   -0.0020   -0.0157   -0.0162   -0.0085   -0.0347    0.0139
          18    0.0497    0.0050   -0.0013    0.0273    0.0041   -0.0030    0.0300   -0.0184
          19   -0.0033    0.0056    0.0086   -0.0040   -0.0087   -0.0212   -0.0035    0.0108
          20   -0.0148   -0.0193   -0.0047   -0.0120    0.0025    0.0158    0.0398   -0.0118
          21    0.0020   -0.0406   -0.0240    0.0432   -0.0498   -0.0312   -0.0240   -0.0022
          22    0.0035   -0.0171    0.0018   -0.0444   -0.0552    0.0240    0.0351   -0.0577
          23   -0.0521   -0.0226   -0.0022    0.0351    0.0267   -0.0314   -0.0017    0.0144
          24   -0.0251   -0.0123    0.0023   -0.0123    0.0174    0.0183   -0.0369   -0.0385
          25   -0.0029   -0.0059   -0.0057   -0.0251   -0.0515    0.0308    0.0571    0.0035
          26   -0.0071   -0.0649   -0.0267    0.0057   -0.0193    0.0153    0.0573   -0.0204
          27   -0.0253    0.0179    0.0023    0.0122    0.0182    0.0326    0.0146    0.0501
          28   -0.0285   -0.0293   -0.0114    0.0726   -0.0594   -0.0391   -0.0777   -0.0153
          29    0.0107    0.0081    0.0102   -0.0040    0.0164   -0.0781    0.0557    0.0579
          30    0.0645    0.0373    0.0194   -0.0827    0.0254   -0.0553    0.0603    0.0488
          31    0.0142    0.0445    0.0306   -0.0480    0.0428   -0.0389    0.0374    0.0624
          32   -0.0500   -0.0159   -0.0003    0.0478    0.0285   -0.0011   -0.0478   -0.0296
          33    0.0666    0.0408    0.0212   -0.0888    0.0303   -0.0572    0.0655    0.0544
          34   -0.0045    0.0302   -0.1575   -0.0494    0.1062   -0.0241   -0.0629   -0.0446
          35    0.0603    0.0186    0.1764    0.0569    0.0011    0.0904   -0.0464   -0.0406
          36   -0.0194   -0.0088    0.0030   -0.0134    0.0186    0.0175   -0.0356   -0.0359
          37   -0.0064   -0.0750    0.2158    0.0213    0.0744   -0.0425   -0.0303   -0.0204
          38    0.0261    0.0263    0.0308    0.0231    0.0044    0.0385   -0.0167   -0.0218
          39   -0.0749   -0.0276   -0.1206   -0.0472    0.0146   -0.0709    0.0218    0.0007
          40   -0.0027   -0.0029   -0.0339   -0.0268    0.0487   -0.0052   -0.0204   -0.0303
          41    0.0295    0.0953   -0.2079   -0.0234   -0.0195    0.0749   -0.0092   -0.0343
          42   -0.0233   -0.0456    0.1184    0.0052   -0.0798    0.0442    0.0422   -0.0127
          43    0.0582   -0.0751   -0.0292    0.0238    0.0385    0.0550   -0.0058    0.0742
          44   -0.0340    0.0916    0.0213   -0.0102   -0.0508   -0.0510   -0.0544   -0.0146
          45   -0.0936    0.0898    0.0348   -0.0500   -0.0617    0.0084    0.0022   -0.0147
          46   -0.0456    0.0972    0.0100    0.0402   -0.0283   -0.0400    0.0052   -0.0591
          47    0.0607   -0.0744   -0.0158   -0.0275    0.0118    0.0422   -0.0600    0.1161
          48    0.1210   -0.0458   -0.0252    0.0851    0.0586   -0.0054    0.0926   -0.0270
          49    0.0097    0.0389   -0.0179    0.1053    0.0469   -0.0232    0.0691   -0.0074
          50    0.0567    0.0219    0.0041    0.0007   -0.0382   -0.0603   -0.0136   -0.0990
          51    0.0483    0.0267    0.0099    0.0023   -0.0357   -0.0258    0.0056   -0.0836


   Root No.       9        10        11        12        13        14        15        16

                 9 A      10 A      11 A      12 A      13 A      14 A      15 A      16 A   

                 637.2     747.6     760.1     883.3     919.1     935.2     940.1     952.7
  
           1   -0.0143   -0.0162   -0.0189    0.0294    0.0114    0.0015   -0.0047   -0.0066
           2    0.0167   -0.0350   -0.0117   -0.0061   -0.0203    0.0087    0.0045   -0.0005
           3   -0.0060    0.0234    0.0069   -0.0121    0.0024   -0.0081   -0.0085    0.0003
           4    0.0076   -0.0203   -0.0022   -0.0369   -0.0097   -0.0114    0.0096    0.0160
           5   -0.0050    0.0310    0.0241   -0.0060   -0.0040    0.0004   -0.0005    0.0005
           6    0.0153    0.0299    0.0181    0.0297   -0.0002    0.0206    0.0155    0.0079
           7   -0.0135    0.0361    0.0165   -0.0012   -0.0027   -0.0015   -0.0074   -0.0013
           8    0.0150   -0.0241   -0.0030    0.0072    0.0441   -0.0204   -0.0021    0.0015
           9   -0.0111   -0.0268    0.0571   -0.0005    0.0062    0.0024    0.0048   -0.0090
          10   -0.0069   -0.0088   -0.0203    0.0262    0.0109    0.0131    0.0006   -0.0076
          11   -0.0002   -0.0130   -0.0175   -0.0026   -0.0253    0.0184    0.0162   -0.0095
          12   -0.0048   -0.0071   -0.0239    0.0028    0.0002    0.0025    0.0082    0.0090
          13    0.0545   -0.0186    0.0068   -0.0114    0.0060    0.0116   -0.0092    0.0120
          14   -0.0324    0.0041   -0.0085    0.0069   -0.0052   -0.0100    0.0153   -0.0009
          15   -0.0146   -0.0217   -0.0044   -0.0066   -0.0034   -0.0190    0.0118   -0.0048
          16    0.0021   -0.0054    0.0003   -0.0034    0.0031    0.0001   -0.0162   -0.0128
          17   -0.0035    0.0089   -0.0048    0.0065   -0.0015    0.0009    0.0112    0.0019
          18    0.0113   -0.0095    0.0025   -0.0105    0.0042   -0.0108   -0.0130   -0.0226
          19   -0.0151    0.0310    0.0193    0.0070   -0.0197    0.0106   -0.0113   -0.0070
          20   -0.0025    0.0172    0.0316    0.0022   -0.0228   -0.0137   -0.0514    0.0016
          21   -0.0016    0.0124   -0.0374   -0.0019   -0.0096   -0.0096   -0.0138   -0.0013
          22   -0.0307   -0.0367   -0.0262   -0.0036    0.0351   -0.0525    0.0091   -0.0083
          23    0.0327   -0.0274   -0.0493   -0.0162   -0.0141    0.0053   -0.0106    0.0465
          24   -0.0072    0.0159   -0.0154   -0.0295    0.0151   -0.0332   -0.0082    0.0205
          25   -0.0186   -0.0256   -0.0149   -0.0564    0.0308   -0.0174    0.1458    0.0184
          26    0.0426    0.1344    0.0228   -0.0939    0.1221    0.0973    0.1841   -0.1011
          27   -0.0143   -0.0125    0.0123    0.0507   -0.0296   -0.0197    0.0082    0.0472
          28   -0.0667   -0.0666    0.2128    0.0152    0.0639    0.0131    0.0518    0.0620
          29    0.0460   -0.0312   -0.0664    0.0318    0.0812   -0.0136    0.0248    0.1117
          30    0.0310    0.0185   -0.0704    0.0069   -0.0014   -0.0004   -0.0060    0.0262
          31    0.0424    0.1570   -0.1505   -0.0608    0.0265   -0.0587    0.0018   -0.0427
          32   -0.0036   -0.0198    0.0678   -0.0574    0.0835   -0.0672    0.0190   -0.0834
          33    0.0335    0.0386   -0.0841    0.0040   -0.0026   -0.0022   -0.0042    0.0203
          34   -0.0067    0.0188   -0.0083   -0.0653   -0.0015   -0.0485    0.0022    0.0481
          35   -0.0122    0.0393   -0.0198   -0.0159    0.0477   -0.0493   -0.0192    0.0544
          36   -0.0094    0.0256   -0.0197   -0.0407    0.0243   -0.0501   -0.0045    0.0583
          37    0.0076   -0.0338   -0.0133   -0.0516   -0.0804    0.0253    0.0420   -0.0147
          38    0.0013   -0.0148   -0.0175   -0.0117   -0.0345    0.0188    0.0205   -0.0088
          39    0.0166   -0.0789   -0.0264   -0.0187   -0.1270    0.0886    0.0741   -0.0602
          40   -0.0097   -0.0049   -0.0232    0.0367    0.0250    0.0100   -0.0052   -0.0046
          41   -0.0160    0.0111   -0.0343    0.0751    0.0650    0.0071   -0.0210    0.0024
          42   -0.0160   -0.0250   -0.0522    0.1446    0.0623    0.0650   -0.0041   -0.0422
          43    0.0069   -0.0208    0.0148    0.0458   -0.0489   -0.1037    0.0850   -0.0071
          44    0.0082    0.0073   -0.0269   -0.0256    0.0570    0.1047   -0.0919   -0.0180
          45    0.0511   -0.0185    0.0014   -0.1125    0.0504    0.1203   -0.0777    0.0741
          46    0.0936    0.0235    0.0245    0.0414   -0.0300   -0.0658    0.0603   -0.0187
          47   -0.0614   -0.0493   -0.0319   -0.0465    0.0447    0.0514   -0.1113   -0.0544
          48   -0.1536    0.0103   -0.0203   -0.0469    0.0181    0.0934   -0.0164    0.0977
          49   -0.1902    0.0169   -0.0332   -0.0171   -0.0105    0.0122    0.0664    0.0536
          50    0.1039    0.0801    0.0341    0.0633   -0.0365    0.0317    0.0872    0.1140
          51    0.2051    0.0189    0.0492    0.0321   -0.0083   -0.0005   -0.0215    0.0023


   Root No.      17        18        19        20        21        22        23        24

                17 A      18 A      19 A      20 A      21 A      22 A      23 A      24 A   

                 957.8    1021.1    1032.2    1052.0    1072.1    1142.0    1162.5    1171.9
  
           1    0.0056    0.0071   -0.0113    0.0212   -0.0062    0.0471   -0.0231   -0.0165
           2    0.0005   -0.0054   -0.0178   -0.0163    0.0117    0.0001    0.0062    0.0579
           3    0.0053   -0.0072    0.0042   -0.0062   -0.0096   -0.0076    0.0442   -0.0436
           4    0.0096   -0.0095    0.0083   -0.0242    0.0061   -0.0108    0.0112   -0.0062
           5   -0.0026   -0.0005    0.0013   -0.0033   -0.0040   -0.0290    0.0197    0.0235
           6    0.0073    0.0039   -0.0070    0.0242    0.0072    0.0162    0.0027    0.0166
           7   -0.0054    0.0029    0.0208    0.0031    0.0020    0.0099   -0.0102   -0.0208
           8    0.0169    0.0001   -0.0275    0.0167   -0.0153   -0.0134   -0.0077   -0.0512
           9    0.0126    0.0011   -0.0077   -0.0073    0.0136    0.0148   -0.0089    0.0101
          10    0.0004   -0.0072    0.0139   -0.0182    0.0043   -0.0152    0.0067    0.0076
          11   -0.0031    0.0054    0.0176    0.0133   -0.0085    0.0004   -0.0003   -0.0146
          12   -0.0190    0.0080    0.0012    0.0049    0.0078   -0.0140   -0.0452    0.0168
          13    0.0113   -0.0240   -0.0030    0.0079   -0.0064    0.0062   -0.0111    0.0021
          14   -0.0003    0.0106   -0.0019   -0.0135   -0.0124    0.0012   -0.0022   -0.0018
          15   -0.0033    0.0058   -0.0040   -0.0235   -0.0274    0.0130   -0.0123   -0.0034
          16   -0.0121    0.0354    0.0019   -0.0117   -0.0025   -0.0122    0.0064    0.0013
          17    0.0025   -0.0259   -0.0009    0.0129    0.0109   -0.0041    0.0015    0.0011
          18   -0.0198   -0.0304    0.0053    0.0111    0.0123   -0.0088    0.0046    0.0020
          19   -0.0083   -0.0044   -0.0557   -0.0026   -0.0026   -0.0266    0.0107    0.0045
          20   -0.0055   -0.0018    0.0255    0.0027    0.0046    0.0146   -0.0166   -0.0182
          21    0.0089    0.0000   -0.0002   -0.0009   -0.0007   -0.0035    0.0007   -0.0019
          22    0.0069    0.0363   -0.0671    0.1409   -0.1167    0.0480    0.1880    0.1945
          23   -0.0446   -0.0200   -0.0266   -0.1284    0.1275    0.2428    0.0943   -0.0401
          24   -0.0163    0.0009   -0.0257    0.0013   -0.0095    0.1029    0.1878    0.0128
          25    0.0064    0.1206   -0.0104    0.0532    0.2036   -0.1003    0.0736   -0.0870
          26   -0.0926   -0.0115   -0.0517   -0.0519   -0.0441    0.0635   -0.0355   -0.0218
          27    0.0397    0.0674    0.0060    0.0769    0.1129   -0.0595    0.0537   -0.0033
          28   -0.0784    0.0067    0.2057    0.0142   -0.0198    0.0230    0.0223    0.0807
          29   -0.1115   -0.0100    0.1128    0.0346   -0.0688   -0.0399    0.0647   -0.0527
          30   -0.0289   -0.0060   -0.0067   -0.0012   -0.0081   -0.0051    0.0196   -0.0334
          31    0.0938    0.0266    0.1839    0.0073    0.0116    0.0332   -0.0173    0.1143
          32    0.1686    0.0223    0.0449    0.0008    0.0282    0.0265   -0.0468    0.0544
          33   -0.0234    0.0001    0.0374    0.0028   -0.0061    0.0049    0.0123    0.0176
          34   -0.0524    0.0331   -0.0427    0.0458    0.0089    0.0097   -0.0942    0.0468
          35   -0.0487    0.0118   -0.0454   -0.0084    0.0354   -0.0044   -0.0821    0.0693
          36   -0.0597    0.0281   -0.0466    0.0235    0.0284   -0.0081   -0.1225    0.0670
          37   -0.0136    0.0278    0.0246    0.0625   -0.0276    0.0147   -0.0314   -0.0226
          38   -0.0063    0.0096    0.0175    0.0215   -0.0105    0.0045   -0.0064   -0.0144
          39    0.0115    0.0211    0.0862    0.0649   -0.0471   -0.0058    0.0004   -0.0641
          40   -0.0011   -0.0105    0.0116   -0.0281    0.0100   -0.0198    0.0035    0.0206
          41   -0.0028   -0.0228    0.0094   -0.0630    0.0299   -0.0362   -0.0052    0.0527
          42    0.0299   -0.0393    0.0652   -0.0922    0.0316   -0.0748    0.0353    0.0286
          43   -0.0063    0.0100   -0.0047   -0.0608   -0.0531   -0.0071   -0.0165   -0.0060
          44   -0.0105    0.0175   -0.0002    0.0993    0.0795    0.0918    0.0031    0.0025
          45    0.0608   -0.0964   -0.0032   -0.0077   -0.0385   -0.0853   -0.0062    0.0128
          46   -0.0161   -0.1075    0.0038    0.0264    0.0266   -0.0071   -0.0006    0.0021
          47   -0.0477    0.1376    0.0064   -0.0178    0.0104   -0.0287    0.0255    0.0007
          48    0.0832    0.0963   -0.0139   -0.0481   -0.0691    0.0198   -0.0175   -0.0007
          49    0.0468   -0.1474   -0.0062    0.0295    0.0205    0.0251   -0.0166   -0.0102
          50    0.0959    0.0743   -0.0215   -0.0362   -0.0329    0.0396   -0.0206   -0.0112
          51   -0.0015    0.1515   -0.0019   -0.0478   -0.0322   -0.0081    0.0060    0.0028


   Root No.      25        26        27        28        29        30        31        32

                25 A      26 A      27 A      28 A      29 A      30 A      31 A      32 A   

                1198.7    1230.1    1300.9    1323.1    1329.7    1360.5    1397.0    1406.9
  
           1   -0.0269   -0.0385    0.0025   -0.0236   -0.0290   -0.0063    0.0071    0.0034
           2    0.0178    0.0114    0.0371   -0.0289   -0.0138    0.0166    0.0106    0.0032
           3    0.0170   -0.0069    0.0187   -0.0204   -0.0196   -0.0027    0.0138    0.0055
           4    0.0417   -0.0520    0.0144    0.0055    0.0268    0.0201    0.0072    0.0032
           5    0.0021   -0.0478   -0.0367   -0.0001    0.0292   -0.0205   -0.0140   -0.0091
           6   -0.0032   -0.0323    0.0125   -0.0013    0.0115    0.0253    0.0066    0.0034
           7   -0.0069    0.0315    0.0159   -0.0039    0.0624    0.0469   -0.0064   -0.0045
           8    0.0011   -0.0028   -0.0009   -0.0046    0.0383   -0.0271    0.0010    0.0036
           9   -0.0077   -0.0008   -0.0036    0.0031    0.0074    0.0029   -0.0018   -0.0008
          10    0.0052    0.0146    0.0016   -0.0009   -0.0001    0.0027   -0.0321    0.0209
          11   -0.0064   -0.0027   -0.0055   -0.0010   -0.0028   -0.0026   -0.0294   -0.0313
          12   -0.0013   -0.0010    0.0011   -0.0067   -0.0042    0.0016    0.0044   -0.0095
          13    0.0179    0.0389   -0.0179    0.0012   -0.0075   -0.0179   -0.0064   -0.0032
          14   -0.0040    0.0048   -0.0129   -0.0115   -0.0016    0.0105    0.0025    0.0013
          15    0.0260    0.0254    0.0004    0.0106   -0.0056   -0.0208   -0.0057   -0.0029
          16   -0.0250   -0.0134    0.0032   -0.0043    0.0018    0.0098    0.0030    0.0015
          17   -0.0224   -0.0048    0.0010   -0.0090   -0.0015    0.0179    0.0060    0.0033
          18   -0.0057   -0.0078    0.0001    0.0029    0.0028   -0.0061   -0.0024   -0.0014
          19    0.0077   -0.0061   -0.0195    0.0156   -0.0531   -0.0277    0.0019    0.0016
          20    0.0018    0.0532    0.0135    0.0105   -0.0286    0.0021    0.0045    0.0036
          21    0.0007    0.0020   -0.0014    0.0006   -0.0045   -0.0023    0.0002    0.0002
          22   -0.0238    0.1224    0.0230    0.0382    0.0571    0.0347   -0.0119    0.0020
          23   -0.1190   -0.0365   -0.0972    0.0366    0.0190   -0.0359   -0.0208   -0.0147
          24   -0.0448    0.0514   -0.0329    0.0398    0.0344   -0.0076   -0.0086   -0.0031
          25   -0.0223    0.1506    0.0012   -0.0207   -0.0668   -0.0283    0.0073    0.0071
          26    0.0042    0.0729    0.0389   -0.0036   -0.0404    0.0136    0.0117    0.0067
          27   -0.0322    0.0201   -0.0203   -0.0116   -0.0049   -0.0083   -0.0029   -0.0003
          28   -0.0053   -0.0231    0.0014   -0.0465   -0.0423   -0.1253    0.0137    0.0118
          29    0.0381   -0.0623   -0.0218    0.0705   -0.1758    0.1171    0.0053   -0.0110
          30    0.0104   -0.0107   -0.0094    0.0554   -0.0600    0.1370   -0.0071   -0.0147
          31   -0.0196   -0.0135   -0.0106   -0.0316   -0.0444   -0.1125    0.0067    0.0090
          32   -0.0105   -0.0603   -0.0527    0.0971   -0.1483    0.1192   -0.0108   -0.0134
          33   -0.0060    0.0080    0.0126   -0.0639    0.0508   -0.1489    0.0118    0.0148
          34   -0.0237    0.0019   -0.0335    0.0459    0.0382   -0.0070   -0.0600   -0.2376
          35   -0.0089    0.0069   -0.0295    0.0503    0.0367    0.0053   -0.0712    0.2863
          36   -0.0148   -0.0006   -0.0280    0.0414    0.0326    0.0009   -0.0482    0.0133
          37   -0.0303   -0.0017   -0.0507    0.0615    0.0441   -0.0225    0.3224   -0.0810
          38   -0.0115   -0.0029   -0.0157    0.0129    0.0073   -0.0063    0.0327   -0.0238
          39   -0.0297    0.0020   -0.0757    0.0925    0.0541   -0.0132   -0.0758    0.2331
          40    0.0055    0.0237   -0.0065    0.0155    0.0135    0.0003    0.0459    0.0253
          41    0.0090    0.0429   -0.0299    0.0612    0.0510   -0.0075    0.3165    0.0928
          42    0.0179    0.0775   -0.0433    0.0822    0.0679   -0.0053   -0.0622   -0.1848
          43   -0.0325    0.0424   -0.0125   -0.0037   -0.0116   -0.0099   -0.0036   -0.0018
          44    0.2873   -0.0098   -0.0302    0.0150    0.0171   -0.0264   -0.0084   -0.0047
          45   -0.2612    0.0414    0.0059   -0.0159   -0.0222    0.0093    0.0015    0.0013
          46   -0.0158    0.0036   -0.0335   -0.0267   -0.0010    0.0249    0.0061    0.0029
          47   -0.0814   -0.0829    0.1548    0.0904    0.0096   -0.0559   -0.0110   -0.0054
          48    0.0591    0.0710   -0.1307   -0.0851   -0.0083    0.0633    0.0147    0.0077
          49    0.0046   -0.0087    0.1197    0.0929   -0.0025   -0.0838   -0.0193   -0.0096
          50    0.0101   -0.0030    0.1353    0.1012   -0.0048   -0.0864   -0.0193   -0.0091
          51   -0.0045   -0.0054   -0.0081   -0.0025    0.0034   -0.0026   -0.0022   -0.0013


   Root No.      33        34        35        36        37        38        39        40

                33 A      34 A      35 A      36 A      37 A      38 A      39 A      40 A   

                1414.1    1460.6    1862.1    2910.2    2954.9    3020.8    3037.8    3076.0
  
           1    0.0073    0.0488   -0.0018   -0.0010    0.0239    0.0015    0.0002    0.0009
           2    0.0151    0.0433    0.0011   -0.0025    0.0228    0.0015   -0.0003    0.0009
           3    0.0195    0.0422   -0.0033    0.0043   -0.0499   -0.0034    0.0005   -0.0018
           4    0.0247   -0.0458    0.0179    0.0265    0.0027    0.0002   -0.0004   -0.0001
           5   -0.0408    0.0513   -0.0317   -0.0217   -0.0011   -0.0001    0.0000   -0.0000
           6    0.0205   -0.0339    0.0324   -0.0579   -0.0039   -0.0005    0.0001   -0.0000
           7   -0.0235    0.0311   -0.0034   -0.0006    0.0000    0.0016    0.0000   -0.0007
           8    0.0095   -0.0275    0.0023    0.0003    0.0007    0.0010    0.0000    0.0006
           9   -0.0032   -0.0044    0.0002   -0.0002    0.0052   -0.0565    0.0001   -0.0002
          10   -0.0218   -0.0256   -0.0004    0.0004   -0.0019    0.0000    0.0000    0.0269
          11   -0.0139   -0.0245    0.0001    0.0003   -0.0018   -0.0002    0.0001    0.0282
          12   -0.0458   -0.0429    0.0006   -0.0002    0.0016    0.0002   -0.0000   -0.0308
          13   -0.0181    0.0228    0.0358   -0.0003   -0.0000   -0.0001   -0.0589    0.0000
          14    0.0058   -0.0034    0.2048    0.0002   -0.0002   -0.0001   -0.0367   -0.0000
          15   -0.0146    0.0167   -0.1271   -0.0008   -0.0001   -0.0000   -0.0190    0.0000
          16    0.0079   -0.0094   -0.0600    0.0000    0.0005    0.0000    0.0046    0.0003
          17    0.0163   -0.0207   -0.1771   -0.0004    0.0002    0.0000    0.0019    0.0002
          18   -0.0069    0.0093    0.0868    0.0001    0.0001    0.0000    0.0022    0.0001
          19    0.0107   -0.0264    0.0030    0.0008   -0.0006    0.0000   -0.0003   -0.0001
          20    0.0158   -0.0296    0.0019   -0.0008   -0.0007    0.0000    0.0003   -0.0000
          21    0.0007   -0.0007    0.0021   -0.0010   -0.0003   -0.0010   -0.0003   -0.0000
          22   -0.0114   -0.0620    0.0085    0.0224   -0.2922   -0.0185    0.0017   -0.0079
          23   -0.0317   -0.0410   -0.0024    0.0250   -0.2752   -0.0216    0.0014   -0.0074
          24   -0.0104   -0.0493   -0.0001   -0.0557    0.6039    0.0375   -0.0032    0.0232
          25   -0.0073    0.0420    0.0047   -0.3304   -0.0255   -0.0018   -0.0004   -0.0006
          26    0.0292   -0.0207    0.0089    0.2675    0.0179    0.0014   -0.0016   -0.0002
          27   -0.0208    0.0331    0.0063    0.7163    0.0470    0.0036   -0.0023   -0.0015
          28    0.0424   -0.0278   -0.0008   -0.0021   -0.0149    0.1657   -0.0002    0.0040
          29   -0.0156    0.0423   -0.0006    0.0029    0.0152   -0.2117    0.0004   -0.0058
          30   -0.0409    0.0543   -0.0030   -0.0050   -0.0327    0.3670   -0.0005    0.0094
          31    0.0307   -0.0318    0.0006   -0.0019    0.0182   -0.1853    0.0003    0.0039
          32   -0.0335    0.0030    0.0023    0.0014   -0.0144    0.1979   -0.0005   -0.0042
          33    0.0471   -0.0502    0.0033    0.0040   -0.0308    0.3216   -0.0008   -0.0082
          34    0.1472    0.0726   -0.0001   -0.0008    0.0120    0.0011   -0.0002   -0.1759
          35    0.0685    0.0655    0.0001   -0.0020    0.0112    0.0015   -0.0001   -0.1667
          36    0.0824    0.0495    0.0007    0.0046   -0.0190   -0.0014    0.0003    0.3937
          37    0.0051    0.0248   -0.0000    0.0008   -0.0042   -0.0008    0.0001    0.0487
          38   -0.0064   -0.0110   -0.0000   -0.0018    0.0145    0.0060   -0.0007   -0.2239
          39    0.1042    0.0655   -0.0009    0.0002   -0.0028    0.0001   -0.0000   -0.0123
          40   -0.0132   -0.0097   -0.0008    0.0010    0.0147    0.0004    0.0001   -0.1934
          41   -0.0165    0.0245   -0.0004    0.0001   -0.0049   -0.0002    0.0000    0.0543
          42    0.1664    0.0689   -0.0011    0.0002   -0.0026   -0.0001    0.0000   -0.0131
          43   -0.0111    0.0173    0.1138    0.0028    0.0034    0.0010    0.6868   -0.0002
          44   -0.0199    0.0153    0.0103    0.0001    0.0015    0.0005    0.3788   -0.0002
          45    0.0004    0.0090    0.0827   -0.0008    0.0013    0.0004    0.2579   -0.0001
          46    0.0147   -0.0158   -0.1318   -0.0015   -0.0043   -0.0005    0.0065   -0.0032
          47   -0.0224    0.0150   -0.0121    0.0002   -0.0032   -0.0003    0.0057   -0.0019
          48    0.0335   -0.0299   -0.0943    0.0002   -0.0015   -0.0001    0.0010   -0.0010
          49   -0.0453    0.0433    0.1109    0.0015    0.0004    0.0000   -0.0418    0.0002
          50   -0.0440    0.0388   -0.0228   -0.0016   -0.0002   -0.0000    0.0306   -0.0001
          51   -0.0069    0.0105    0.1043    0.0009    0.0004    0.0000   -0.0569    0.0002


   Root No.      41        42        43        44        45

                41 A      42 A      43 A      44 A      45 A   

                3083.7    3094.6    3132.7    3147.4    3176.7
  
           1   -0.0002    0.0004    0.0003   -0.0000   -0.0003
           2    0.0001   -0.0007    0.0002   -0.0001   -0.0003
           3    0.0001   -0.0002   -0.0004    0.0001   -0.0001
           4    0.0002   -0.0010    0.0000   -0.0001    0.0000
           5    0.0001    0.0011   -0.0004   -0.0004    0.0001
           6    0.0003    0.0002    0.0002    0.0004    0.0001
           7   -0.0000    0.0274   -0.0001    0.0001    0.0001
           8   -0.0003   -0.0316    0.0001   -0.0001   -0.0000
           9   -0.0005   -0.0010   -0.0000    0.0000    0.0002
          10   -0.0401    0.0010   -0.0005    0.0001   -0.0121
          11    0.0399    0.0008    0.0006   -0.0001   -0.0108
          12    0.0015   -0.0008   -0.0005    0.0001   -0.0184
          13    0.0000    0.0000    0.0005   -0.0063   -0.0000
          14   -0.0000   -0.0000    0.0038   -0.0079   -0.0000
          15    0.0000    0.0001   -0.0024    0.0010    0.0000
          16    0.0005   -0.0001   -0.0583   -0.0208    0.0004
          17    0.0003   -0.0001   -0.0304    0.0366    0.0003
          18    0.0001    0.0000   -0.0237   -0.0446    0.0001
          19    0.0000    0.0006    0.0000   -0.0000   -0.0000
          20    0.0000   -0.0007   -0.0000    0.0001   -0.0000
          21   -0.0000    0.0000    0.0000   -0.0000   -0.0000
          22   -0.0007   -0.0008   -0.0018    0.0007    0.0008
          23    0.0012   -0.0016   -0.0029    0.0004    0.0007
          24   -0.0008    0.0026    0.0050   -0.0012   -0.0034
          25    0.0010    0.0017   -0.0004    0.0006    0.0001
          26   -0.0002   -0.0012    0.0002   -0.0008   -0.0005
          27   -0.0009   -0.0039    0.0009   -0.0015   -0.0016
          28    0.0004   -0.1396    0.0005   -0.0005   -0.0010
          29   -0.0011    0.1838   -0.0007    0.0007    0.0008
          30    0.0011   -0.3742    0.0012   -0.0012   -0.0026
          31   -0.0016   -0.1883    0.0005   -0.0005   -0.0001
          32    0.0014    0.2003   -0.0005    0.0006    0.0001
          33    0.0029    0.3856   -0.0009    0.0011    0.0005
          34   -0.0108   -0.0047   -0.0036    0.0007   -0.1254
          35    0.0292   -0.0051   -0.0030    0.0006   -0.1193
          36   -0.0199    0.0107    0.0072   -0.0014    0.2510
          37    0.0468    0.0017    0.0005   -0.0001   -0.0524
          38   -0.4379   -0.0073   -0.0028    0.0002    0.3182
          39    0.0079   -0.0002    0.0002   -0.0000   -0.0131
          40    0.4436   -0.0086    0.0089   -0.0014    0.3244
          41   -0.0691    0.0019   -0.0014    0.0002   -0.0678
          42   -0.0059   -0.0004   -0.0005    0.0001   -0.0129
          43   -0.0003    0.0001    0.0071    0.0512    0.0001
          44   -0.0002    0.0000    0.0071    0.0307    0.0000
          45   -0.0001    0.0000    0.0004    0.0175    0.0000
          46   -0.0054    0.0014    0.6384   -0.1015   -0.0047
          47   -0.0033    0.0008    0.3756   -0.0460   -0.0027
          48   -0.0017    0.0005    0.2269   -0.0464   -0.0018
          49    0.0001   -0.0008    0.0424    0.3736    0.0003
          50    0.0001    0.0007   -0.0600   -0.3222   -0.0001
          51    0.0000   -0.0011    0.0798    0.5450    0.0003


           MASS-WEIGHTED COORDINATE ANALYSIS (NORMAL COORDINATES)


   Root No.       1         2         3         4         5         6         7         8

                 1 A       2 A       3 A       4 A       5 A       6 A       7 A       8 A   

                  85.4     147.0     164.4     216.9     287.9     371.6     456.0     503.4
  
           1    0.0068   -0.0783   -0.0025   -0.1867   -0.2101    0.1595    0.1810   -0.1678
           2   -0.1521   -0.0589    0.0180    0.1112    0.1490   -0.1984    0.0870    0.0202
           3   -0.0899   -0.0090    0.0262   -0.0880    0.2422    0.1657   -0.3207   -0.2237
           4    0.0071   -0.0726   -0.0059   -0.1784   -0.2329    0.1843    0.1491   -0.0581
           5   -0.1141   -0.1752   -0.0440   -0.0792   -0.0009    0.0844    0.2262   -0.0199
           6   -0.1699    0.0024   -0.0275    0.1555    0.2050    0.2592    0.0677    0.3358
           7   -0.0381    0.0339    0.0545    0.0133   -0.1023   -0.1796   -0.0515    0.1045
           8   -0.1497   -0.0631    0.0157    0.1121    0.1502   -0.2171    0.1027    0.0427
           9    0.3028    0.1139    0.0538   -0.3264    0.0463   -0.2631    0.0300    0.0408
          10   -0.0249   -0.1120    0.0334   -0.1513    0.4191   -0.0820   -0.1634   -0.2300
          11    0.2070    0.2757    0.0163    0.1353    0.0136    0.3314   -0.1206   -0.1848
          12   -0.2626   -0.1734    0.0069   -0.1302   -0.0363    0.0296   -0.0428   -0.1837
          13    0.1429   -0.1565   -0.0976    0.0746    0.0254    0.2432   -0.1821    0.3306
          14   -0.0542    0.2098    0.0526   -0.1306   -0.1734   -0.0868   -0.2443    0.1753
          15   -0.2162    0.3042    0.0947   -0.0383   -0.0868    0.1498    0.0603    0.2448
          16   -0.0639    0.3363   -0.0507    0.4143    0.0596   -0.0833    0.0908   -0.0030
          17    0.3132   -0.0893   -0.0155   -0.1229   -0.1325   -0.0685   -0.2803    0.1162
          18    0.3943    0.0402   -0.0103    0.2141    0.0339   -0.0245    0.2420   -0.1544
          19   -0.0265    0.0456    0.0668   -0.0315   -0.0710   -0.1719   -0.0286    0.0904
          20   -0.1171   -0.1560   -0.0364   -0.0942    0.0208    0.1283    0.3219   -0.0992
          21    0.0155   -0.3274   -0.1863    0.3381   -0.4083   -0.2530   -0.1942   -0.0185
          22    0.0081   -0.0400    0.0041   -0.1007   -0.1312    0.0563    0.0821   -0.1401
          23   -0.1199   -0.0528   -0.0049    0.0796    0.0634   -0.0736   -0.0040    0.0351
          24   -0.0576   -0.0287    0.0051   -0.0279    0.0414    0.0429   -0.0863   -0.0936
          25   -0.0067   -0.0138   -0.0127   -0.0570   -0.1223    0.0721    0.1337    0.0085
          26   -0.0164   -0.1517   -0.0600    0.0130   -0.0460    0.0359    0.1341   -0.0495
          27   -0.0581    0.0420    0.0051    0.0276    0.0432    0.0765    0.0341    0.1217
          28   -0.0656   -0.0686   -0.0256    0.1647   -0.1413   -0.0917   -0.1818   -0.0372
          29    0.0246    0.0191    0.0230   -0.0091    0.0390   -0.1832    0.1304    0.1407
          30    0.1483    0.0872    0.0435   -0.1877    0.0604   -0.1298    0.1412    0.1185
          31    0.0327    0.1040    0.0687   -0.1089    0.1016   -0.0913    0.0875    0.1515
          32   -0.1149   -0.0371   -0.0007    0.1084    0.0677   -0.0026   -0.1119   -0.0720
          33    0.1532    0.0954    0.0476   -0.2014    0.0719   -0.1341    0.1533    0.1321
          34   -0.0104    0.0707   -0.3538   -0.1122    0.2524   -0.0565   -0.1471   -0.1083
          35    0.1386    0.0435    0.3963    0.1291    0.0026    0.2120   -0.1087   -0.0986
          36   -0.0447   -0.0206    0.0066   -0.0305    0.0443    0.0411   -0.0833   -0.0873
          37   -0.0148   -0.1753    0.4848    0.0484    0.1768   -0.0996   -0.0708   -0.0495
          38    0.0599    0.0615    0.0691    0.0524    0.0105    0.0902   -0.0391   -0.0530
          39   -0.1723   -0.0645   -0.2709   -0.1072    0.0346   -0.1663    0.0509    0.0017
          40   -0.0061   -0.0067   -0.0761   -0.0609    0.1158   -0.0123   -0.0477   -0.0735
          41    0.0678    0.2229   -0.4671   -0.0532   -0.0463    0.1758   -0.0216   -0.0832
          42   -0.0535   -0.1067    0.2661    0.0118   -0.1897    0.1036    0.0988   -0.0308
          43    0.1337   -0.1757   -0.0656    0.0541    0.0914    0.1291   -0.0137    0.1801
          44   -0.0782    0.2143    0.0478   -0.0231   -0.1206   -0.1196   -0.1274   -0.0355
          45   -0.2151    0.2101    0.0783   -0.1134   -0.1467    0.0197    0.0052   -0.0357
          46   -0.1049    0.2273    0.0225    0.0913   -0.0672   -0.0938    0.0121   -0.1435
          47    0.1396   -0.1739   -0.0356   -0.0625    0.0281    0.0991   -0.1405    0.2820
          48    0.2781   -0.1071   -0.0565    0.1932    0.1391   -0.0126    0.2168   -0.0655
          49    0.0224    0.0910   -0.0401    0.2389    0.1114   -0.0544    0.1619   -0.0180
          50    0.1305    0.0513    0.0091    0.0015   -0.0909   -0.1413   -0.0319   -0.2403
          51    0.1110    0.0625    0.0223    0.0051   -0.0849   -0.0606    0.0132   -0.2030


   Root No.       9        10        11        12        13        14        15        16

                 9 A      10 A      11 A      12 A      13 A      14 A      15 A      16 A   

                 637.2     747.6     760.1     883.3     919.1     935.2     940.1     952.7
  
           1   -0.1059   -0.1281   -0.1398    0.2690    0.1053    0.0147   -0.0389   -0.0684
           2    0.1241   -0.2771   -0.0863   -0.0557   -0.1880    0.0834    0.0373   -0.0048
           3   -0.0445    0.1855    0.0511   -0.1107    0.0223   -0.0779   -0.0697    0.0028
           4    0.0566   -0.1607   -0.0163   -0.3379   -0.0900   -0.1097    0.0793    0.1673
           5   -0.0373    0.2456    0.1787   -0.0553   -0.0371    0.0043   -0.0044    0.0057
           6    0.1137    0.2364    0.1339    0.2721   -0.0017    0.1984    0.1276    0.0823
           7   -0.1004    0.2853    0.1223   -0.0110   -0.0254   -0.0148   -0.0606   -0.0133
           8    0.1114   -0.1909   -0.0220    0.0659    0.4085   -0.1963   -0.0171    0.0161
           9   -0.0822   -0.2122    0.4230   -0.0049    0.0572    0.0230    0.0398   -0.0936
          10   -0.0511   -0.0700   -0.1505    0.2401    0.1009    0.1260    0.0047   -0.0790
          11   -0.0012   -0.1027   -0.1296   -0.0234   -0.2343    0.1769    0.1333   -0.0995
          12   -0.0353   -0.0559   -0.1767    0.0255    0.0022    0.0245    0.0674    0.0941
          13    0.4046   -0.1471    0.0505   -0.1045    0.0554    0.1117   -0.0754    0.1250
          14   -0.2409    0.0322   -0.0631    0.0633   -0.0479   -0.0963    0.1257   -0.0091
          15   -0.1087   -0.1718   -0.0329   -0.0608   -0.0313   -0.1826    0.0972   -0.0499
          16    0.0156   -0.0430    0.0020   -0.0311    0.0288    0.0011   -0.1333   -0.1336
          17   -0.0257    0.0704   -0.0359    0.0592   -0.0135    0.0091    0.0920    0.0198
          18    0.0836   -0.0751    0.0188   -0.0962    0.0387   -0.1038   -0.1066   -0.2362
          19   -0.1122    0.2451    0.1426    0.0644   -0.1827    0.1021   -0.0932   -0.0733
          20   -0.0187    0.1362    0.2338    0.0205   -0.2113   -0.1316   -0.4232    0.0163
          21   -0.0117    0.0979   -0.2769   -0.0172   -0.0886   -0.0928   -0.1140   -0.0133
          22   -0.0661   -0.0840   -0.0563   -0.0095    0.0942   -0.1464    0.0216   -0.0251
          23    0.0704   -0.0627   -0.1058   -0.0430   -0.0378    0.0148   -0.0252    0.1406
          24   -0.0155    0.0364   -0.0331   -0.0784    0.0405   -0.0925   -0.0195    0.0621
          25   -0.0400   -0.0586   -0.0320   -0.1497    0.0827   -0.0486    0.3477    0.0557
          26    0.0917    0.3081    0.0490   -0.2492    0.3279    0.2714    0.4390   -0.3056
          27   -0.0307   -0.0286    0.0263    0.1345   -0.0794   -0.0549    0.0196    0.1427
          28   -0.1434   -0.1527    0.4566    0.0403    0.1715    0.0365    0.1235    0.1874
          29    0.0989   -0.0716   -0.1425    0.0843    0.2180   -0.0378    0.0590    0.3377
          30    0.0667    0.0425   -0.1511    0.0183   -0.0037   -0.0012   -0.0143    0.0791
          31    0.0913    0.3599   -0.3229   -0.1614    0.0711   -0.1637    0.0044   -0.1290
          32   -0.0078   -0.0453    0.1454   -0.1523    0.2242   -0.1874    0.0452   -0.2522
          33    0.0721    0.0884   -0.1804    0.0106   -0.0070   -0.0062   -0.0101    0.0613
          34   -0.0144    0.0432   -0.0177   -0.1735   -0.0039   -0.1353    0.0053    0.1453
          35   -0.0263    0.0900   -0.0425   -0.0421    0.1280   -0.1374   -0.0458    0.1644
          36   -0.0203    0.0587   -0.0423   -0.1081    0.0653   -0.1396   -0.0108    0.1762
          37    0.0164   -0.0775   -0.0286   -0.1370   -0.2159    0.0705    0.1001   -0.0445
          38    0.0029   -0.0340   -0.0375   -0.0311   -0.0927    0.0523    0.0488   -0.0266
          39    0.0358   -0.1809   -0.0567   -0.0496   -0.3409    0.2472    0.1767   -0.1819
          40   -0.0208   -0.0112   -0.0498    0.0975    0.0671    0.0278   -0.0123   -0.0140
          41   -0.0345    0.0255   -0.0736    0.1994    0.1744    0.0199   -0.0500    0.0073
          42   -0.0345   -0.0572   -0.1119    0.3839    0.1673    0.1813   -0.0098   -0.1276
          43    0.0147   -0.0478    0.0318    0.1216   -0.1312   -0.2893    0.2028   -0.0214
          44    0.0177    0.0168   -0.0577   -0.0680    0.1530    0.2919   -0.2193   -0.0545
          45    0.1099   -0.0425    0.0029   -0.2987    0.1353    0.3356   -0.1853    0.2240
          46    0.2014    0.0539    0.0526    0.1098   -0.0804   -0.1834    0.1439   -0.0566
          47   -0.1320   -0.1130   -0.0685   -0.1234    0.1201    0.1434   -0.2654   -0.1644
          48   -0.3303    0.0236   -0.0435   -0.1245    0.0486    0.2604   -0.0391    0.2953
          49   -0.4092    0.0386   -0.0712   -0.0453   -0.0281    0.0339    0.1584    0.1622
          50    0.2235    0.1836    0.0731    0.1679   -0.0980    0.0883    0.2080    0.3446
          51    0.4411    0.0432    0.1055    0.0851   -0.0222   -0.0014   -0.0513    0.0068


   Root No.      17        18        19        20        21        22        23        24

                17 A      18 A      19 A      20 A      21 A      22 A      23 A      24 A   

                 957.8    1021.1    1032.2    1052.0    1072.1    1142.0    1162.5    1171.9
  
           1    0.0544    0.0587   -0.0888    0.1933   -0.0563    0.3733   -0.1762   -0.1215
           2    0.0050   -0.0448   -0.1399   -0.1486    0.1060    0.0007    0.0476    0.4263
           3    0.0513   -0.0593    0.0328   -0.0563   -0.0877   -0.0606    0.3376   -0.3208
           4    0.0929   -0.0783    0.0653   -0.2206    0.0555   -0.0860    0.0854   -0.0455
           5   -0.0253   -0.0044    0.0102   -0.0300   -0.0364   -0.2296    0.1506    0.1726
           6    0.0709    0.0320   -0.0546    0.2205    0.0653    0.1282    0.0204    0.1222
           7   -0.0524    0.0238    0.1634    0.0286    0.0181    0.0788   -0.0776   -0.1530
           8    0.1638    0.0007   -0.2155    0.1520   -0.1393   -0.1062   -0.0586   -0.3768
           9    0.1218    0.0093   -0.0601   -0.0664    0.1232    0.1174   -0.0681    0.0743
          10    0.0042   -0.0598    0.1091   -0.1656    0.0390   -0.1205    0.0514    0.0557
          11   -0.0304    0.0450    0.1379    0.1216   -0.0768    0.0033   -0.0021   -0.1071
          12   -0.1840    0.0659    0.0096    0.0450    0.0712   -0.1112   -0.3447    0.1239
          13    0.1091   -0.1981   -0.0237    0.0721   -0.0586    0.0489   -0.0850    0.0158
          14   -0.0028    0.0873   -0.0150   -0.1227   -0.1123    0.0092   -0.0166   -0.0132
          15   -0.0322    0.0481   -0.0314   -0.2146   -0.2487    0.1028   -0.0941   -0.0250
          16   -0.1168    0.2924    0.0149   -0.1071   -0.0226   -0.0966    0.0490    0.0096
          17    0.0243   -0.2134   -0.0073    0.1173    0.0994   -0.0323    0.0114    0.0079
          18   -0.1913   -0.2510    0.0414    0.1010    0.1114   -0.0695    0.0351    0.0149
          19   -0.0800   -0.0359   -0.4366   -0.0233   -0.0240   -0.2108    0.0821    0.0331
          20   -0.0530   -0.0150    0.1997    0.0248    0.0417    0.1157   -0.1265   -0.1341
          21    0.0862    0.0002   -0.0013   -0.0080   -0.0060   -0.0279    0.0057   -0.0141
          22    0.0193    0.0868   -0.1523    0.3720   -0.3072    0.1101    0.4156    0.4145
          23   -0.1250   -0.0477   -0.0603   -0.3391    0.3355    0.5576    0.2086   -0.0854
          24   -0.0458    0.0022   -0.0583    0.0034   -0.0251    0.2363    0.4153    0.0272
          25    0.0179    0.2883   -0.0236    0.1404    0.5358   -0.2304    0.1627   -0.1855
          26   -0.2597   -0.0276   -0.1175   -0.1370   -0.1161    0.1458   -0.0785   -0.0464
          27    0.1114    0.1611    0.0135    0.2031    0.2972   -0.1366    0.1187   -0.0070
          28   -0.2199    0.0161    0.4671    0.0375   -0.0520    0.0529    0.0493    0.1720
          29   -0.3127   -0.0238    0.2561    0.0913   -0.1811   -0.0916    0.1430   -0.1124
          30   -0.0811   -0.0143   -0.0152   -0.0032   -0.0213   -0.0117    0.0432   -0.0712
          31    0.2630    0.0635    0.4176    0.0192    0.0305    0.0763   -0.0383    0.2436
          32    0.4728    0.0532    0.1019    0.0021    0.0741    0.0609   -0.1036    0.1159
          33   -0.0655    0.0002    0.0849    0.0073   -0.0160    0.0113    0.0272    0.0375
          34   -0.1470    0.0791   -0.0969    0.1208    0.0235    0.0222   -0.2084    0.0997
          35   -0.1367    0.0281   -0.1032   -0.0223    0.0931   -0.0102   -0.1815    0.1477
          36   -0.1675    0.0671   -0.1059    0.0620    0.0746   -0.0185   -0.2708    0.1428
          37   -0.0381    0.0665    0.0559    0.1649   -0.0727    0.0339   -0.0694   -0.0481
          38   -0.0176    0.0230    0.0398    0.0568   -0.0277    0.0103   -0.0141   -0.0306
          39    0.0322    0.0504    0.1957    0.1715   -0.1238   -0.0134    0.0009   -0.1366
          40   -0.0030   -0.0250    0.0263   -0.0741    0.0264   -0.0454    0.0078    0.0439
          41   -0.0080   -0.0545    0.0214   -0.1663    0.0788   -0.0830   -0.0116    0.1124
          42    0.0838   -0.0940    0.1480   -0.2435    0.0831   -0.1718    0.0780    0.0609
          43   -0.0176    0.0240   -0.0107   -0.1605   -0.1397   -0.0164   -0.0365   -0.0129
          44   -0.0295    0.0418   -0.0005    0.2621    0.2091    0.2109    0.0070    0.0053
          45    0.1704   -0.2305   -0.0074   -0.0204   -0.1014   -0.1959   -0.0138    0.0273
          46   -0.0452   -0.2570    0.0086    0.0697    0.0699   -0.0162   -0.0013    0.0044
          47   -0.1338    0.3288    0.0145   -0.0469    0.0274   -0.0659    0.0563    0.0014
          48    0.2333    0.2302   -0.0316   -0.1271   -0.1817    0.0454   -0.0387   -0.0015
          49    0.1314   -0.3524   -0.0140    0.0778    0.0541    0.0577   -0.0366   -0.0218
          50    0.2689    0.1776   -0.0489   -0.0955   -0.0866    0.0910   -0.0456   -0.0238
          51   -0.0041    0.3622   -0.0043   -0.1262   -0.0848   -0.0186    0.0133    0.0059


   Root No.      25        26        27        28        29        30        31        32

                25 A      26 A      27 A      28 A      29 A      30 A      31 A      32 A   

                1198.7    1230.1    1300.9    1323.1    1329.7    1360.5    1397.0    1406.9
  
           1   -0.1851   -0.2662    0.0215   -0.2296   -0.2053   -0.0476    0.0475    0.0228
           2    0.1227    0.0789    0.3166   -0.2803   -0.0977    0.1263    0.0712    0.0212
           3    0.1170   -0.0478    0.1591   -0.1978   -0.1388   -0.0205    0.0931    0.0370
           4    0.2873   -0.3596    0.1224    0.0532    0.1899    0.1524    0.0486    0.0212
           5    0.0146   -0.3306   -0.3130   -0.0011    0.2069   -0.1557   -0.0944   -0.0612
           6   -0.0218   -0.2229    0.1063   -0.0127    0.0812    0.1923    0.0444    0.0229
           7   -0.0475    0.2180    0.1354   -0.0376    0.4414    0.3565   -0.0430   -0.0300
           8    0.0074   -0.0196   -0.0073   -0.0442    0.2714   -0.2057    0.0067    0.0244
           9   -0.0529   -0.0054   -0.0307    0.0301    0.0522    0.0217   -0.0124   -0.0051
          10    0.0355    0.1008    0.0135   -0.0092   -0.0005    0.0206   -0.2156    0.1396
          11   -0.0438   -0.0184   -0.0470   -0.0098   -0.0200   -0.0201   -0.1979   -0.2097
          12   -0.0093   -0.0066    0.0094   -0.0651   -0.0301    0.0123    0.0293   -0.0639
          13    0.1234    0.2690   -0.1524    0.0117   -0.0533   -0.1362   -0.0433   -0.0217
          14   -0.0274    0.0335   -0.1102   -0.1122   -0.0116    0.0797    0.0171    0.0084
          15    0.1787    0.1753    0.0032    0.1034   -0.0399   -0.1583   -0.0387   -0.0195
          16   -0.1724   -0.0923    0.0277   -0.0422    0.0127    0.0746    0.0201    0.0103
          17   -0.1539   -0.0332    0.0083   -0.0873   -0.0107    0.1357    0.0403    0.0220
          18   -0.0395   -0.0538    0.0007    0.0281    0.0196   -0.0461   -0.0163   -0.0097
          19    0.0531   -0.0422   -0.1666    0.1518   -0.3756   -0.2102    0.0125    0.0104
          20    0.0126    0.3676    0.1155    0.1017   -0.2026    0.0163    0.0303    0.0241
          21    0.0045    0.0136   -0.0121    0.0063   -0.0320   -0.0171    0.0015    0.0012
          22   -0.0474    0.2450    0.0567    0.1076    0.1170    0.0765   -0.0232    0.0038
          23   -0.2374   -0.0732   -0.2401    0.1029    0.0390   -0.0790   -0.0405   -0.0285
          24   -0.0894    0.1028   -0.0812    0.1122    0.0704   -0.0167   -0.0167   -0.0060
          25   -0.0444    0.3015    0.0029   -0.0582   -0.1369   -0.0622    0.0143    0.0138
          26    0.0083    0.1459    0.0961   -0.0102   -0.0828    0.0299    0.0227    0.0131
          27   -0.0642    0.0403   -0.0502   -0.0326   -0.0101   -0.0184   -0.0056   -0.0006
          28   -0.0106   -0.0462    0.0035   -0.1308   -0.0867   -0.2759    0.0267    0.0229
          29    0.0759   -0.1248   -0.0539    0.1983   -0.3604    0.2579    0.0103   -0.0213
          30    0.0207   -0.0214   -0.0231    0.1560   -0.1231    0.3017   -0.0138   -0.0284
          31   -0.0391   -0.0269   -0.0261   -0.0890   -0.0909   -0.2477    0.0130    0.0175
          32   -0.0209   -0.1206   -0.1301    0.2732   -0.3041    0.2625   -0.0211   -0.0261
          33   -0.0120    0.0159    0.0311   -0.1800    0.1042   -0.3279    0.0229    0.0287
          34   -0.0473    0.0038   -0.0826    0.1291    0.0783   -0.0154   -0.1169   -0.4607
          35   -0.0177    0.0139   -0.0728    0.1416    0.0752    0.0116   -0.1386    0.5553
          36   -0.0296   -0.0013   -0.0691    0.1166    0.0668    0.0020   -0.0940    0.0257
          37   -0.0605   -0.0034   -0.1253    0.1731    0.0904   -0.0494    0.6282   -0.1570
          38   -0.0230   -0.0058   -0.0389    0.0364    0.0149   -0.0140    0.0637   -0.0461
          39   -0.0591    0.0040   -0.1869    0.2602    0.1109   -0.0290   -0.1477    0.4520
          40    0.0109    0.0473   -0.0160    0.0436    0.0277    0.0006    0.0894    0.0491
          41    0.0180    0.0858   -0.0738    0.1723    0.1045   -0.0166    0.6167    0.1801
          42    0.0357    0.1552   -0.1068    0.2314    0.1391   -0.0116   -0.1211   -0.3583
          43   -0.0649    0.0848   -0.0308   -0.0104   -0.0238   -0.0219   -0.0071   -0.0035
          44    0.5728   -0.0196   -0.0745    0.0423    0.0351   -0.0582   -0.0164   -0.0091
          45   -0.5210    0.0829    0.0146   -0.0448   -0.0456    0.0205    0.0030    0.0025
          46   -0.0315    0.0072   -0.0827   -0.0751   -0.0021    0.0549    0.0119    0.0056
          47   -0.1623   -0.1659    0.3823    0.2544    0.0197   -0.1230   -0.0215   -0.0105
          48    0.1180    0.1421   -0.3227   -0.2397   -0.0170    0.1395    0.0286    0.0150
          49    0.0091   -0.0174    0.2955    0.2616   -0.0052   -0.1844   -0.0377   -0.0185
          50    0.0202   -0.0059    0.3340    0.2848   -0.0098   -0.1902   -0.0376   -0.0176
          51   -0.0090   -0.0109   -0.0200   -0.0070    0.0070   -0.0058   -0.0043   -0.0025


   Root No.      33        34        35        36        37        38        39        40

                33 A      34 A      35 A      36 A      37 A      38 A      39 A      40 A   

                1414.1    1460.6    1862.1    2910.2    2954.9    3020.8    3037.8    3076.0
  
           1    0.0585    0.3164   -0.0055   -0.0041    0.1086    0.0078    0.0007    0.0054
           2    0.1211    0.2808    0.0034   -0.0101    0.1036    0.0078   -0.0013    0.0054
[...]
 RED. MASS   0.6388         C  1 -- C  2          +8.3% ( 39.5%)     38.1%
 EFF. MASS   5.2164

 VIBRATION   24   24A         ATOM PAIR      ENERGY CONTRIBUTION    RADIAL
 FREQ.      1171.90         C  1 -- C  3         +17.4% ( 67.1%)     80.5%
 T-DIPOLE    0.3262         C  1 -- H  8         +14.7% ( 61.7%)     11.2%
 TRAVEL      0.0883         C  1 -- C  4         +11.1% ( 53.5%)      8.9%
 RED. MASS   1.5143         C  1 -- C  2         +10.3% ( 51.6%)      2.2%
 EFF. MASS   7.3745

 VIBRATION   25   25A         ATOM PAIR      ENERGY CONTRIBUTION    RADIAL
 FREQ.      1198.65         C  5 -- H 15         +39.8% ( 78.2%)      1.0%
 T-DIPOLE    0.0634         C  1 -- C  2          +8.5% ( 36.1%)     87.8%
 TRAVEL      0.1246         C  1 -- H  8          +7.0% ( 32.7%)      4.4%
 RED. MASS   0.5690         C  5 -- C  6          +6.5% ( 31.5%)      7.9%
 EFF. MASS   3.6231

 VIBRATION   26   26A         ATOM PAIR      ENERGY CONTRIBUTION    RADIAL
 FREQ.      1230.06         C  2 -- C  7         +15.1% ( 59.7%)     78.7%
 T-DIPOLE    0.6064         C  2 -- C  5         +14.3% ( 58.0%)     27.4%
 TRAVEL      0.0812         C  2 -- H  9         +13.5% ( 56.3%)      1.9%
 RED. MASS   1.4839         C  2 -- C  3          +9.3% ( 46.7%)      6.3%
 EFF. MASS   8.3230

 VIBRATION   27   27A         ATOM PAIR      ENERGY CONTRIBUTION    RADIAL
 FREQ.      1300.93         C  1 -- C  2         +11.5% ( 44.6%)      2.5%
 T-DIPOLE    0.4113         C  6 -- H 16         +10.4% ( 42.5%)      0.0%
 TRAVEL      0.1055         C  1 -- H  8          +9.6% ( 40.7%)      0.0%
 RED. MASS   0.5312         C  2 -- C  7          +8.5% ( 38.4%)     62.6%
 EFF. MASS   4.6539

 VIBRATION   28   28A         ATOM PAIR      ENERGY CONTRIBUTION    RADIAL
 FREQ.      1323.11         C  1 -- H  8         +12.8% ( 42.6%)      0.1%
 T-DIPOLE    0.1641         C  1 -- C  7         +12.1% ( 41.5%)     89.7%
 TRAVEL      0.1234         C  1 -- C  2          +9.7% ( 37.2%)     41.6%
 RED. MASS   0.4507         C  1 -- C  3          +9.0% ( 35.7%)     41.9%
 EFF. MASS   3.3462

 VIBRATION   29   29A         ATOM PAIR      ENERGY CONTRIBUTION    RADIAL
 FREQ.      1329.73         C  3 -- C  7         +18.1% ( 61.5%)     72.4%
 T-DIPOLE    0.7980         C  3 -- H 10         +14.1% ( 54.2%)      0.2%
 TRAVEL      0.0832         C  3 -- H 11         +12.4% ( 50.9%)      0.0%
 RED. MASS   1.4733         C  1 -- C  3         +10.5% ( 46.9%)     27.5%
 EFF. MASS   7.3217

 VIBRATION   30   30A         ATOM PAIR      ENERGY CONTRIBUTION    RADIAL
 FREQ.      1360.53         C  3 -- H 11         +16.3% ( 54.0%)      5.4%
 T-DIPOLE    0.8278         C  3 -- H 10         +16.1% ( 53.7%)      5.8%
 TRAVEL      0.0975         C  3 -- C  7         +11.2% ( 44.8%)     88.5%
 RED. MASS   0.6171         C  2 -- C  3          +9.3% ( 40.9%)     42.8%
 EFF. MASS   5.2126

 VIBRATION   31   31A         ATOM PAIR      ENERGY CONTRIBUTION    RADIAL
 FREQ.      1396.99         C  4 -- H 13         +36.4% ( 57.7%)      2.6%
 T-DIPOLE    0.1355         C  4 -- H 14         +34.9% ( 56.5%)      3.1%
 TRAVEL      0.1476         C  1 -- C  4          +8.3% ( 27.5%)     52.1%
 RED. MASS   0.4390         C  4 -- H 12          +6.4% ( 24.2%)     94.1%
 EFF. MASS   2.2159

 VIBRATION   32   32A         ATOM PAIR      ENERGY CONTRIBUTION    RADIAL
 FREQ.      1406.88         C  4 -- H 12         +49.9% ( 62.7%)      0.1%
 T-DIPOLE    0.0714         C  4 -- H 13         +22.6% ( 42.2%)     11.0%
 TRAVEL      0.1673         C  4 -- H 14         +16.8% ( 36.4%)     10.4%
 RED. MASS   0.4098         C  1 -- C  4          +5.6% ( 21.0%)     20.5%
 EFF. MASS   1.7122

 VIBRATION   33   33A         ATOM PAIR      ENERGY CONTRIBUTION    RADIAL
 FREQ.      1414.14         C  4 -- H 12         +12.4% ( 50.3%)      5.4%
 T-DIPOLE    0.2958         C  4 -- H 14         +11.3% ( 48.0%)      3.1%
 TRAVEL      0.0856         C  2 -- C  5          +9.6% ( 44.2%)     88.6%
 RED. MASS   0.8709         C  1 -- C  4          +9.1% ( 43.2%)     99.4%
 EFF. MASS   6.5058

 VIBRATION   34   34A         ATOM PAIR      ENERGY CONTRIBUTION    RADIAL
 FREQ.      1460.58         C  1 -- C  2         +12.7% ( 60.3%)     60.4%
 T-DIPOLE    0.4088         C  1 -- C  4         +11.6% ( 57.7%)     94.8%
 TRAVEL      0.0676         C  2 -- C  3          +8.8% ( 50.1%)     93.3%
 RED. MASS   1.8527         C  2 -- C  5          +8.3% ( 48.8%)     89.4%
 EFF. MASS  10.1004

 VIBRATION   35   35A         ATOM PAIR      ENERGY CONTRIBUTION    RADIAL
 FREQ.      1862.09         C  5 -- C  6         +44.6% ( 98.9%)     98.7%
 T-DIPOLE    0.5874         C  2 -- C  5         +17.2% ( 61.5%)     58.7%
 TRAVEL      0.0553         C  5 -- H 15         +15.4% ( 58.2%)      3.8%
 RED. MASS   5.2802         C  6 -- H 16         +10.6% ( 48.3%)     11.0%
 EFF. MASS  11.8304         C  6 -- H 17         +10.4% ( 47.9%)     12.8%

 VIBRATION   36   36A         ATOM PAIR      ENERGY CONTRIBUTION    RADIAL
 FREQ.      2910.23         C  2 -- H  9         +95.8% ( 99.7%)    100.0%
 T-DIPOLE    0.3779         C  1 -- C  2          +0.9% (  9.8%)     15.2%
 TRAVEL      0.1277         C  2 -- C  3          +0.9% (  9.7%)     26.3%
 RED. MASS   0.9187         C  2 -- C  5          +0.9% (  9.6%)      9.0%
 EFF. MASS   1.4219

 VIBRATION   37   37A         ATOM PAIR      ENERGY CONTRIBUTION    RADIAL
 FREQ.      2954.89         C  1 -- H  8         +94.4% ( 99.3%)    100.0%
 T-DIPOLE    0.1348         C  1 -- C  3          +1.1% ( 10.5%)     13.3%
 TRAVEL      0.1256         C  1 -- C  4          +1.0% ( 10.5%)     10.3%
 RED. MASS   0.9041         C  1 -- C  7          +1.0% ( 10.4%)     28.6%
 EFF. MASS   1.4465

 VIBRATION   38   38A         ATOM PAIR      ENERGY CONTRIBUTION    RADIAL
 FREQ.      3020.78         C  3 -- H 10         +51.8% ( 74.8%)     97.4%
 T-DIPOLE    0.3537         C  3 -- H 11         +44.8% ( 69.6%)     96.6%
 TRAVEL      0.1213         C  2 -- C  3          +1.0% ( 10.3%)      0.0%
 RED. MASS   0.5114         C  3 -- C  7          +1.0% ( 10.2%)      0.1%
 EFF. MASS   1.5160

 VIBRATION   39   39A         ATOM PAIR      ENERGY CONTRIBUTION    RADIAL
 FREQ.      3037.80         C  5 -- H 15         +96.4% ( 99.6%)    100.0%
 T-DIPOLE    0.3244         C  5 -- C  6          +1.4% ( 12.2%)     32.2%
 TRAVEL      0.1214         C  2 -- C  5          +1.4% ( 11.9%)     12.7%
 RED. MASS   0.9146         C  6 -- H 17          +0.8% (  9.2%)     94.7%
 EFF. MASS   1.5073

 VIBRATION   40   40A         ATOM PAIR      ENERGY CONTRIBUTION    RADIAL
 FREQ.      3076.03         C  4 -- H 12         +67.6% ( 84.9%)     99.0%
 T-DIPOLE    0.0341         C  4 -- H 13         +17.5% ( 43.1%)     85.4%
 TRAVEL      0.1207         C  4 -- H 14         +13.6% ( 38.1%)     80.8%
 RED. MASS   0.5351         C  1 -- C  4          +1.0% ( 10.3%)      0.0%
 EFF. MASS   1.5044

 VIBRATION   41   41A         ATOM PAIR      ENERGY CONTRIBUTION    RADIAL
 FREQ.      3083.71         C  4 -- H 14         +50.0% ( 72.9%)     97.2%
 T-DIPOLE    0.0490         C  4 -- H 13         +47.9% ( 71.4%)     96.8%
 TRAVEL      0.1204         C  4 -- H 12          +1.1% ( 10.8%)      3.2%
 RED. MASS   0.5091         C  1 -- C  4          +1.0% ( 10.4%)      0.0%
 EFF. MASS   1.5080

 VIBRATION   42   42A         ATOM PAIR      ENERGY CONTRIBUTION    RADIAL
 FREQ.      3094.63         C  3 -- H 11         +52.7% ( 72.0%)     97.7%
 T-DIPOLE    0.4707         C  3 -- H 10         +45.1% ( 66.6%)     96.7%
 TRAVEL      0.1302         C  2 -- C  3          +0.7% (  8.4%)     99.7%
 RED. MASS   0.4859         C  1 -- C  3          +0.7% (  8.3%)     51.5%
 EFF. MASS   1.2862

 VIBRATION   43   43A         ATOM PAIR      ENERGY CONTRIBUTION    RADIAL
 FREQ.      3132.68         C  6 -- H 16         +94.9% ( 99.0%)    100.0%
 T-DIPOLE    0.2083         C  6 -- H 17          +3.7% ( 19.5%)     56.1%
 TRAVEL      0.1189         C  5 -- C  6          +1.3% ( 11.8%)     29.3%
 RED. MASS   0.8978
 EFF. MASS   1.5237

 VIBRATION   44   44A         ATOM PAIR      ENERGY CONTRIBUTION    RADIAL
 FREQ.      3147.35         C  6 -- H 17         +94.7% ( 98.2%)     99.8%
 T-DIPOLE    0.2795         C  6 -- H 16          +3.0% ( 17.4%)     14.0%
 TRAVEL      0.1203         C  5 -- C  6          +1.6% ( 12.6%)     64.6%
 RED. MASS   0.8710         C  5 -- H 15          +0.7% (  8.6%)     95.0%
 EFF. MASS   1.4799

 VIBRATION   45   45A         ATOM PAIR      ENERGY CONTRIBUTION    RADIAL
 FREQ.      3176.69         C  4 -- H 14         +35.9% ( 57.7%)     97.5%
 T-DIPOLE    0.0473         C  4 -- H 13         +33.9% ( 56.0%)     97.2%
 TRAVEL      0.1366         C  4 -- H 12         +29.9% ( 52.6%)     96.5%
 RED. MASS   0.3285         C  1 -- C  4          +0.3% (  5.2%)     99.4%
 EFF. MASS   1.1376

      SYMMETRY NUMBER FOR POINT-GROUP C1  =  1


          SYSTEM IS A GROUND STATE



 InChI=1S/C7H10/c1-3-7-5-4-6(7)2/h3,6-7H,1,4H2,2H3/lp5


          MOLECULE IS NOT LINEAR

          THERE ARE 45 GENUINE VIBRATIONS IN THIS SYSTEM
          THIS THERMODYNAMICS CALCULATION IS LIMITED TO
          MOLECULES WHICH HAVE NO INTERNAL ROTATIONS




                    CALCULATED THERMODYNAMIC PROPERTIES
                                          *
   TEMP. (K)   PARTITION FUNCTION   H.O.F.    ENTHALPY  HEAT CAPACITY ENTROPY
                                   KCAL/MOL   CAL/MOLE    CAL/K/MOL  CAL/K/MOL


 298.00  VIB.     0.4028D+02                  2957.4052    21.9174    17.2685
         ROT.     0.2206D+06                   888.2813     2.9808    27.4318
         INT.     0.8886D+07                  3845.6865    24.8982    44.7003
         TRA.     0.8833D+27                  1480.4688     4.9680    39.5363
         TOT.                      104.978    5326.1553    29.8662    84.2366

 200.00  VIB.     0.8242D+01                  1241.7345    13.3790    10.4003
         ROT.     0.1213D+06                   596.1620     2.9808    26.2431
         INT.     0.9998D+06                  1837.8964    16.3598    36.6433
         TRA.     0.4856D+27                   993.6033     4.9680    37.5551
         TOT.                      102.484    2831.4997    21.3278    74.1985

 210.00  VIB.     0.9642D+01                  1379.4100    14.1603    11.0718
         ROT.     0.1305D+06                   625.9700     2.9808    26.3885
         INT.     0.1258D+07                  2005.3801    17.1411    37.4603
         TRA.     0.5225D+27                  1043.2834     4.9680    37.7975
         TOT.                      102.701    3048.6635    22.1091    75.2579

 220.00  VIB.     0.1129D+02                  1525.0238    14.9666    11.7491
         ROT.     0.1399D+06                   655.7781     2.9808    26.5272
         INT.     0.1580D+07                  2180.8019    17.9474    38.2763
         TRA.     0.5603D+27                  1092.9636     4.9680    38.0286
         TOT.                      102.926    3273.7655    22.9154    76.3049

 230.00  VIB.     0.1324D+02                  1678.8214    15.7969    12.4326
         ROT.     0.1496D+06                   685.5862     2.9808    26.6597
         INT.     0.1981D+07                  2364.4076    18.7777    39.0923
         TRA.     0.5989D+27                  1142.6437     4.9680    38.2495
         TOT.                      103.159    3507.0513    23.7457    77.3418

 240.00  VIB.     0.1554D+02                  1841.0364    16.6497    13.1228
         ROT.     0.1595D+06                   715.3943     2.9808    26.7866
         INT.     0.2478D+07                  2556.4307    19.6305    39.9094
         TRA.     0.6384D+27                  1192.3239     4.9680    38.4609
         TOT.                      103.401    3748.7546    24.5985    78.3703

 250.00  VIB.     0.1826D+02                  2011.8841    17.5230    13.8202
         ROT.     0.1695D+06                   745.2024     2.9808    26.9082
         INT.     0.3096D+07                  2757.0865    20.5038    40.7284
         TRA.     0.6787D+27                  1242.0041     4.9680    38.6637
         TOT.                      103.651    3999.0906    25.4719    79.3921

 260.00  VIB.     0.2149D+02                  2191.5573    18.4144    14.5247
         ROT.     0.1798D+06                   775.0105     2.9808    27.0251
         INT.     0.3863D+07                  2966.5678    21.3952    41.5499
         TRA.     0.7198D+27                  1291.6842     4.9680    38.8586
         TOT.                      103.910    4258.2520    26.3632    80.4085

 270.00  VIB.     0.2531D+02                  2380.2229    19.3211    15.2367
         ROT.     0.1903D+06                   804.8186     2.9808    27.1376
         INT.     0.4816D+07                  3185.0415    22.3019    42.3743
         TRA.     0.7618D+27                  1341.3644     4.9680    39.0461
         TOT.                      104.179    4526.4059    27.2699    81.4204

 280.00  VIB.     0.2985D+02                  2578.0205    20.2403    15.9559
         ROT.     0.2009D+06                   834.6267     2.9808    27.2461
         INT.     0.5997D+07                  3412.6472    23.2211    43.2019
         TRA.     0.8045D+27                  1391.0445     4.9680    39.2267
         TOT.                      104.456    4803.6918    28.1891    82.4287

 290.00  VIB.     0.3524D+02                  2785.0611    21.1692    16.6823
         ROT.     0.2118D+06                   864.4348     2.9808    27.3507
         INT.     0.7463D+07                  3649.4960    24.1500    44.0330
         TRA.     0.8479D+27                  1440.7247     4.9680    39.4011
         TOT.                      104.742    5090.2207    29.1180    83.4341

 300.00  VIB.     0.4165D+02                  3001.4275    22.1050    17.4158
         ROT.     0.2228D+06                   894.2429     2.9808    27.4517
         INT.     0.9282D+07                  3895.6704    25.0858    44.8675
         TRA.     0.8922D+27                  1490.4049     4.9680    39.5695
         TOT.                      105.038    5386.0753    30.0538    84.4370

 310.00  VIB.     0.4929D+02                  3227.1747    23.0449    18.1559
         ROT.     0.2341D+06                   924.0510     2.9808    27.5494
         INT.     0.1154D+08                  4151.2257    26.0257    45.7053
         TRA.     0.9372D+27                  1540.0850     4.9680    39.7324
         TOT.                      105.344    5691.3108    30.9938    85.4377

 320.00  VIB.     0.5840D+02                  3462.3313    23.9865    18.9024
         ROT.     0.2455D+06                   953.8591     2.9808    27.6441
         INT.     0.1434D+08                  4416.1904    26.9673    46.5465
         TRA.     0.9829D+27                  1589.7652     4.9680    39.8901
         TOT.                      105.658    6005.9556    31.9353    86.4366

 330.00  VIB.     0.6927D+02                  3706.9010    24.9272    19.6549
         ROT.     0.2571D+06                   983.6672     2.9808    27.7358
         INT.     0.1781D+08                  4690.5683    27.9080    47.3907
         TRA.     0.1029D+28                  1639.4454     4.9680    40.0430
         TOT.                      105.982    6330.0136    32.8760    87.4337

 340.00  VIB.     0.8226D+02                  3960.8647    25.8649    20.4130
         ROT.     0.2689D+06                  1013.4753     2.9808    27.8248
         INT.     0.2212D+08                  4974.3400    28.8457    48.2378
         TRA.     0.1076D+28                  1689.1255     4.9680    40.1913
         TOT.                      106.316    6663.4655    33.8137    88.4291

 350.00  VIB.     0.9780D+02                  4224.1819    26.7976    21.1762
         ROT.     0.2808D+06                  1043.2834     2.9808    27.9112
         INT.     0.2746D+08                  5267.4653    29.7784    49.0874
         TRA.     0.1124D+28                  1738.8057     4.9680    40.3353
         TOT.                      106.658    7006.2710    34.7464    89.4228

 360.00  VIB.     0.1164D+03                  4496.7936    27.7235    21.9441
         ROT.     0.2929D+06                  1073.0915     2.9808    27.9952
         INT.     0.3409D+08                  5569.8851    30.7043    49.9393
         TRA.     0.1173D+28                  1788.4859     4.9680    40.4753
         TOT.                      107.011    7358.3710    35.6723    90.4146

 370.00  VIB.     0.1387D+03                  4778.6239    28.6410    22.7163
         ROT.     0.3052D+06                  1102.8996     2.9808    28.0768
         INT.     0.4232D+08                  5881.5235    31.6219    50.7931
         TRA.     0.1222D+28                  1838.1660     4.9680    40.6114
         TOT.                      107.372    7719.6895    36.5899    91.4045

 380.00  VIB.     0.1654D+03                  5069.5820    29.5489    23.4921
         ROT.     0.3177D+06                  1132.7077     2.9808    28.1563
         INT.     0.5254D+08                  6202.2897    32.5297    51.6485
         TRA.     0.1272D+28                  1887.8462     4.9680    40.7439
         TOT.                      107.742    8090.1359    37.4977    92.3924

 390.00  VIB.     0.1974D+03                  5369.5646    30.4458    24.2713
         ROT.     0.3303D+06                  1162.5158     2.9808    28.2338
         INT.     0.6521D+08                  6532.0804    33.4266    52.5051
         TRA.     0.1322D+28                  1937.5263     4.9680    40.8729
         TOT.                      108.122    8469.6067    38.3946    93.3780

 400.00  VIB.     0.2359D+03                  5678.4574    31.3308    25.0533
         ROT.     0.3431D+06                  1192.3239     2.9808    28.3092
         INT.     0.8094D+08                  6870.7813    34.3116    53.3626
         TRA.     0.1374D+28                  1987.2065     4.9680    40.9987
         TOT.                      108.510    8857.9878    39.2796    94.3613

   *: NOTE: HEATS OF FORMATION ARE RELATIVE TO THE
            ELEMENTS IN THEIR STANDARD STATE AT 298K
              (=  Standard Enthalpy of Formation).

            Hvib:  Zero-point energy is not included.
                   frequencies of less than zero cm-1 are not included.
            Hrot = (3/2)RT
            Htra = (3/2)RT + pV = (5/2)RT

            Heat capacity is Cp, not Cv

          For more information, see: HTTP://OpenMOPAC.net/Manual/thermochemistry.html


           FORCE CONSTANT IN CARTESIAN COORDINATES (Millidynes/A)

    ATOM   CHEMICAL       X               Y               Z
   NUMBER   SYMBOL  FORCE CONSTANT  FORCE CONSTANT  FORCE CONSTANT

      1       C        7.652689        7.815045        8.901231
      2       C        7.760895        8.734730        8.041099
      3       C        8.486565        7.832828        7.570429
      4       C        8.395257        8.379111        8.401319
      5       C        7.800787       12.130536        7.217079
      6       C        7.507438       11.917951        7.015738
      7       C        6.326038        5.840618        0.890742
      8       H        1.376416        1.305817        3.581337
      9       H        1.292111        0.927207        3.631186
     10       H        1.062871        1.561630        3.744359
     11       H        1.329226        1.568884        3.483428
     12       H        1.399739        1.329106        4.029108
     13       H        0.755401        5.283512        0.696658
     14       H        5.222687        0.823095        0.700009
     15       H        3.630037        1.557496        0.989771
     16       H        3.794030        1.717900        0.937490
     17       H        1.799617        1.531248        3.146986

 **********************
 *                    *
 * JOB ENDED NORMALLY *
 *                    *
 **********************



 TOTAL JOB TIME:             6.41 SECONDS

 == MOPAC DONE ==
