 *******************************************************************************
 ** Site#: 14399        For non-commercial use only    Version 18.184L 64BITS **
 *******************************************************************************
 ** Cite this program as: MOPAC2016, Version: 18.184L, James J. P. Stewart,   **
 ** Stewart Computational Chemistry, web: HTTP://OpenMOPAC.net. Days left:  20**
 *******************************************************************************
 **                                                                           **
 **                                MOPAC2016                                  **
 **                                                                           **
 *******************************************************************************

                              PM3 CALCULATION RESULTS

 *******************************************************************************
 *  CALCULATION DONE:                                Thu Jun 13 16:06:31 2019  *
 *  PM3        - The PM3 Hamiltonian to be used
 *  PRECISE    - CRITERIA TO BE INCREASED BY 100 TIMES
 *  NOSYM      - POINT-GROUP SYMMETRY SET TO C1
 *  THREADS=1  - MULTI-THREADING NOT USED
 *  T=         - A TIME OF 172800.0 SECONDS REQUESTED
 *  DUMP=N     - RESTART FILE WRITTEN EVERY  7200.000 SECONDS
 *******************************************************************************
pm3  precise nosym THREADS=1
 InChI=1S/C10H12/c1-8-6-9-4-2-3-5-10(9)7-8/h2-5,9-10H,1,6-7H2

   ATOM   CHEMICAL          X               Y               Z
  NUMBER   SYMBOL      (ANGSTROMS)     (ANGSTROMS)     (ANGSTROMS)
 
     1       C         -0.40160000  *   0.80550000  *   0.77680000  *
     2       C         -0.28760000  *  -0.74210000  *   0.86660000  *
     3       C          0.97160000  *  -1.14390000  *   0.09410000  *
     4       C          1.00730000  *   1.31760000  *   0.44430000  *
     5       C          1.74870000  *   0.11660000  *  -0.02460000  *
     6       C         -1.40890000  *   1.28960000  *  -0.24430000  *
     7       C         -1.49260000  *  -1.50060000  *   0.36770000  *
     8       C         -2.34050000  *   0.48940000  *  -0.76350000  *
     9       C         -2.42240000  *  -0.92880000  *  -0.39620000  *
    10       C          2.99280000  *   0.16720000  *  -0.51190000  *
    11       H         -0.71330000  *   1.21290000  *   1.76410000  *
    12       H         -0.14080000  *  -1.00700000  *   1.93800000  *
    13       H          1.54680000  *  -1.91180000  *   0.65630000  *
    14       H          0.73570000  *  -1.52080000  *  -0.92600000  *
    15       H          1.00440000  *   2.10410000  *  -0.34290000  *
    16       H          1.49980000  *   1.71880000  *   1.35680000  *
    17       H         -1.42370000  *   2.34080000  *  -0.50610000  *
    18       H         -1.57110000  *  -2.55750000  *   0.59090000  *
    19       H         -3.24660000  *  -1.52280000  *  -0.77000000  *
    20       H         -3.07050000  *   0.89660000  *  -1.45140000  *
    21       H          3.49220000  *  -0.73730000  *  -0.84520000  *
    22       H          3.52050000  *   1.11340000  *  -0.58080000  *
 


          CARTESIAN COORDINATES 

    NO.       ATOM           X           Y           Z

     1         C         -0.4016      0.8055      0.7768
     2         C         -0.2876     -0.7421      0.8666
     3         C          0.9716     -1.1439      0.0941
     4         C          1.0073      1.3176      0.4443
     5         C          1.7487      0.1166     -0.0246
     6         C         -1.4089      1.2896     -0.2443
     7         C         -1.4926     -1.5006      0.3677
     8         C         -2.3405      0.4894     -0.7635
     9         C         -2.4224     -0.9288     -0.3962
    10         C          2.9928      0.1672     -0.5119
    11         H         -0.7133      1.2129      1.7641
    12         H         -0.1408     -1.0070      1.9380
    13         H          1.5468     -1.9118      0.6563
    14         H          0.7357     -1.5208     -0.9260
    15         H          1.0044      2.1041     -0.3429
    16         H          1.4998      1.7188      1.3568
    17         H         -1.4237      2.3408     -0.5061
    18         H         -1.5711     -2.5575      0.5909
    19         H         -3.2466     -1.5228     -0.7700
    20         H         -3.0705      0.8966     -1.4514
    21         H          3.4922     -0.7373     -0.8452
    22         H          3.5205      1.1134     -0.5808

  H: (PM3): J. J. P. STEWART, J. COMP. CHEM. 10, 209 (1989).
  C: (PM3): J. J. P. STEWART, J. COMP. CHEM. 10, 209 (1989).

           Empirical Formula: C10 H12  =    22 atoms



      MOLECULAR POINT GROUP   :   C1  


      RHF CALCULATION, NO. OF DOUBLY OCCUPIED LEVELS = 26


          Geometry optimization using EF

          DIAGONAL MATRIX USED AS START HESSIAN

 CYCLE:     1 TIME:   0.031 TIME LEFT:  2.00D  GRAD.:    70.975 HEAT:  36.37191
 CYCLE:     2 TIME:   0.047 TIME LEFT:  2.00D  GRAD.:    58.625 HEAT:  35.45010
 CYCLE:     3 TIME:   0.023 TIME LEFT:  2.00D  GRAD.:    53.772 HEAT:  34.95038
 CYCLE:     4 TIME:   0.023 TIME LEFT:  2.00D  GRAD.:    52.526 HEAT:  34.75296
 CYCLE:     5 TIME:   0.031 TIME LEFT:  2.00D  GRAD.:    37.297 HEAT:  34.33151
 CYCLE:     6 TIME:   0.035 TIME LEFT:  2.00D  GRAD.:    13.745 HEAT:  34.07506
 CYCLE:     7 TIME:   0.023 TIME LEFT:  2.00D  GRAD.:    20.138 HEAT:  33.97759
 CYCLE:     8 TIME:   0.023 TIME LEFT:  2.00D  GRAD.:    21.938 HEAT:  33.85606
 CYCLE:     9 TIME:   0.031 TIME LEFT:  2.00D  GRAD.:    18.058 HEAT:  33.79016
 CYCLE:    10 TIME:   0.027 TIME LEFT:  2.00D  GRAD.:    15.906 HEAT:  33.75708
 CYCLE:    11 TIME:   0.043 TIME LEFT:  2.00D  GRAD.:     7.386 HEAT:  33.70309
 CYCLE:    12 TIME:   0.031 TIME LEFT:  2.00D  GRAD.:     4.924 HEAT:  33.68727
 CYCLE:    13 TIME:   0.027 TIME LEFT:  2.00D  GRAD.:     4.469 HEAT:  33.67642
 CYCLE:    14 TIME:   0.023 TIME LEFT:  2.00D  GRAD.:     4.683 HEAT:  33.66384
 CYCLE:    15 TIME:   0.023 TIME LEFT:  2.00D  GRAD.:     5.192 HEAT:  33.65432
 CYCLE:    16 TIME:   0.031 TIME LEFT:  2.00D  GRAD.:     4.220 HEAT:  33.64700
 CYCLE:    17 TIME:   0.035 TIME LEFT:  2.00D  GRAD.:     3.008 HEAT:  33.64224
 CYCLE:    18 TIME:   0.023 TIME LEFT:  2.00D  GRAD.:     5.271 HEAT:  33.64444
 CYCLE:    19 TIME:   0.031 TIME LEFT:  2.00D  GRAD.:     3.867 HEAT:  33.63887
 CYCLE:    20 TIME:   0.031 TIME LEFT:  2.00D  GRAD.:     6.198 HEAT:  33.64371
 CYCLE:    21 TIME:   0.023 TIME LEFT:  2.00D  GRAD.:     2.977 HEAT:  33.63462
 CYCLE:    22 TIME:   0.023 TIME LEFT:  2.00D  GRAD.:     6.711 HEAT:  33.64347
 CYCLE:    23 TIME:   0.023 TIME LEFT:  2.00D  GRAD.:     3.247 HEAT:  33.63278
 CYCLE:    24 TIME:   0.023 TIME LEFT:  2.00D  GRAD.:     4.932 HEAT:  33.63657
 CYCLE:    25 TIME:   0.023 TIME LEFT:  2.00D  GRAD.:     1.611 HEAT:  33.62834
 CYCLE:    26 TIME:   0.020 TIME LEFT:  2.00D  GRAD.:     3.346 HEAT:  33.62947
 CYCLE:    27 TIME:   0.023 TIME LEFT:  2.00D  GRAD.:     1.188 HEAT:  33.62537
 CYCLE:    28 TIME:   0.023 TIME LEFT:  2.00D  GRAD.:     2.053 HEAT:  33.62402
 CYCLE:    29 TIME:   0.023 TIME LEFT:  2.00D  GRAD.:     1.633 HEAT:  33.62058
 CYCLE:    30 TIME:   0.023 TIME LEFT:  2.00D  GRAD.:     1.948 HEAT:  33.61812
 CYCLE:    31 TIME:   0.023 TIME LEFT:  2.00D  GRAD.:     1.515 HEAT:  33.61660
 CYCLE:    32 TIME:   0.020 TIME LEFT:  2.00D  GRAD.:     1.303 HEAT:  33.61571
 CYCLE:    33 TIME:   0.023 TIME LEFT:  2.00D  GRAD.:     1.112 HEAT:  33.61437
 CYCLE:    34 TIME:   0.023 TIME LEFT:  2.00D  GRAD.:     1.319 HEAT:  33.61240
 CYCLE:    35 TIME:   0.031 TIME LEFT:  2.00D  GRAD.:     1.331 HEAT:  33.60900
 CYCLE:    36 TIME:   0.023 TIME LEFT:  2.00D  GRAD.:     1.093 HEAT:  33.60665
 CYCLE:    37 TIME:   0.020 TIME LEFT:  2.00D  GRAD.:     1.216 HEAT:  33.60396
 CYCLE:    38 TIME:   0.023 TIME LEFT:  2.00D  GRAD.:     1.313 HEAT:  33.60127
 CYCLE:    39 TIME:   0.023 TIME LEFT:  2.00D  GRAD.:     0.892 HEAT:  33.59933
 CYCLE:    40 TIME:   0.023 TIME LEFT:  2.00D  GRAD.:     0.781 HEAT:  33.59807
 CYCLE:    41 TIME:   0.023 TIME LEFT:  2.00D  GRAD.:     0.908 HEAT:  33.59689
 CYCLE:    42 TIME:   0.023 TIME LEFT:  2.00D  GRAD.:     1.023 HEAT:  33.59524
 CYCLE:    43 TIME:   0.023 TIME LEFT:  2.00D  GRAD.:     0.915 HEAT:  33.59356
 CYCLE:    44 TIME:   0.020 TIME LEFT:  2.00D  GRAD.:     0.872 HEAT:  33.59199
 CYCLE:    45 TIME:   0.023 TIME LEFT:  2.00D  GRAD.:     1.045 HEAT:  33.59010
 CYCLE:    46 TIME:   0.023 TIME LEFT:  2.00D  GRAD.:     1.187 HEAT:  33.58765
 CYCLE:    47 TIME:   0.023 TIME LEFT:  2.00D  GRAD.:     1.247 HEAT:  33.58459
 CYCLE:    48 TIME:   0.023 TIME LEFT:  2.00D  GRAD.:     1.460 HEAT:  33.58006
 CYCLE:    49 TIME:   0.023 TIME LEFT:  2.00D  GRAD.:     1.866 HEAT:  33.57402
 CYCLE:    50 TIME:   0.020 TIME LEFT:  2.00D  GRAD.:     1.931 HEAT:  33.56727
 CYCLE:    51 TIME:   0.023 TIME LEFT:  2.00D  GRAD.:     1.312 HEAT:  33.56115
 CYCLE:    52 TIME:   0.023 TIME LEFT:  2.00D  GRAD.:     0.757 HEAT:  33.55938
 CYCLE:    53 TIME:   0.023 TIME LEFT:  2.00D  GRAD.:     0.858 HEAT:  33.55742
 CYCLE:    54 TIME:   0.023 TIME LEFT:  2.00D  GRAD.:     0.743 HEAT:  33.55648
 CYCLE:    55 TIME:   0.023 TIME LEFT:  2.00D  GRAD.:     0.472 HEAT:  33.55557
 CYCLE:    56 TIME:   0.023 TIME LEFT:  2.00D  GRAD.:     0.409 HEAT:  33.55512
 CYCLE:    57 TIME:   0.020 TIME LEFT:  2.00D  GRAD.:     0.401 HEAT:  33.55482
 CYCLE:    58 TIME:   0.023 TIME LEFT:  2.00D  GRAD.:     0.311 HEAT:  33.55443
 CYCLE:    59 TIME:   0.023 TIME LEFT:  2.00D  GRAD.:     0.223 HEAT:  33.55425
 CYCLE:    60 TIME:   0.023 TIME LEFT:  2.00D  GRAD.:     0.189 HEAT:  33.55413
 CYCLE:    61 TIME:   0.023 TIME LEFT:  2.00D  GRAD.:     0.201 HEAT:  33.55404
 CYCLE:    62 TIME:   0.023 TIME LEFT:  2.00D  GRAD.:     0.205 HEAT:  33.55396
 CYCLE:    63 TIME:   0.023 TIME LEFT:  2.00D  GRAD.:     0.256 HEAT:  33.55384
 CYCLE:    64 TIME:   0.020 TIME LEFT:  2.00D  GRAD.:     0.221 HEAT:  33.55372
 CYCLE:    65 TIME:   0.023 TIME LEFT:  2.00D  GRAD.:     0.209 HEAT:  33.55358
 CYCLE:    66 TIME:   0.023 TIME LEFT:  2.00D  GRAD.:     0.200 HEAT:  33.55344
 CYCLE:    67 TIME:   0.023 TIME LEFT:  2.00D  GRAD.:     0.200 HEAT:  33.55334
 CYCLE:    68 TIME:   0.023 TIME LEFT:  2.00D  GRAD.:     0.185 HEAT:  33.55321
 CYCLE:    69 TIME:   0.023 TIME LEFT:  2.00D  GRAD.:     0.180 HEAT:  33.55310
 CYCLE:    70 TIME:   0.020 TIME LEFT:  2.00D  GRAD.:     0.215 HEAT:  33.55298
 CYCLE:    71 TIME:   0.023 TIME LEFT:  2.00D  GRAD.:     0.208 HEAT:  33.55289
 CYCLE:    72 TIME:   0.023 TIME LEFT:  2.00D  GRAD.:     0.277 HEAT:  33.55265
 CYCLE:    73 TIME:   0.023 TIME LEFT:  2.00D  GRAD.:     0.234 HEAT:  33.55255
 CYCLE:    74 TIME:   0.023 TIME LEFT:  2.00D  GRAD.:     0.268 HEAT:  33.55235
 CYCLE:    75 TIME:   0.023 TIME LEFT:  2.00D  GRAD.:     0.233 HEAT:  33.55227
 CYCLE:    76 TIME:   0.023 TIME LEFT:  2.00D  GRAD.:     0.279 HEAT:  33.55188
 CYCLE:    77 TIME:   0.020 TIME LEFT:  2.00D  GRAD.:     0.288 HEAT:  33.55167
 CYCLE:    78 TIME:   0.023 TIME LEFT:  2.00D  GRAD.:     0.339 HEAT:  33.55111
 CYCLE:    79 TIME:   0.023 TIME LEFT:  2.00D  GRAD.:     0.280 HEAT:  33.55091
 CYCLE:    80 TIME:   0.023 TIME LEFT:  2.00D  GRAD.:     0.225 HEAT:  33.55066
 CYCLE:    81 TIME:   0.023 TIME LEFT:  2.00D  GRAD.:     0.188 HEAT:  33.55057
 CYCLE:    82 TIME:   0.023 TIME LEFT:  2.00D  GRAD.:     0.186 HEAT:  33.55046
 CYCLE:    83 TIME:   0.023 TIME LEFT:  2.00D  GRAD.:     0.147 HEAT:  33.55037
 CYCLE:    84 TIME:   0.020 TIME LEFT:  2.00D  GRAD.:     0.116 HEAT:  33.55033
 CYCLE:    85 TIME:   0.023 TIME LEFT:  2.00D  GRAD.:     0.086 HEAT:  33.55030
 CYCLE:    86 TIME:   0.023 TIME LEFT:  2.00D  GRAD.:     0.074 HEAT:  33.55028
 CYCLE:    87 TIME:   0.023 TIME LEFT:  2.00D  GRAD.:     0.087 HEAT:  33.55027
 CYCLE:    88 TIME:   0.027 TIME LEFT:  2.00D  GRAD.:     0.062 HEAT:  33.55026
 CYCLE:    89 TIME:   0.023 TIME LEFT:  2.00D  GRAD.:     0.135 HEAT:  33.55028
 CYCLE:    90 TIME:   0.023 TIME LEFT:  2.00D  GRAD.:     0.044 HEAT:  33.55024

     GRADIENT =  0.04385  IS LESS THAN CUTOFF =  0.05000



 -------------------------------------------------------------------------------
 pm3  precise nosym THREADS=1
 InChI=1S/C10H12/c1-8-6-9-4-2-3-5-10(9)7-8/h2-5,9-10H,1,6-7H2



     GEOMETRY OPTIMISED USING EIGENVECTOR FOLLOWING (EF).     
     SCF FIELD WAS ACHIEVED                                   


                              PM3 CALCULATION
                                                       MOPAC2016 (Version: 18.184L)
                                                       Thu Jun 13 16:06:34 2019
                                                       No. of days remaining =  20




          FINAL HEAT OF FORMATION =         33.55024 KCAL/MOL =     140.37422 KJ/MOL


          TOTAL ENERGY            =      -1368.94142 EV
          ELECTRONIC ENERGY       =      -7580.29852 EV  POINT GROUP:     C1  
          CORE-CORE REPULSION     =       6211.35710 EV
          COSMO AREA              =        176.73 SQUARE ANGSTROMS
          COSMO VOLUME            =        180.67 CUBIC ANGSTROMS

          GRADIENT NORM           =          0.04385 = 0.00935 PER ATOM
          IONIZATION POTENTIAL    =          9.035571 EV
          HOMO LUMO ENERGIES (EV) =         -9.036  0.241
          NO. OF FILLED LEVELS    =         26
          MOLECULAR WEIGHT        =        132.2048

          MOLECULAR DIMENSIONS (Angstroms)

            Atom       Atom       Distance
            H    22    H    19     7.35044
            H    17    H    13     5.17643
            H    14    H    11     3.18970


          SCF CALCULATIONS        =        101
 
          WALL-CLOCK TIME         =          2.270 SECONDS
          COMPUTATION TIME        =          0.982 SECONDS




   ATOM   CHEMICAL          X               Y               Z
  NUMBER   SYMBOL      (ANGSTROMS)     (ANGSTROMS)     (ANGSTROMS)
 
     1       C         -0.40344867  *   0.79640989  *   0.75210239  *
     2       C         -0.30258674  *  -0.74150129  *   0.84431896  *
     3       C          1.00244756  *  -1.14913521  *   0.14092824  *
     4       C          0.97960713  *   1.30145664  *   0.30593962  *
     5       C          1.79874965  *   0.10029132  *  -0.03008297  *
     6       C         -1.47750795  *   1.30630847  *  -0.14639197  *
     7       C         -1.45550050  *  -1.49207920  *   0.27277585  *
     8       C         -2.42509922  *   0.52158443  *  -0.67184691  *
     9       C         -2.43731080  *  -0.90602640  *  -0.42155361  *
    10       C          3.06650414  *   0.13957063  *  -0.42872247  *
    11       H         -0.64177570  *   1.20357027  *   1.76452458  *
    12       H         -0.23894713  *  -1.01811616  *   1.92442888  *
    13       H          1.55888010  *  -1.90791570  *   0.72176187  *
    14       H          0.80422732  *  -1.60719617  *  -0.84784204  *
    15       H          0.91156502  *   1.97979062  *  -0.56657999  *
    16       H          1.46744016  *   1.88794325  *   1.10739862  *
    17       H         -1.46428615  *   2.38437238  *  -0.34598922  *
    18       H         -1.44994253  *  -2.57488034  *   0.44142368  *
    19       H         -3.27317652  *  -1.48499132  *  -0.82756114  *
    20       H         -3.21599320  *   0.93104689  *  -1.30867254  *
    21       H          3.63435208  *  -0.75588134  *  -0.66090126  *
    22       H          3.61336179  *   1.06963586  *  -0.54752068  *

                             CARTESIAN COORDINATES

   1    C       -0.403448673     0.796409889     0.752102393
   2    C       -0.302586744    -0.741501289     0.844318961
   3    C        1.002447560    -1.149135211     0.140928239
   4    C        0.979607129     1.301456636     0.305939619
   5    C        1.798749651     0.100291319    -0.030082971
   6    C       -1.477507948     1.306308474    -0.146391971
   7    C       -1.455500503    -1.492079202     0.272775853
   8    C       -2.425099225     0.521584427    -0.671846909
   9    C       -2.437310798    -0.906026401    -0.421553612
  10    C        3.066504140     0.139570630    -0.428722467
  11    H       -0.641775699     1.203570270     1.764524577
  12    H       -0.238947130    -1.018116161     1.924428881
  13    H        1.558880104    -1.907915705     0.721761874
  14    H        0.804227322    -1.607196167    -0.847842041
  15    H        0.911565019     1.979790621    -0.566579987
  16    H        1.467440155     1.887943246     1.107398616
  17    H       -1.464286148     2.384372381    -0.345989219
  18    H       -1.449942535    -2.574880337     0.441423684
  19    H       -3.273176523    -1.484991317    -0.827561139
  20    H       -3.215993202     0.931046894    -1.308672537
  21    H        3.634352083    -0.755881343    -0.660901261
  22    H        3.613361791     1.069635857    -0.547520677


           Empirical Formula: C10 H12  =    22 atoms



      MOLECULAR POINT GROUP   :   C1  


                  EIGENVALUES  
 -41.92037 -35.38533 -31.50784 -29.89417 -26.52042 -24.13181 -21.02507 -20.80080
 -18.71504 -17.57488 -16.69370 -16.25496 -15.87356 -14.94599 -14.60174 -14.21346
 -13.89617 -13.70391 -12.94630 -12.70790 -12.18196 -11.85991 -11.57202 -11.45189
  -9.72176  -9.03557   0.24123   1.11916   2.05892   3.24839   3.29409   3.40276
   3.43464   3.52454   3.65963   3.76864   3.88065   4.01882   4.03138   4.10315
   4.16504   4.54018   4.64254   4.70806   4.81981   5.00521   5.08198   5.37086
   5.64195   5.97527   6.00014   6.22349


              NET ATOMIC CHARGES AND DIPOLE CONTRIBUTIONS

  ATOM NO.   TYPE          CHARGE      No. of ELECS.   s-Pop       p-Pop       
    1          C          -0.036741        4.0367     1.16889     2.86785
    2          C          -0.035385        4.0354     1.16886     2.86652
    3          C          -0.056379        4.0564     1.15260     2.90378
    4          C          -0.055144        4.0551     1.15276     2.90239
    5          C          -0.107290        4.1073     1.20075     2.90654
    6          C          -0.129917        4.1299     1.19777     2.93215
    7          C          -0.133568        4.1336     1.19621     2.93736
    8          C          -0.112305        4.1123     1.17783     2.93447
    9          C          -0.106025        4.1060     1.17764     2.92838
   10          C          -0.181462        4.1815     1.17708     3.00438
   11          H           0.067875        0.9321     0.93212
   12          H           0.066920        0.9331     0.93308
   13          H           0.058207        0.9418     0.94179
   14          H           0.066526        0.9335     0.93347
   15          H           0.065023        0.9350     0.93498
   16          H           0.057631        0.9424     0.94237
   17          H           0.099958        0.9000     0.90004
   18          H           0.099489        0.9005     0.90051
   19          H           0.101071        0.8989     0.89893
   20          H           0.101518        0.8985     0.89848
   21          H           0.085211        0.9148     0.91479
   22          H           0.084787        0.9152     0.91521
 DIPOLE           X         Y         Z       TOTAL
 POINT-CHG.    -0.099     0.034     0.253     0.274
 HYBRID         0.031     0.005    -0.046     0.056
 SUM           -0.068     0.039     0.207     0.221


          ATOMIC ORBITAL ELECTRON POPULATIONS

     Atom    s        px        py        pz   
    1  C   1.16889   0.93821   0.94681   0.98284
    2  C   1.16886   0.93757   0.93879   0.99017
    3  C   1.15260   0.94446   0.95318   1.00614
    4  C   1.15276   0.93782   0.95651   1.00806
    5  C   1.20075   0.95874   0.96113   0.98667
    6  C   1.19777   0.96362   0.98437   0.98417
    7  C   1.19621   0.96275   0.98538   0.98923
    8  C   1.17783   0.98666   0.94464   1.00318
    9  C   1.17764   0.98415   0.95129   0.99295
   10  C   1.17708   0.95487   1.01504   1.03447
   11  H   0.93212
   12  H   0.93308
   13  H   0.94179
   14  H   0.93347
   15  H   0.93498
   16  H   0.94237
   17  H   0.90004
   18  H   0.90051
   19  H   0.89893
   20  H   0.89848
   21  H   0.91479
   22  H   0.91521
 *******************************************************************************
 ** Site#: 14399        For non-commercial use only    Version 18.184L 64BITS **
 *******************************************************************************
 ** Cite this program as: MOPAC2016, Version: 18.184L, James J. P. Stewart,   **
 ** Stewart Computational Chemistry, web: HTTP://OpenMOPAC.net. Days left:  20**
 *******************************************************************************
 **                                                                           **
 **                                MOPAC2016                                  **
 **                                                                           **
 *******************************************************************************

                              PM3 CALCULATION RESULTS

 *******************************************************************************
 *  CALCULATION DONE:                                Thu Jun 13 16:06:34 2019  *
 *  PM3        - The PM3 Hamiltonian to be used
 *  OLDGEO     - PREVIOUS GEOMETRY TO BE USED
 *  PRECISE    - CRITERIA TO BE INCREASED BY 100 TIMES
 *  NOSYM      - POINT-GROUP SYMMETRY SET TO C1
 *  THREADS=1  - MULTI-THREADING NOT USED
 *  T=         - A TIME OF 172800.0 SECONDS REQUESTED
 *  DUMP=N     - RESTART FILE WRITTEN EVERY  7200.000 SECONDS
 *  THERMO     - THERMODYNAMIC QUANTITIES TO BE CALCULATED
 *******************************************************************************
oldgeo thermo nosym precise THREADS=1  pm3
 InChI=1S/C10H12/c1-8-6-9-4-2-3-5-10(9)7-8/h2-5,9-10H,1,6-7H2

   ATOM   CHEMICAL          X               Y               Z
  NUMBER   SYMBOL      (ANGSTROMS)     (ANGSTROMS)     (ANGSTROMS)
 
     1       C         -0.40344867  *   0.79640989  *   0.75210239  *
     2       C         -0.30258674  *  -0.74150129  *   0.84431896  *
     3       C          1.00244756  *  -1.14913521  *   0.14092824  *
     4       C          0.97960713  *   1.30145664  *   0.30593962  *
     5       C          1.79874965  *   0.10029132  *  -0.03008297  *
     6       C         -1.47750795  *   1.30630847  *  -0.14639197  *
     7       C         -1.45550050  *  -1.49207920  *   0.27277585  *
     8       C         -2.42509922  *   0.52158443  *  -0.67184691  *
     9       C         -2.43731080  *  -0.90602640  *  -0.42155361  *
    10       C          3.06650414  *   0.13957063  *  -0.42872247  *
    11       H         -0.64177570  *   1.20357027  *   1.76452458  *
    12       H         -0.23894713  *  -1.01811616  *   1.92442888  *
    13       H          1.55888010  *  -1.90791570  *   0.72176187  *
    14       H          0.80422732  *  -1.60719617  *  -0.84784204  *
    15       H          0.91156502  *   1.97979062  *  -0.56657999  *
    16       H          1.46744016  *   1.88794325  *   1.10739862  *
    17       H         -1.46428615  *   2.38437238  *  -0.34598922  *
    18       H         -1.44994253  *  -2.57488034  *   0.44142368  *
    19       H         -3.27317652  *  -1.48499132  *  -0.82756114  *
    20       H         -3.21599320  *   0.93104689  *  -1.30867254  *
    21       H          3.63435208  *  -0.75588134  *  -0.66090126  *
    22       H          3.61336179  *   1.06963586  *  -0.54752068  *
 


          CARTESIAN COORDINATES 

    NO.       ATOM           X           Y           Z

     1         C         -0.4034      0.7964      0.7521
     2         C         -0.3026     -0.7415      0.8443
     3         C          1.0024     -1.1491      0.1409
     4         C          0.9796      1.3015      0.3059
     5         C          1.7987      0.1003     -0.0301
     6         C         -1.4775      1.3063     -0.1464
     7         C         -1.4555     -1.4921      0.2728
     8         C         -2.4251      0.5216     -0.6718
     9         C         -2.4373     -0.9060     -0.4216
    10         C          3.0665      0.1396     -0.4287
    11         H         -0.6418      1.2036      1.7645
    12         H         -0.2389     -1.0181      1.9244
    13         H          1.5589     -1.9079      0.7218
    14         H          0.8042     -1.6072     -0.8478
    15         H          0.9116      1.9798     -0.5666
    16         H          1.4674      1.8879      1.1074
    17         H         -1.4643      2.3844     -0.3460
    18         H         -1.4499     -2.5749      0.4414
    19         H         -3.2732     -1.4850     -0.8276
    20         H         -3.2160      0.9310     -1.3087
    21         H          3.6344     -0.7559     -0.6609
    22         H          3.6134      1.0696     -0.5475

  H: (PM3): J. J. P. STEWART, J. COMP. CHEM. 10, 209 (1989).
  C: (PM3): J. J. P. STEWART, J. COMP. CHEM. 10, 209 (1989).

           Empirical Formula: C10 H12  =    22 atoms



      MOLECULAR POINT GROUP   :   C1  


      RHF CALCULATION, NO. OF DOUBLY OCCUPIED LEVELS = 26



          HEAT OF FORMATION =      33.550243 KCALS/MOLE


          CARTESIAN COORDINATE DERIVATIVES

   NUMBER  ATOM         X            Y            Z

     1       C      0.001621    -0.007342    -0.002431
     2       C     -0.004790     0.004342     0.004770
     3       C      0.001600    -0.004540    -0.004931
     4       C      0.000764    -0.006733    -0.002417
     5       C      0.003398    -0.014066    -0.005755
     6       C     -0.004693    -0.002600     0.004861
     7       C     -0.001918     0.008936     0.003748
     8       C     -0.002391     0.002019    -0.002276
     9       C     -0.003238     0.013698    -0.001259
    10       C      0.000903    -0.005805    -0.007205
    11       H     -0.000873    -0.003918     0.002039
    12       H     -0.006075     0.004853     0.006205
    13       H      0.007212     0.000431     0.000226
    14       H      0.010110     0.000103    -0.006217
    15       H      0.005538     0.002746    -0.004179
    16       H      0.004168     0.005090     0.012066
    17       H     -0.000342     0.001795    -0.002808
    18       H     -0.001460     0.000640    -0.003173
    19       H     -0.000612     0.000179     0.005775
    20       H     -0.000996    -0.006984    -0.005180
    21       H     -0.005351     0.008209     0.014102
    22       H     -0.002576    -0.001053    -0.005962
 


          GRADIENT NORM =   0.04415


          TIME FOR SCF CALCULATION =    0.03

          TIME FOR DERIVATIVES     =    0.01

          MOLECULAR WEIGHT =  132.20



          ROTATIONAL CONSTANTS IN CM(-1)

          A =    0.09248588   B =    0.03586008   C =    0.02937229



           PRINCIPAL MOMENTS OF INERTIA IN UNITS OF 10**(-40)*GRAM-CM**2

          A =      302.6708   B =      780.6110   C =      953.0334


          ORIENTATION OF MOLECULE IN FORCE CALCULATION

    NO.       ATOM         X         Y         Z

     1          C      -0.7798   -0.5514    0.5338
     2          C       0.7642   -0.5514    0.5338
     3          C       1.2134    0.9190    0.5338
     4          C      -1.2192    0.8837    0.8719
     5          C       0.0107    1.7286    0.8836
     6          C      -1.4115   -1.0232   -0.7308
     7          C       1.4023   -1.2882   -0.5928
     8          C      -0.7232   -1.6056   -1.7191
     9          C       0.7130   -1.7793   -1.6287
    10          C       0.0306    3.0275    1.1668
    11          H      -1.1405   -1.2499    1.3273
    12          H       1.1084   -1.0401    1.4771
    13          H       2.0403    1.0927    1.2472
    14          H       1.5977    1.2256   -0.4587
    15          H      -1.9514    1.2764    0.1400
    16          H      -1.7236    0.9248    1.8558
    17          H      -2.4964   -0.8834   -0.8063
    18          H       2.4913   -1.3965   -0.5352
    19          H       1.2108   -2.3185   -2.4412
    20          H      -1.2207   -1.9644   -2.6260
    21          H       0.9458    3.6112    1.1702
    22          H      -0.8672    3.5862    1.4119


    FIRST DERIVATIVES WILL BE USED IN THE CALCULATION OF SECOND DERIVATIVES

          ESTIMATED TIME TO COMPLETE CALCULATION =       10.31 SECONDS

    FOR POINT-GROUP C1   THERE ARE   1 UNIQUE SYMMETRY FUNCTIONS.

 STEP:   1 TIME =     0.05 SECS, INTEGRAL =      0.05 TIME LEFT: 172799.91
 STEP:   2 TIME =     0.05 SECS, INTEGRAL =      0.10 TIME LEFT: 172799.86
 STEP:   3 TIME =     0.05 SECS, INTEGRAL =      0.15 TIME LEFT: 172799.81
 STEP:   4 TIME =     0.05 SECS, INTEGRAL =      0.20 TIME LEFT: 172799.76
 STEP:   5 TIME =     0.05 SECS, INTEGRAL =      0.25 TIME LEFT: 172799.71
 STEP:   6 TIME =     0.05 SECS, INTEGRAL =      0.30 TIME LEFT: 172799.66
 STEP:   7 TIME =     0.05 SECS, INTEGRAL =      0.35 TIME LEFT: 172799.61
 STEP:   8 TIME =     0.05 SECS, INTEGRAL =      0.40 TIME LEFT: 172799.56
 STEP:   9 TIME =     0.05 SECS, INTEGRAL =      0.45 TIME LEFT: 172799.51
 STEP:  10 TIME =     0.05 SECS, INTEGRAL =      0.50 TIME LEFT: 172799.46
 STEP:  11 TIME =     0.05 SECS, INTEGRAL =      0.55 TIME LEFT: 172799.41
 STEP:  12 TIME =     0.05 SECS, INTEGRAL =      0.61 TIME LEFT: 172799.36
 STEP:  13 TIME =     0.05 SECS, INTEGRAL =      0.66 TIME LEFT: 172799.30
 STEP:  14 TIME =     0.05 SECS, INTEGRAL =      0.71 TIME LEFT: 172799.25
 STEP:  15 TIME =     0.05 SECS, INTEGRAL =      0.76 TIME LEFT: 172799.20
 STEP:  16 TIME =     0.05 SECS, INTEGRAL =      0.81 TIME LEFT: 172799.15
 STEP:  17 TIME =     0.05 SECS, INTEGRAL =      0.86 TIME LEFT: 172799.10
 STEP:  18 TIME =     0.05 SECS, INTEGRAL =      0.91 TIME LEFT: 172799.05
 STEP:  19 TIME =     0.05 SECS, INTEGRAL =      0.96 TIME LEFT: 172799.00
 STEP:  20 TIME =     0.05 SECS, INTEGRAL =      1.01 TIME LEFT: 172798.95
 STEP:  21 TIME =     0.05 SECS, INTEGRAL =      1.06 TIME LEFT: 172798.90
 STEP:  22 TIME =     0.05 SECS, INTEGRAL =      1.11 TIME LEFT: 172798.85
 STEP:  23 TIME =     0.05 SECS, INTEGRAL =      1.16 TIME LEFT: 172798.80
 STEP:  24 TIME =     0.05 SECS, INTEGRAL =      1.21 TIME LEFT: 172798.75
 STEP:  25 TIME =     0.05 SECS, INTEGRAL =      1.26 TIME LEFT: 172798.70
 STEP:  26 TIME =     0.05 SECS, INTEGRAL =      1.31 TIME LEFT: 172798.65
 STEP:  27 TIME =     0.05 SECS, INTEGRAL =      1.36 TIME LEFT: 172798.60
 STEP:  28 TIME =     0.05 SECS, INTEGRAL =      1.41 TIME LEFT: 172798.55
 STEP:  29 TIME =     0.05 SECS, INTEGRAL =      1.46 TIME LEFT: 172798.50
 STEP:  30 TIME =     0.05 SECS, INTEGRAL =      1.51 TIME LEFT: 172798.45
 STEP:  31 TIME =     0.05 SECS, INTEGRAL =      1.56 TIME LEFT: 172798.40
 STEP:  32 TIME =     0.05 SECS, INTEGRAL =      1.61 TIME LEFT: 172798.35
 STEP:  33 TIME =     0.05 SECS, INTEGRAL =      1.66 TIME LEFT: 172798.30
 STEP:  34 TIME =     0.05 SECS, INTEGRAL =      1.71 TIME LEFT: 172798.25
 STEP:  35 TIME =     0.05 SECS, INTEGRAL =      1.77 TIME LEFT: 172798.20
 STEP:  36 TIME =     0.05 SECS, INTEGRAL =      1.82 TIME LEFT: 172798.14
 STEP:  37 TIME =     0.05 SECS, INTEGRAL =      1.87 TIME LEFT: 172798.09
 STEP:  38 TIME =     0.05 SECS, INTEGRAL =      1.92 TIME LEFT: 172798.04
 STEP:  39 TIME =     0.05 SECS, INTEGRAL =      1.97 TIME LEFT: 172797.99
 STEP:  40 TIME =     0.05 SECS, INTEGRAL =      2.02 TIME LEFT: 172797.94
 STEP:  41 TIME =     0.05 SECS, INTEGRAL =      2.07 TIME LEFT: 172797.89
 STEP:  42 TIME =     0.05 SECS, INTEGRAL =      2.12 TIME LEFT: 172797.84
 STEP:  43 TIME =     0.05 SECS, INTEGRAL =      2.17 TIME LEFT: 172797.79
 STEP:  44 TIME =     0.05 SECS, INTEGRAL =      2.22 TIME LEFT: 172797.74
 STEP:  45 TIME =     0.05 SECS, INTEGRAL =      2.27 TIME LEFT: 172797.69
 STEP:  46 TIME =     0.05 SECS, INTEGRAL =      2.32 TIME LEFT: 172797.64
 STEP:  47 TIME =     0.05 SECS, INTEGRAL =      2.38 TIME LEFT: 172797.59
 STEP:  48 TIME =     0.05 SECS, INTEGRAL =      2.43 TIME LEFT: 172797.54
 STEP:  49 TIME =     0.05 SECS, INTEGRAL =      2.47 TIME LEFT: 172797.49
 STEP:  50 TIME =     0.05 SECS, INTEGRAL =      2.52 TIME LEFT: 172797.44
 STEP:  51 TIME =     0.05 SECS, INTEGRAL =      2.58 TIME LEFT: 172797.38
 STEP:  52 TIME =     0.05 SECS, INTEGRAL =      2.63 TIME LEFT: 172797.33
 STEP:  53 TIME =     0.05 SECS, INTEGRAL =      2.68 TIME LEFT: 172797.28
 STEP:  54 TIME =     0.05 SECS, INTEGRAL =      2.73 TIME LEFT: 172797.23
 STEP:  55 TIME =     0.05 SECS, INTEGRAL =      2.78 TIME LEFT: 172797.18
 STEP:  56 TIME =     0.05 SECS, INTEGRAL =      2.83 TIME LEFT: 172797.13
 STEP:  57 TIME =     0.05 SECS, INTEGRAL =      2.88 TIME LEFT: 172797.08
 STEP:  58 TIME =     0.05 SECS, INTEGRAL =      2.93 TIME LEFT: 172797.03
 STEP:  59 TIME =     0.05 SECS, INTEGRAL =      2.98 TIME LEFT: 172796.98
 STEP:  60 TIME =     0.05 SECS, INTEGRAL =      3.04 TIME LEFT: 172796.93
 STEP:  61 TIME =     0.05 SECS, INTEGRAL =      3.09 TIME LEFT: 172796.88
 STEP:  62 TIME =     0.05 SECS, INTEGRAL =      3.14 TIME LEFT: 172796.82
 STEP:  63 TIME =     0.05 SECS, INTEGRAL =      3.19 TIME LEFT: 172796.77
 STEP:  64 TIME =     0.05 SECS, INTEGRAL =      3.24 TIME LEFT: 172796.72
 STEP:  65 TIME =     0.05 SECS, INTEGRAL =      3.29 TIME LEFT: 172796.67
 STEP:  66 TIME =     0.05 SECS, INTEGRAL =      3.34 TIME LEFT: 172796.62

(To convert to Hartree/Bohr^2, multiply by (10^(-21) x N x a0^2)/(4.184 x 627.51) =  0.0642)


           FORCE MATRIX IN MILLIDYNES/ANGSTROM


                  C  1       C  2       C  3       C  4       C  5       C  6
 ------------------------------------------------------------------------------
     C    1  14.593114
     C    2   3.461869  14.669626
     C    3   0.690957   3.635784  14.662905
     C    4   3.618955   0.697775   0.744313  14.634163
     C    5   0.798727   0.823900   4.789388   4.766070  19.067079
     C    6   4.830405   0.591069   0.022694   0.674063   0.026609  18.118177
     C    7   0.581610   4.866061   0.678035   0.038931   0.040044   0.165024
     C    8   0.826131   0.114596   0.017489   0.045749   0.007780  10.347009
     C    9   0.117856   0.824994   0.041815   0.014659   0.007904   1.139642
     C   10   0.051672   0.052299   0.757483   0.756255  10.843373   0.006748
     H   11   4.228462   0.421840   0.034642   0.428157   0.029348   0.384970
     H   12   0.417328   4.239348   0.432062   0.019404   0.016379   0.035645
     H   13   0.035139   0.435942   4.523306   0.031234   0.441229   0.001603
     H   14   0.012521   0.454575   4.471120   0.021536   0.425466   0.001507
     H   15   0.451071   0.026149   0.024329   4.476115   0.431589   0.074174
     H   16   0.434538   0.022466   0.027904   4.502113   0.433256   0.031084
     H   17   0.429740   0.043001   0.004459   0.030284   0.001645   4.802561
     H   18   0.043068   0.428868   0.014145   0.006484   0.001931   0.012989
     H   19   0.002915   0.117209   0.016277   0.000525   0.002211   0.047307
     H   20   0.117041   0.004154   0.000630   0.015066   0.001418   0.443273
     H   21   0.006143   0.003073   0.086360   0.122547   0.479315   0.001160
     H   22   0.001904   0.007336   0.122934   0.086209   0.479126   0.001145


                  C  7       C  8       C  9       C 10       H 11       H 12
 ------------------------------------------------------------------------------
     C    7  18.123335
     C    8   1.139642  18.476230
     C    9  10.358462   5.715542  18.482506
     C   10   0.009557   0.004022   0.003952  18.096090
     H   11   0.020394   0.035962   0.014028   0.005034   4.652343
     H   12   0.400326   0.010777   0.040607   0.002588   0.021329   4.663490
     H   13   0.018603   0.000973   0.001821   0.025311   0.003480   0.030744
     H   14   0.065310   0.001387   0.005411   0.024545   0.001363   0.034300
     H   15   0.002923   0.004011   0.001082   0.024907   0.022915   0.001162
     H   16   0.002381   0.004468   0.001193   0.025380   0.026816   0.001416
     H   17   0.011717   0.443309   0.125126   0.001327   0.026022   0.005979
     H   18   4.822133   0.124746   0.444069   0.001263   0.004420   0.035625
     H   19   0.442939   0.433791   4.856118   0.001045   0.000724   0.013982
     H   20   0.047107   4.855967   0.434311   0.000851   0.015604   0.000734
     H   21   0.001205   0.000699   0.000729   5.111946   0.000861   0.000463
     H   22   0.001240   0.000616   0.000564   5.112016   0.000434   0.000590


                  H 13       H 14       H 15       H 16       H 17       H 18
 ------------------------------------------------------------------------------
     H   13   5.126138
     H   14   0.568024   5.076032
     H   15   0.000713   0.002955   5.090454
     H   16   0.003371   0.000897   0.571729   5.095520
     H   17   0.000888   0.000566   0.031921   0.001248   5.182490
     H   18   0.001448   0.006851   0.000942   0.000831   0.009692   5.197458
     H   19   0.001008   0.000854   0.000280   0.000153   0.007187   0.065170
     H   20   0.000190   0.000405   0.000755   0.001526   0.065338   0.007147
     H   21   0.010751   0.011181   0.012188   0.012178   0.000239   0.000368
     H   22   0.010182   0.014065   0.010641   0.010713   0.000394   0.000200


                  H 19       H 20       H 21       H 22
 ------------------------------------------------------
     H   19   5.220166
     H   20   0.032043   5.220415
     H   21   0.000170   0.000227   5.493804
     H   22   0.000236   0.000313   0.409419   5.494144


          HEAT OF FORMATION =      33.550243 KCALS/MOLE

          ZERO POINT ENERGY     118.719 KCAL/MOL


           NORMAL COORDINATE ANALYSIS (Total motion = 1 Angstrom)


   Root No.       1         2         3         4         5         6         7         8

                 1 A       2 A       3 A       4 A       5 A       6 A       7 A       8 A   

                  54.6      69.1     192.5     281.5     391.9     432.4     441.4     492.7
  
           1   -0.0004    0.0004   -0.0040   -0.0231   -0.0109   -0.0031    0.0005    0.0166
           2    0.0129   -0.0036   -0.0129    0.0022    0.0125   -0.0060    0.0030   -0.0210
           3   -0.0092    0.0066    0.0235   -0.0070   -0.0146    0.0175    0.0024   -0.0358
           4   -0.0002    0.0005   -0.0035   -0.0236   -0.0119    0.0023   -0.0008    0.0199
           5    0.0121   -0.0115   -0.0115   -0.0010   -0.0092   -0.0154   -0.0091    0.0314
           6   -0.0118    0.0058    0.0212    0.0028    0.0130    0.0173   -0.0008    0.0208
           7    0.0020    0.0146   -0.0081   -0.0212    0.0208    0.0024   -0.0105    0.0245
           8    0.0113   -0.0156   -0.0095   -0.0059   -0.0127   -0.0211   -0.0059    0.0286
           9   -0.0059    0.0599   -0.0306   -0.0095   -0.0117   -0.0161   -0.0035    0.0030
          10   -0.0040    0.0019   -0.0055   -0.0144    0.0253   -0.0076    0.0030    0.0126
          11    0.0232    0.0028    0.0001    0.0016    0.0120   -0.0059    0.0081   -0.0371
          12   -0.0558   -0.0195   -0.0252    0.0262    0.0088   -0.0175   -0.0004   -0.0148
          13    0.0045    0.0055   -0.0015   -0.0105    0.0337    0.0024    0.0140    0.0027
          14    0.0098   -0.0037   -0.0064   -0.0005    0.0027   -0.0284   -0.0087   -0.0178
          15    0.0055   -0.0007   -0.0194    0.0061   -0.0077   -0.0174    0.0908    0.0162
          16   -0.0056   -0.0077   -0.0030   -0.0021   -0.0086    0.0006    0.0077   -0.0327
          17   -0.0302   -0.0226   -0.0246   -0.0145   -0.0010    0.0528    0.0024   -0.0082
          18    0.0097    0.0179    0.0273   -0.0118   -0.0120   -0.0015   -0.0022   -0.0242
          19   -0.0003   -0.0018   -0.0005    0.0028   -0.0076    0.0150   -0.0010   -0.0076
          20    0.0141    0.0262   -0.0136    0.0280   -0.0052    0.0428   -0.0071    0.0208
          21   -0.0129   -0.0204    0.0242    0.0004    0.0157   -0.0107   -0.0067    0.0310
          22   -0.0070   -0.0109    0.0066    0.0130   -0.0042   -0.0019    0.0026   -0.0300
          23   -0.0404   -0.0051    0.0402   -0.0306   -0.0278   -0.0001   -0.0055   -0.0072
          24    0.0148    0.0055   -0.0037    0.0063    0.0059    0.0307   -0.0020   -0.0193
          25   -0.0027   -0.0055    0.0077    0.0198    0.0038   -0.0013    0.0033   -0.0282
          26   -0.0116    0.0292    0.0470    0.0192    0.0302    0.0020   -0.0031    0.0280
          27    0.0010   -0.0192   -0.0095   -0.0056   -0.0085    0.0217   -0.0119    0.0403
          28    0.0133    0.0013    0.0120    0.0506   -0.0315   -0.0066   -0.0089    0.0140
          29   -0.0033    0.0043   -0.0108    0.0014    0.0006   -0.0337    0.0173   -0.0143
          30    0.0653   -0.0368   -0.0013   -0.0070    0.0066   -0.0064   -0.0239   -0.0097
          31    0.0041    0.0008   -0.0057   -0.0307   -0.0340   -0.0178   -0.0057    0.0332
          32    0.0398    0.0126    0.0096   -0.0054    0.0131   -0.0106    0.0078   -0.0523
          33    0.0166    0.0212    0.0418   -0.0165   -0.0234    0.0052    0.0035   -0.0553
          34    0.0008   -0.0015    0.0028   -0.0302   -0.0345    0.0109    0.0025    0.0048
          35    0.0081   -0.0511    0.0149   -0.0022   -0.0020   -0.0273   -0.0096    0.0625
          36   -0.0142   -0.0140    0.0318    0.0042    0.0243    0.0067   -0.0026    0.0424
          37    0.0073   -0.0299    0.0147   -0.0048    0.0365    0.0197    0.0754    0.0394
          38    0.0060   -0.0377    0.0132   -0.0051   -0.0200    0.0005   -0.0113    0.0491
          39   -0.0109    0.1171   -0.0630   -0.0286   -0.0289   -0.0422   -0.1047   -0.0191
          40   -0.0050    0.0841   -0.0425   -0.0417    0.0095   -0.0248   -0.1381   -0.0050
          41    0.0168   -0.0023   -0.0339   -0.0088   -0.0345   -0.0380    0.0124    0.0342
          42   -0.0069    0.0908   -0.0520   -0.0191   -0.0231   -0.0334   -0.0490   -0.0072
          43    0.0487    0.0213    0.0181   -0.0397    0.0043    0.0202    0.0995    0.0246
          44    0.0220   -0.0010   -0.0150    0.0077    0.0294   -0.0065    0.0393   -0.0236
          45   -0.1094   -0.0411   -0.0574    0.0562    0.0402   -0.0481   -0.0826   -0.0199
          46   -0.0678   -0.0210   -0.0339    0.0202    0.0630   -0.0393   -0.1119   -0.0052
          47    0.0435    0.0171    0.0306   -0.0153    0.0073    0.0264    0.0070   -0.0654
          48   -0.0895   -0.0318   -0.0414    0.0448    0.0290   -0.0356   -0.0611   -0.0233
          49   -0.0087   -0.0121   -0.0104   -0.0030   -0.0101    0.0139    0.0083   -0.0343
          50   -0.0500   -0.0476   -0.0701   -0.0304   -0.0141    0.1359    0.0056   -0.0081
          51    0.0188    0.0358    0.0483   -0.0253   -0.0113   -0.0437   -0.0055    0.0058
          52    0.0025    0.0016   -0.0049    0.0072   -0.0077    0.0268   -0.0009   -0.0088
          53    0.0357    0.0495   -0.0463    0.0723   -0.0032    0.1348   -0.0058   -0.0020
          54   -0.0246   -0.0390    0.0448   -0.0002    0.0217   -0.0623   -0.0058    0.0126
          55   -0.0014   -0.0043    0.0116    0.0380    0.0224   -0.0069    0.0035   -0.0092
          56   -0.0119    0.0556    0.0801    0.0544    0.0899    0.0143    0.0060    0.0238
          57    0.0019   -0.0361   -0.0290   -0.0177   -0.0367    0.0103   -0.0178    0.0542
          58   -0.0112   -0.0178    0.0094    0.0189   -0.0045   -0.0015   -0.0043    0.0021
          59   -0.0691   -0.0152    0.0666   -0.0722   -0.0896   -0.0019   -0.0113   -0.0305
          60    0.0284    0.0132   -0.0157    0.0193    0.0304    0.0314    0.0040   -0.0272
          61    0.0195    0.0032    0.0184    0.0828   -0.0751   -0.0125   -0.0237    0.0288
          62   -0.0132    0.0013   -0.0207   -0.0475    0.0666   -0.0256    0.0405   -0.0362
          63    0.1087   -0.0251    0.0037   -0.0378    0.0240    0.0054   -0.0874   -0.0271
          64    0.0149   -0.0043    0.0189    0.0876   -0.0754   -0.0154   -0.0232    0.0273
          65   -0.0050    0.0145   -0.0051    0.0523   -0.0679   -0.0484    0.0234    0.0121
          66    0.0750   -0.0807    0.0105    0.0093    0.0070   -0.0049   -0.0888   -0.0256


   Root No.       9        10        11        12        13        14        15        16

                 9 A      10 A      11 A      12 A      13 A      14 A      15 A      16 A   

                 507.0     556.3     605.7     621.3     690.4     766.9     828.4     841.1
  
           1   -0.0290   -0.0100    0.0059    0.0030    0.0212   -0.0007    0.0107   -0.0034
           2   -0.0074    0.0311   -0.0062   -0.0268    0.0378    0.0112    0.0042   -0.0038
           3   -0.0001   -0.0264   -0.0144   -0.0116   -0.0260   -0.0088   -0.0105    0.0178
           4   -0.0264    0.0053    0.0084    0.0023    0.0265    0.0111   -0.0131    0.0099
           5    0.0078    0.0129   -0.0203   -0.0288   -0.0210    0.0015    0.0008   -0.0052
           6   -0.0133   -0.0499   -0.0004   -0.0043    0.0295    0.0005   -0.0036   -0.0093
           7    0.0142    0.0117   -0.0188   -0.0276   -0.0075    0.0104   -0.0023   -0.0093
           8   -0.0072   -0.0014   -0.0106   -0.0100   -0.0191    0.0092    0.0012   -0.0089
           9   -0.0090   -0.0047    0.0044    0.0022    0.0106    0.0003   -0.0108   -0.0245
          10    0.0159   -0.0263    0.0108    0.0267   -0.0189   -0.0130    0.0091   -0.0135
          11    0.0048    0.0087   -0.0023   -0.0127    0.0233    0.0120   -0.0139    0.0169
          12    0.0073    0.0043   -0.0081   -0.0097   -0.0018   -0.0006   -0.0007    0.0385
          13    0.0282   -0.0045   -0.0037   -0.0034   -0.0083   -0.0021   -0.0014    0.0030
          14   -0.0043   -0.0308    0.0173    0.0333   -0.0056   -0.0040    0.0012    0.0020
          15    0.0053    0.0133   -0.0008   -0.0022   -0.0024    0.0062    0.0031   -0.0026
          16   -0.0236   -0.0407   -0.0207   -0.0323    0.0098   -0.0092    0.0045    0.0121
          17   -0.0360    0.0106   -0.0007    0.0036   -0.0079   -0.0238    0.0242   -0.0048
          18    0.0042    0.0108   -0.0001   -0.0066   -0.0000    0.0057    0.0001   -0.0154
          19    0.0043    0.0508    0.0272    0.0352    0.0102    0.0036   -0.0193    0.0290
          20    0.0376   -0.0236   -0.0039   -0.0085    0.0072   -0.0265   -0.0178   -0.0063
          21   -0.0062    0.0018   -0.0047   -0.0014   -0.0052    0.0092    0.0133    0.0065
          22    0.0136    0.0064   -0.0039   -0.0054   -0.0083   -0.0037    0.0103   -0.0178
          23    0.0291    0.0173    0.0075    0.0038    0.0082   -0.0150    0.0273   -0.0099
          24   -0.0103    0.0422    0.0090    0.0143   -0.0207    0.0033    0.0048   -0.0376
          25    0.0065    0.0140   -0.0016   -0.0003   -0.0123   -0.0032    0.0029   -0.0174
          26   -0.0228    0.0181    0.0024    0.0071   -0.0030   -0.0170   -0.0267    0.0134
          27    0.0244    0.0100    0.0116    0.0156    0.0124    0.0070    0.0032    0.0283
          28   -0.0039   -0.0028   -0.0008    0.0006   -0.0042   -0.0013   -0.0016    0.0054
          29   -0.0026   -0.0304    0.0194    0.0378   -0.0078   -0.0031    0.0020    0.0031
          30   -0.0018   -0.0088    0.0047    0.0087   -0.0009   -0.0004    0.0010   -0.0004
          31   -0.0214    0.0289    0.0012   -0.0046    0.0018    0.0135    0.0145    0.0076
          32    0.0083    0.0257   -0.0021   -0.0291    0.0556    0.0325   -0.0278   -0.0144
          33    0.0170   -0.0127   -0.0126   -0.0173   -0.0183    0.0160   -0.0356    0.0115
          34   -0.0334   -0.0324    0.0014   -0.0018    0.0110   -0.0001   -0.0245    0.0334
          35   -0.0079    0.0112   -0.0300   -0.0332   -0.0512    0.0228    0.0258    0.0179
          36   -0.0185   -0.0361   -0.0034   -0.0054    0.0185    0.0152    0.0142   -0.0056
          37    0.0290   -0.0095    0.0167   -0.0452    0.0190    0.0070   -0.0242   -0.0668
          38   -0.0370   -0.0290   -0.0004   -0.0194    0.0324    0.0188   -0.0264   -0.0344
          39   -0.0190    0.0282   -0.0416    0.0247   -0.0350    0.0026    0.0224    0.0515
          40    0.0106    0.0408   -0.0769    0.0002   -0.0636    0.0104    0.0387    0.0827
          41   -0.0053    0.0441   -0.0166   -0.0219   -0.0510    0.0193    0.0101    0.0035
          42   -0.0106    0.0215   -0.0214    0.0103   -0.0225    0.0038    0.0091    0.0167
          43    0.0177   -0.0200   -0.0371    0.0446   -0.0588   -0.0315    0.0243    0.0622
          44    0.0224    0.0368   -0.0110   -0.0183    0.0317    0.0281   -0.0184    0.0089
          45    0.0162    0.0124    0.0373   -0.0314    0.0444    0.0273   -0.0189   -0.0443
          46    0.0307   -0.0323    0.0647    0.0007    0.0217    0.0088   -0.0163   -0.1028
          47    0.0133   -0.0104   -0.0266   -0.0213   -0.0160   -0.0064   -0.0335    0.0818
          48    0.0146    0.0026    0.0217   -0.0240    0.0224    0.0125   -0.0138   -0.0118
          49   -0.0278   -0.0481   -0.0215   -0.0279   -0.0062    0.0105   -0.0240    0.0073
          50   -0.0748   -0.0451   -0.0040    0.0307   -0.0968    0.0971   -0.1486   -0.0322
          51   -0.0001    0.0217    0.0075   -0.0166    0.0679   -0.0558    0.0937    0.0076
          52    0.0092    0.0415    0.0290    0.0381    0.0146    0.0220    0.0027    0.0349
          53    0.0871   -0.0899    0.0073    0.0127    0.0259    0.1105    0.1683    0.0211
          54   -0.0063    0.0440   -0.0230   -0.0222   -0.0513   -0.0813   -0.0614   -0.0442
          55    0.0013   -0.0269   -0.0202   -0.0197   -0.0184    0.0219    0.0191   -0.0043
          56   -0.0966    0.0040   -0.0013    0.0255   -0.0443    0.1706    0.0785    0.0312
          57    0.0705   -0.0059    0.0023   -0.0089    0.0356   -0.1025   -0.0562    0.0245
          58    0.0462    0.0146    0.0089    0.0173   -0.0106    0.0301   -0.0188    0.0054
          59    0.1063   -0.0359    0.0114    0.0084   -0.0114    0.1732   -0.0633   -0.0491
          60   -0.0589    0.0582    0.0003   -0.0002   -0.0115   -0.0898    0.0572   -0.0358
          61   -0.0303   -0.0025    0.0275   -0.0178   -0.0128    0.0003    0.0070   -0.0112
          62    0.0374   -0.0316   -0.0256    0.0689    0.0052   -0.0055   -0.0110    0.0275
          63   -0.0091   -0.0390    0.2119   -0.1368   -0.0675   -0.0148    0.0077    0.0578
          64   -0.0285   -0.0011   -0.0256    0.0280    0.0045    0.0019    0.0040   -0.0224
          65   -0.0411   -0.0289    0.0675    0.0125   -0.0245    0.0019    0.0179   -0.0209
          66   -0.0013   -0.0079   -0.1945    0.1693    0.0693   -0.0008   -0.0158   -0.0431


   Root No.      17        18        19        20        21        22        23        24

                17 A      18 A      19 A      20 A      21 A      22 A      23 A      24 A   

                 857.5     924.1     926.8     944.6     958.6     978.8     992.8    1012.2
  
           1    0.0356    0.0156   -0.0104    0.0032    0.0025    0.0096    0.0142    0.0075
           2    0.0133    0.0058   -0.0183   -0.0001    0.0060    0.0060    0.0017   -0.0016
           3   -0.0181   -0.0193    0.0172    0.0046   -0.0012   -0.0064    0.0043    0.0058
           4   -0.0274    0.0050   -0.0028   -0.0136   -0.0007   -0.0022    0.0132   -0.0004
           5    0.0050    0.0037    0.0103    0.0089    0.0049    0.0028   -0.0013    0.0032
           6   -0.0272    0.0117   -0.0147   -0.0219   -0.0069   -0.0067   -0.0021   -0.0099
           7   -0.0278   -0.0080   -0.0085    0.0246   -0.0366   -0.0100   -0.0019   -0.0028
           8   -0.0270   -0.0058    0.0067   -0.0091    0.0084    0.0009   -0.0143   -0.0039
           9   -0.0174    0.0035    0.0190    0.0259    0.0172    0.0120   -0.0066    0.0111
          10    0.0093   -0.0205   -0.0144   -0.0120    0.0393    0.0109   -0.0049    0.0013
          11   -0.0049   -0.0072    0.0011   -0.0060    0.0067    0.0035    0.0069    0.0057
          12   -0.0161    0.0206   -0.0274    0.0125    0.0090    0.0107    0.0018    0.0018
          13    0.0012    0.0029    0.0066   -0.0013   -0.0016   -0.0017   -0.0009   -0.0009
          14   -0.0020    0.0058   -0.0021    0.0088   -0.0118   -0.0031    0.0017    0.0008
          15    0.0109   -0.0105    0.0049   -0.0176   -0.0093   -0.0056   -0.0001   -0.0097
          16    0.0349   -0.0153    0.0103    0.0093   -0.0010   -0.0118   -0.0291   -0.0085
          17   -0.0041    0.0008    0.0043    0.0049    0.0086   -0.0232   -0.0055    0.0172
          18    0.0214    0.0010   -0.0019   -0.0013   -0.0062    0.0085   -0.0096   -0.0128
          19   -0.0092   -0.0158    0.0099    0.0067   -0.0019   -0.0077   -0.0259   -0.0075
          20    0.0158    0.0080   -0.0092    0.0023    0.0096   -0.0217    0.0166   -0.0184
          21    0.0149   -0.0036    0.0036    0.0018   -0.0030    0.0145    0.0016    0.0135
          22   -0.0099    0.0068   -0.0031   -0.0057   -0.0012    0.0026    0.0104   -0.0044
          23   -0.0105   -0.0049    0.0097   -0.0037   -0.0078    0.0177    0.0158   -0.0234
          24   -0.0010    0.0201   -0.0136   -0.0073    0.0010   -0.0100   -0.0048    0.0082
          25   -0.0093    0.0097   -0.0069   -0.0056   -0.0009    0.0066    0.0044    0.0072
          26    0.0173   -0.0059   -0.0032   -0.0045   -0.0124    0.0132   -0.0171    0.0227
          27    0.0191   -0.0140    0.0115    0.0150    0.0081   -0.0122    0.0090   -0.0139
          28    0.0018    0.0329    0.0311   -0.0109    0.0006   -0.0019   -0.0032    0.0004
          29   -0.0019    0.0074   -0.0017    0.0115   -0.0238   -0.0050    0.0005   -0.0068
          30    0.0013   -0.0089   -0.0014   -0.0114   -0.0137   -0.0181    0.0134    0.0184
          31    0.0700    0.0621    0.0001    0.0588   -0.0170    0.0623    0.1158    0.0735
          32    0.0204   -0.0618   -0.0013   -0.0378    0.0275    0.0262    0.0348   -0.0255
          33    0.0060   -0.0580    0.0369   -0.0029    0.0079    0.0348    0.0774    0.0134
          34   -0.0563   -0.0066    0.0237   -0.0567    0.0250   -0.0132    0.0961    0.0198
          35   -0.0046    0.0024    0.0191   -0.0616   -0.0065    0.0084   -0.0607    0.0019
          36   -0.0191    0.0160   -0.0199   -0.0425   -0.0225    0.0009   -0.0614   -0.0170
          37   -0.0485   -0.0155    0.0240    0.1162   -0.0511   -0.0008   -0.0085    0.0201
          38   -0.1192    0.0299   -0.0062   -0.0418    0.0628    0.0154   -0.0198   -0.0181
          39    0.0292    0.0032   -0.0164   -0.0753    0.0181   -0.0035    0.0024   -0.0130
          40    0.0232   -0.0048   -0.0710   -0.0739   -0.0904   -0.0491    0.0160   -0.0416
          41    0.0047   -0.0411    0.0556   -0.0253    0.0477    0.0185   -0.0324    0.0166
          42    0.0135   -0.0067    0.0095   -0.0205    0.0096    0.0025   -0.0057    0.0022
          43   -0.0187    0.0225   -0.0924   -0.0004    0.0878    0.0447   -0.0192   -0.0141
          44    0.0060   -0.0149   -0.0278   -0.0501    0.0344    0.0289   -0.0148   -0.0533
          45    0.0197   -0.0292    0.0376   -0.0251   -0.0235   -0.0095    0.0044   -0.0151
          46    0.0334   -0.1053    0.0738   -0.0492    0.0426   -0.0118    0.0001    0.0257
          47   -0.0766   -0.0368    0.0062    0.0282    0.0696    0.0098    0.0214    0.0963
          48   -0.0005   -0.0232    0.0194   -0.0087    0.0063   -0.0019    0.0043    0.0099
          49    0.0444   -0.0170    0.0096    0.0045   -0.0112    0.0107   -0.0217   -0.0206
          50    0.0797   -0.0068   -0.0014   -0.0207   -0.0535    0.1199    0.0288   -0.0559
          51    0.0469    0.0085   -0.0016    0.0235    0.0290   -0.0493   -0.0442    0.0261
          52   -0.0139   -0.0205    0.0137    0.0033   -0.0103    0.0087   -0.0331    0.0043
          53    0.0006   -0.0219    0.0158   -0.0161   -0.0535    0.1148   -0.0404    0.0807
          54    0.0683    0.0252   -0.0193    0.0342    0.0383   -0.0379    0.0415   -0.0187
          55    0.0167    0.0100   -0.0044    0.0127    0.0235    0.0033    0.0775    0.0132
          56    0.0155   -0.0139    0.0446    0.0676    0.0735   -0.0800    0.0792   -0.0830
          57    0.0383   -0.0089   -0.0185   -0.0211   -0.0338    0.0475   -0.0098    0.0600
          58   -0.0209    0.0162   -0.0175   -0.0017    0.0148   -0.0067    0.0646    0.0344
          59    0.0615    0.0700   -0.0759    0.0054    0.0402   -0.0958   -0.0894    0.0718
          60   -0.0219   -0.0142    0.0279   -0.0132   -0.0268    0.0398    0.0068   -0.0510
          61   -0.0085   -0.0477   -0.0503    0.0189    0.0114    0.0118   -0.0039   -0.0077
          62    0.0134    0.1296    0.1222   -0.0335   -0.0442   -0.0282    0.0026    0.0061
          63   -0.0136    0.0806   -0.0136    0.0556    0.0292    0.0686   -0.0509   -0.0824
          64   -0.0111   -0.0511   -0.0472    0.0294   -0.0081    0.0049   -0.0013   -0.0083
          65   -0.0123   -0.1266   -0.1208    0.0302   -0.0595   -0.0327    0.0304    0.0149
          66   -0.0212    0.0003   -0.0087    0.0930    0.0289    0.0676   -0.0472   -0.0642


   Root No.      25        26        27        28        29        30        31        32

                25 A      26 A      27 A      28 A      29 A      30 A      31 A      32 A   

                1018.4    1042.1    1063.8    1074.7    1089.4    1097.9    1124.4    1147.4
  
           1   -0.0018    0.0078    0.0006   -0.0008    0.0122    0.0081    0.0035   -0.0009
           2   -0.0043   -0.0131   -0.0003   -0.0199    0.0136    0.0023   -0.0167    0.0015
           3    0.0087   -0.0039    0.0125    0.0002   -0.0073   -0.0027    0.0049   -0.0029
           4    0.0121    0.0051   -0.0091   -0.0000    0.0072   -0.0057   -0.0027    0.0026
           5   -0.0042    0.0134   -0.0014   -0.0091   -0.0185   -0.0038   -0.0235   -0.0054
           6    0.0024    0.0140    0.0077   -0.0030    0.0109    0.0008    0.0165    0.0103
           7    0.0000   -0.0117    0.0036    0.0059    0.0054   -0.0002    0.0061   -0.0004
           8   -0.0068   -0.0230    0.0025    0.0094    0.0116    0.0075    0.0215    0.0020
           9   -0.0123    0.0056   -0.0002   -0.0053   -0.0105   -0.0143   -0.0117   -0.0040
          10   -0.0066   -0.0056    0.0022   -0.0115    0.0004   -0.0004   -0.0062   -0.0001
          11    0.0025    0.0221   -0.0108    0.0202   -0.0097    0.0027    0.0141    0.0035
          12   -0.0133   -0.0027   -0.0020   -0.0078    0.0094   -0.0092   -0.0017    0.0013
          13    0.0025    0.0050   -0.0011    0.0032   -0.0059    0.0031   -0.0010    0.0022
          14   -0.0024   -0.0012   -0.0007   -0.0028    0.0005   -0.0073    0.0001    0.0003
          15    0.0208    0.0021    0.0070    0.0073   -0.0015    0.0320   -0.0080   -0.0028
          16   -0.0067   -0.0096   -0.0157   -0.0068   -0.0125    0.0030    0.0013    0.0051
          17    0.0151   -0.0060    0.0175    0.0016   -0.0063   -0.0027    0.0051   -0.0039
          18   -0.0118    0.0007   -0.0146    0.0048    0.0031    0.0004   -0.0039   -0.0089
          19   -0.0130    0.0087    0.0227    0.0040    0.0015   -0.0020   -0.0038    0.0058
          20   -0.0004    0.0115    0.0022   -0.0012    0.0059    0.0010    0.0044    0.0039
          21    0.0044   -0.0127   -0.0079    0.0065   -0.0013   -0.0013   -0.0050    0.0079
          22    0.0037   -0.0016   -0.0210   -0.0162   -0.0088    0.0049    0.0072   -0.0011
          23   -0.0125    0.0067   -0.0119   -0.0022    0.0041    0.0022   -0.0016   -0.0011
          24    0.0094   -0.0035   -0.0174   -0.0090   -0.0060    0.0036    0.0026   -0.0010
          25    0.0007    0.0069    0.0173    0.0175    0.0099   -0.0061   -0.0049   -0.0010
          26    0.0093   -0.0171   -0.0122   -0.0057   -0.0093    0.0019   -0.0003   -0.0010
          27   -0.0024   -0.0084   -0.0144   -0.0059   -0.0052    0.0027    0.0002    0.0007
          28   -0.0058   -0.0100    0.0024   -0.0031    0.0049   -0.0010    0.0009   -0.0011
          29    0.0113   -0.0016    0.0024    0.0008    0.0001    0.0029   -0.0026   -0.0008
          30   -0.0304   -0.0014   -0.0039   -0.0042    0.0004   -0.0135    0.0014    0.0006
          31   -0.0029    0.0704    0.0805   -0.0061   -0.1015    0.0553    0.1166    0.0746
          32    0.0290   -0.0998    0.1296   -0.0979    0.0602   -0.0414   -0.0426   -0.0110
          33    0.0368   -0.0538    0.1654   -0.0711   -0.0183   -0.0208    0.0348    0.0189
          34    0.1019   -0.0148   -0.0905    0.0541   -0.0285   -0.0958   -0.1478    0.0720
          35    0.0234    0.1981    0.0615   -0.0728   -0.0346   -0.0693   -0.0868   -0.0347
          36   -0.0148    0.1198    0.0704   -0.0559    0.0165   -0.0014    0.0370   -0.0282
          37    0.0006    0.0149   -0.0124   -0.0151    0.0201   -0.0578    0.0006   -0.0011
          38   -0.0869   -0.1052    0.0589    0.0584   -0.0940    0.1054   -0.0331   -0.0237
          39    0.0086   -0.0028    0.0052    0.0071   -0.0017    0.0281    0.0067    0.0031
          40    0.0233   -0.0141    0.0297    0.0193   -0.0130    0.0538   -0.0188   -0.0051
          41    0.0539    0.0036   -0.0624   -0.0021    0.1476   -0.0648    0.1611    0.0443
          42    0.0166    0.0134   -0.0105   -0.0041    0.0263   -0.0158    0.0239    0.0077
          43   -0.0417   -0.0170   -0.0088   -0.0079   -0.0275   -0.0589    0.0201    0.0068
          44    0.0041    0.0113   -0.0112    0.0900   -0.1311   -0.1175    0.1102    0.0169
          45    0.0239    0.0039    0.0091    0.0274   -0.0312   -0.0159    0.0254    0.0025
          46    0.0238    0.0424   -0.0089    0.0206   -0.0129    0.0683   -0.0001   -0.0029
          47   -0.0283    0.1056   -0.0517    0.0135    0.0803    0.1468   -0.0268   -0.0110
          48    0.0050    0.0174   -0.0045    0.0086   -0.0003    0.0200    0.0027    0.0002
          49   -0.0172   -0.0068   -0.0258   -0.0101   -0.0094    0.0056   -0.0010    0.0069
          50   -0.0631    0.0297   -0.0041    0.0509    0.0427   -0.0081   -0.0091   -0.0741
          51   -0.0008    0.0179    0.0744    0.1164    0.0230   -0.0386    0.0235   -0.1444
          52   -0.0115    0.0026    0.0217    0.0068   -0.0000   -0.0031   -0.0079    0.0067
          53   -0.0008   -0.0314    0.0286    0.0508    0.0150   -0.0041   -0.0375    0.0822
          54   -0.0226    0.0135    0.0851    0.0939    0.0621   -0.0030   -0.0352    0.1632
          55    0.0200   -0.0112    0.0330    0.0910    0.0510   -0.0415   -0.0427   -0.1603
          56   -0.0217    0.0117   -0.0092    0.0041    0.0046   -0.0022   -0.0082   -0.0198
          57    0.0302   -0.0401   -0.0086    0.0329    0.0106   -0.0161   -0.0185   -0.0834
          58    0.0469   -0.0263   -0.0404   -0.0696   -0.0385    0.0201    0.0804   -0.1319
          59    0.0357   -0.0150    0.0121    0.0159    0.0007   -0.0064   -0.0264    0.0453
          60   -0.0333    0.0184   -0.0182    0.0135    0.0115   -0.0013   -0.0279    0.0511
          61    0.0148    0.0095   -0.0011    0.0036   -0.0056    0.0047    0.0003    0.0017
          62   -0.0213   -0.0322    0.0080   -0.0095    0.0162   -0.0063   -0.0020   -0.0051
          63    0.1168   -0.0075    0.0192    0.0123   -0.0002    0.0420   -0.0068   -0.0027
          64    0.0203    0.0099   -0.0001    0.0051   -0.0050    0.0052   -0.0027    0.0004
          65   -0.0142    0.0202   -0.0074    0.0053   -0.0130   -0.0107   -0.0043    0.0026
          66    0.1248    0.0204    0.0097    0.0154   -0.0050    0.0407   -0.0088   -0.0022


   Root No.      33        34        35        36        37        38        39        40

                33 A      34 A      35 A      36 A      37 A      38 A      39 A      40 A   

                1152.1    1201.5    1227.0    1237.0    1262.4    1269.7    1331.6    1358.1
  
           1    0.0165   -0.0038   -0.0168    0.0211    0.0325    0.0142    0.0380   -0.0137
           2   -0.0027   -0.0108    0.0374   -0.0228   -0.0216   -0.0296    0.0002   -0.0096
           3    0.0019   -0.0144    0.0358   -0.0010    0.0013    0.0091    0.0135   -0.0251
           4   -0.0132   -0.0020    0.0174    0.0246   -0.0289    0.0293   -0.0351   -0.0016
           5   -0.0001    0.0217    0.0374    0.0111   -0.0139    0.0378    0.0049    0.0070
           6   -0.0010    0.0146    0.0234   -0.0092    0.0014   -0.0086    0.0084    0.0169
           7    0.0029   -0.0063   -0.0179   -0.0026   -0.0074   -0.0045   -0.0040   -0.0090
           8    0.0033    0.0100    0.0045    0.0050    0.0371   -0.0330    0.0165    0.0305
           9    0.0036   -0.0028   -0.0056    0.0021    0.0070   -0.0046    0.0026    0.0015
          10   -0.0029   -0.0022    0.0157   -0.0075    0.0075   -0.0007    0.0035   -0.0031
          11    0.0045   -0.0097   -0.0066   -0.0026    0.0421    0.0280    0.0179   -0.0184
          12    0.0019    0.0032   -0.0126    0.0002    0.0062    0.0046    0.0003    0.0004
          13   -0.0009   -0.0091   -0.0021   -0.0228    0.0025    0.0248   -0.0003    0.0435
          14   -0.0004   -0.0000    0.0028   -0.0007    0.0089    0.0004   -0.0237   -0.0020
          15    0.0005    0.0024    0.0036    0.0023    0.0030   -0.0036   -0.0046   -0.0060
          16   -0.0023   -0.0025   -0.0117    0.0003   -0.0075   -0.0103   -0.0128    0.0137
          17   -0.0022   -0.0029   -0.0002    0.0049    0.0010   -0.0001    0.0023    0.0036
          18   -0.0010   -0.0127    0.0063    0.0045   -0.0031   -0.0119    0.0023    0.0106
          19   -0.0000   -0.0002    0.0163   -0.0061    0.0056   -0.0113    0.0107    0.0091
          20   -0.0020    0.0020   -0.0099   -0.0045   -0.0007    0.0024    0.0008   -0.0097
          21   -0.0026    0.0130   -0.0024   -0.0050   -0.0011    0.0123    0.0053   -0.0124
          22    0.0020    0.0110   -0.0202   -0.0038   -0.0012    0.0062   -0.0142   -0.0045
          23   -0.0013   -0.0033   -0.0032    0.0031    0.0006   -0.0028   -0.0010    0.0048
          24   -0.0015   -0.0010   -0.0148    0.0074    0.0016   -0.0002   -0.0066    0.0086
          25   -0.0026    0.0143    0.0108   -0.0105    0.0013    0.0091    0.0153   -0.0146
          26   -0.0006   -0.0006   -0.0086    0.0006   -0.0000   -0.0000   -0.0048   -0.0011
          27   -0.0025    0.0004   -0.0139   -0.0037    0.0007   -0.0013   -0.0039   -0.0062
          28    0.0002    0.0035    0.0012    0.0057   -0.0010   -0.0090   -0.0005   -0.0063
          29   -0.0019   -0.0009   -0.0052    0.0007   -0.0090    0.0000   -0.0285   -0.0046
          30   -0.0005   -0.0009   -0.0021   -0.0005   -0.0022    0.0013   -0.0062   -0.0002
          31   -0.0788    0.0060    0.0215   -0.0889   -0.0245   -0.0942   -0.0316    0.0254
          32    0.0200    0.0495   -0.0975    0.0441    0.0038    0.0283   -0.0053    0.0254
          33   -0.0211    0.0433   -0.0655    0.0076   -0.0022    0.0105   -0.0232    0.0238
          34    0.0644    0.0202   -0.0460   -0.0913    0.0183   -0.1063    0.0217    0.0250
          35    0.0252   -0.0755   -0.1028   -0.0202    0.0072   -0.0551   -0.0099   -0.0189
          36   -0.0155   -0.0444   -0.0259    0.0170   -0.0051   -0.0073   -0.0200   -0.0067
          37    0.0130    0.0258   -0.0054    0.0348    0.0424   -0.0700   -0.0010   -0.0696
          38    0.0047   -0.0905   -0.1131   -0.0653   -0.0532    0.0433   -0.0215   -0.0836
          39   -0.0077   -0.0150    0.0069   -0.0233   -0.0270    0.0486    0.0059    0.0871
          40    0.0094    0.0338    0.0085    0.0348    0.0452   -0.0724   -0.0075   -0.0943
          41   -0.0254   -0.0563   -0.0472   -0.0796   -0.0732    0.0393   -0.0167   -0.0594
          42   -0.0033   -0.0089   -0.0108   -0.0114   -0.0082   -0.0061   -0.0078   -0.0503
          43   -0.0118    0.0276    0.0087    0.0429   -0.0561   -0.0646    0.0035   -0.0762
          44   -0.0101    0.0341   -0.0293    0.1090   -0.0664   -0.0496   -0.0020    0.0182
          45    0.0022   -0.0021   -0.0165    0.0129    0.0095    0.0239   -0.0075    0.0813
          46   -0.0118    0.0245    0.0287    0.0378   -0.0566   -0.0703    0.0091   -0.1005
          47    0.0000    0.0716   -0.0858    0.0650   -0.0704   -0.0620   -0.0337    0.0693
          48   -0.0019    0.0130   -0.0042    0.0199   -0.0202   -0.0244    0.0038   -0.0443
          49   -0.0023   -0.0051   -0.0112    0.0004   -0.0071   -0.0129   -0.0121    0.0146
          50    0.0660    0.0480   -0.0034   -0.0516   -0.0284    0.0013   -0.0309   -0.0069
          51    0.1240    0.1032   -0.0295   -0.0818   -0.0552    0.0162   -0.0687   -0.0061
          52   -0.0000    0.0003    0.0202   -0.0045    0.0047   -0.0099    0.0108    0.0103
          53    0.0647   -0.0467    0.0164    0.0500   -0.0263    0.0081   -0.0356    0.0189
          54    0.1184   -0.0975    0.0116    0.0741   -0.0404   -0.0140   -0.0615    0.0351
          55   -0.1776   -0.0799    0.0129    0.0387    0.0187   -0.0460   -0.0028    0.0444
          56   -0.0250   -0.0144   -0.0078    0.0071    0.0011   -0.0072   -0.0079    0.0070
          57   -0.0949   -0.0492   -0.0164    0.0230    0.0105   -0.0307   -0.0151    0.0246
          58    0.2002   -0.0760    0.0519    0.0303   -0.0222   -0.0390   -0.0033    0.0390
          59   -0.0708    0.0280   -0.0284   -0.0078    0.0070    0.0130   -0.0052   -0.0101
          60   -0.0839    0.0350   -0.0475   -0.0067    0.0105    0.0183   -0.0130   -0.0080
          61    0.0011   -0.0011    0.0181   -0.0100    0.0621    0.0061   -0.1228   -0.0027
          62   -0.0038    0.0053   -0.0350    0.0245   -0.1169   -0.0228    0.1747   -0.0074
          63   -0.0008    0.0036   -0.0087    0.0069   -0.0324   -0.0065    0.0546   -0.0002
          64   -0.0021   -0.0065   -0.0210   -0.0054   -0.0640    0.0091    0.1280    0.0244
          65   -0.0059   -0.0156   -0.0427   -0.0142   -0.1140    0.0267    0.1781    0.0415
          66   -0.0005   -0.0039   -0.0054   -0.0033   -0.0164    0.0054    0.0216    0.0048


   Root No.      41        42        43        44        45        46        47        48

                41 A      42 A      43 A      44 A      45 A      46 A      47 A      48 A   

                1370.6    1392.8    1399.1    1436.7    1459.2    1853.2    1867.8    1905.7
  
           1    0.0355   -0.0026    0.0086    0.0200   -0.0360   -0.0030    0.0047   -0.0055
           2    0.0057   -0.0006    0.0271    0.0227   -0.0169   -0.0068    0.0111   -0.0058
           3    0.0074   -0.0059    0.0355    0.0284   -0.0346   -0.0160    0.0223   -0.0029
           4   -0.0341   -0.0017    0.0128    0.0169    0.0401    0.0032    0.0053    0.0059
           5    0.0117    0.0138   -0.0307   -0.0235   -0.0332   -0.0088   -0.0134   -0.0074
           6    0.0094    0.0078   -0.0294   -0.0215   -0.0352   -0.0146   -0.0211   -0.0043
           7    0.0162   -0.0344    0.0124   -0.0536   -0.0073   -0.0000    0.0000    0.0210
           8   -0.0205   -0.0172    0.0142    0.0307    0.0159   -0.0009   -0.0009   -0.0260
           9   -0.0066    0.0052    0.0021    0.0160    0.0059   -0.0001    0.0002   -0.0085
          10   -0.0215    0.0260    0.0250   -0.0537   -0.0040   -0.0005    0.0003   -0.0213
          11   -0.0320   -0.0111   -0.0162   -0.0320    0.0073   -0.0007    0.0010   -0.0264
          12   -0.0056   -0.0053   -0.0121   -0.0029    0.0055   -0.0010    0.0004   -0.0029
          13    0.0102    0.0053   -0.0195    0.0839    0.0087    0.0000   -0.0006    0.0032
          14    0.0091   -0.0016   -0.0007    0.0011   -0.0006   -0.0098   -0.0021    0.2520
          15    0.0005   -0.0016    0.0025   -0.0112   -0.0020   -0.0021   -0.0004    0.0543
          16   -0.0086    0.0034   -0.0152   -0.0145    0.0187   -0.0578    0.0490   -0.0011
          17    0.0052    0.0029   -0.0069   -0.0061    0.0226    0.0636   -0.0616    0.0029
          18    0.0093    0.0082   -0.0147   -0.0167    0.0511    0.1132   -0.1118    0.0051
          19    0.0105    0.0041   -0.0157   -0.0122   -0.0224    0.0568    0.0495    0.0019
          20    0.0028   -0.0020    0.0122    0.0039    0.0328    0.0579    0.0593    0.0047
          21    0.0076    0.0015    0.0117    0.0039    0.0491    0.1138    0.1149    0.0081
          22   -0.0222   -0.0098    0.0128    0.0164   -0.0670    0.1180   -0.0669    0.0039
          23    0.0003    0.0013   -0.0065   -0.0046    0.0037   -0.0592    0.0552   -0.0019
          24   -0.0066   -0.0003   -0.0105   -0.0047   -0.0130   -0.0861    0.0925   -0.0027
          25    0.0200    0.0038    0.0113    0.0004    0.0692   -0.1170   -0.0686   -0.0054
          26   -0.0062   -0.0028    0.0038    0.0044   -0.0122   -0.0374   -0.0460   -0.0022
          27   -0.0052   -0.0044    0.0112    0.0081   -0.0024   -0.0955   -0.0989   -0.0053
          28   -0.0011   -0.0011    0.0042   -0.0112   -0.0011    0.0001   -0.0000   -0.0029
          29    0.0188   -0.0029   -0.0003   -0.0007    0.0003    0.0087    0.0018   -0.1934
          30    0.0042   -0.0004   -0.0007    0.0014    0.0003    0.0019    0.0004   -0.0419
          31   -0.0395    0.0074   -0.0148   -0.0373    0.0170   -0.0108    0.0027   -0.0030
          32    0.0170   -0.0012   -0.0441   -0.0013    0.0131    0.0001   -0.0046   -0.0026
          33   -0.0159   -0.0019   -0.0379   -0.0188    0.0157   -0.0086    0.0033    0.0059
          34    0.0316   -0.0004   -0.0337   -0.0472   -0.0153    0.0162    0.0014    0.0023
          35   -0.0052   -0.0249    0.0454    0.0153    0.0267   -0.0069   -0.0017    0.0004
          36   -0.0229   -0.0125    0.0269    0.0221    0.0152   -0.0158   -0.0112    0.0032
          37   -0.0411    0.1022   -0.0241    0.0401    0.0065   -0.0001    0.0001   -0.0063
          38    0.0466    0.0798   -0.0374    0.0113   -0.0197    0.0009    0.0020    0.0313
          39    0.0392   -0.1527    0.0470   -0.0757   -0.0022   -0.0013   -0.0017    0.0085
          40   -0.0494    0.1680   -0.0534    0.0775    0.0011    0.0007    0.0005    0.0007
          41    0.0509    0.0760   -0.0624   -0.0184   -0.0472   -0.0045   -0.0062    0.0203
          42   -0.0064    0.0950   -0.0407    0.0421   -0.0109   -0.0027   -0.0026    0.0016
          43    0.0133   -0.0996   -0.0793    0.0473    0.0073   -0.0020    0.0010    0.0033
          44    0.0931    0.0387    0.0733    0.0284   -0.0412   -0.0055    0.0066    0.0264
          45    0.0272    0.1286    0.1231   -0.0593   -0.0306   -0.0049    0.0044    0.0039
          46    0.0116   -0.1288   -0.0960    0.0675    0.0064    0.0012   -0.0003    0.0043
          47    0.0669    0.0741    0.0575   -0.0222   -0.0093    0.0011   -0.0030    0.0266
          48    0.0083   -0.0739   -0.0634    0.0504    0.0088   -0.0016    0.0018    0.0061
          49   -0.0078    0.0038   -0.0162   -0.0155    0.0186   -0.0792    0.0700   -0.0020
          50   -0.0356   -0.0124    0.0113    0.0135   -0.0374    0.0003    0.0088   -0.0002
          51   -0.0738   -0.0200    0.0191    0.0182   -0.0701   -0.0243    0.0422    0.0005
          52    0.0108    0.0050   -0.0178   -0.0136   -0.0228    0.0778    0.0713    0.0032
          53   -0.0340   -0.0024   -0.0109    0.0023   -0.0396   -0.0209   -0.0292   -0.0008
          54   -0.0586   -0.0065   -0.0186    0.0025   -0.0708   -0.0116   -0.0308    0.0002
          55   -0.0050    0.0058   -0.0482   -0.0229   -0.0696    0.0281    0.0901    0.0015
          56   -0.0101   -0.0024   -0.0042    0.0016   -0.0334   -0.0278   -0.0344   -0.0021
          57   -0.0208   -0.0047   -0.0185   -0.0026   -0.0789   -0.0418   -0.0369   -0.0028
          58    0.0130    0.0180   -0.0477   -0.0372    0.0620   -0.0294    0.0895    0.0002
          59   -0.0122   -0.0083    0.0152    0.0148   -0.0448   -0.0172    0.0090   -0.0012
          60   -0.0234   -0.0123    0.0128    0.0168   -0.0697   -0.0482    0.0492   -0.0019
          61    0.0499   -0.0080   -0.0052    0.0153    0.0023    0.0067    0.0012   -0.1452
          62   -0.0637    0.0086    0.0139   -0.0385   -0.0048    0.0009    0.0002   -0.0310
          63   -0.0207    0.0027    0.0032   -0.0109   -0.0013   -0.0008   -0.0001    0.0128
          64   -0.0469    0.0105   -0.0023    0.0184    0.0011   -0.0066   -0.0015    0.1441
          65   -0.0541    0.0152   -0.0098    0.0407    0.0033    0.0008    0.0002   -0.0269
          66   -0.0053    0.0020   -0.0014    0.0068    0.0004    0.0011    0.0003   -0.0261


   Root No.      49        50        51        52        53        54        55        56

                49 A      50 A      51 A      52 A      53 A      54 A      55 A      56 A   

                2868.7    2878.4    2964.0    2967.1    3043.8    3044.9    3047.2    3048.9
  
           1    0.0132    0.0092    0.0006    0.0002    0.0004   -0.0001   -0.0003    0.0003
           2    0.0247    0.0187    0.0015    0.0005   -0.0002   -0.0003   -0.0002    0.0000
           3   -0.0279   -0.0212   -0.0018   -0.0006   -0.0004   -0.0000    0.0001   -0.0003
           4    0.0100   -0.0115    0.0001   -0.0008   -0.0002    0.0001    0.0004   -0.0004
           5   -0.0133    0.0168   -0.0002    0.0013    0.0002    0.0002    0.0004    0.0003
           6    0.0260   -0.0326    0.0002   -0.0025   -0.0000    0.0002    0.0002   -0.0005
           7   -0.0008    0.0008    0.0017   -0.0091    0.0045    0.0031    0.0299   -0.0035
           8   -0.0003    0.0002   -0.0009    0.0050    0.0017    0.0012    0.0108   -0.0012
           9   -0.0018    0.0028    0.0092   -0.0479   -0.0003   -0.0002   -0.0019    0.0003
          10   -0.0001    0.0001   -0.0074   -0.0014    0.0230    0.0102   -0.0068    0.0000
          11    0.0001   -0.0000    0.0102    0.0020   -0.0077   -0.0036    0.0023    0.0000
          12    0.0024    0.0022   -0.0479   -0.0093   -0.0058   -0.0026    0.0017   -0.0000
          13   -0.0001   -0.0000   -0.0000    0.0001    0.0003    0.0002    0.0002   -0.0000
          14   -0.0003   -0.0005    0.0000   -0.0002    0.0002    0.0001   -0.0003    0.0000
          15   -0.0001   -0.0001   -0.0001   -0.0002   -0.0000   -0.0000   -0.0001   -0.0000
          16   -0.0008   -0.0004   -0.0003   -0.0001    0.0136   -0.0273    0.0022    0.0090
          17   -0.0003   -0.0001    0.0005    0.0001   -0.0020    0.0039   -0.0003   -0.0014
          18   -0.0006   -0.0003    0.0003    0.0001    0.0005   -0.0011    0.0001    0.0002
          19   -0.0008    0.0009   -0.0000    0.0001    0.0012   -0.0038   -0.0035   -0.0359
          20    0.0003   -0.0002   -0.0001    0.0004   -0.0001    0.0004    0.0004    0.0032
          21    0.0002   -0.0002   -0.0000    0.0002    0.0001   -0.0003   -0.0002   -0.0025
          22   -0.0001   -0.0002    0.0001    0.0000   -0.0036    0.0077   -0.0004   -0.0001
          23    0.0003    0.0002   -0.0000   -0.0000   -0.0021    0.0046   -0.0002    0.0005
          24    0.0001    0.0001   -0.0000    0.0000   -0.0055    0.0120   -0.0006    0.0011
          25   -0.0000    0.0002    0.0000   -0.0000   -0.0009    0.0023    0.0009    0.0120
          26   -0.0002    0.0002   -0.0000    0.0000    0.0009   -0.0025   -0.0009   -0.0118
          27   -0.0001    0.0002    0.0000   -0.0000    0.0014   -0.0037   -0.0013   -0.0175
          28   -0.0000    0.0000   -0.0000   -0.0000    0.0000    0.0000    0.0000    0.0000
          29    0.0000    0.0001    0.0000    0.0001   -0.0000   -0.0000    0.0001    0.0000
          30    0.0000    0.0000   -0.0001   -0.0001   -0.0000   -0.0000    0.0000    0.0000
          31   -0.1509   -0.1187   -0.0084   -0.0028   -0.0009   -0.0003    0.0004   -0.0004
          32   -0.2981   -0.2266   -0.0208   -0.0061   -0.0044    0.0008    0.0015   -0.0014
          33    0.3372    0.2567    0.0190    0.0060    0.0047   -0.0023   -0.0014    0.0019
          34   -0.1110    0.1440   -0.0006    0.0090    0.0001   -0.0002   -0.0007    0.0008
          35    0.1632   -0.2044    0.0021   -0.0181   -0.0000    0.0003    0.0023   -0.0028
          36   -0.3127    0.3916   -0.0027    0.0271    0.0001   -0.0001   -0.0029    0.0087
          37    0.0102   -0.0175   -0.0493    0.2529   -0.0431   -0.0297   -0.2712    0.0311
[...]
 T-DIPOLE    0.0937         C 10 -- H 21         +16.6% ( 51.5%)      2.1%
 TRAVEL      0.1012         C  1 -- C  2         +10.7% ( 41.3%)     99.1%
 RED. MASS   0.4416         C  1 -- C  6          +5.7% ( 30.1%)     34.0%
 EFF. MASS   4.9434

 VIBRATION   40   40A         ATOM PAIR      ENERGY CONTRIBUTION    RADIAL
 FREQ.      1358.08         C  3 -- C  5         +13.0% ( 45.8%)     98.5%
 T-DIPOLE    0.0223         C  3 -- H 13          +9.5% ( 39.1%)      0.1%
 TRAVEL      0.0915         C  4 -- C  5          +9.3% ( 38.7%)     91.5%
 RED. MASS   0.5671         C  3 -- H 14          +7.9% ( 35.7%)      0.9%
 EFF. MASS   5.9284

 VIBRATION   41   41A         ATOM PAIR      ENERGY CONTRIBUTION    RADIAL
 FREQ.      1370.60         C  1 -- C  2         +10.0% ( 45.1%)     99.2%
 T-DIPOLE    0.1131         C  1 -- C  4          +8.4% ( 41.4%)      9.7%
 TRAVEL      0.0822         C  4 -- H 15          +7.8% ( 39.9%)      0.5%
 RED. MASS   0.6945         C  2 -- C  3          +6.6% ( 36.6%)      6.8%
 EFF. MASS   7.2791

 VIBRATION   42   42A         ATOM PAIR      ENERGY CONTRIBUTION    RADIAL
 FREQ.      1392.76         C  3 -- H 14         +22.2% ( 49.4%)      4.3%
 T-DIPOLE    0.0370         C  3 -- H 13         +20.4% ( 47.4%)      6.1%
 TRAVEL      0.1282         C  4 -- H 15         +13.6% ( 38.7%)      4.9%
 RED. MASS   0.3302         C  4 -- H 16         +13.2% ( 38.2%)      4.6%
 EFF. MASS   2.9479

 VIBRATION   43   43A         ATOM PAIR      ENERGY CONTRIBUTION    RADIAL
 FREQ.      1399.11         C  1 -- C  2         +11.6% ( 47.1%)      0.2%
 T-DIPOLE    0.1545         C  4 -- H 15          +9.4% ( 42.5%)      3.0%
 TRAVEL      0.0836         C  1 -- C  4          +9.2% ( 42.1%)     69.9%
 RED. MASS   0.7299         C  2 -- C  7          +9.0% ( 41.7%)     95.8%
 EFF. MASS   6.8919

 VIBRATION   44   44A         ATOM PAIR      ENERGY CONTRIBUTION    RADIAL
 FREQ.      1436.74         C  3 -- C  5         +18.2% ( 65.1%)     86.6%
 T-DIPOLE    0.1261         C  4 -- C  5         +17.9% ( 64.5%)     86.8%
 TRAVEL      0.0676         C  5 -- C 10          +8.7% ( 45.1%)      0.0%
 RED. MASS   2.0263         C  1 -- C  4          +7.3% ( 41.1%)     14.4%
 EFF. MASS  10.2747

 VIBRATION   45   45A         ATOM PAIR      ENERGY CONTRIBUTION    RADIAL
 FREQ.      1459.23         C  8 -- C  9         +16.1% ( 61.4%)    100.0%
 T-DIPOLE    0.1458         C  2 -- C  7         +11.8% ( 52.7%)     98.7%
 TRAVEL      0.0663         C  1 -- C  6          +9.3% ( 46.7%)     98.8%
 RED. MASS   1.4955         C  7 -- C  9          +8.9% ( 45.8%)      0.6%
 EFF. MASS  10.5253

 VIBRATION   46   46A         ATOM PAIR      ENERGY CONTRIBUTION    RADIAL
 FREQ.      1853.22         C  6 -- C  8         +22.2% ( 70.1%)     98.9%
 T-DIPOLE    0.2779         C  7 -- C  9         +21.5% ( 69.1%)     98.9%
 TRAVEL      0.0552         C  8 -- C  9         +16.7% ( 60.9%)     99.9%
 RED. MASS   2.8676         C  8 -- H 20          +7.3% ( 40.2%)      1.7%
 EFF. MASS  11.9562

 VIBRATION   47   47A         ATOM PAIR      ENERGY CONTRIBUTION    RADIAL
 FREQ.      1867.79         C  7 -- C  9         +22.6% ( 69.6%)     99.3%
 T-DIPOLE    0.3639         C  6 -- C  8         +22.0% ( 68.6%)     99.3%
 TRAVEL      0.0554         C  8 -- C  9         +12.1% ( 51.0%)      0.0%
 RED. MASS   2.6885         C  2 -- C  7          +8.0% ( 41.4%)     55.8%
 EFF. MASS  11.7822

 VIBRATION   48   48A         ATOM PAIR      ENERGY CONTRIBUTION    RADIAL
 FREQ.      1905.75         C  5 -- C 10         +44.1% ( 98.5%)    100.0%
 T-DIPOLE    0.3467         C  3 -- C  5         +18.3% ( 63.4%)     39.7%
 TRAVEL      0.0546         C  4 -- C  5         +18.3% ( 63.4%)     39.1%
 RED. MASS   5.6661         C 10 -- H 21          +9.0% ( 44.6%)     11.7%
 EFF. MASS  11.8895

 VIBRATION   49   49A         ATOM PAIR      ENERGY CONTRIBUTION    RADIAL
 FREQ.      2868.74         C  1 -- H 11         +60.0% ( 78.9%)    100.0%
 T-DIPOLE    0.0478         C  2 -- H 12         +36.5% ( 61.5%)    100.0%
 TRAVEL      0.1269         C  1 -- C  2          +1.1% ( 10.8%)      0.2%
 RED. MASS   0.4897         C  1 -- C  4          +0.7% (  8.3%)      9.2%
 EFF. MASS   1.4594

 VIBRATION   50   50A         ATOM PAIR      ENERGY CONTRIBUTION    RADIAL
 FREQ.      2878.38         C  2 -- H 12         +60.0% ( 78.6%)    100.0%
 T-DIPOLE    0.0922         C  1 -- H 11         +36.4% ( 61.2%)    100.0%
 TRAVEL      0.1276         C  1 -- C  2          +0.9% (  9.9%)     76.4%
 RED. MASS   0.4878         C  2 -- C  3          +0.7% (  8.2%)      9.1%
 EFF. MASS   1.4391

 VIBRATION   51   51A         ATOM PAIR      ENERGY CONTRIBUTION    RADIAL
 FREQ.      2964.01         C  4 -- H 15         +49.9% ( 73.3%)     96.9%
 T-DIPOLE    0.0579         C  4 -- H 16         +44.1% ( 68.9%)     96.1%
 TRAVEL      0.1216         C  3 -- H 14          +2.1% ( 15.0%)     97.6%
 RED. MASS   0.4813         C  3 -- H 13          +1.4% ( 12.3%)     95.4%
 EFF. MASS   1.5376

 VIBRATION   52   52A         ATOM PAIR      ENERGY CONTRIBUTION    RADIAL
 FREQ.      2967.08         C  3 -- H 14         +56.3% ( 77.8%)     97.5%
 T-DIPOLE    0.0876         C  3 -- H 13         +37.6% ( 63.6%)     95.2%
 TRAVEL      0.1216         C  4 -- H 15          +1.9% ( 14.2%)     96.8%
 RED. MASS   0.4961         C  4 -- H 16          +1.6% ( 13.2%)     96.0%
 EFF. MASS   1.5368

 VIBRATION   53   53A         ATOM PAIR      ENERGY CONTRIBUTION    RADIAL
 FREQ.      3043.77         C  4 -- H 16         +41.1% ( 63.5%)     98.1%
 T-DIPOLE    0.2139         C  4 -- H 15         +35.7% ( 59.2%)     97.2%
 TRAVEL      0.1299         C  6 -- H 17         +14.2% ( 37.3%)    100.0%
 RED. MASS   0.3210         C  8 -- H 20          +4.0% ( 19.7%)     99.9%
 EFF. MASS   1.3133

 VIBRATION   54   54A         ATOM PAIR      ENERGY CONTRIBUTION    RADIAL
 FREQ.      3044.95         C  6 -- H 17         +58.7% ( 77.4%)    100.0%
 T-DIPOLE    0.1980         C  8 -- H 20         +18.8% ( 43.8%)     99.9%
 TRAVEL      0.1242         C  4 -- H 16          +8.2% ( 28.9%)     98.0%
 RED. MASS   0.3790         C  4 -- H 15          +7.4% ( 27.5%)     97.4%
 EFF. MASS   1.4359

 VIBRATION   55   55A         ATOM PAIR      ENERGY CONTRIBUTION    RADIAL
 FREQ.      3047.20         C  3 -- H 13         +56.5% ( 74.1%)     98.6%
 T-DIPOLE    0.0780         C  3 -- H 14         +36.3% ( 59.5%)     96.0%
 TRAVEL      0.1310         C  4 -- H 16          +2.4% ( 15.4%)     97.8%
 RED. MASS   0.4472         C  4 -- H 15          +2.2% ( 14.5%)     97.0%
 EFF. MASS   1.2888

 VIBRATION   56   56A         ATOM PAIR      ENERGY CONTRIBUTION    RADIAL
 FREQ.      3048.91         C  7 -- H 18         +62.6% ( 80.3%)    100.0%
 T-DIPOLE    0.2469         C  9 -- H 19         +29.9% ( 55.5%)    100.0%
 TRAVEL      0.1229         C  6 -- H 17          +4.0% ( 20.2%)    100.0%
 RED. MASS   0.4720         C  7 -- C  9          +1.1% ( 10.5%)      2.1%
 EFF. MASS   1.4634

 VIBRATION   57   57A         ATOM PAIR      ENERGY CONTRIBUTION    RADIAL
 FREQ.      3064.12         C  8 -- H 20         +39.2% ( 63.6%)     99.9%
 T-DIPOLE    0.3463         C  9 -- H 19         +23.8% ( 49.6%)     99.9%
 TRAVEL      0.1183         C  7 -- H 18         +19.4% ( 44.7%)     99.9%
 RED. MASS   0.2676         C  6 -- H 17         +14.0% ( 38.0%)     99.8%
 EFF. MASS   1.5715

 VIBRATION   58   58A         ATOM PAIR      ENERGY CONTRIBUTION    RADIAL
 FREQ.      3074.76         C  9 -- H 19         +40.9% ( 64.9%)    100.0%
 T-DIPOLE    0.3749         C  8 -- H 20         +35.2% ( 60.2%)    100.0%
 TRAVEL      0.1170         C  7 -- H 18         +13.0% ( 36.6%)     99.8%
 RED. MASS   0.3145         C  6 -- H 17          +7.1% ( 27.0%)     99.7%
 EFF. MASS   1.6015

 VIBRATION   59   59A         ATOM PAIR      ENERGY CONTRIBUTION    RADIAL
 FREQ.      3144.59         C 10 -- H 21         +50.5% ( 71.1%)     95.5%
 T-DIPOLE    0.3220         C 10 -- H 22         +47.9% ( 69.2%)     95.0%
 TRAVEL      0.1243         C  5 -- C 10          +1.5% ( 12.4%)    100.0%
 RED. MASS   0.4863
 EFF. MASS   1.3871

 VIBRATION   60   60A         ATOM PAIR      ENERGY CONTRIBUTION    RADIAL
 FREQ.      3147.21         C 10 -- H 22         +50.6% ( 72.9%)     97.2%
 T-DIPOLE    0.1928         C 10 -- H 21         +48.1% ( 71.1%)     96.9%
 TRAVEL      0.1155         C  5 -- C 10          +1.3% ( 11.7%)      0.0%
 RED. MASS   0.5352
 EFF. MASS   1.6063

      SYMMETRY NUMBER FOR POINT-GROUP C1  =  1


          SYSTEM IS A GROUND STATE



 InChI=1S/C10H12/c1-8-6-9-4-2-3-5-10(9)7-8/h2-5,9-10H,1,6-7H2


          MOLECULE IS NOT LINEAR

          THERE ARE 60 GENUINE VIBRATIONS IN THIS SYSTEM
          THIS THERMODYNAMICS CALCULATION IS LIMITED TO
          MOLECULES WHICH HAVE NO INTERNAL ROTATIONS




                    CALCULATED THERMODYNAMIC PROPERTIES
                                          *
   TEMP. (K)   PARTITION FUNCTION   H.O.F.    ENTHALPY  HEAT CAPACITY ENTROPY
                                   KCAL/MOL   CAL/MOLE    CAL/K/MOL  CAL/K/MOL


 298.00  VIB.     0.9539D+02                  3457.5110    27.9852    20.6600
         ROT.     0.5353D+06                   888.2813     2.9808    29.1932
         INT.     0.5106D+08                  4345.7923    30.9660    49.8532
         TRA.     0.1470D+28                  1480.4688     4.9680    40.5480
         TOT.                       33.550    5826.2612    35.9340    90.4012

 200.00  VIB.     0.1594D+02                  1348.6834    15.3927    12.2458
         ROT.     0.2943D+06                   596.1620     2.9808    28.0045
         INT.     0.4692D+07                  1944.8454    18.3735    40.2503
         TRA.     0.8080D+27                   993.6033     4.9680    38.5668
         TOT.                       30.662    2938.4486    23.3415    78.8172

 210.00  VIB.     0.1891D+02                  1508.4193    16.5608    13.0249
         ROT.     0.3167D+06                   625.9700     2.9808    28.1500
         INT.     0.5989D+07                  2134.3893    19.5417    41.1749
         TRA.     0.8694D+27                  1043.2834     4.9680    38.8092
         TOT.                       30.902    3177.6727    24.5097    79.9841

 220.00  VIB.     0.2249D+02                  1680.0226    17.7657    13.8230
         ROT.     0.3396D+06                   655.7781     2.9808    28.2886
         INT.     0.7637D+07                  2335.8008    20.7465    42.1116
         TRA.     0.9322D+27                  1092.9636     4.9680    39.0403
         TOT.                       31.153    3428.7643    25.7145    81.1520

 230.00  VIB.     0.2682D+02                  1863.8430    19.0036    14.6399
         ROT.     0.3630D+06                   685.5862     2.9808    28.4211
         INT.     0.9735D+07                  2549.4292    21.9844    43.0611
         TRA.     0.9965D+27                  1142.6437     4.9680    39.2612
         TOT.                       31.416    3692.0730    26.9525    82.3222

 240.00  VIB.     0.3207D+02                  2060.1931    20.2709    15.4754
         ROT.     0.3869D+06                   715.3943     2.9808    28.5480
         INT.     0.1241D+08                  2775.5874    23.2518    44.0234
         TRA.     0.1062D+28                  1192.3239     4.9680    39.4726
         TOT.                       31.692    3967.9113    28.2198    83.4960

 250.00  VIB.     0.3844D+02                  2269.3459    21.5635    16.3290
         ROT.     0.4113D+06                   745.2024     2.9808    28.6697
         INT.     0.1581D+08                  3014.5484    24.5443    44.9987
         TRA.     0.1129D+28                  1242.0041     4.9680    39.6754
         TOT.                       31.981    4256.5524    29.5123    84.6741

 260.00  VIB.     0.4621D+02                  2491.5327    22.8770    17.2003
         ROT.     0.4362D+06                   775.0105     2.9808    28.7866
         INT.     0.2016D+08                  3266.5432    25.8578    45.9869
         TRA.     0.1198D+28                  1291.6842     4.9680    39.8703
         TOT.                       32.282    4558.2274    30.8258    85.8571

 270.00  VIB.     0.5571D+02                  2726.9416    24.2072    18.0886
         ROT.     0.4617D+06                   804.8186     2.9808    28.8991
         INT.     0.2572D+08                  3531.7602    27.1880    46.9876
         TRA.     0.1267D+28                  1341.3644     4.9680    40.0578
         TOT.                       32.597    4873.1246    32.1560    87.0454

 280.00  VIB.     0.6734D+02                  2975.7186    25.5499    18.9931
         ROT.     0.4875D+06                   834.6267     2.9808    29.0075
         INT.     0.3283D+08                  3810.3453    28.5307    48.0006
         TRA.     0.1338D+28                  1391.0445     4.9680    40.2384
         TOT.                       32.925    5201.3898    33.4987    88.2391

 290.00  VIB.     0.8162D+02                  3237.9676    26.9010    19.9133
         ROT.     0.5139D+06                   864.4348     2.9808    29.1121
         INT.     0.4194D+08                  4102.4024    29.8818    49.0254
         TRA.     0.1411D+28                  1440.7247     4.9680    40.4128
         TOT.                       33.267    5543.1271    34.8498    89.4381

 300.00  VIB.     0.9921D+02                  3513.7527    28.2565    20.8481
         ROT.     0.5407D+06                   894.2429     2.9808    29.2132
         INT.     0.5364D+08                  4407.9956    31.2373    50.0613
         TRA.     0.1484D+28                  1490.4049     4.9680    40.5812
         TOT.                       33.622    5898.4005    36.2053    90.6425

 310.00  VIB.     0.1209D+03                  3803.1002    29.6129    21.7967
         ROT.     0.5680D+06                   924.0510     2.9808    29.3109
         INT.     0.6867D+08                  4727.1513    32.5937    51.1076
         TRA.     0.1559D+28                  1540.0850     4.9680    40.7441
         TOT.                       33.991    6267.2363    37.5617    91.8517

 320.00  VIB.     0.1477D+03                  4106.0012    30.9666    22.7583
         ROT.     0.5957D+06                   953.8591     2.9808    29.4055
         INT.     0.8800D+08                  5059.8603    33.9475    52.1638
         TRA.     0.1635D+28                  1589.7652     4.9680    40.9018
         TOT.                       34.374    6649.6255    38.9155    93.0657

 330.00  VIB.     0.1810D+03                  4422.4143    32.3148    23.7318
         ROT.     0.6238D+06                   983.6672     2.9808    29.4973
         INT.     0.1129D+09                  5406.0815    35.2956    53.2291
         TRA.     0.1713D+28                  1639.4454     4.9680    41.0547
         TOT.                       34.770    7045.5269    40.2636    94.2838

 340.00  VIB.     0.2223D+03                  4752.2690    33.6545    24.7165
         ROT.     0.6524D+06                  1013.4753     2.9808    29.5862
         INT.     0.1450D+09                  5765.7443    36.6353    54.3027
         TRA.     0.1791D+28                  1689.1255     4.9680    41.2030
         TOT.                       35.179    7454.8698    41.6034    95.5057

 350.00  VIB.     0.2738D+03                  5095.4685    34.9834    25.7112
         ROT.     0.6814D+06                  1043.2834     2.9808    29.6727
         INT.     0.1865D+09                  6138.7519    37.9642    55.3839
         TRA.     0.1871D+28                  1738.8057     4.9680    41.3470
         TOT.                       35.602    7877.5576    42.9322    96.7309

 360.00  VIB.     0.3379D+03                  5451.8926    36.2991    26.7152
         ROT.     0.7108D+06                  1073.0915     2.9808    29.7566
         INT.     0.2402D+09                  6524.9842    39.2799    56.4718
         TRA.     0.1951D+28                  1788.4859     4.9680    41.4870
         TOT.                       36.037    8313.4700    44.2480    97.9588

 370.00  VIB.     0.4181D+03                  5821.4013    37.6000    27.7275
         ROT.     0.7406D+06                  1102.8996     2.9808    29.8383
         INT.     0.3096D+09                  6924.3009    40.5808    57.5658
         TRA.     0.2033D+28                  1838.1660     4.9680    41.6231
         TOT.                       36.486    8762.4669    45.5488    99.1889

 380.00  VIB.     0.5184D+03                  6203.8367    38.8842    28.7474
         ROT.     0.7708D+06                  1132.7077     2.9808    29.9178
         INT.     0.3996D+09                  7336.5444    41.8651    58.6651
         TRA.     0.2116D+28                  1887.8462     4.9680    41.7556
         TOT.                       36.948    9224.3906    46.8331   100.4207

 390.00  VIB.     0.6442D+03                  6599.0264    40.1506    29.7738
         ROT.     0.8014D+06                  1162.5158     2.9808    29.9952
         INT.     0.5163D+09                  7761.5422    43.1314    59.7690
         TRA.     0.2200D+28                  1937.5263     4.9680    41.8846
         TOT.                       37.423    9699.0686    48.0994   101.6537

 400.00  VIB.     0.8022D+03                  7006.7857    41.3980    30.8061
         ROT.     0.8325D+06                  1192.3239     2.9808    30.0707
         INT.     0.6678D+09                  8199.1096    44.3788    60.8768
         TRA.     0.2285D+28                  1987.2065     4.9680    42.0104
         TOT.                       37.910   10186.3161    49.3468   102.8872

   *: NOTE: HEATS OF FORMATION ARE RELATIVE TO THE
            ELEMENTS IN THEIR STANDARD STATE AT 298K
              (=  Standard Enthalpy of Formation).

            Hvib:  Zero-point energy is not included.
                   frequencies of less than zero cm-1 are not included.
            Hrot = (3/2)RT
            Htra = (3/2)RT + pV = (5/2)RT

            Heat capacity is Cp, not Cv

          For more information, see: HTTP://OpenMOPAC.net/Manual/thermochemistry.html


           FORCE CONSTANT IN CARTESIAN COORDINATES (Millidynes/A)

    ATOM   CHEMICAL       X               Y               Z
   NUMBER   SYMBOL  FORCE CONSTANT  FORCE CONSTANT  FORCE CONSTANT

      1       C        8.062589        8.331918        8.774231
      2       C        8.062284        8.326970        8.876068
      3       C        9.337228        7.907810        8.075184
      4       C        9.273113        7.905053        8.102274
      5       C        8.827598       16.006915        3.482052
      6       C       11.039186        5.046515       11.081076
      7       C       11.116993        5.151586       10.958518
      8       C       11.487155        4.782168       11.510482
      9       C       11.500176        4.992031       11.290852
     10       C        9.071722       14.853808        2.697765
     11       H        1.080224        2.195102        2.609899
     12       H        1.065265        1.420576        3.435863
     13       H        3.011712        0.803383        2.584671
     14       H        1.101491        1.063227        4.198250
     15       H        2.447005        1.297076        2.664146
     16       H        1.470994        0.708241        4.177430
     17       H        5.013726        0.511776        0.716674
     18       H        5.069516        0.490726        0.676796
     19       H        1.669263        1.522287        3.076015
     20       H        1.668009        0.903048        3.696553
     21       H        4.074572        2.024339        0.354163
     22       H        3.949376        1.907749        0.596179

 **********************
 *                    *
 * JOB ENDED NORMALLY *
 *                    *
 **********************



 TOTAL JOB TIME:             8.68 SECONDS

 == MOPAC DONE ==
