 *******************************************************************************
 ** Site#: 14399        For non-commercial use only    Version 18.184L 64BITS **
 *******************************************************************************
 ** Cite this program as: MOPAC2016, Version: 18.184L, James J. P. Stewart,   **
 ** Stewart Computational Chemistry, web: HTTP://OpenMOPAC.net. Days left:  20**
 *******************************************************************************
 **                                                                           **
 **                                MOPAC2016                                  **
 **                                                                           **
 *******************************************************************************

                              PM3 CALCULATION RESULTS

 *******************************************************************************
 *  CALCULATION DONE:                                Thu Jun 13 19:37:33 2019  *
 *  PM3        - The PM3 Hamiltonian to be used
 *  PRECISE    - CRITERIA TO BE INCREASED BY 100 TIMES
 *  NOSYM      - POINT-GROUP SYMMETRY SET TO C1
 *  THREADS=1  - MULTI-THREADING NOT USED
 *  T=         - A TIME OF 172800.0 SECONDS REQUESTED
 *  DUMP=N     - RESTART FILE WRITTEN EVERY  7200.000 SECONDS
 *******************************************************************************
pm3  precise nosym THREADS=1
 InChI=1S/C7H12/c1-3-7-4-6(2)5-7/h7H,2-5H2,1H3

   ATOM   CHEMICAL          X               Y               Z
  NUMBER   SYMBOL      (ANGSTROMS)     (ANGSTROMS)     (ANGSTROMS)
 
     1       C         -0.32630000  *  -0.43880000  *   0.44890000  *
     2       C         -1.33810000  *  -0.49110000  *  -0.70990000  *
     3       C          0.43490000  *   0.85240000  *   0.55810000  *
     4       C          0.99000000  *  -1.08750000  *   0.12980000  *
     5       C         -2.60800000  *   0.28410000  *  -0.37020000  *
     6       C          1.77490000  *   0.20800000  *   0.24710000  *
     7       C          3.04220000  *   0.59610000  *   0.13240000  *
     8       H         -0.74260000  *  -0.78300000  *   1.42240000  *
     9       H         -0.89470000  *  -0.07860000  *  -1.64340000  *
    10       H         -1.61090000  *  -1.55170000  *  -0.90010000  *
    11       H          0.41700000  *   1.26910000  *   1.58880000  *
    12       H          0.16730000  *   1.61070000  *  -0.21060000  *
    13       H          1.05730000  *  -1.50700000  *  -0.89870000  *
    14       H          1.30250000  *  -1.81940000  *   0.90650000  *
    15       H         -3.08470000  *  -0.13740000  *   0.54030000  *
    16       H         -2.37460000  *   1.35610000  *  -0.19830000  *
    17       H         -3.32590000  *   0.20890000  *  -1.21400000  *
    18       H          3.81250000  *  -0.12810000  *  -0.10940000  *
    19       H          3.30720000  *   1.63730000  *   0.28040000  *
 


          CARTESIAN COORDINATES 

    NO.       ATOM           X           Y           Z

     1         C         -0.3263     -0.4388      0.4489
     2         C         -1.3381     -0.4911     -0.7099
     3         C          0.4349      0.8524      0.5581
     4         C          0.9900     -1.0875      0.1298
     5         C         -2.6080      0.2841     -0.3702
     6         C          1.7749      0.2080      0.2471
     7         C          3.0422      0.5961      0.1324
     8         H         -0.7426     -0.7830      1.4224
     9         H         -0.8947     -0.0786     -1.6434
    10         H         -1.6109     -1.5517     -0.9001
    11         H          0.4170      1.2691      1.5888
    12         H          0.1673      1.6107     -0.2106
    13         H          1.0573     -1.5070     -0.8987
    14         H          1.3025     -1.8194      0.9065
    15         H         -3.0847     -0.1374      0.5403
    16         H         -2.3746      1.3561     -0.1983
    17         H         -3.3259      0.2089     -1.2140
    18         H          3.8125     -0.1281     -0.1094
    19         H          3.3072      1.6373      0.2804

  H: (PM3): J. J. P. STEWART, J. COMP. CHEM. 10, 209 (1989).
  C: (PM3): J. J. P. STEWART, J. COMP. CHEM. 10, 209 (1989).

           Empirical Formula: C7 H12  =    19 atoms



      MOLECULAR POINT GROUP   :   C1  


      RHF CALCULATION, NO. OF DOUBLY OCCUPIED LEVELS = 20


          Geometry optimization using EF

          DIAGONAL MATRIX USED AS START HESSIAN

 CYCLE:     1 TIME:   0.023 TIME LEFT:  2.00D  GRAD.:   123.852 HEAT:  15.94627
 CYCLE:     2 TIME:   0.039 TIME LEFT:  2.00D  GRAD.:    89.838 HEAT:  12.33907
 CYCLE:     3 TIME:   0.023 TIME LEFT:  2.00D  GRAD.:    85.337 HEAT:  11.00200
 CYCLE:     4 TIME:   0.023 TIME LEFT:  2.00D  GRAD.:    41.254 HEAT:  9.222455
 CYCLE:     5 TIME:   0.023 TIME LEFT:  2.00D  GRAD.:    52.628 HEAT:  9.004550
 CYCLE:     6 TIME:   0.031 TIME LEFT:  2.00D  GRAD.:    34.668 HEAT:  8.285576
 CYCLE:     7 TIME:   0.031 TIME LEFT:  2.00D  GRAD.:    19.611 HEAT:  7.960459
 CYCLE:     8 TIME:   0.023 TIME LEFT:  2.00D  GRAD.:    23.491 HEAT:  7.793009
 CYCLE:     9 TIME:   0.023 TIME LEFT:  2.00D  GRAD.:    26.993 HEAT:  7.766878
 CYCLE:    10 TIME:   0.016 TIME LEFT:  2.00D  GRAD.:    19.453 HEAT:  7.685706
 CYCLE:    11 TIME:   0.031 TIME LEFT:  2.00D  GRAD.:    16.494 HEAT:  7.629577
 CYCLE:    12 TIME:   0.031 TIME LEFT:  2.00D  GRAD.:     6.630 HEAT:  7.567191
 CYCLE:    13 TIME:   0.039 TIME LEFT:  2.00D  GRAD.:     5.612 HEAT:  7.560417
 CYCLE:    14 TIME:   0.023 TIME LEFT:  2.00D  GRAD.:     6.337 HEAT:  7.557339
 CYCLE:    15 TIME:   0.031 TIME LEFT:  2.00D  GRAD.:     5.072 HEAT:  7.548536
 CYCLE:    16 TIME:   0.023 TIME LEFT:  2.00D  GRAD.:     3.824 HEAT:  7.542297
 CYCLE:    17 TIME:   0.016 TIME LEFT:  2.00D  GRAD.:     3.893 HEAT:  7.538170
 CYCLE:    18 TIME:   0.023 TIME LEFT:  2.00D  GRAD.:     2.491 HEAT:  7.533262
 CYCLE:    19 TIME:   0.023 TIME LEFT:  2.00D  GRAD.:     2.307 HEAT:  7.531171
 CYCLE:    20 TIME:   0.023 TIME LEFT:  2.00D  GRAD.:     2.127 HEAT:  7.530137
 CYCLE:    21 TIME:   0.023 TIME LEFT:  2.00D  GRAD.:     1.840 HEAT:  7.529328
 CYCLE:    22 TIME:   0.023 TIME LEFT:  2.00D  GRAD.:     1.390 HEAT:  7.528417
 CYCLE:    23 TIME:   0.023 TIME LEFT:  2.00D  GRAD.:     1.401 HEAT:  7.528044
 CYCLE:    24 TIME:   0.023 TIME LEFT:  2.00D  GRAD.:     0.787 HEAT:  7.526930
 CYCLE:    25 TIME:   0.023 TIME LEFT:  2.00D  GRAD.:     0.875 HEAT:  7.526020
 CYCLE:    26 TIME:   0.023 TIME LEFT:  2.00D  GRAD.:     1.093 HEAT:  7.524818
 CYCLE:    27 TIME:   0.023 TIME LEFT:  2.00D  GRAD.:     0.891 HEAT:  7.523682
 CYCLE:    28 TIME:   0.023 TIME LEFT:  2.00D  GRAD.:     0.570 HEAT:  7.523195
 CYCLE:    29 TIME:   0.023 TIME LEFT:  2.00D  GRAD.:     0.548 HEAT:  7.522814
 CYCLE:    30 TIME:   0.016 TIME LEFT:  2.00D  GRAD.:     0.450 HEAT:  7.522328
 CYCLE:    31 TIME:   0.023 TIME LEFT:  2.00D  GRAD.:     0.464 HEAT:  7.521930
 CYCLE:    32 TIME:   0.023 TIME LEFT:  2.00D  GRAD.:     0.368 HEAT:  7.521751
 CYCLE:    33 TIME:   0.023 TIME LEFT:  2.00D  GRAD.:     0.361 HEAT:  7.521542
 CYCLE:    34 TIME:   0.031 TIME LEFT:  2.00D  GRAD.:     0.337 HEAT:  7.521248
 CYCLE:    35 TIME:   0.023 TIME LEFT:  2.00D  GRAD.:     0.329 HEAT:  7.521061
 CYCLE:    36 TIME:   0.031 TIME LEFT:  2.00D  GRAD.:     0.396 HEAT:  7.520679
 CYCLE:    37 TIME:   0.023 TIME LEFT:  2.00D  GRAD.:     0.400 HEAT:  7.520280
 CYCLE:    38 TIME:   0.016 TIME LEFT:  2.00D  GRAD.:     0.336 HEAT:  7.520019
 CYCLE:    39 TIME:   0.023 TIME LEFT:  2.00D  GRAD.:     0.292 HEAT:  7.519808
 CYCLE:    40 TIME:   0.023 TIME LEFT:  2.00D  GRAD.:     0.308 HEAT:  7.519608
 CYCLE:    41 TIME:   0.023 TIME LEFT:  2.00D  GRAD.:     0.277 HEAT:  7.519394
 CYCLE:    42 TIME:   0.023 TIME LEFT:  2.00D  GRAD.:     0.195 HEAT:  7.519276
 CYCLE:    43 TIME:   0.023 TIME LEFT:  2.00D  GRAD.:     0.191 HEAT:  7.519179
 CYCLE:    44 TIME:   0.023 TIME LEFT:  2.00D  GRAD.:     0.234 HEAT:  7.519079
 CYCLE:    45 TIME:   0.023 TIME LEFT:  2.00D  GRAD.:     0.290 HEAT:  7.518914
 CYCLE:    46 TIME:   0.023 TIME LEFT:  2.00D  GRAD.:     0.187 HEAT:  7.518837
 CYCLE:    47 TIME:   0.023 TIME LEFT:  2.00D  GRAD.:     0.155 HEAT:  7.518789
 CYCLE:    48 TIME:   0.023 TIME LEFT:  2.00D  GRAD.:     0.096 HEAT:  7.518769
 CYCLE:    49 TIME:   0.023 TIME LEFT:  2.00D  GRAD.:     0.065 HEAT:  7.518749
 CYCLE:    50 TIME:   0.023 TIME LEFT:  2.00D  GRAD.:     0.072 HEAT:  7.518727
 CYCLE:    51 TIME:   0.016 TIME LEFT:  2.00D  GRAD.:     0.077 HEAT:  7.518711
 CYCLE:    52 TIME:   0.023 TIME LEFT:  2.00D  GRAD.:     0.077 HEAT:  7.518695
 CYCLE:    53 TIME:   0.023 TIME LEFT:  2.00D  GRAD.:     0.082 HEAT:  7.518672
 CYCLE:    54 TIME:   0.023 TIME LEFT:  2.00D  GRAD.:     0.087 HEAT:  7.518649
 CYCLE:    55 TIME:   0.023 TIME LEFT:  2.00D  GRAD.:     0.105 HEAT:  7.518608
 CYCLE:    56 TIME:   0.023 TIME LEFT:  2.00D  GRAD.:     0.092 HEAT:  7.518588
 CYCLE:    57 TIME:   0.031 TIME LEFT:  2.00D  GRAD.:     0.106 HEAT:  7.518549
 CYCLE:    58 TIME:   0.023 TIME LEFT:  2.00D  GRAD.:     0.096 HEAT:  7.518531
 CYCLE:    59 TIME:   0.023 TIME LEFT:  2.00D  GRAD.:     0.056 HEAT:  7.518496
 CYCLE:    60 TIME:   0.023 TIME LEFT:  2.00D  GRAD.:     0.074 HEAT:  7.518479
 CYCLE:    61 TIME:   0.023 TIME LEFT:  2.00D  GRAD.:     0.068 HEAT:  7.518471
 CYCLE:    62 TIME:   0.023 TIME LEFT:  2.00D  GRAD.:     0.065 HEAT:  7.518451
 CYCLE:    63 TIME:   0.023 TIME LEFT:  2.00D  GRAD.:     0.053 HEAT:  7.518441
 CYCLE:    64 TIME:   0.023 TIME LEFT:  2.00D  GRAD.:     0.058 HEAT:  7.518424
 CYCLE:    65 TIME:   0.023 TIME LEFT:  2.00D  GRAD.:     0.053 HEAT:  7.518419
 CYCLE:    66 TIME:   0.023 TIME LEFT:  2.00D  GRAD.:     0.048 HEAT:  7.518408

     GRADIENT =  0.04794  IS LESS THAN CUTOFF =  0.05000



 -------------------------------------------------------------------------------
 pm3  precise nosym THREADS=1
 InChI=1S/C7H12/c1-3-7-4-6(2)5-7/h7H,2-5H2,1H3



     GEOMETRY OPTIMISED USING EIGENVECTOR FOLLOWING (EF).     
     SCF FIELD WAS ACHIEVED                                   


                              PM3 CALCULATION
                                                       MOPAC2016 (Version: 18.184L)
                                                       Thu Jun 13 19:37:35 2019
                                                       No. of days remaining =  20




          FINAL HEAT OF FORMATION =          7.51841 KCAL/MOL =      31.45702 KJ/MOL


          TOTAL ENERGY            =      -1014.14903 EV
          ELECTRONIC ENERGY       =      -4854.11940 EV  POINT GROUP:     C1  
          CORE-CORE REPULSION     =       3839.97038 EV
          COSMO AREA              =        154.93 SQUARE ANGSTROMS
          COSMO VOLUME            =        148.74 CUBIC ANGSTROMS

          GRADIENT NORM           =          0.04794 = 0.01100 PER ATOM
          IONIZATION POTENTIAL    =          9.855284 EV
          HOMO LUMO ENERGIES (EV) =         -9.855  1.197
          NO. OF FILLED LEVELS    =         20
          MOLECULAR WEIGHT        =         96.1718

          MOLECULAR DIMENSIONS (Angstroms)

            Atom       Atom       Distance
            H    18    H    17     7.22543
            H    13    H    11     3.88068
            H    14    H    19     2.94506


          SCF CALCULATIONS        =         74
 
          WALL-CLOCK TIME         =          1.656 SECONDS
          COMPUTATION TIME        =          0.678 SECONDS




   ATOM   CHEMICAL          X               Y               Z
  NUMBER   SYMBOL      (ANGSTROMS)     (ANGSTROMS)     (ANGSTROMS)
 
     1       C         -0.31803652  *  -0.42355064  *   0.41814322  *
     2       C         -1.33930387  *  -0.49216703  *  -0.69582768  *
     3       C          0.45020253  *   0.92523237  *   0.54443996  *
     4       C          1.03333653  *  -1.12916128  *   0.10244018  *
     5       C         -2.59969588  *   0.26880953  *  -0.35053441  *
     6       C          1.73584908  *   0.19562818  *   0.25223018  *
     7       C          2.99735415  *   0.57240534  *   0.16324192  *
     8       H         -0.77144337  *  -0.75570853  *   1.37503082  *
     9       H         -0.90487515  *  -0.09867680  *  -1.63682106  *
    10       H         -1.57913447  *  -1.55459960  *  -0.89950816  *
    11       H          0.40240988  *   1.39616253  *   1.53781119  *
    12       H          0.17345451  *   1.68866283  *  -0.20019824  *
    13       H          1.10129894  *  -1.57395860  *  -0.90297956  *
    14       H          1.33733160  *  -1.89788577  *   0.82868836  *
    15       H         -3.07997456  *  -0.12833909  *   0.55360951  *
    16       H         -2.38943333  *   1.33147570  *  -0.16845692  *
    17       H         -3.33389637  *   0.21300144  *  -1.16416557  *
    18       H          3.79894059  *  -0.12386955  *  -0.06143475  *
    19       H          3.30987654  *   1.60136011  *   0.30945853  *

                             CARTESIAN COORDINATES

   1    C       -0.318036524    -0.423550645     0.418143220
   2    C       -1.339303866    -0.492167026    -0.695827677
   3    C        0.450202530     0.925232374     0.544439963
   4    C        1.033336528    -1.129161281     0.102440180
   5    C       -2.599695883     0.268809529    -0.350534410
   6    C        1.735849083     0.195628180     0.252230184
   7    C        2.997354153     0.572405339     0.163241919
   8    H       -0.771443365    -0.755708528     1.375030815
   9    H       -0.904875146    -0.098676798    -1.636821060
  10    H       -1.579134467    -1.554599603    -0.899508155
  11    H        0.402409877     1.396162529     1.537811185
  12    H        0.173454514     1.688662827    -0.200198237
  13    H        1.101298937    -1.573958598    -0.902979559
  14    H        1.337331602    -1.897885772     0.828688355
  15    H       -3.079974564    -0.128339093     0.553609513
  16    H       -2.389433331     1.331475696    -0.168456924
  17    H       -3.333896368     0.213001439    -1.164165567
  18    H        3.798940585    -0.123869546    -0.061434752
  19    H        3.309876540     1.601360112     0.309458526


           Empirical Formula: C7 H12  =    19 atoms



      MOLECULAR POINT GROUP   :   C1  


                  EIGENVALUES  
 -40.73693 -33.69350 -28.66945 -25.83839 -23.23473 -20.07070 -17.86024 -16.86762
 -16.22909 -15.61326 -14.83348 -14.34540 -13.38253 -13.21981 -12.64290 -12.13546
 -12.09136 -11.65717 -11.39591  -9.85528   1.19735   3.22576   3.27498   3.42499
   3.75736   3.80495   3.93893   3.97271   4.04859   4.22365   4.30320   4.44124
   4.45174   4.64269   4.72872   4.92633   5.18270   5.29493   5.50109   6.20412


              NET ATOMIC CHARGES AND DIPOLE CONTRIBUTIONS

  ATOM NO.   TYPE          CHARGE      No. of ELECS.   s-Pop       p-Pop       
    1          C          -0.094827        4.0948     1.19343     2.90139
    2          C          -0.089044        4.0890     1.15652     2.93252
    3          C          -0.069059        4.0691     1.16496     2.90410
    4          C          -0.069148        4.0691     1.16512     2.90403
    5          C          -0.109362        4.1094     1.13797     2.97139
    6          C          -0.132392        4.1324     1.21170     2.92070
    7          C          -0.154298        4.1543     1.16958     2.98472
    8          H           0.073429        0.9266     0.92657
    9          H           0.053065        0.9469     0.94694
   10          H           0.049670        0.9503     0.95033
   11          H           0.062212        0.9378     0.93779
   12          H           0.066984        0.9330     0.93302
   13          H           0.065395        0.9346     0.93460
   14          H           0.062305        0.9377     0.93769
   15          H           0.037933        0.9621     0.96207
   16          H           0.039005        0.9610     0.96099
   17          H           0.037554        0.9624     0.96245
   18          H           0.085233        0.9148     0.91477
   19          H           0.085343        0.9147     0.91466
 DIPOLE           X         Y         Z       TOTAL
 POINT-CHG.    -0.390    -0.113    -0.031     0.407
 HYBRID         0.055     0.026     0.003     0.061
 SUM           -0.335    -0.086    -0.028     0.347


          ATOMIC ORBITAL ELECTRON POPULATIONS

     Atom    s        px        py        pz   
    1  C   1.19343   0.94416   0.96685   0.99038
    2  C   1.15652   0.95609   1.00148   0.97495
    3  C   1.16496   0.93516   0.95642   1.01252
    4  C   1.16512   0.94594   0.94479   1.01330
    5  C   1.13797   0.96732   0.99789   1.00618
    6  C   1.21170   0.95093   0.97410   0.99566
    7  C   1.16958   0.94826   1.00689   1.02957
    8  H   0.92657
    9  H   0.94694
   10  H   0.95033
   11  H   0.93779
   12  H   0.93302
   13  H   0.93460
   14  H   0.93769
   15  H   0.96207
   16  H   0.96099
   17  H   0.96245
   18  H   0.91477
   19  H   0.91466
 *******************************************************************************
 ** Site#: 14399        For non-commercial use only    Version 18.184L 64BITS **
 *******************************************************************************
 ** Cite this program as: MOPAC2016, Version: 18.184L, James J. P. Stewart,   **
 ** Stewart Computational Chemistry, web: HTTP://OpenMOPAC.net. Days left:  20**
 *******************************************************************************
 **                                                                           **
 **                                MOPAC2016                                  **
 **                                                                           **
 *******************************************************************************

                              PM3 CALCULATION RESULTS

 *******************************************************************************
 *  CALCULATION DONE:                                Thu Jun 13 19:37:35 2019  *
 *  PM3        - The PM3 Hamiltonian to be used
 *  OLDGEO     - PREVIOUS GEOMETRY TO BE USED
 *  PRECISE    - CRITERIA TO BE INCREASED BY 100 TIMES
 *  NOSYM      - POINT-GROUP SYMMETRY SET TO C1
 *  THREADS=1  - MULTI-THREADING NOT USED
 *  T=         - A TIME OF 172800.0 SECONDS REQUESTED
 *  DUMP=N     - RESTART FILE WRITTEN EVERY  7200.000 SECONDS
 *  THERMO     - THERMODYNAMIC QUANTITIES TO BE CALCULATED
 *******************************************************************************
oldgeo thermo nosym precise THREADS=1  pm3
 InChI=1S/C7H12/c1-3-7-4-6(2)5-7/h7H,2-5H2,1H3

   ATOM   CHEMICAL          X               Y               Z
  NUMBER   SYMBOL      (ANGSTROMS)     (ANGSTROMS)     (ANGSTROMS)
 
     1       C         -0.31803652  *  -0.42355064  *   0.41814322  *
     2       C         -1.33930387  *  -0.49216703  *  -0.69582768  *
     3       C          0.45020253  *   0.92523237  *   0.54443996  *
     4       C          1.03333653  *  -1.12916128  *   0.10244018  *
     5       C         -2.59969588  *   0.26880953  *  -0.35053441  *
     6       C          1.73584908  *   0.19562818  *   0.25223018  *
     7       C          2.99735415  *   0.57240534  *   0.16324192  *
     8       H         -0.77144337  *  -0.75570853  *   1.37503082  *
     9       H         -0.90487515  *  -0.09867680  *  -1.63682106  *
    10       H         -1.57913447  *  -1.55459960  *  -0.89950816  *
    11       H          0.40240988  *   1.39616253  *   1.53781119  *
    12       H          0.17345451  *   1.68866283  *  -0.20019824  *
    13       H          1.10129894  *  -1.57395860  *  -0.90297956  *
    14       H          1.33733160  *  -1.89788577  *   0.82868836  *
    15       H         -3.07997456  *  -0.12833909  *   0.55360951  *
    16       H         -2.38943333  *   1.33147570  *  -0.16845692  *
    17       H         -3.33389637  *   0.21300144  *  -1.16416557  *
    18       H          3.79894059  *  -0.12386955  *  -0.06143475  *
    19       H          3.30987654  *   1.60136011  *   0.30945853  *
 


          CARTESIAN COORDINATES 

    NO.       ATOM           X           Y           Z

     1         C         -0.3180     -0.4236      0.4181
     2         C         -1.3393     -0.4922     -0.6958
     3         C          0.4502      0.9252      0.5444
     4         C          1.0333     -1.1292      0.1024
     5         C         -2.5997      0.2688     -0.3505
     6         C          1.7358      0.1956      0.2522
     7         C          2.9974      0.5724      0.1632
     8         H         -0.7714     -0.7557      1.3750
     9         H         -0.9049     -0.0987     -1.6368
    10         H         -1.5791     -1.5546     -0.8995
    11         H          0.4024      1.3962      1.5378
    12         H          0.1735      1.6887     -0.2002
    13         H          1.1013     -1.5740     -0.9030
    14         H          1.3373     -1.8979      0.8287
    15         H         -3.0800     -0.1283      0.5536
    16         H         -2.3894      1.3315     -0.1685
    17         H         -3.3339      0.2130     -1.1642
    18         H          3.7989     -0.1239     -0.0614
    19         H          3.3099      1.6014      0.3095

  H: (PM3): J. J. P. STEWART, J. COMP. CHEM. 10, 209 (1989).
  C: (PM3): J. J. P. STEWART, J. COMP. CHEM. 10, 209 (1989).

           Empirical Formula: C7 H12  =    19 atoms



      MOLECULAR POINT GROUP   :   C1  


      RHF CALCULATION, NO. OF DOUBLY OCCUPIED LEVELS = 20



          HEAT OF FORMATION =       7.518408 KCALS/MOLE


          CARTESIAN COORDINATE DERIVATIVES

   NUMBER  ATOM         X            Y            Z

     1       C     -0.013144    -0.001167     0.002158
     2       C      0.000974    -0.003426     0.002467
     3       C      0.003142    -0.003770    -0.001196
     4       C     -0.003021    -0.007341     0.005948
     5       C     -0.009767     0.013870     0.010457
     6       C      0.001992    -0.002093    -0.016898
     7       C      0.005649    -0.001119    -0.001243
     8       H     -0.001523    -0.005475     0.004798
     9       H      0.011215    -0.004508    -0.009617
    10       H     -0.004395     0.005177     0.000075
    11       H      0.008778    -0.003211    -0.004259
    12       H     -0.001814    -0.000496     0.002974
    13       H     -0.004515     0.010601     0.004573
    14       H     -0.000329     0.003582     0.001111
    15       H      0.009365     0.012007    -0.006985
    16       H      0.006494    -0.002360    -0.002961
    17       H     -0.005262    -0.008999    -0.001517
    18       H      0.000854    -0.000743     0.003663
    19       H     -0.004691    -0.000529     0.006453
 


          GRADIENT NORM =   0.04690


          TIME FOR SCF CALCULATION =    0.02

          TIME FOR DERIVATIVES     =    0.02

          MOLECULAR WEIGHT =   96.17



          ROTATIONAL CONSTANTS IN CM(-1)

          A =    0.23251343   B =    0.04917600   C =    0.04447960



           PRINCIPAL MOMENTS OF INERTIA IN UNITS OF 10**(-40)*GRAM-CM**2

          A =      120.3921   B =      569.2365   C =      629.3396


          ORIENTATION OF MOLECULE IN FORCE CALCULATION

    NO.       ATOM         X         Y         Z

     1          C       0.1137   -0.6069   -0.4694
     2          C       1.6266   -0.6069   -0.4694
     3          C      -0.5591    0.7976   -0.4694
     4          C      -0.5341   -0.8841    0.9189
     5          C       2.1886   -0.2652   -1.8311
     6          C      -1.1787    0.4771    0.8662
     7          C      -1.9819    1.1362    1.6797
     8          H      -0.2697   -1.2715   -1.2712
     9          H       2.0083    0.1068    0.2881
    10          H       1.9866   -1.6042   -0.1476
    11          H      -1.2796    0.9679   -1.2834
    12          H       0.1415    1.6480   -0.4609
    13          H       0.1806   -1.0221    1.7456
    14          H      -1.2392   -1.7285    0.9427
    15          H       1.8651   -0.9830   -2.5966
    16          H       1.8644    0.7313   -2.1603
    17          H       3.2859   -0.2680   -1.8209
    18          H      -2.3260    0.7209    2.6215
    19          H      -2.3472    2.1334    1.4563


    FIRST DERIVATIVES WILL BE USED IN THE CALCULATION OF SECOND DERIVATIVES

          ESTIMATED TIME TO COMPLETE CALCULATION =        8.91 SECONDS

    FOR POINT-GROUP C1   THERE ARE   1 UNIQUE SYMMETRY FUNCTIONS.

 STEP:   1 TIME =     0.03 SECS, INTEGRAL =      0.03 TIME LEFT: 172799.93
 STEP:   2 TIME =     0.03 SECS, INTEGRAL =      0.06 TIME LEFT: 172799.90
 STEP:   3 TIME =     0.03 SECS, INTEGRAL =      0.09 TIME LEFT: 172799.87
 STEP:   4 TIME =     0.02 SECS, INTEGRAL =      0.12 TIME LEFT: 172799.84
 STEP:   5 TIME =     0.03 SECS, INTEGRAL =      0.15 TIME LEFT: 172799.81
 STEP:   6 TIME =     0.03 SECS, INTEGRAL =      0.18 TIME LEFT: 172799.78
 STEP:   7 TIME =     0.03 SECS, INTEGRAL =      0.21 TIME LEFT: 172799.75
 STEP:   8 TIME =     0.03 SECS, INTEGRAL =      0.24 TIME LEFT: 172799.72
 STEP:   9 TIME =     0.03 SECS, INTEGRAL =      0.27 TIME LEFT: 172799.69
 STEP:  10 TIME =     0.03 SECS, INTEGRAL =      0.30 TIME LEFT: 172799.66
 STEP:  11 TIME =     0.03 SECS, INTEGRAL =      0.34 TIME LEFT: 172799.62
 STEP:  12 TIME =     0.03 SECS, INTEGRAL =      0.37 TIME LEFT: 172799.59
 STEP:  13 TIME =     0.03 SECS, INTEGRAL =      0.40 TIME LEFT: 172799.56
 STEP:  14 TIME =     0.03 SECS, INTEGRAL =      0.43 TIME LEFT: 172799.53
 STEP:  15 TIME =     0.03 SECS, INTEGRAL =      0.46 TIME LEFT: 172799.50
 STEP:  16 TIME =     0.05 SECS, INTEGRAL =      0.51 TIME LEFT: 172799.45
 STEP:  17 TIME =     0.05 SECS, INTEGRAL =      0.55 TIME LEFT: 172799.41
 STEP:  18 TIME =     0.04 SECS, INTEGRAL =      0.59 TIME LEFT: 172799.37
 STEP:  19 TIME =     0.03 SECS, INTEGRAL =      0.62 TIME LEFT: 172799.34
 STEP:  20 TIME =     0.03 SECS, INTEGRAL =      0.66 TIME LEFT: 172799.30
 STEP:  21 TIME =     0.03 SECS, INTEGRAL =      0.69 TIME LEFT: 172799.27
 STEP:  22 TIME =     0.03 SECS, INTEGRAL =      0.72 TIME LEFT: 172799.24
 STEP:  23 TIME =     0.03 SECS, INTEGRAL =      0.75 TIME LEFT: 172799.21
 STEP:  24 TIME =     0.03 SECS, INTEGRAL =      0.78 TIME LEFT: 172799.18
 STEP:  25 TIME =     0.03 SECS, INTEGRAL =      0.81 TIME LEFT: 172799.15
 STEP:  26 TIME =     0.03 SECS, INTEGRAL =      0.84 TIME LEFT: 172799.12
 STEP:  27 TIME =     0.04 SECS, INTEGRAL =      0.88 TIME LEFT: 172799.08
 STEP:  28 TIME =     0.03 SECS, INTEGRAL =      0.91 TIME LEFT: 172799.05
 STEP:  29 TIME =     0.03 SECS, INTEGRAL =      0.95 TIME LEFT: 172799.02
 STEP:  30 TIME =     0.04 SECS, INTEGRAL =      0.98 TIME LEFT: 172798.98
 STEP:  31 TIME =     0.04 SECS, INTEGRAL =      1.02 TIME LEFT: 172798.94
 STEP:  32 TIME =     0.04 SECS, INTEGRAL =      1.06 TIME LEFT: 172798.90
 STEP:  33 TIME =     0.04 SECS, INTEGRAL =      1.10 TIME LEFT: 172798.86
 STEP:  34 TIME =     0.03 SECS, INTEGRAL =      1.13 TIME LEFT: 172798.83
 STEP:  35 TIME =     0.03 SECS, INTEGRAL =      1.16 TIME LEFT: 172798.80
 STEP:  36 TIME =     0.03 SECS, INTEGRAL =      1.20 TIME LEFT: 172798.77
 STEP:  37 TIME =     0.03 SECS, INTEGRAL =      1.23 TIME LEFT: 172798.73
 STEP:  38 TIME =     0.03 SECS, INTEGRAL =      1.26 TIME LEFT: 172798.70
 STEP:  39 TIME =     0.03 SECS, INTEGRAL =      1.29 TIME LEFT: 172798.67
 STEP:  40 TIME =     0.03 SECS, INTEGRAL =      1.32 TIME LEFT: 172798.64
 STEP:  41 TIME =     0.03 SECS, INTEGRAL =      1.35 TIME LEFT: 172798.61
 STEP:  42 TIME =     0.03 SECS, INTEGRAL =      1.38 TIME LEFT: 172798.58
 STEP:  43 TIME =     0.03 SECS, INTEGRAL =      1.41 TIME LEFT: 172798.55
 STEP:  44 TIME =     0.03 SECS, INTEGRAL =      1.45 TIME LEFT: 172798.52
 STEP:  45 TIME =     0.04 SECS, INTEGRAL =      1.48 TIME LEFT: 172798.48
 STEP:  46 TIME =     0.04 SECS, INTEGRAL =      1.52 TIME LEFT: 172798.44
 STEP:  47 TIME =     0.04 SECS, INTEGRAL =      1.56 TIME LEFT: 172798.40
 STEP:  48 TIME =     0.03 SECS, INTEGRAL =      1.59 TIME LEFT: 172798.37
 STEP:  49 TIME =     0.03 SECS, INTEGRAL =      1.62 TIME LEFT: 172798.34
 STEP:  50 TIME =     0.04 SECS, INTEGRAL =      1.66 TIME LEFT: 172798.30
 STEP:  51 TIME =     0.05 SECS, INTEGRAL =      1.71 TIME LEFT: 172798.25
 STEP:  52 TIME =     0.04 SECS, INTEGRAL =      1.75 TIME LEFT: 172798.21
 STEP:  53 TIME =     0.03 SECS, INTEGRAL =      1.78 TIME LEFT: 172798.18
 STEP:  54 TIME =     0.03 SECS, INTEGRAL =      1.81 TIME LEFT: 172798.15
 STEP:  55 TIME =     0.03 SECS, INTEGRAL =      1.84 TIME LEFT: 172798.12
 STEP:  56 TIME =     0.03 SECS, INTEGRAL =      1.88 TIME LEFT: 172798.09
 STEP:  57 TIME =     0.03 SECS, INTEGRAL =      1.91 TIME LEFT: 172798.05

(To convert to Hartree/Bohr^2, multiply by (10^(-21) x N x a0^2)/(4.184 x 627.51) =  0.0642)


           FORCE MATRIX IN MILLIDYNES/ANGSTROM


                  C  1       C  2       C  3       C  4       C  5       C  6
 ------------------------------------------------------------------------------
     C    1  14.394015
     C    2   4.359782  14.515180
     C    3   3.220725   0.529411  14.533898
     C    4   3.239945   0.536973   1.881666  14.548251
     C    5   0.663522   4.464276   0.031131   0.050804  14.371771
     C    6   1.975442   0.044846   4.387090   4.385317   0.006305  19.794138
     C    7   0.050399   0.008072   0.569880   0.569790   0.001885  11.274390
     H    8   4.446260   0.430865   0.427182   0.425715   0.030781   0.031437
     H    9   0.450370   4.441703   0.022625   0.020518   0.436786   0.001715
     H   10   0.432628   4.457511   0.047010   0.018319   0.440059   0.004355
     H   11   0.436219   0.033080   4.680794   0.034231   0.001362   0.447296
     H   12   0.447805   0.023288   4.635042   0.032571   0.008624   0.447441
     H   13   0.447543   0.027715   0.032719   4.643016   0.002830   0.447058
     H   14   0.437308   0.032709   0.034337   4.681482   0.006020   0.446561
     H   15   0.024251   0.463543   0.002075   0.001544   4.725088   0.000638
     H   16   0.020223   0.463437   0.006778   0.001926   4.714997   0.000982
     H   17   0.052299   0.450708   0.002169   0.008564   4.756202   0.000706
     H   18   0.004307   0.000884   0.133325   0.096069   0.000559   0.482706
     H   19   0.004379   0.001085   0.096232   0.132978   0.000422   0.482482


                  C  7       H  8       H  9       H 10       H 11       H 12
 ------------------------------------------------------------------------------
     C    7  18.200764
     H    8   0.004551   4.949547
     H    9   0.001384   0.043157   5.056698
     H   10   0.002097   0.025075   0.568748   5.065920
     H   11   0.016635   0.026159   0.001695   0.005673   5.293993
     H   12   0.015881   0.029986   0.021670   0.003166   0.542627   5.256619
     H   13   0.015931   0.030093   0.015666   0.009897   0.000813   0.004489
     H   14   0.016326   0.025778   0.001290   0.001882   0.004700   0.000759
     H   15   0.000396   0.021522   0.047105   0.024597   0.000341   0.000493
     H   16   0.000980   0.001911   0.024660   0.048641   0.000782   0.011526
     H   17   0.000595   0.001868   0.030523   0.029144   0.000402   0.000590
     H   18   5.113362   0.000700   0.000216   0.000283   0.015157   0.015666
     H   19   5.114123   0.000780   0.000225   0.000312   0.011880   0.012428


                  H 13       H 14       H 15       H 16       H 17       H 18
 ------------------------------------------------------------------------------
     H   13   5.263267
     H   14   0.542292   5.294750
     H   15   0.000549   0.000287   5.468496
     H   16   0.000425   0.000460   0.574713   5.453655
     H   17   0.000590   0.001138   0.573115   0.571511   5.491244
     H   18   0.012396   0.011639   0.000203   0.000179   0.000115   5.485732
     H   19   0.015565   0.014588   0.000178   0.000168   0.000137   0.406485


                  H 19
 ------------------
     H   19   5.486331


          HEAT OF FORMATION =       7.518408 KCALS/MOLE

          ZERO POINT ENERGY     107.025 KCAL/MOL


           NORMAL COORDINATE ANALYSIS (Total motion = 1 Angstrom)


   Root No.       1         2         3         4         5         6         7         8

                 1 A       2 A       3 A       4 A       5 A       6 A       7 A       8 A   

                  85.6     110.5     190.9     246.7     342.8     389.0     448.1     462.2
  
           1   -0.0098   -0.0059    0.0025   -0.0186   -0.0123   -0.0335    0.0047    0.0194
           2   -0.0312    0.0059   -0.0063    0.0092    0.0009   -0.0189    0.0280    0.0227
           3   -0.0014   -0.0158    0.0048   -0.0175   -0.0072   -0.0279   -0.0168    0.0023
           4   -0.0096   -0.0052    0.0023   -0.0185   -0.0104   -0.0390   -0.0011    0.0210
           5   -0.0202    0.0372   -0.0080   -0.0297    0.0099    0.0227   -0.0120   -0.0168
           6    0.0048    0.0155    0.0008   -0.0181   -0.0281    0.0160    0.0278    0.0108
           7   -0.0128   -0.0299    0.0229   -0.0238   -0.0174    0.0209   -0.0141   -0.0266
           8   -0.0327   -0.0055    0.0037    0.0087   -0.0070    0.0047    0.0186    0.0026
           9   -0.0254   -0.0159    0.0112   -0.0121    0.0365   -0.0028    0.0022   -0.0032
          10   -0.0094   -0.0157   -0.0108    0.0263    0.0083    0.0232    0.0387    0.0001
          11   -0.0089   -0.0123   -0.0079    0.0269   -0.0276   -0.0062   -0.0058   -0.0042
          12    0.0036   -0.0241   -0.0021    0.0077    0.0073   -0.0028   -0.0172   -0.0153
          13   -0.0053    0.0203   -0.0186    0.0362    0.0359   -0.0219   -0.0320   -0.0091
          14    0.0569   -0.0217    0.0084   -0.0052    0.0024    0.0010   -0.0086   -0.0051
          15    0.0260    0.0117   -0.0044    0.0130   -0.0124    0.0240    0.0241    0.0016
          16    0.0077   -0.0032    0.0047    0.0022   -0.0022    0.0650   -0.0184    0.0345
          17   -0.0012   -0.0058   -0.0001    0.0140   -0.0293    0.0130   -0.0337    0.0145
          18   -0.0087   -0.0033    0.0012    0.0027    0.0367    0.0178   -0.0134    0.0289
          19    0.0395    0.0364   -0.0000   -0.0089   -0.0080   -0.0011    0.0173   -0.0134
          20    0.0298    0.0035    0.0065   -0.0163    0.0389   -0.0179    0.0052    0.0007
          21   -0.0024    0.0281   -0.0088    0.0167   -0.0233   -0.0255   -0.0124   -0.0064
          22   -0.0031    0.0213    0.0003   -0.0392   -0.0223   -0.0379    0.0047    0.0358
          23   -0.0458    0.0017    0.0034    0.0065    0.0151   -0.0149    0.0474    0.0284
          24    0.0079   -0.0248   -0.0019   -0.0047   -0.0135   -0.0260   -0.0336   -0.0124
          25   -0.0193   -0.0362    0.0023   -0.0098   -0.0169   -0.0891    0.0144    0.0535
          26   -0.0556    0.0826   -0.0096   -0.0662    0.0120    0.0658   -0.0339   -0.0503
          27    0.0432   -0.0116    0.0025    0.0125   -0.0262    0.0028    0.0401    0.0238
          28   -0.0028    0.0075    0.0132   -0.0560   -0.0130   -0.0106   -0.0333   -0.0102
          29   -0.0335    0.0603   -0.0066   -0.0521    0.0106    0.0492   -0.0280   -0.0389
          30   -0.0446    0.0737   -0.0084   -0.0433   -0.0215    0.0654    0.0155   -0.0213
          31   -0.0263   -0.0485    0.0356   -0.0416   -0.0310   -0.0123    0.0003   -0.0972
          32   -0.0559   -0.0280    0.0244   -0.0004    0.0126    0.0403    0.0344   -0.0806
          33   -0.0184   -0.0043    0.0044    0.0017    0.0524    0.0343   -0.0069    0.0391
          34   -0.0158   -0.0463    0.0354   -0.0259   -0.0206    0.0561   -0.0306   -0.0744
          35   -0.0300    0.0079   -0.0064    0.0101   -0.0043   -0.0230    0.0320    0.0395
          36   -0.0577   -0.0380    0.0293   -0.0324    0.0476   -0.0348    0.0493   -0.0961
          37   -0.0099   -0.0230   -0.0188    0.0568    0.0255    0.0612    0.0679   -0.0224
          38   -0.0112   -0.0369   -0.0220    0.0614   -0.0371   -0.0358    0.0529   -0.0931
          39    0.0035   -0.0220    0.0022   -0.0119   -0.0095   -0.0397   -0.0301   -0.0129
          40   -0.0211   -0.0256   -0.0211    0.0449    0.0166   -0.0079    0.1008   -0.0477
          41    0.0011   -0.0049    0.0003    0.0131   -0.0343    0.0210   -0.0552    0.0319
          42    0.0128   -0.0456   -0.0138    0.0532    0.0030    0.0350    0.0095   -0.0787
          43    0.0051    0.0574    0.1560    0.1162    0.0626   -0.0289   -0.0511   -0.0217
          44    0.0942   -0.0705   -0.1145   -0.0230    0.0016   -0.0003   -0.0103   -0.0048
          45   -0.0133    0.0417    0.0373   -0.0035   -0.0225    0.0281    0.0330    0.0061
          46   -0.0122    0.0044   -0.2141    0.0062    0.0590    0.0005   -0.0564   -0.0341
          47    0.0713   -0.0472   -0.0824   -0.0217    0.0037    0.0043   -0.0114   -0.0078
          48    0.0760   -0.0494   -0.0881   -0.0070   -0.0296    0.0114    0.0383    0.0172
          49   -0.0054    0.0202   -0.0186    0.0362    0.0362   -0.0223   -0.0326   -0.0093
          50    0.0664    0.0055    0.2372    0.0497   -0.0066   -0.0202    0.0028    0.0102
          51    0.0321    0.0397    0.0337    0.0773    0.0333    0.0358   -0.0116   -0.0311
          52    0.0535    0.0615   -0.0197    0.0215   -0.0673   -0.0399    0.0258   -0.0438
          53    0.0547    0.0034    0.0090   -0.0375    0.1308   -0.0316    0.0587    0.0087
          54    0.0136    0.0373   -0.0150    0.0187   -0.0059   -0.0460    0.0132   -0.0144
          55    0.0544    0.0470    0.0152   -0.0498    0.0445   -0.0310    0.0480   -0.0362
          56    0.0329    0.0118    0.0112   -0.0282    0.0380   -0.0349    0.0088   -0.0155
          57   -0.0129    0.0477   -0.0129    0.0314   -0.1199   -0.0520   -0.0493   -0.0433


   Root No.       9        10        11        12        13        14        15        16

                 9 A      10 A      11 A      12 A      13 A      14 A      15 A      16 A   

                 624.6     700.3     825.6     869.6     884.7     901.0     966.0     982.5
  
           1   -0.0004   -0.0055    0.0001   -0.0140   -0.0005   -0.0001    0.0105    0.0107
           2    0.0003    0.0354   -0.0035   -0.0130   -0.0032   -0.0036   -0.0275   -0.0083
           3   -0.0001    0.0451    0.0039   -0.0159   -0.0004    0.0018    0.0007    0.0097
           4   -0.0005   -0.0276    0.0084    0.0295    0.0035    0.0016   -0.0014    0.0007
           5    0.0001    0.0153   -0.0350    0.0047   -0.0028   -0.0005   -0.0098    0.0000
           6   -0.0001   -0.0098   -0.0064    0.0139   -0.0007   -0.0005   -0.0051    0.0003
           7    0.0011   -0.0031   -0.0106   -0.0267   -0.0337   -0.0279   -0.0010   -0.0179
           8    0.0007    0.0273    0.0249    0.0126   -0.0021   -0.0103    0.0189    0.0013
           9    0.0005   -0.0107    0.0072    0.0056   -0.0220    0.0221    0.0222    0.0015
          10   -0.0014   -0.0106   -0.0081   -0.0303    0.0281    0.0263    0.0123   -0.0110
          11   -0.0007   -0.0179    0.0017    0.0009    0.0231   -0.0228    0.0190    0.0009
          12   -0.0004    0.0416    0.0068    0.0116    0.0088    0.0066   -0.0135   -0.0185
          13    0.0006   -0.0009    0.0054    0.0190    0.0019    0.0008   -0.0106   -0.0186
          14    0.0000    0.0008   -0.0080    0.0052   -0.0025   -0.0017    0.0101   -0.0020
          15    0.0002   -0.0032   -0.0037   -0.0049    0.0023    0.0018    0.0059   -0.0020
          16    0.0004    0.0211    0.0043    0.0135    0.0012    0.0003   -0.0041    0.0091
          17    0.0004   -0.0225   -0.0049   -0.0035   -0.0034    0.0106   -0.0016    0.0047
          18   -0.0003   -0.0277   -0.0077   -0.0044    0.0020   -0.0090   -0.0086    0.0016
          19    0.0003    0.0333    0.0087    0.0135    0.0015   -0.0004   -0.0035    0.0269
          20   -0.0002   -0.0278   -0.0074   -0.0097   -0.0116    0.0463   -0.0078    0.0096
          21   -0.0000   -0.0339   -0.0093   -0.0117    0.0076   -0.0391   -0.0092    0.0109
          22   -0.0006   -0.0351   -0.0318   -0.0010    0.0001   -0.0005   -0.0184    0.0582
          23    0.0007    0.0331    0.0168   -0.0091   -0.0707    0.0035   -0.0434   -0.0386
          24   -0.0004    0.0594    0.0041   -0.0209    0.0558   -0.0038    0.0278    0.0126
          25    0.0001    0.0247   -0.0541    0.0324    0.0035    0.0030   -0.0807    0.0357
          26   -0.0016   -0.0351    0.1080   -0.0412    0.0013   -0.0007   -0.0076   -0.0002
          27    0.0012    0.0098   -0.1039    0.0524   -0.0042   -0.0011    0.0329   -0.0165
          28   -0.0018   -0.0791    0.0812    0.0318    0.0004   -0.0006    0.1058    0.0208
          29   -0.0006   -0.0201    0.0446   -0.0121   -0.0004   -0.0011    0.0116    0.0004
          30   -0.0009   -0.0572    0.1449   -0.0389    0.0109    0.0010   -0.0546   -0.0174
          31    0.0523   -0.0085   -0.0360   -0.0565    0.0527   -0.0145   -0.0544    0.0004
          32    0.0531   -0.0097    0.0060    0.1032    0.1275    0.0483   -0.0192    0.0435
          33   -0.0310   -0.0158    0.0246    0.0528   -0.0652    0.0244    0.0613   -0.0029
          34    0.0232   -0.0407   -0.0482    0.0085    0.0283   -0.0221   -0.0486   -0.0066
          35   -0.0153    0.0579    0.0544   -0.0156   -0.0492   -0.0139    0.0544   -0.0077
          36    0.0754   -0.0234    0.0038    0.0424    0.1220    0.1004    0.0063    0.0628
          37   -0.0221   -0.0632   -0.0175    0.0107   -0.0290    0.0241   -0.0374   -0.0222
          38   -0.0783   -0.0435    0.0158    0.0655   -0.1190   -0.0974    0.0112    0.0866
          39    0.0015    0.0811    0.0175   -0.0108    0.0291   -0.0059    0.0261    0.0073
          40   -0.0540   -0.0283   -0.0142   -0.0452   -0.0667    0.0093   -0.0131    0.0435
          41    0.0390   -0.0070    0.0070    0.0192    0.0936   -0.0118    0.0375   -0.0424
          42   -0.0451   -0.0053    0.0201    0.1264   -0.0929   -0.0436   -0.0531   -0.0053
          43    0.0003    0.0266    0.0315   -0.0501   -0.0035   -0.0023   -0.0087    0.0480
          44    0.0002   -0.0128    0.0736   -0.0313    0.0057    0.0014   -0.0414    0.0111
          45    0.0002   -0.0018   -0.0869    0.0552   -0.0027    0.0003    0.0512   -0.0405
          46    0.0018    0.0354   -0.0443   -0.0184   -0.0135   -0.0068    0.0477    0.0389
          47    0.0003   -0.0015    0.0203   -0.0145   -0.0006   -0.0011   -0.0039    0.0100
          48   -0.0000   -0.0421    0.1200   -0.0265    0.0221    0.0110   -0.0844   -0.0184
          49    0.0006   -0.0005    0.0054    0.0187    0.0018    0.0007   -0.0102   -0.0175
          50   -0.0013   -0.0201    0.0514    0.0084    0.0086    0.0027   -0.0438   -0.0246
          51    0.0009    0.0535   -0.0109   -0.1145   -0.0124   -0.0055    0.0535    0.1105
          52    0.2650    0.0425    0.0193    0.0115   -0.0839    0.1235    0.0468   -0.0970
          53    0.1272   -0.0425   -0.0055   -0.0210    0.0196   -0.1993    0.0158   -0.0549
          54    0.1526   -0.0387   -0.0054   -0.0186   -0.0110   -0.0980    0.0187   -0.0633
          55   -0.2642    0.0467    0.0097    0.0050    0.0855   -0.1197    0.0452   -0.1020
          56   -0.1307   -0.0252   -0.0098   -0.0180    0.0131    0.0557    0.0129   -0.0565
          57   -0.1511   -0.0359   -0.0192   -0.0299   -0.0236    0.2149    0.0050   -0.0722


   Root No.      17        18        19        20        21        22        23        24

                17 A      18 A      19 A      20 A      21 A      22 A      23 A      24 A   

                 991.1     995.9    1004.7    1060.2    1069.7    1120.9    1124.5    1143.5
  
           1    0.0143    0.0091    0.0029    0.0036    0.0028    0.0036    0.0001   -0.0127
           2    0.0065    0.0045    0.0058    0.0181    0.0024   -0.0168   -0.0049    0.0004
           3   -0.0236   -0.0138   -0.0214   -0.0161   -0.0005   -0.0156    0.0144    0.0411
           4   -0.0036   -0.0017   -0.0093    0.0155   -0.0027   -0.0044   -0.0135   -0.0051
           5    0.0046    0.0103   -0.0011   -0.0212   -0.0058    0.0229   -0.0344    0.0093
           6   -0.0013    0.0010   -0.0065    0.0029   -0.0003    0.0214    0.0515    0.0134
           7    0.0045    0.0003    0.0095   -0.0049   -0.0186    0.0056   -0.0041   -0.0154
           8   -0.0271   -0.0192   -0.0181   -0.0089   -0.0072    0.0218    0.0025   -0.0213
           9    0.0190    0.0132    0.0102   -0.0201   -0.0130   -0.0076    0.0054    0.0182
          10   -0.0090   -0.0033    0.0034    0.0006   -0.0171    0.0088    0.0077    0.0049
          11    0.0227    0.0181    0.0153   -0.0089   -0.0107   -0.0118    0.0057    0.0175
          12    0.0084    0.0024    0.0119    0.0331   -0.0047    0.0183   -0.0075   -0.0262
          13   -0.0125   -0.0100    0.0144   -0.0173    0.0014    0.0003    0.0091    0.0077
          14   -0.0025   -0.0080    0.0025    0.0108    0.0023   -0.0263    0.0357   -0.0129
          15    0.0003   -0.0016    0.0050   -0.0004   -0.0021   -0.0248   -0.0558   -0.0116
          16    0.0033    0.0027   -0.0025   -0.0044    0.0413   -0.0042   -0.0022    0.0012
          17   -0.0054   -0.0038   -0.0057   -0.0039    0.0203   -0.0005    0.0011    0.0106
          18   -0.0009   -0.0005   -0.0009    0.0015    0.0247   -0.0028   -0.0034   -0.0071
          19    0.0070   -0.0069    0.0188   -0.0022   -0.0245   -0.0046    0.0026    0.0082
          20   -0.0069   -0.0105    0.0060    0.0042   -0.0112    0.0054   -0.0012   -0.0101
          21   -0.0076   -0.0137    0.0060    0.0060   -0.0131    0.0072   -0.0012   -0.0068
          22    0.0443    0.0584   -0.0442   -0.0156    0.0152    0.0869    0.0686   -0.0863
          23    0.0595   -0.0132    0.0316    0.1545    0.0167   -0.0212   -0.0027    0.1376
          24   -0.0821   -0.0222   -0.0223   -0.1185   -0.0193   -0.0496   -0.0191   -0.0378
          25    0.0100    0.0612   -0.0786   -0.0392   -0.0402   -0.1084   -0.0731   -0.0458
          26   -0.0004   -0.0023    0.0004    0.0157    0.0004   -0.0589   -0.0177   -0.0168
          27   -0.0035   -0.0186    0.0262   -0.0024    0.0126    0.1499    0.0664    0.0599
          28   -0.0315   -0.0740   -0.0343    0.1250    0.0183    0.0289   -0.1542    0.0725
          29   -0.0052   -0.0102   -0.0010    0.0182    0.0023    0.0029   -0.0322    0.0149
          30    0.0003    0.0193    0.0176    0.0017    0.0003   -0.0753    0.2178   -0.0586
          31    0.0588   -0.0825   -0.0006   -0.0068    0.0882   -0.0000   -0.0041    0.0132
          32   -0.1078    0.0569   -0.0432    0.0650   -0.0030    0.0112   -0.0011   -0.0278
          33   -0.0461    0.1042    0.0130   -0.0047   -0.1047   -0.0062    0.0057   -0.0069
          34   -0.1046    0.0652   -0.0219    0.0588   -0.0526   -0.0294    0.0087    0.0559
          35    0.0594   -0.0715    0.0066   -0.0580    0.0217    0.0511   -0.0086   -0.0807
          36    0.1257   -0.0223    0.0202   -0.0481    0.1127   -0.0180    0.0017   -0.0001
          37    0.0381   -0.0632   -0.1019   -0.0249   -0.0643   -0.0298    0.0186    0.0344
          38   -0.0030    0.0595    0.0466   -0.0328    0.1070   -0.0276   -0.0091    0.0235
          39   -0.0379    0.0587    0.1044    0.0501    0.0576    0.0498   -0.0178   -0.0512
          40   -0.1181    0.0035    0.0290   -0.0075    0.0902    0.0003    0.0028    0.0057
          41    0.1193    0.0122   -0.0096   -0.0029   -0.0989   -0.0062    0.0101    0.0182
          42    0.0991   -0.0433   -0.0939    0.0094   -0.0319    0.0115   -0.0098   -0.0435
          43    0.0221    0.0328   -0.0516    0.0171   -0.0047    0.0552    0.0346    0.0227
          44    0.0074    0.0279   -0.0167   -0.0190   -0.0054    0.0574    0.0049    0.0282
          45   -0.0227   -0.0511    0.0487    0.0123    0.0069   -0.1252   -0.0405   -0.0559
          46    0.0123   -0.0038   -0.0366    0.0548    0.0035   -0.0215    0.0864   -0.0111
          47    0.0049    0.0077   -0.0108    0.0070   -0.0010    0.0011    0.0192   -0.0017
          48   -0.0002    0.0367    0.0127   -0.0763   -0.0129    0.0750   -0.1816    0.0373
          49   -0.0125   -0.0099    0.0128   -0.0163    0.0012    0.0002    0.0100    0.0086
          50   -0.0130    0.0056    0.0169   -0.0374   -0.0036    0.0256   -0.0068    0.0219
          51    0.0596    0.0508   -0.0954    0.0810   -0.0085    0.0023   -0.0494   -0.0275
          52    0.0049    0.0725   -0.0543   -0.0225    0.0762   -0.0236    0.0008    0.0209
          53   -0.0238    0.0121   -0.0427    0.0047    0.0408    0.0233   -0.0066   -0.0286
          54   -0.0167    0.0245   -0.0423   -0.0001    0.0467    0.0098   -0.0048   -0.0133
          55    0.0293    0.0561   -0.0620   -0.0130    0.0775   -0.0209    0.0055    0.0411
          56   -0.0001    0.0184   -0.0347    0.0026    0.0402    0.0044   -0.0025   -0.0105
          57   -0.0080    0.0170   -0.0408    0.0143    0.0490    0.0224   -0.0101   -0.0534


   Root No.      25        26        27        28        29        30        31        32

                25 A      26 A      27 A      28 A      29 A      30 A      31 A      32 A   

                1169.4    1180.6    1213.8    1227.4    1272.4    1297.7    1324.5    1373.8
  
           1    0.0085    0.0256   -0.0030   -0.0302    0.0211   -0.0194    0.0029    0.0353
           2    0.0627    0.0079   -0.0063   -0.0029   -0.0081    0.0380   -0.0018   -0.0056
           3   -0.0138    0.0300    0.0034   -0.0162   -0.0176   -0.0168   -0.0014   -0.0124
           4    0.0031   -0.0329   -0.0026   -0.0054    0.0289   -0.0118    0.0012   -0.0117
           5   -0.0122   -0.0125    0.0008   -0.0059    0.0076   -0.0107    0.0006   -0.0027
           6    0.0015   -0.0334    0.0017    0.0123   -0.0212    0.0132   -0.0014    0.0197
           7    0.0127   -0.0110    0.0195   -0.0050   -0.0249   -0.0051   -0.0168   -0.0090
           8   -0.0247    0.0028   -0.0232    0.0161    0.0117   -0.0133    0.0076   -0.0005
           9   -0.0089    0.0030   -0.0133    0.0185    0.0303    0.0277    0.0217    0.0080
          10   -0.0302   -0.0013   -0.0185   -0.0101   -0.0104    0.0234   -0.0174   -0.0079
          11    0.0170   -0.0042    0.0101    0.0238   -0.0060   -0.0371    0.0201    0.0036
          12    0.0025   -0.0019    0.0280    0.0220    0.0149   -0.0064    0.0120    0.0026
          13   -0.0038    0.0106    0.0014    0.0025   -0.0090    0.0012   -0.0002   -0.0070
          14   -0.0041    0.0014    0.0004    0.0014   -0.0005    0.0002   -0.0002   -0.0091
          15   -0.0083    0.0172    0.0000    0.0007    0.0002    0.0008   -0.0002    0.0267
          16    0.0015   -0.0011   -0.0008   -0.0045   -0.0023    0.0000    0.0183    0.0009
          17   -0.0230    0.0063    0.0345   -0.0091    0.0270    0.0445   -0.0153    0.0020
          18    0.0213   -0.0060   -0.0286    0.0087   -0.0176   -0.0391   -0.0183   -0.0012
          19    0.0034    0.0012    0.0004    0.0053    0.0002    0.0011    0.0246   -0.0009
          20    0.0025   -0.0024   -0.0115   -0.0012   -0.0055   -0.0101   -0.0202    0.0003
          21   -0.0093    0.0005    0.0092   -0.0063    0.0041    0.0068   -0.0250    0.0010
          22   -0.0124    0.2619    0.0132    0.1131   -0.0492    0.0387   -0.0070   -0.0582
          23   -0.1355    0.0090    0.0276   -0.0509   -0.0134   -0.0790    0.0022    0.0041
          24    0.1625   -0.0810   -0.0325   -0.0439    0.0209    0.0528    0.0012    0.0236
          25   -0.1546   -0.1350    0.0157    0.0884   -0.0781    0.0420   -0.0040   -0.0331
          26   -0.0113    0.0293    0.0030    0.0004   -0.0134   -0.0042   -0.0026    0.1020
          27    0.0830   -0.0238   -0.0103   -0.0414    0.0536   -0.0182    0.0050   -0.0820
          28    0.0884   -0.0035    0.0027    0.0786   -0.0945    0.0968   -0.0028   -0.0477
          29    0.0157    0.0006   -0.0009    0.0110   -0.0137    0.0190    0.0007   -0.0501
          30   -0.0079   -0.0290   -0.0100   -0.0262    0.0532   -0.0131    0.0045   -0.1204
          31   -0.0165   -0.0094   -0.1069    0.0652    0.0488   -0.0125    0.0185    0.0242
          32    0.0108    0.0384    0.0468   -0.0747   -0.0408   -0.0877   -0.0627    0.0396
          33    0.0261    0.0113    0.1140   -0.0632   -0.0463    0.0211   -0.0213   -0.0154
          34    0.0270    0.0499   -0.0925    0.0287    0.0537    0.0336    0.0516   -0.0022
          35   -0.0352   -0.0446    0.0658   -0.0114   -0.0511   -0.0471   -0.0509   -0.0023
          36    0.0124   -0.0174    0.1288   -0.0560   -0.0489    0.0519   -0.0032   -0.0406
          37    0.0658    0.0364    0.0911    0.0275    0.0210   -0.0626    0.0523    0.0001
          38   -0.0060    0.0013   -0.1147   -0.0400   -0.0636   -0.0097    0.0082   -0.0330
          39   -0.0838   -0.0312   -0.0860   -0.0222   -0.0202    0.0721   -0.0529   -0.0083
          40    0.0134   -0.0183    0.1139    0.0592    0.0434   -0.0241    0.0177    0.0187
          41   -0.0179    0.0137   -0.1044   -0.0376   -0.0525    0.0039   -0.0086   -0.0194
          42    0.0084    0.0409   -0.0817   -0.0933    0.0144    0.0763   -0.0681    0.0309
          43    0.0101   -0.0538    0.0004    0.0113   -0.0168    0.0161   -0.0021    0.0382
          44    0.0081   -0.0252   -0.0008    0.0047   -0.0164    0.0122   -0.0009    0.0794
          45   -0.0252    0.0663    0.0013   -0.0079    0.0221   -0.0190    0.0016   -0.0876
          46    0.0053   -0.0380   -0.0005    0.0131   -0.0171    0.0204   -0.0013    0.0569
          47    0.0013   -0.0127   -0.0008   -0.0008    0.0046   -0.0013    0.0004   -0.0228
          48    0.0004    0.0230   -0.0012   -0.0185    0.0305   -0.0280    0.0030   -0.1134
          49   -0.0044    0.0085    0.0017    0.0048   -0.0127    0.0040   -0.0005    0.0015
          50   -0.0001    0.0009   -0.0010    0.0036   -0.0168    0.0107    0.0003    0.0478
          51    0.0189   -0.0598   -0.0065   -0.0281    0.0743   -0.0373    0.0045   -0.1114
          52    0.0384   -0.0021   -0.0271    0.0428    0.0161   -0.0384   -0.1376    0.0015
          53   -0.0462    0.0010    0.0326   -0.0634   -0.0273    0.0543    0.2342   -0.0027
          54   -0.0184    0.0002    0.0174   -0.0229   -0.0030    0.0203    0.0370    0.0003
          55   -0.0031    0.0089    0.0293    0.0293    0.0442    0.0123   -0.1345    0.0031
          56    0.0003   -0.0028   -0.0110   -0.0053   -0.0075   -0.0085   -0.0107    0.0003
          57    0.0022   -0.0133   -0.0398   -0.0485   -0.0696   -0.0150    0.2390   -0.0050


   Root No.      33        34        35        36        37        38        39        40

                33 A      34 A      35 A      36 A      37 A      38 A      39 A      40 A   

                1394.4    1406.8    1410.7    1412.4    1419.5    1435.6    1966.8    2949.7
  
           1   -0.0084    0.0042    0.0139   -0.0124   -0.0255    0.0499    0.0200    0.0060
           2    0.0077   -0.0017   -0.0003   -0.0002    0.0070   -0.0064   -0.0120    0.0106
           3   -0.0034    0.0002   -0.0019    0.0017    0.0051   -0.0191   -0.0150    0.0130
           4    0.0072   -0.0059   -0.0183    0.0222    0.0208   -0.0498   -0.0038   -0.0009
           5   -0.0020    0.0011    0.0016   -0.0010   -0.0077   -0.0064    0.0006   -0.0408
           6    0.0015   -0.0074   -0.0035    0.0029    0.0226    0.0371    0.0009   -0.0112
           7   -0.0003   -0.0004   -0.0028    0.0025    0.0039   -0.0092    0.0155   -0.0013
           8   -0.0251   -0.0001   -0.0129    0.0146   -0.0146    0.0134    0.0083   -0.0003
           9    0.0243    0.0000    0.0124   -0.0136    0.0105   -0.0048   -0.0337   -0.0004
          10    0.0047   -0.0009   -0.0032    0.0027    0.0048   -0.0065    0.0161   -0.0012
          11   -0.0325    0.0004    0.0119   -0.0125    0.0129   -0.0125   -0.0344   -0.0005
          12    0.0210    0.0005   -0.0083    0.0089   -0.0133    0.0149    0.0015   -0.0004
          13   -0.0014   -0.0110   -0.0147   -0.0194    0.0069    0.0206   -0.0002    0.0001
          14    0.0003   -0.0345    0.0078    0.0027    0.0039    0.0099   -0.0000    0.0022
          15   -0.0005   -0.0092   -0.0039    0.0014   -0.0247   -0.0408    0.0000    0.0006
          16   -0.0005    0.0001    0.0010   -0.0010    0.0001    0.0006   -0.1702    0.0003
          17    0.0172   -0.0002    0.0003   -0.0005   -0.0003    0.0024    0.1398   -0.0002
          18   -0.0142    0.0003   -0.0011    0.0014   -0.0013   -0.0010    0.1726   -0.0002
          19    0.0001   -0.0003    0.0023   -0.0026    0.0046   -0.0056    0.1221   -0.0000
          20   -0.0033    0.0002   -0.0021    0.0023   -0.0038    0.0042   -0.1002    0.0000
          21    0.0027    0.0002   -0.0023    0.0025   -0.0045    0.0058   -0.1237    0.0000
          22    0.0102    0.0050   -0.0148    0.0093    0.0312   -0.0685   -0.0123   -0.0712
          23   -0.0264    0.0029    0.0041   -0.0037   -0.0116    0.0062   -0.0098   -0.1313
          24    0.0162   -0.0045    0.0080   -0.0051   -0.0065    0.0258   -0.0116   -0.1572
          25   -0.0124    0.0200    0.0382   -0.0612   -0.0637    0.0570    0.0038    0.1157
          26    0.0080   -0.0374   -0.0458    0.0656    0.1129    0.0329   -0.0010    0.2115
          27    0.0003    0.0199    0.0194   -0.0276   -0.0661   -0.0562   -0.0014    0.2294
          28   -0.0034    0.0152    0.0366   -0.0582   -0.0549    0.0403   -0.0028   -0.1026
          29   -0.0072    0.0178    0.0297   -0.0408   -0.0649   -0.0043   -0.0000    0.2783
          30   -0.0056    0.0350    0.0383   -0.0556   -0.1106   -0.0644   -0.0007   -0.0941
          31    0.0838    0.0019    0.0423   -0.0463    0.0323   -0.0200   -0.0156    0.0047
          32    0.1557    0.0075    0.0790   -0.0867    0.0479   -0.0306    0.0129   -0.0001
          33   -0.0280   -0.0009   -0.0149    0.0159   -0.0069   -0.0001   -0.0029    0.0063
          34   -0.1049   -0.0054   -0.0435    0.0503   -0.0423    0.0467    0.0002    0.0061
          35    0.0774    0.0043    0.0280   -0.0328    0.0291   -0.0357    0.0180    0.0075
          36   -0.1333   -0.0030   -0.0691    0.0748   -0.0443    0.0231    0.0047   -0.0003
          37    0.1070    0.0024   -0.0318    0.0347   -0.0521    0.0463    0.0003    0.0071
          38    0.1701   -0.0005   -0.0592    0.0618   -0.0588    0.0398    0.0015   -0.0018
          39   -0.0506   -0.0023    0.0099   -0.0119    0.0293   -0.0264    0.0187    0.0072
          40   -0.1005    0.0005    0.0358   -0.0374    0.0372   -0.0281   -0.0155    0.0056
          41    0.0665   -0.0007   -0.0236    0.0240   -0.0182    0.0094   -0.0055    0.0075
          42   -0.1695    0.0004    0.0603   -0.0628    0.0561   -0.0354    0.0123    0.0007
          43    0.0037   -0.1476    0.1444    0.1189   -0.0448   -0.0514   -0.0001   -0.0067
          44   -0.0018   -0.0320   -0.1100   -0.0826   -0.0442   -0.0665   -0.0002   -0.0132
          45   -0.0006    0.0792    0.0419    0.0257    0.0535    0.0750    0.0000   -0.0107
          46    0.0027    0.2795    0.0631    0.0830   -0.0130   -0.0502   -0.0001    0.0068
          47    0.0014    0.0912    0.0577    0.0520    0.0204    0.0233    0.0001   -0.0158
          48   -0.0007    0.0285    0.1013    0.0675    0.0616    0.1000    0.0002    0.0027
          49   -0.0012   -0.0030   -0.0024   -0.0073    0.0014    0.0117   -0.0005   -0.0001
          50   -0.0027    0.3608   -0.0437   -0.0120    0.0044   -0.0154    0.0002    0.0005
          51    0.0044    0.0334   -0.1028   -0.0733    0.0840    0.0694   -0.0003   -0.0001
          52   -0.0079    0.0007   -0.0051    0.0057   -0.0086    0.0078    0.0229   -0.0000
          53    0.0102   -0.0011    0.0100   -0.0111    0.0171   -0.0171    0.0934   -0.0000
          54    0.0053   -0.0001    0.0004   -0.0005    0.0000    0.0012   -0.1188    0.0001
          55    0.0078    0.0004   -0.0043    0.0047   -0.0079    0.0093    0.0262   -0.0000
          56   -0.0031    0.0003   -0.0018    0.0021   -0.0035    0.0040   -0.1340    0.0001
          57   -0.0112   -0.0007    0.0090   -0.0099    0.0164   -0.0189    0.0688   -0.0000


   Root No.      41        42        43        44        45        46        47        48

                41 A      42 A      43 A      44 A      45 A      46 A      47 A      48 A   

                2961.2    3028.0    3030.9    3031.8    3077.0    3084.6    3091.5    3094.7
  
           1   -0.0134   -0.0005   -0.0013    0.0000    0.0001    0.0002   -0.0001   -0.0004
           2   -0.0241   -0.0008   -0.0019   -0.0006    0.0000    0.0001    0.0006   -0.0001
           3   -0.0291   -0.0008   -0.0023   -0.0007    0.0002   -0.0003   -0.0005    0.0001
           4   -0.0005   -0.0024   -0.0044    0.0146    0.0003   -0.0016    0.0000   -0.0001
           5   -0.0205    0.0007    0.0018   -0.0067   -0.0028    0.0003   -0.0001   -0.0001
           6   -0.0053   -0.0035   -0.0068    0.0209   -0.0002   -0.0023   -0.0000   -0.0003
           7    0.0030   -0.0276   -0.0116   -0.0092    0.0008   -0.0003   -0.0029   -0.0023
           8    0.0010   -0.0151   -0.0065   -0.0048   -0.0007    0.0004    0.0168    0.0139
           9    0.0015   -0.0145   -0.0060   -0.0049    0.0014   -0.0006   -0.0159   -0.0131
          10    0.0030    0.0146   -0.0253   -0.0068    0.0000    0.0001    0.0015   -0.0020
          11    0.0012    0.0065   -0.0111   -0.0032   -0.0000    0.0002    0.0144   -0.0194
          12    0.0011    0.0089   -0.0156   -0.0042    0.0001   -0.0001   -0.0107    0.0144
          13   -0.0001    0.0007    0.0010   -0.0028    0.0060   -0.0432    0.0009    0.0005
          14    0.0009   -0.0006   -0.0004    0.0002   -0.0500   -0.0015   -0.0013   -0.0009
          15    0.0002    0.0001    0.0002   -0.0006   -0.0096   -0.0194    0.0000   -0.0001
          16   -0.0006   -0.0001   -0.0002   -0.0001    0.0000   -0.0000   -0.0000    0.0000
          17    0.0004   -0.0001   -0.0000   -0.0000   -0.0000    0.0000    0.0004   -0.0001
          18    0.0005    0.0000   -0.0000   -0.0000    0.0000   -0.0000   -0.0004   -0.0000
          19    0.0001   -0.0000   -0.0001   -0.0000   -0.0000    0.0000    0.0000    0.0001
          20   -0.0001   -0.0000   -0.0000   -0.0000    0.0000    0.0000    0.0000   -0.0001
          21   -0.0001   -0.0000   -0.0000   -0.0000   -0.0000   -0.0000   -0.0000   -0.0001
          22    0.1667    0.0042    0.0110    0.0024   -0.0002    0.0008    0.0002    0.0013
          23    0.2913    0.0110    0.0225    0.0067   -0.0019    0.0003    0.0012    0.0027
          24    0.3514    0.0087    0.0284    0.0086   -0.0025   -0.0004   -0.0000    0.0033
          25    0.0592    0.0162    0.0296   -0.0889    0.0043    0.0082    0.0003    0.0013
          26    0.1018    0.0341    0.0634   -0.1968    0.0071    0.0210    0.0010    0.0032
          27    0.1106    0.0328    0.0590   -0.1832    0.0125    0.0220    0.0006    0.0032
          28   -0.0551    0.0146    0.0275   -0.0884   -0.0074    0.0064   -0.0000    0.0004
          29    0.1436   -0.0458   -0.0862    0.2777    0.0246   -0.0253    0.0008   -0.0019
          30   -0.0491    0.0118    0.0217   -0.0714   -0.0110    0.0071   -0.0006    0.0005
          31   -0.0166    0.1522    0.0625    0.0518   -0.0163    0.0069    0.1906    0.1491
          32    0.0023   -0.0432   -0.0180   -0.0144    0.0032   -0.0013   -0.0329   -0.0257
          33   -0.0210    0.1771    0.0726    0.0601   -0.0178    0.0074    0.2055    0.1606
          34   -0.0183    0.1821    0.0758    0.0583    0.0053   -0.0034   -0.1539   -0.1206
          35   -0.0189    0.2277    0.0951    0.0725    0.0059   -0.0037   -0.1748   -0.1368
          36   -0.0000   -0.0008   -0.0003   -0.0002    0.0011   -0.0006   -0.0126   -0.0100
          37   -0.0175   -0.0972    0.1665    0.0449   -0.0012    0.0012    0.1252   -0.1590
          38    0.0029    0.0212   -0.0363   -0.0096    0.0001   -0.0001   -0.0143    0.0181
          39   -0.0175   -0.1151    0.1984    0.0522   -0.0014    0.0015    0.1376   -0.1746
          40   -0.0153   -0.0808    0.1375    0.0394    0.0007   -0.0020   -0.1451    0.1845
          41   -0.0202   -0.1003    0.1704    0.0486    0.0008   -0.0023   -0.1641    0.2086
          42   -0.0016    0.0058   -0.0102   -0.0029    0.0000   -0.0000   -0.0030    0.0039
          43   -0.0035    0.0003   -0.0003    0.0025    0.1204    0.0668    0.0025    0.0019
          44   -0.0049   -0.0002   -0.0015    0.0077    0.2292    0.1926    0.0036    0.0033
          45   -0.0029    0.0002   -0.0010    0.0070    0.2552    0.1872    0.0044    0.0038
          46    0.0032   -0.0023   -0.0019    0.0030   -0.1386    0.0350   -0.0041   -0.0026
          47   -0.0078    0.0076    0.0066   -0.0112    0.3944   -0.1701    0.0127    0.0075
          48    0.0012   -0.0026   -0.0020    0.0027   -0.1339    0.0417   -0.0039   -0.0024
          49   -0.0013   -0.0058   -0.0087    0.0262   -0.0532    0.4133   -0.0099   -0.0049
          50    0.0001   -0.0002    0.0000   -0.0007   -0.0256   -0.0045   -0.0006   -0.0004
          51    0.0000   -0.0005   -0.0009    0.0029   -0.0069    0.0046   -0.0003   -0.0003
          52    0.0002   -0.0005    0.0002   -0.0001    0.0000   -0.0000   -0.0003   -0.0008
          53    0.0002   -0.0002    0.0001   -0.0000    0.0000   -0.0000   -0.0002   -0.0014
          54   -0.0004   -0.0006   -0.0002   -0.0001   -0.0001    0.0001    0.0006    0.0026
          55    0.0002    0.0005   -0.0002   -0.0000    0.0000    0.0000    0.0001   -0.0009
          56   -0.0004    0.0003   -0.0004    0.0000   -0.0002   -0.0000    0.0001    0.0027
          57    0.0001    0.0003   -0.0001   -0.0000    0.0000   -0.0000   -0.0001   -0.0008


   Root No.      49        50        51

                49 A      50 A      51 A   

                3142.6    3146.4    3179.9
  
           1    0.0001    0.0000    0.0000
           2   -0.0001    0.0000   -0.0001
           3   -0.0002   -0.0000   -0.0001
           4   -0.0000    0.0000   -0.0004
           5   -0.0000    0.0000   -0.0000
           6   -0.0000   -0.0000    0.0003
           7   -0.0000    0.0002    0.0001
           8   -0.0001   -0.0001    0.0002
           9    0.0001   -0.0003   -0.0000
          10   -0.0000   -0.0002    0.0000
          11    0.0001    0.0002   -0.0000
          12   -0.0001    0.0002    0.0000
          13    0.0000   -0.0000   -0.0112
          14   -0.0000   -0.0000   -0.0047
          15   -0.0000   -0.0000    0.0214
          16   -0.0044   -0.0001   -0.0000
          17    0.0037   -0.0003    0.0000
          18    0.0045    0.0004    0.0000
          19    0.0287    0.0015    0.0000
          20   -0.0224   -0.0508    0.0000
          21   -0.0301    0.0407   -0.0000
          22    0.0001    0.0000    0.0003
          23    0.0002   -0.0000    0.0010
          24    0.0003   -0.0000    0.0016
          25    0.0001   -0.0000    0.0005
          26    0.0001    0.0001    0.0018
          27    0.0001    0.0000    0.0027
          28   -0.0000    0.0000    0.0005
          29   -0.0000   -0.0001   -0.0030
          30    0.0000    0.0000    0.0016
          31   -0.0020    0.0002    0.0006
          32    0.0005   -0.0001   -0.0001
          33   -0.0023    0.0000    0.0007
          34    0.0019   -0.0002   -0.0023
          35    0.0024   -0.0005   -0.0026
          36   -0.0000   -0.0003    0.0001
          37    0.0019    0.0002    0.0000
          38   -0.0004    0.0002    0.0000
          39    0.0022    0.0005    0.0000
          40   -0.0018   -0.0003    0.0000
          41   -0.0023   -0.0001    0.0000
          42    0.0001    0.0001   -0.0000
          43    0.0000   -0.0000   -0.1031
          44    0.0000    0.0000   -0.2155
          45    0.0000    0.0000   -0.2081
          46   -0.0000   -0.0000   -0.0992
          47    0.0000    0.0001    0.2779
          48   -0.0000   -0.0000   -0.0760
          49   -0.0001    0.0001    0.3388
          50    0.0000    0.0000   -0.0050
          51    0.0000   -0.0000    0.0213
          52   -0.1444    0.1469   -0.0000
          53   -0.1935    0.1680   -0.0000
          54    0.4119   -0.3950    0.0001
          55   -0.1459   -0.1634    0.0000
          56    0.4175    0.4392   -0.0000
          57   -0.1051   -0.0932   -0.0000


           MASS-WEIGHTED COORDINATE ANALYSIS (NORMAL COORDINATES)


   Root No.       1         2         3         4         5         6         7         8

                 1 A       2 A       3 A       4 A       5 A       6 A       7 A       8 A   

                  85.6     110.5     190.9     246.7     342.8     389.0     448.1     462.2
  
           1   -0.0807   -0.0534    0.0203   -0.1700   -0.1011   -0.2601    0.0416    0.1823
           2   -0.2556    0.0535   -0.0507    0.0837    0.0073   -0.1468    0.2473    0.2137
           3   -0.0116   -0.1434    0.0384   -0.1603   -0.0589   -0.2160   -0.1484    0.0219
           4   -0.0787   -0.0472    0.0184   -0.1687   -0.0854   -0.3025   -0.0094    0.1971
           5   -0.1654    0.3378   -0.0648   -0.2717    0.0808    0.1758   -0.1062   -0.1578
           6    0.0391    0.1408    0.0068   -0.1653   -0.2303    0.1241    0.2461    0.1019
           7   -0.1052   -0.2721    0.1850   -0.2176   -0.1428    0.1623   -0.1248   -0.2505
           8   -0.2682   -0.0501    0.0300    0.0792   -0.0576    0.0366    0.1648    0.0241
           9   -0.2082   -0.1443    0.0900   -0.1107    0.2992   -0.0215    0.0195   -0.0298
          10   -0.0768   -0.1432   -0.0871    0.2404    0.0682    0.1800    0.3425    0.0006
          11   -0.0730   -0.1120   -0.0641    0.2455   -0.2263   -0.0477   -0.0512   -0.0391
          12    0.0295   -0.2188   -0.0170    0.0701    0.0597   -0.0217   -0.1522   -0.1440
          13   -0.0437    0.1845   -0.1504    0.3312    0.2941   -0.1699   -0.2831   -0.0856
          14    0.4663   -0.1976    0.0676   -0.0476    0.0193    0.0075   -0.0761   -0.0480
          15    0.2130    0.1061   -0.0354    0.1188   -0.1020    0.1857    0.2132    0.0155
          16    0.0629   -0.0293    0.0376    0.0206   -0.0177    0.5041   -0.1630    0.3248
          17   -0.0096   -0.0529   -0.0004    0.1278   -0.2399    0.1007   -0.2979    0.1365
          18   -0.0712   -0.0301    0.0094    0.0246    0.3007    0.1377   -0.1187    0.2716
          19    0.3242    0.3304   -0.0003   -0.0813   -0.0659   -0.0083    0.1532   -0.1257
          20    0.2446    0.0322    0.0526   -0.1492    0.3188   -0.1390    0.0464    0.0066
          21   -0.0196    0.2559   -0.0714    0.1522   -0.1912   -0.1975   -0.1095   -0.0604
          22   -0.0074    0.0560    0.0006   -0.1039   -0.0528   -0.0852    0.0119    0.0976
          23   -0.1087    0.0045    0.0079    0.0171    0.0358   -0.0335    0.1216    0.0773
          24    0.0187   -0.0654   -0.0045   -0.0124   -0.0320   -0.0583   -0.0860   -0.0337
          25   -0.0459   -0.0954    0.0053   -0.0259   -0.0401   -0.2002    0.0368    0.1458
          26   -0.1321    0.2174   -0.0226   -0.1753    0.0285    0.1477   -0.0869   -0.1371
          27    0.1026   -0.0305    0.0059    0.0330   -0.0622    0.0063    0.1028    0.0650
          28   -0.0066    0.0198    0.0308   -0.1483   -0.0309   -0.0239   -0.0854   -0.0278
          29   -0.0796    0.1589   -0.0154   -0.1381    0.0251    0.1106   -0.0717   -0.1059
          30   -0.1060    0.1941   -0.0197   -0.1147   -0.0511    0.1470    0.0397   -0.0581
          31   -0.0624   -0.1278    0.0832   -0.1103   -0.0735   -0.0277    0.0009   -0.2650
          32   -0.1328   -0.0736    0.0572   -0.0009    0.0298    0.0905    0.0881   -0.2195
          33   -0.0438   -0.0113    0.0104    0.0045    0.1245    0.0770   -0.0176    0.1067
          34   -0.0374   -0.1219    0.0828   -0.0687   -0.0488    0.1260   -0.0784   -0.2028
          35   -0.0712    0.0208   -0.0149    0.0267   -0.0103   -0.0517    0.0819    0.1076
          36   -0.1371   -0.1001    0.0685   -0.0859    0.1129   -0.0782    0.1262   -0.2618
          37   -0.0234   -0.0607   -0.0439    0.1503    0.0606    0.1375    0.1741   -0.0609
          38   -0.0267   -0.0972   -0.0515    0.1626   -0.0881   -0.0805    0.1356   -0.2536
          39    0.0084   -0.0579    0.0052   -0.0315   -0.0224   -0.0892   -0.0770   -0.0352
          40   -0.0502   -0.0674   -0.0494    0.1189    0.0394   -0.0178    0.2583   -0.1300
          41    0.0026   -0.0129    0.0007    0.0348   -0.0815    0.0473   -0.1414    0.0869
          42    0.0304   -0.1200   -0.0322    0.1409    0.0072    0.0785    0.0243   -0.2143
          43    0.0121    0.1511    0.3649    0.3079    0.1487   -0.0649   -0.1309   -0.0592
          44    0.2237   -0.1856   -0.2678   -0.0608    0.0039   -0.0008   -0.0264   -0.0131
          45   -0.0315    0.1097    0.0873   -0.0093   -0.0534    0.0631    0.0845    0.0167
          46   -0.0289    0.0115   -0.5008    0.0163    0.1400    0.0011   -0.1445   -0.0930
          47    0.1694   -0.1242   -0.1927   -0.0575    0.0087    0.0096   -0.0291   -0.0213
          48    0.1805   -0.1301   -0.2060   -0.0184   -0.0704    0.0255    0.0981    0.0469
          49   -0.0127    0.0531   -0.0434    0.0958    0.0858   -0.0500   -0.0836   -0.0253
          50    0.1577    0.0144    0.5549    0.1316   -0.0156   -0.0453    0.0072    0.0278
          51    0.0761    0.1045    0.0788    0.2046    0.0791    0.0803   -0.0298   -0.0848
          52    0.1270    0.1620   -0.0461    0.0569   -0.1598   -0.0896    0.0662   -0.1195
          53    0.1300    0.0090    0.0210   -0.0992    0.3105   -0.0711    0.1504    0.0237
          54    0.0323    0.0983   -0.0351    0.0496   -0.0140   -0.1033    0.0339   -0.0392
          55    0.1291    0.1238    0.0354   -0.1319    0.1057   -0.0696    0.1230   -0.0987
          56    0.0782    0.0311    0.0262   -0.0748    0.0901   -0.0784    0.0226   -0.0422
          57   -0.0306    0.1257   -0.0303    0.0831   -0.2846   -0.1167   -0.1263   -0.1181


   Root No.       9        10        11        12        13        14        15        16

                 9 A      10 A      11 A      12 A      13 A      14 A      15 A      16 A   

                 624.6     700.3     825.6     869.6     884.7     901.0     966.0     982.5
  
           1   -0.0030   -0.0426    0.0011   -0.1341   -0.0042   -0.0011    0.1129    0.1121
           2    0.0019    0.2738   -0.0330   -0.1250   -0.0291   -0.0257   -0.2949   -0.0865
           3   -0.0005    0.3490    0.0373   -0.1523   -0.0036    0.0130    0.0076    0.1017
           4   -0.0037   -0.2138    0.0799    0.2823    0.0315    0.0115   -0.0147    0.0071
           5    0.0010    0.1184   -0.3330    0.0454   -0.0253   -0.0038   -0.1047    0.0001
           6   -0.0009   -0.0758   -0.0607    0.1334   -0.0063   -0.0039   -0.0541    0.0033
           7    0.0080   -0.0241   -0.1005   -0.2562   -0.3074   -0.1999   -0.0112   -0.1877
           8    0.0051    0.2113    0.2372    0.1206   -0.0188   -0.0735    0.2025    0.0131
           9    0.0032   -0.0828    0.0689    0.0535   -0.2010    0.1583    0.2375    0.0159
          10   -0.0100   -0.0820   -0.0769   -0.2902    0.2566    0.1885    0.1313   -0.1151
          11   -0.0051   -0.1388    0.0164    0.0084    0.2111   -0.1634    0.2039    0.0094
          12   -0.0025    0.3219    0.0648    0.1111    0.0807    0.0473   -0.1443   -0.1936
          13    0.0042   -0.0069    0.0518    0.1817    0.0176    0.0056   -0.1140   -0.1944
          14    0.0001    0.0065   -0.0761    0.0503   -0.0232   -0.0124    0.1081   -0.0214
          15    0.0013   -0.0245   -0.0355   -0.0474    0.0214    0.0131    0.0630   -0.0206
          16    0.0025    0.1632    0.0408    0.1294    0.0112    0.0018   -0.0434    0.0956
          17    0.0029   -0.1740   -0.0463   -0.0337   -0.0310    0.0757   -0.0170    0.0495
          18   -0.0024   -0.2146   -0.0734   -0.0417    0.0178   -0.0647   -0.0926    0.0172
          19    0.0017    0.2580    0.0828    0.1292    0.0133   -0.0029   -0.0375    0.2821
          20   -0.0016   -0.2151   -0.0707   -0.0929   -0.1063    0.3317   -0.0834    0.1001
          21   -0.0001   -0.2625   -0.0883   -0.1123    0.0696   -0.2798   -0.0985    0.1143
          22   -0.0012   -0.0787   -0.0876   -0.0027    0.0001   -0.0010   -0.0570    0.1765
          23    0.0014    0.0742    0.0462   -0.0253   -0.1870    0.0073   -0.1345   -0.1171
          24   -0.0007    0.1332    0.0114   -0.0580    0.1475   -0.0078    0.0862    0.0381
          25    0.0002    0.0555   -0.1491    0.0900    0.0094    0.0063   -0.2503    0.1083
          26   -0.0032   -0.0787    0.2977   -0.1144    0.0035   -0.0015   -0.0237   -0.0005
          27    0.0024    0.0219   -0.2864    0.1455   -0.0112   -0.0022    0.1019   -0.0500
          28   -0.0035   -0.1775    0.2238    0.0882    0.0010   -0.0012    0.3280    0.0632
          29   -0.0012   -0.0451    0.1228   -0.0336   -0.0011   -0.0024    0.0358    0.0011
          30   -0.0018   -0.1284    0.3994   -0.1080    0.0289    0.0022   -0.1693   -0.0528
          31    0.1056   -0.0192   -0.0993   -0.1567    0.1395   -0.0300   -0.1689    0.0013
          32    0.1072   -0.0217    0.0167    0.2864    0.3370    0.1002   -0.0597    0.1320
          33   -0.0626   -0.0355    0.0679    0.1465   -0.1724    0.0506    0.1903   -0.0087
          34    0.0469   -0.0914   -0.1330    0.0236    0.0749   -0.0458   -0.1507   -0.0200
          35   -0.0308    0.1299    0.1501   -0.0434   -0.1301   -0.0289    0.1687   -0.0235
          36    0.1522   -0.0526    0.0104    0.1176    0.3226    0.2083    0.0195    0.1904
          37   -0.0446   -0.1417   -0.0484    0.0297   -0.0768    0.0500   -0.1160   -0.0673
          38   -0.1580   -0.0975    0.0436    0.1817   -0.3147   -0.2022    0.0346    0.2626
          39    0.0030    0.1819    0.0484   -0.0299    0.0769   -0.0122    0.0809    0.0220
          40   -0.1090   -0.0634   -0.0390   -0.1255   -0.1762    0.0194   -0.0405    0.1320
          41    0.0787   -0.0157    0.0192    0.0534    0.2475   -0.0245    0.1163   -0.1285
          42   -0.0910   -0.0118    0.0554    0.3507   -0.2457   -0.0904   -0.1648   -0.0159
          43    0.0005    0.0597    0.0868   -0.1391   -0.0093   -0.0047   -0.0269    0.1456
          44    0.0003   -0.0287    0.2030   -0.0869    0.0152    0.0029   -0.1283    0.0338
          45    0.0003   -0.0040   -0.2396    0.1533   -0.0072    0.0005    0.1588   -0.1229
          46    0.0036    0.0794   -0.1222   -0.0511   -0.0357   -0.0141    0.1480    0.1180
          47    0.0005   -0.0033    0.0560   -0.0402   -0.0015   -0.0023   -0.0122    0.0304
          48   -0.0001   -0.0945    0.3308   -0.0735    0.0585    0.0228   -0.2617   -0.0558
          49    0.0012   -0.0010    0.0150    0.0520    0.0047    0.0015   -0.0316   -0.0530
          50   -0.0025   -0.0451    0.1417    0.0234    0.0228    0.0056   -0.1359   -0.0746
          51    0.0018    0.1199   -0.0300   -0.3178   -0.0327   -0.0113    0.1660    0.3349
          52    0.5347    0.0954    0.0533    0.0319   -0.2218    0.2562    0.1452   -0.2940
          53    0.2567   -0.0952   -0.0151   -0.0584    0.0518   -0.4135    0.0491   -0.1663
          54    0.3080   -0.0867   -0.0149   -0.0517   -0.0290   -0.2034    0.0579   -0.1919
          55   -0.5332    0.1047    0.0268    0.0139    0.2261   -0.2484    0.1403   -0.3093
          56   -0.2637   -0.0565   -0.0271   -0.0499    0.0345    0.1155    0.0400   -0.1713
          57   -0.3049   -0.0806   -0.0528   -0.0829   -0.0624    0.4460    0.0155   -0.2189


   Root No.      17        18        19        20        21        22        23        24

                17 A      18 A      19 A      20 A      21 A      22 A      23 A      24 A   

                 991.1     995.9    1004.7    1060.2    1069.7    1120.9    1124.5    1143.5
  
           1    0.1297    0.1000    0.0311    0.0339    0.0247    0.0327    0.0008   -0.1206
           2    0.0588    0.0500    0.0622    0.1705    0.0213   -0.1538   -0.0347    0.0036
[...]
 RED. MASS   0.7060         C  1 -- C  3          +8.6% ( 42.5%)     29.6%
 EFF. MASS   6.0070

 VIBRATION   30   30A         ATOM PAIR      ENERGY CONTRIBUTION    RADIAL
 FREQ.      1297.74         C  4 -- C  6         +13.9% ( 56.7%)     87.0%
 T-DIPOLE    0.0676         C  3 -- C  6         +11.7% ( 51.9%)     69.2%
 TRAVEL      0.0819         C  1 -- C  6         +10.2% ( 48.5%)     53.7%
 RED. MASS   1.2985         C  1 -- C  4          +8.1% ( 43.3%)      0.3%
 EFF. MASS   7.7533

 VIBRATION   31   31A         ATOM PAIR      ENERGY CONTRIBUTION    RADIAL
 FREQ.      1324.50         C  7 -- H 19         +26.1% ( 60.2%)      2.4%
 T-DIPOLE    0.0784         C  7 -- H 18         +26.1% ( 60.1%)      2.4%
 TRAVEL      0.1272         C  4 -- C  6          +8.5% ( 34.3%)     62.0%
 RED. MASS   0.4044         C  3 -- C  6          +8.3% ( 34.0%)     60.3%
 EFF. MASS   3.1446

 VIBRATION   32   32A         ATOM PAIR      ENERGY CONTRIBUTION    RADIAL
 FREQ.      1373.82         C  5 -- H 16         +10.7% ( 39.1%)      4.2%
 T-DIPOLE    0.0141         C  5 -- H 15         +10.5% ( 38.7%)      2.4%
 TRAVEL      0.1182         C  5 -- H 17         +10.4% ( 38.4%)      1.2%
 RED. MASS   0.3891         C  1 -- C  2         +10.3% ( 38.4%)     67.9%
 EFF. MASS   3.5130

 VIBRATION   33   33A         ATOM PAIR      ENERGY CONTRIBUTION    RADIAL
 FREQ.      1394.42         C  4 -- H 14         +17.2% ( 47.5%)      4.4%
 T-DIPOLE    0.0783         C  4 -- H 13         +17.2% ( 47.5%)      4.6%
 TRAVEL      0.1243         C  3 -- H 12         +14.1% ( 43.0%)      4.1%
 RED. MASS   0.3367         C  3 -- H 11         +12.9% ( 41.2%)      5.3%
 EFF. MASS   3.1301

 VIBRATION   34   34A         ATOM PAIR      ENERGY CONTRIBUTION    RADIAL
 FREQ.      1406.77         C  5 -- H 17         +48.1% ( 60.2%)      0.5%
 T-DIPOLE    0.0395         C  5 -- H 16         +32.3% ( 49.3%)      4.2%
 TRAVEL      0.1743         C  5 -- H 15         +11.5% ( 29.4%)     32.6%
 RED. MASS   0.4019         C  2 -- C  5          +5.1% ( 19.6%)      5.4%
 EFF. MASS   1.5782

 VIBRATION   35   35A         ATOM PAIR      ENERGY CONTRIBUTION    RADIAL
 FREQ.      1410.65         C  5 -- H 15         +21.5% ( 46.7%)      0.1%
 T-DIPOLE    0.0429         C  5 -- H 16         +11.0% ( 33.4%)      5.9%
 TRAVEL      0.1412         C  5 -- H 17          +7.7% ( 27.9%)     14.8%
 RED. MASS   0.1932         C  3 -- H 11          +7.5% ( 27.5%)      3.6%
 EFF. MASS   2.3990

 VIBRATION   36   36A         ATOM PAIR      ENERGY CONTRIBUTION    RADIAL
 FREQ.      1412.37         C  5 -- H 15         +14.2% ( 40.2%)      0.2%
 T-DIPOLE    0.0330         C  5 -- H 16          +9.8% ( 33.3%)      2.1%
 TRAVEL      0.1291         C  3 -- H 11          +8.5% ( 31.0%)      3.9%
 RED. MASS   0.1839         C  2 -- H  9          +8.2% ( 30.6%)      3.3%
 EFF. MASS   2.8632

 VIBRATION   37   37A         ATOM PAIR      ENERGY CONTRIBUTION    RADIAL
 FREQ.      1419.49         C  2 -- H  9         +12.8% ( 43.8%)      5.2%
 T-DIPOLE    0.0298         C  2 -- H 10         +11.7% ( 41.8%)      7.1%
 TRAVEL      0.1050         C  1 -- C  2          +9.2% ( 37.1%)     80.4%
 RED. MASS   0.3477         C  2 -- C  5          +8.2% ( 35.0%)     62.6%
 EFF. MASS   4.3069

 VIBRATION   38   38A         ATOM PAIR      ENERGY CONTRIBUTION    RADIAL
 FREQ.      1435.57         C  1 -- C  2         +16.1% ( 60.9%)     75.9%
 T-DIPOLE    0.0187         C  2 -- C  5         +14.3% ( 57.3%)     88.6%
 TRAVEL      0.0772         C  2 -- H  9          +8.9% ( 45.1%)      0.2%
 RED. MASS   1.5427         C  2 -- H 10          +8.4% ( 44.0%)      0.0%
 EFF. MASS   7.8808

 VIBRATION   39   39A         ATOM PAIR      ENERGY CONTRIBUTION    RADIAL
 FREQ.      1966.77         C  6 -- C  7         +36.3% ( 97.9%)    100.0%
 T-DIPOLE    0.3237         C  3 -- C  6         +16.5% ( 66.0%)     56.7%
 TRAVEL      0.0537         C  4 -- C  6         +16.5% ( 66.0%)     56.6%
 RED. MASS   5.8398         C  1 -- C  6         +16.1% ( 65.2%)     99.9%
 EFF. MASS  11.9041

 VIBRATION   40   40A         ATOM PAIR      ENERGY CONTRIBUTION    RADIAL
 FREQ.      2949.73         C  2 -- H  9         +42.4% ( 67.6%)     96.8%
 T-DIPOLE    0.0328         C  2 -- H 10         +37.5% ( 63.5%)     96.0%
 TRAVEL      0.1221         C  1 -- H  8         +16.9% ( 42.7%)    100.0%
 RED. MASS   0.3763         C  1 -- C  2          +1.2% ( 11.5%)      1.5%
 EFF. MASS   1.5326

 VIBRATION   41   41A         ATOM PAIR      ENERGY CONTRIBUTION    RADIAL
 FREQ.      2961.19         C  1 -- H  8         +77.0% ( 89.8%)    100.0%
 T-DIPOLE    0.0809         C  2 -- H  9          +9.1% ( 30.9%)     96.8%
 TRAVEL      0.1249         C  2 -- H 10          +9.1% ( 30.9%)     96.6%
 RED. MASS   0.6245         C  1 -- C  2          +1.0% ( 10.1%)     22.3%
 EFF. MASS   1.4599

 VIBRATION   42   42A         ATOM PAIR      ENERGY CONTRIBUTION    RADIAL
 FREQ.      3027.99         C  3 -- H 12         +43.7% ( 68.7%)     97.8%
 T-DIPOLE    0.0428         C  3 -- H 11         +30.0% ( 56.9%)     95.7%
 TRAVEL      0.1209         C  4 -- H 13         +11.9% ( 35.9%)     97.7%
 RED. MASS   0.3327         C  4 -- H 14          +8.8% ( 30.8%)     96.0%
 EFF. MASS   1.5239

 VIBRATION   43   43A         ATOM PAIR      ENERGY CONTRIBUTION    RADIAL
 FREQ.      3030.90         C  4 -- H 13         +41.7% ( 66.9%)     97.7%
 T-DIPOLE    0.1101         C  4 -- H 14         +30.1% ( 56.8%)     95.8%
 TRAVEL      0.1212         C  3 -- H 12          +9.0% ( 31.1%)     97.9%
 RED. MASS   0.3047         C  3 -- H 11          +6.0% ( 25.3%)     95.4%
 EFF. MASS   1.5148

 VIBRATION   44   44A         ATOM PAIR      ENERGY CONTRIBUTION    RADIAL
 FREQ.      3031.82         C  2 -- H 10         +44.7% ( 66.4%)     98.1%
 T-DIPOLE    0.0267         C  2 -- H  9         +39.5% ( 62.4%)     97.3%
 TRAVEL      0.1303         C  3 -- H 12          +4.9% ( 21.9%)     97.4%
 RED. MASS   0.3690         C  3 -- H 11          +3.8% ( 19.2%)     96.0%
 EFF. MASS   1.3107

 VIBRATION   45   45A         ATOM PAIR      ENERGY CONTRIBUTION    RADIAL
 FREQ.      3076.97         C  5 -- H 16         +57.1% ( 77.9%)     98.0%
 T-DIPOLE    0.0091         C  5 -- H 15         +39.7% ( 65.0%)     95.5%
 TRAVEL      0.1208         C  5 -- H 17          +1.8% ( 13.8%)     19.7%
 RED. MASS   0.5112         C  2 -- C  5          +1.0% ( 10.2%)      0.0%
 EFF. MASS   1.5010

 VIBRATION   46   46A         ATOM PAIR      ENERGY CONTRIBUTION    RADIAL
 FREQ.      3084.65         C  5 -- H 17         +59.9% ( 79.8%)     98.6%
 T-DIPOLE    0.0040         C  5 -- H 15         +26.9% ( 53.5%)     91.1%
 TRAVEL      0.1206         C  5 -- H 16         +11.6% ( 35.1%)     76.7%
 RED. MASS   0.4737         C  2 -- C  5          +1.0% ( 10.3%)      0.0%
 EFF. MASS   1.5034

 VIBRATION   47   47A         ATOM PAIR      ENERGY CONTRIBUTION    RADIAL
 FREQ.      3091.55         C  3 -- H 11         +36.3% ( 59.8%)     98.3%
 T-DIPOLE    0.1528         C  3 -- H 12         +24.3% ( 48.9%)     95.7%
 TRAVEL      0.1313         C  4 -- H 14         +21.8% ( 46.3%)     98.2%
 RED. MASS   0.2626         C  4 -- H 13         +15.5% ( 39.1%)     96.0%
 EFF. MASS   1.2659

 VIBRATION   48   48A         ATOM PAIR      ENERGY CONTRIBUTION    RADIAL
 FREQ.      3094.65         C  4 -- H 14         +35.3% ( 59.1%)     97.9%
 T-DIPOLE    0.0243         C  4 -- H 13         +25.1% ( 49.8%)     95.6%
 TRAVEL      0.1290         C  3 -- H 11         +22.2% ( 46.8%)     98.0%
 RED. MASS   0.2626         C  3 -- H 12         +14.9% ( 38.4%)     95.2%
 EFF. MASS   1.3088

 VIBRATION   49   49A         ATOM PAIR      ENERGY CONTRIBUTION    RADIAL
 FREQ.      3142.61         C  7 -- H 18         +51.6% ( 71.9%)     95.6%
 T-DIPOLE    0.3117         C  7 -- H 19         +46.7% ( 68.4%)     94.7%
 TRAVEL      0.1239         C  6 -- C  7          +1.6% ( 12.7%)     99.9%
 RED. MASS   0.4871
 EFF. MASS   1.3970

 VIBRATION   50   50A         ATOM PAIR      ENERGY CONTRIBUTION    RADIAL
 FREQ.      3146.43         C  7 -- H 19         +51.7% ( 73.7%)     97.3%
 T-DIPOLE    0.2012         C  7 -- H 18         +47.0% ( 70.2%)     96.7%
 TRAVEL      0.1156         C  6 -- C  7          +1.3% ( 11.6%)      0.0%
 RED. MASS   0.5358
 EFF. MASS   1.6042

 VIBRATION   51   51A         ATOM PAIR      ENERGY CONTRIBUTION    RADIAL
 FREQ.      3179.87         C  5 -- H 17         +37.6% ( 59.0%)     97.7%
 T-DIPOLE    0.0170         C  5 -- H 15         +32.4% ( 54.7%)     96.9%
 TRAVEL      0.1366         C  5 -- H 16         +29.7% ( 52.5%)     96.5%
 RED. MASS   0.3296         C  2 -- C  5          +0.3% (  5.1%)     99.2%
 EFF. MASS   1.1369

      SYMMETRY NUMBER FOR POINT-GROUP C1  =  1


          SYSTEM IS A GROUND STATE



 InChI=1S/C7H12/c1-3-7-4-6(2)5-7/h7H,2-5H2,1H3


          MOLECULE IS NOT LINEAR

          THERE ARE 51 GENUINE VIBRATIONS IN THIS SYSTEM
          THIS THERMODYNAMICS CALCULATION IS LIMITED TO
          MOLECULES WHICH HAVE NO INTERNAL ROTATIONS




                    CALCULATED THERMODYNAMIC PROPERTIES
                                          *
   TEMP. (K)   PARTITION FUNCTION   H.O.F.    ENTHALPY  HEAT CAPACITY ENTROPY
                                   KCAL/MOL   CAL/MOLE    CAL/K/MOL  CAL/K/MOL


 298.00  VIB.     0.3998D+02                  2961.2790    22.6256    17.2668
         ROT.     0.2343D+06                   888.2813     2.9808    27.5511
         INT.     0.9366D+07                  3849.5603    25.6064    44.8179
         TRA.     0.9118D+27                  1480.4688     4.9680    39.5994
         TOT.                        7.518    5330.0291    30.5744    84.4173

 200.00  VIB.     0.8306D+01                  1216.9187    13.3382    10.2916
         ROT.     0.1288D+06                   596.1620     2.9808    26.3625
         INT.     0.1070D+07                  1813.0806    16.3190    36.6540
         TRA.     0.5013D+27                   993.6033     4.9680    37.6183
         TOT.                        4.995    2806.6839    21.2870    74.2723

 210.00  VIB.     0.9688D+01                  1354.4505    14.1732    10.9624
         ROT.     0.1386D+06                   625.9700     2.9808    26.5079
         INT.     0.1343D+07                  1980.4205    17.1540    37.4703
         TRA.     0.5394D+27                  1043.2834     4.9680    37.8607
         TOT.                        5.212    3023.7040    22.1220    75.3310

 220.00  VIB.     0.1132D+02                  1500.4821    15.0381    11.6416
         ROT.     0.1486D+06                   655.7781     2.9808    26.6466
         INT.     0.1681D+07                  2156.2602    18.0189    38.2882
         TRA.     0.5784D+27                  1092.9636     4.9680    38.0918
         TOT.                        5.438    3249.2238    22.9869    76.3800

 230.00  VIB.     0.1324D+02                  1655.3103    15.9323    12.3297
         ROT.     0.1589D+06                   685.5862     2.9808    26.7791
         INT.     0.2102D+07                  2340.8966    18.9131    39.1088
         TRA.     0.6182D+27                  1142.6437     4.9680    38.3126
         TOT.                        5.672    3483.5403    23.8812    77.4214

 240.00  VIB.     0.1550D+02                  1819.2221    16.8545    13.0272
         ROT.     0.1693D+06                   715.3943     2.9808    26.9059
         INT.     0.2625D+07                  2534.6164    19.8353    39.9331
         TRA.     0.6590D+27                  1192.3239     4.9680    38.5241
         TOT.                        5.915    3726.9403    24.8033    78.4572

 250.00  VIB.     0.1819D+02                  1992.4868    17.8026    13.7343
         ROT.     0.1800D+06                   745.2024     2.9808    27.0276
         INT.     0.3274D+07                  2737.6893    20.7834    40.7620
         TRA.     0.7006D+27                  1242.0041     4.9680    38.7269
         TOT.                        6.168    3979.6933    25.7514    79.4888

 260.00  VIB.     0.2137D+02                  2175.3513    18.7740    14.4514
         ROT.     0.1909D+06                   775.0105     2.9808    27.1445
         INT.     0.4080D+07                  2950.3618    21.7548    41.5959
         TRA.     0.7431D+27                  1291.6842     4.9680    38.9217
         TOT.                        6.430    4242.0460    26.7228    80.5177

 270.00  VIB.     0.2514D+02                  2368.0349    19.7659    15.1785
         ROT.     0.2020D+06                   804.8186     2.9808    27.2570
         INT.     0.5080D+07                  3172.8535    22.7467    42.4355
         TRA.     0.7864D+27                  1341.3644     4.9680    39.1092
         TOT.                        6.703    4514.2179    27.7147    81.5447

 280.00  VIB.     0.2963D+02                  2570.7271    20.7752    15.9155
         ROT.     0.2134D+06                   834.6267     2.9808    27.3654
         INT.     0.6323D+07                  3405.3538    23.7560    43.2810
         TRA.     0.8304D+27                  1391.0445     4.9680    39.2899
         TOT.                        6.985    4796.3984    28.7240    82.5708

 290.00  VIB.     0.3498D+02                  2783.5860    21.7987    16.6624
         ROT.     0.2249D+06                   864.4348     2.9808    27.4700
         INT.     0.7866D+07                  3648.0209    24.7795    44.1324
         TRA.     0.8753D+27                  1440.7247     4.9680    39.4642
         TOT.                        7.277    5088.7456    29.7475    83.5966

 300.00  VIB.     0.4135D+02                  3006.7377    22.8332    17.4188
         ROT.     0.2366D+06                   894.2429     2.9808    27.5711
         INT.     0.9784D+07                  3900.9806    25.8140    44.9899
         TRA.     0.9210D+27                  1490.4049     4.9680    39.6326
         TOT.                        7.580    5391.3855    30.7820    84.6225

 310.00  VIB.     0.4895D+02                  3240.2763    23.8756    18.1845
         ROT.     0.2486D+06                   924.0510     2.9808    27.6688
         INT.     0.1217D+08                  4164.3273    26.8564    45.8533
         TRA.     0.9674D+27                  1540.0850     4.9680    39.7955
         TOT.                        7.893    5704.4123    31.8244    85.6488

 320.00  VIB.     0.5805D+02                  3484.2653    24.9228    18.9590
         ROT.     0.2607D+06                   953.8591     2.9808    27.7635
         INT.     0.1513D+08                  4438.1244    27.9036    46.7225
         TRA.     0.1015D+28                  1589.7652     4.9680    39.9533
         TOT.                        8.216    6027.8896    32.8716    86.6757

 330.00  VIB.     0.6895D+02                  3738.7390    25.9720    19.7420
         ROT.     0.2730D+06                   983.6672     2.9808    27.8552
         INT.     0.1882D+08                  4722.4062    28.9529    47.5972
         TRA.     0.1063D+28                  1639.4454     4.9680    40.1062
         TOT.                        8.550    6361.8515    33.9209    87.7033

 340.00  VIB.     0.8201D+02                  4003.7042    27.0207    20.5329
         ROT.     0.2855D+06                  1013.4753     2.9808    27.9442
         INT.     0.2341D+08                  5017.1795    30.0015    48.4771
         TRA.     0.1111D+28                  1689.1255     4.9680    40.2545
         TOT.                        8.895    6706.3050    34.9695    88.7315

 350.00  VIB.     0.9770D+02                  4279.1426    28.0663    21.3313
         ROT.     0.2982D+06                  1043.2834     2.9808    28.0306
         INT.     0.2913D+08                  5322.4260    31.0471    49.3618
         TRA.     0.1161D+28                  1738.8057     4.9680    40.3985
         TOT.                        9.250    7061.2317    36.0151    89.7603

 360.00  VIB.     0.1166D+03                  4565.0127    29.1067    22.1365
         ROT.     0.3111D+06                  1073.0915     2.9808    28.1145
         INT.     0.3626D+08                  5638.1042    32.0875    50.2511
         TRA.     0.1211D+28                  1788.4859     4.9680    40.5384
         TOT.                        9.615    7426.5901    37.0555    90.7895

 370.00  VIB.     0.1393D+03                  4861.2526    30.1399    22.9481
         ROT.     0.3241D+06                  1102.8996     2.9808    28.1962
         INT.     0.4514D+08                  5964.1522    33.1207    51.1443
         TRA.     0.1261D+28                  1838.1660     4.9680    40.6745
         TOT.                        9.991    7802.3182    38.0888    91.8189

 380.00  VIB.     0.1666D+03                  5167.7819    31.1643    23.7655
         ROT.     0.3373D+06                  1132.7077     2.9808    28.2757
         INT.     0.5621D+08                  6300.4896    34.1451    52.0412
         TRA.     0.1313D+28                  1887.8462     4.9680    40.8070
         TOT.                       10.377    8188.3357    39.1131    92.8483

 390.00  VIB.     0.1996D+03                  5484.5041    32.1783    24.5882
         ROT.     0.3508D+06                  1162.5158     2.9808    28.3531
         INT.     0.7003D+08                  6647.0199    35.1591    52.9413
         TRA.     0.1365D+28                  1937.5263     4.9680    40.9361
         TOT.                       10.773    8584.5463    40.1271    93.8774

 400.00  VIB.     0.2395D+03                  5811.3091    33.1807    25.4155
         ROT.     0.3643D+06                  1192.3239     2.9808    28.4286
         INT.     0.8727D+08                  7003.6330    36.1615    53.8441
         TRA.     0.1418D+28                  1987.2065     4.9680    41.0619
         TOT.                       11.179    8990.8395    41.1295    94.9060

   *: NOTE: HEATS OF FORMATION ARE RELATIVE TO THE
            ELEMENTS IN THEIR STANDARD STATE AT 298K
              (=  Standard Enthalpy of Formation).

            Hvib:  Zero-point energy is not included.
                   frequencies of less than zero cm-1 are not included.
            Hrot = (3/2)RT
            Htra = (3/2)RT + pV = (5/2)RT

            Heat capacity is Cp, not Cv

          For more information, see: HTTP://OpenMOPAC.net/Manual/thermochemistry.html


           FORCE CONSTANT IN CARTESIAN COORDINATES (Millidynes/A)

    ATOM   CHEMICAL       X               Y               Z
   NUMBER   SYMBOL  FORCE CONSTANT  FORCE CONSTANT  FORCE CONSTANT

      1       C        9.074065        7.284564        8.108924
      2       C        8.371122        8.289461        8.478858
      3       C        7.630523        8.454046        8.601368
      4       C        7.647321        9.223926        7.842218
      5       C        8.459736        8.190038        8.239996
      6       C        8.438025        9.191020       10.395077
      7       C        7.055814        9.590773       10.042066
      8       H        1.244506        2.175426        2.863355
      9       H        1.206545        2.563506        2.625181
     10       H        1.123806        4.233956        1.018304
     11       H        2.635717        0.797303        3.111373
     12       H        2.520049        3.349563        0.653685
     13       H        2.594680        0.720236        3.211533
     14       H        2.553640        3.295581        0.697827
     15       H        1.126536        2.761877        2.894910
     16       H        1.116030        4.555319        1.085513
     17       H        5.397743        0.669596        0.726637
     18       H        0.926902        1.324185        4.181888
     19       H        0.987797        4.645190        0.800200

 **********************
 *                    *
 * JOB ENDED NORMALLY *
 *                    *
 **********************



 TOTAL JOB TIME:             5.87 SECONDS

 == MOPAC DONE ==
