 *******************************************************************************
 ** Site#: 14399        For non-commercial use only    Version 18.184L 64BITS **
 *******************************************************************************
 ** Cite this program as: MOPAC2016, Version: 18.184L, James J. P. Stewart,   **
 ** Stewart Computational Chemistry, web: HTTP://OpenMOPAC.net. Days left:  20**
 *******************************************************************************
 **                                                                           **
 **                                MOPAC2016                                  **
 **                                                                           **
 *******************************************************************************

                              PM3 CALCULATION RESULTS

 *******************************************************************************
 *  CALCULATION DONE:                                Thu Jun 13 16:06:02 2019  *
 *  PM3        - The PM3 Hamiltonian to be used
 *  PRECISE    - CRITERIA TO BE INCREASED BY 100 TIMES
 *  NOSYM      - POINT-GROUP SYMMETRY SET TO C1
 *  THREADS=1  - MULTI-THREADING NOT USED
 *  T=         - A TIME OF 172800.0 SECONDS REQUESTED
 *  DUMP=N     - RESTART FILE WRITTEN EVERY  7200.000 SECONDS
 *******************************************************************************
pm3  precise nosym THREADS=1
 InChI=1S/C7H8/c1-2-4-7-5-6(7)3-1/h1,3-4,6H,2,5H2

   ATOM   CHEMICAL          X               Y               Z
  NUMBER   SYMBOL      (ANGSTROMS)     (ANGSTROMS)     (ANGSTROMS)
 
     1       C          1.30840000  *   0.21980000  *   0.52000000  *
     2       C          1.77610000  *  -0.49170000  *  -0.60990000  *
     3       C         -1.67730000  *  -0.20560000  *  -0.01300000  *
     4       C          0.55580000  *  -1.04520000  *   0.13910000  *
     5       C          0.33130000  *   1.35980000  *   0.29670000  *
     6       C         -0.71330000  *  -1.37120000  *   0.00910000  *
     7       C         -1.00160000  *   1.17180000  *   0.08630000  *
     8       H          1.83290000  *   0.11330000  *   1.49250000  *
     9       H          2.67890000  *  -1.11780000  *  -0.45310000  *
    10       H          1.51080000  *  -0.09030000  *  -1.61160000  *
    11       H         -2.39220000  *  -0.31430000  *   0.82910000  *
    12       H         -2.25070000  *  -0.24720000  *  -0.96250000  *
    13       H          0.71260000  *   2.37380000  *   0.35950000  *
    14       H         -1.03810000  *  -2.40350000  *  -0.06150000  *
    15       H         -1.63360000  *   2.04800000  *  -0.02080000  *
 


          CARTESIAN COORDINATES 

    NO.       ATOM           X           Y           Z

     1         C          1.3084      0.2198      0.5200
     2         C          1.7761     -0.4917     -0.6099
     3         C         -1.6773     -0.2056     -0.0130
     4         C          0.5558     -1.0452      0.1391
     5         C          0.3313      1.3598      0.2967
     6         C         -0.7133     -1.3712      0.0091
     7         C         -1.0016      1.1718      0.0863
     8         H          1.8329      0.1133      1.4925
     9         H          2.6789     -1.1178     -0.4531
    10         H          1.5108     -0.0903     -1.6116
    11         H         -2.3922     -0.3143      0.8291
    12         H         -2.2507     -0.2472     -0.9625
    13         H          0.7126      2.3738      0.3595
    14         H         -1.0381     -2.4035     -0.0615
    15         H         -1.6336      2.0480     -0.0208

  H: (PM3): J. J. P. STEWART, J. COMP. CHEM. 10, 209 (1989).
  C: (PM3): J. J. P. STEWART, J. COMP. CHEM. 10, 209 (1989).

           Empirical Formula: C7 H8  =    15 atoms



      MOLECULAR POINT GROUP   :   C1  


      RHF CALCULATION, NO. OF DOUBLY OCCUPIED LEVELS = 18


          Geometry optimization using EF

          DIAGONAL MATRIX USED AS START HESSIAN

 CYCLE:     1 TIME:   0.016 TIME LEFT:  2.00D  GRAD.:   197.514 HEAT:  106.0453
 CYCLE:     2 TIME:   0.035 TIME LEFT:  2.00D  GRAD.:   176.663 HEAT:  100.7143
 CYCLE:     3 TIME:   0.027 TIME LEFT:  2.00D  GRAD.:    99.553 HEAT:  92.68699
 CYCLE:     4 TIME:   0.023 TIME LEFT:  2.00D  GRAD.:   113.693 HEAT:  90.96202
 CYCLE:     5 TIME:   0.016 TIME LEFT:  2.00D  GRAD.:    77.677 HEAT:  89.01864
 CYCLE:     6 TIME:   0.023 TIME LEFT:  2.00D  GRAD.:    70.772 HEAT:  87.26176
 CYCLE:     7 TIME:   0.023 TIME LEFT:  2.00D  GRAD.:    50.571 HEAT:  85.01923
 CYCLE:     8 TIME:   0.027 TIME LEFT:  2.00D  GRAD.:    63.112 HEAT:  84.24301
 CYCLE:     9 TIME:   0.020 TIME LEFT:  2.00D  GRAD.:    54.705 HEAT:  83.37762
 CYCLE:    10 TIME:   0.027 TIME LEFT:  2.00D  GRAD.:    52.493 HEAT:  82.73887
 CYCLE:    11 TIME:   0.020 TIME LEFT:  2.00D  GRAD.:    29.563 HEAT:  82.07219
 CYCLE:    12 TIME:   0.020 TIME LEFT:  2.00D  GRAD.:    26.506 HEAT:  81.48651
 CYCLE:    13 TIME:   0.023 TIME LEFT:  2.00D  GRAD.:    49.824 HEAT:  81.18113
 CYCLE:    14 TIME:   0.023 TIME LEFT:  2.00D  GRAD.:    47.008 HEAT:  80.39762
 CYCLE:    15 TIME:   0.023 TIME LEFT:  2.00D  GRAD.:    61.279 HEAT:  80.06768
 CYCLE:    16 TIME:   0.023 TIME LEFT:  2.00D  GRAD.:    37.644 HEAT:  79.07499
 CYCLE:    17 TIME:   0.027 TIME LEFT:  2.00D  GRAD.:    40.539 HEAT:  78.73010
 CYCLE:    18 TIME:   0.016 TIME LEFT:  2.00D  GRAD.:    37.392 HEAT:  78.41966
 CYCLE:    19 TIME:   0.023 TIME LEFT:  2.00D  GRAD.:    22.812 HEAT:  77.93216
 CYCLE:    20 TIME:   0.023 TIME LEFT:  2.00D  GRAD.:    19.223 HEAT:  77.57854
 CYCLE:    21 TIME:   0.023 TIME LEFT:  2.00D  GRAD.:    20.913 HEAT:  77.21449
 CYCLE:    22 TIME:   0.023 TIME LEFT:  2.00D  GRAD.:    18.601 HEAT:  76.87218
 CYCLE:    23 TIME:   0.023 TIME LEFT:  2.00D  GRAD.:    16.271 HEAT:  76.57218
 CYCLE:    24 TIME:   0.023 TIME LEFT:  2.00D  GRAD.:    15.744 HEAT:  76.24177
 CYCLE:    25 TIME:   0.020 TIME LEFT:  2.00D  GRAD.:    18.325 HEAT:  76.03817
 CYCLE:    26 TIME:   0.023 TIME LEFT:  2.00D  GRAD.:    13.826 HEAT:  75.82996
 CYCLE:    27 TIME:   0.023 TIME LEFT:  2.00D  GRAD.:     9.228 HEAT:  75.67275
 CYCLE:    28 TIME:   0.023 TIME LEFT:  2.00D  GRAD.:    12.346 HEAT:  75.51003
 CYCLE:    29 TIME:   0.023 TIME LEFT:  2.00D  GRAD.:    11.159 HEAT:  75.38652
 CYCLE:    30 TIME:   0.023 TIME LEFT:  2.00D  GRAD.:     7.884 HEAT:  75.28196
 CYCLE:    31 TIME:   0.023 TIME LEFT:  2.00D  GRAD.:     6.756 HEAT:  75.17063
 CYCLE:    32 TIME:   0.020 TIME LEFT:  2.00D  GRAD.:     6.497 HEAT:  75.09740
 CYCLE:    33 TIME:   0.023 TIME LEFT:  2.00D  GRAD.:     4.791 HEAT:  75.02777
 CYCLE:    34 TIME:   0.023 TIME LEFT:  2.00D  GRAD.:     4.819 HEAT:  74.98981
 CYCLE:    35 TIME:   0.023 TIME LEFT:  2.00D  GRAD.:     2.561 HEAT:  74.96947
 CYCLE:    36 TIME:   0.023 TIME LEFT:  2.00D  GRAD.:     1.634 HEAT:  74.96178
 CYCLE:    37 TIME:   0.023 TIME LEFT:  2.00D  GRAD.:     1.279 HEAT:  74.95829
 CYCLE:    38 TIME:   0.020 TIME LEFT:  2.00D  GRAD.:     1.164 HEAT:  74.95516
 CYCLE:    39 TIME:   0.023 TIME LEFT:  2.00D  GRAD.:     0.842 HEAT:  74.95328
 CYCLE:    40 TIME:   0.023 TIME LEFT:  2.00D  GRAD.:     0.504 HEAT:  74.95255
 CYCLE:    41 TIME:   0.023 TIME LEFT:  2.00D  GRAD.:     0.349 HEAT:  74.95223
 CYCLE:    42 TIME:   0.023 TIME LEFT:  2.00D  GRAD.:     0.270 HEAT:  74.95201
 CYCLE:    43 TIME:   0.023 TIME LEFT:  2.00D  GRAD.:     0.227 HEAT:  74.95188
 CYCLE:    44 TIME:   0.023 TIME LEFT:  2.00D  GRAD.:     0.214 HEAT:  74.95178
 CYCLE:    45 TIME:   0.020 TIME LEFT:  2.00D  GRAD.:     0.202 HEAT:  74.95168
 CYCLE:    46 TIME:   0.023 TIME LEFT:  2.00D  GRAD.:     0.136 HEAT:  74.95162
 CYCLE:    47 TIME:   0.023 TIME LEFT:  2.00D  GRAD.:     0.086 HEAT:  74.95159
 CYCLE:    48 TIME:   0.023 TIME LEFT:  2.00D  GRAD.:     0.077 HEAT:  74.95157
 CYCLE:    49 TIME:   0.023 TIME LEFT:  2.00D  GRAD.:     0.087 HEAT:  74.95156
 CYCLE:    50 TIME:   0.023 TIME LEFT:  2.00D  GRAD.:     0.050 HEAT:  74.95155
 CYCLE:    51 TIME:   0.023 TIME LEFT:  2.00D  GRAD.:     0.032 HEAT:  74.95155

     GRADIENT =  0.03153  IS LESS THAN CUTOFF =  0.05000



 -------------------------------------------------------------------------------
 pm3  precise nosym THREADS=1
 InChI=1S/C7H8/c1-2-4-7-5-6(7)3-1/h1,3-4,6H,2,5H2



     GEOMETRY OPTIMISED USING EIGENVECTOR FOLLOWING (EF).     
     SCF FIELD WAS ACHIEVED                                   


                              PM3 CALCULATION
                                                       MOPAC2016 (Version: 18.184L)
                                                       Thu Jun 13 16:06:04 2019
                                                       No. of days remaining =  20




          FINAL HEAT OF FORMATION =         74.95155 KCAL/MOL =     313.59728 KJ/MOL


          TOTAL ENERGY            =       -949.89413 EV
          ELECTRONIC ENERGY       =      -4258.92737 EV  POINT GROUP:     C1  
          CORE-CORE REPULSION     =       3309.03324 EV
          COSMO AREA              =        135.02 SQUARE ANGSTROMS
          COSMO VOLUME            =        126.78 CUBIC ANGSTROMS

          GRADIENT NORM           =          0.03153 = 0.00814 PER ATOM
          IONIZATION POTENTIAL    =          9.438221 EV
          HOMO LUMO ENERGIES (EV) =         -9.438  0.704
          NO. OF FILLED LEVELS    =         18
          MOLECULAR WEIGHT        =         92.1402

          MOLECULAR DIMENSIONS (Angstroms)

            Atom       Atom       Distance
            H    15    H     9     5.53547
            H    14    H    13     4.79992
            H    10    H    11     3.18855


          SCF CALCULATIONS        =         57
 
          WALL-CLOCK TIME         =          1.230 SECONDS
          COMPUTATION TIME        =          0.285 SECONDS




   ATOM   CHEMICAL          X               Y               Z
  NUMBER   SYMBOL      (ANGSTROMS)     (ANGSTROMS)     (ANGSTROMS)
 
     1       C          1.14701175  *   0.23343875  *   0.50856065  *
     2       C          1.91108782  *  -0.65948922  *  -0.46509481  *
     3       C         -1.65351792  *  -0.20648394  *   0.25123458  *
     4       C          0.55731124  *  -0.99613531  *  -0.04482854  *
     5       C          0.28007031  *   1.38649263  *   0.17485220  *
     6       C         -0.71843101  *  -1.27140451  *  -0.25101644  *
     7       C         -1.04090212  *   1.16193497  *   0.10353838  *
     8       H          1.52447449  *   0.28227693  *   1.54601285  *
     9       H          2.78079945  *  -1.20806596  *  -0.08505652  *
    10       H          2.07801397  *  -0.36128516  *  -1.50705057  *
    11       H         -1.91324148  *  -0.37825205  *   1.31489060  *
    12       H         -2.60564889  *  -0.25277694  *  -0.31051303  *
    13       H          0.73149083  *   2.37232891  *   0.04039408  *
    14       H         -1.09972804  *  -2.11312185  *  -0.83123901  *
    15       H         -1.74150282  *   1.98411980  *  -0.07438796  *

                             CARTESIAN COORDINATES

   1    C        1.147011748     0.233438750     0.508560646
   2    C        1.911087822    -0.659489220    -0.465094813
   3    C       -1.653517916    -0.206483939     0.251234575
   4    C        0.557311243    -0.996135306    -0.044828539
   5    C        0.280070308     1.386492632     0.174852204
   6    C       -0.718431009    -1.271404506    -0.251016438
   7    C       -1.040902117     1.161934971     0.103538384
   8    H        1.524474492     0.282276930     1.546012848
   9    H        2.780799450    -1.208065957    -0.085056520
  10    H        2.078013967    -0.361285163    -1.507050574
  11    H       -1.913241475    -0.378252053     1.314890603
  12    H       -2.605648888    -0.252776939    -0.310513030
  13    H        0.731490828     2.372328909     0.040394081
  14    H       -1.099728044    -2.113121854    -0.831239012
  15    H       -1.741502818     1.984119802    -0.074387962


           Empirical Formula: C7 H8  =    15 atoms



      MOLECULAR POINT GROUP   :   C1  


                  EIGENVALUES  
 -40.96402 -32.94233 -29.59812 -24.17230 -21.83845 -19.86361 -17.31781 -16.94501
 -16.07070 -15.81028 -14.56819 -13.79516 -13.20874 -12.54935 -12.21675 -10.91513
 -10.04816  -9.43822   0.70378   1.02188   2.75739   2.89255   3.26785   3.34935
   3.63198   3.86955   4.13155   4.32010   4.37573   4.43210   4.61349   4.83402
   5.16550   5.59513   5.88352   6.06496


              NET ATOMIC CHARGES AND DIPOLE CONTRIBUTIONS

  ATOM NO.   TYPE          CHARGE      No. of ELECS.   s-Pop       p-Pop       
    1          C          -0.119464        4.1195     1.16325     2.95622
    2          C          -0.010031        4.0100     1.14642     2.86361
    3          C          -0.025713        4.0257     1.13888     2.88683
    4          C          -0.222096        4.2221     1.20422     3.01787
    5          C          -0.110894        4.1109     1.18682     2.92408
    6          C          -0.061397        4.0614     1.17743     2.88396
    7          C          -0.147485        4.1475     1.20136     2.94613
    8          H           0.111297        0.8887     0.88870
    9          H           0.075090        0.9249     0.92491
   10          H           0.074603        0.9254     0.92540
   11          H           0.065811        0.9342     0.93419
   12          H           0.055302        0.9447     0.94470
   13          H           0.106450        0.8936     0.89355
   14          H           0.109853        0.8901     0.89015
   15          H           0.098675        0.9013     0.90132
 DIPOLE           X         Y         Z       TOTAL
 POINT-CHG.    -0.107     0.237    -0.209     0.333
 HYBRID        -0.068     0.036     0.047     0.091
 SUM           -0.175     0.273    -0.162     0.362


          ATOMIC ORBITAL ELECTRON POPULATIONS

     Atom    s        px        py        pz   
    1  C   1.16325   1.03153   0.93341   0.99127
    2  C   1.14642   0.91022   0.97047   0.98292
    3  C   1.13888   0.96328   0.91860   1.00495
    4  C   1.20422   0.96390   1.01395   1.04003
    5  C   1.18682   0.94463   0.97067   1.00878
    6  C   1.17743   0.92415   0.97455   0.98526
    7  C   1.20136   0.96276   0.97259   1.01078
    8  H   0.88870
    9  H   0.92491
   10  H   0.92540
   11  H   0.93419
   12  H   0.94470
   13  H   0.89355
   14  H   0.89015
   15  H   0.90132
 *******************************************************************************
 ** Site#: 14399        For non-commercial use only    Version 18.184L 64BITS **
 *******************************************************************************
 ** Cite this program as: MOPAC2016, Version: 18.184L, James J. P. Stewart,   **
 ** Stewart Computational Chemistry, web: HTTP://OpenMOPAC.net. Days left:  20**
 *******************************************************************************
 **                                                                           **
 **                                MOPAC2016                                  **
 **                                                                           **
 *******************************************************************************

                              PM3 CALCULATION RESULTS

 *******************************************************************************
 *  CALCULATION DONE:                                Thu Jun 13 16:06:04 2019  *
 *  PM3        - The PM3 Hamiltonian to be used
 *  OLDGEO     - PREVIOUS GEOMETRY TO BE USED
 *  PRECISE    - CRITERIA TO BE INCREASED BY 100 TIMES
 *  NOSYM      - POINT-GROUP SYMMETRY SET TO C1
 *  THREADS=1  - MULTI-THREADING NOT USED
 *  T=         - A TIME OF 172800.0 SECONDS REQUESTED
 *  DUMP=N     - RESTART FILE WRITTEN EVERY  7200.000 SECONDS
 *  THERMO     - THERMODYNAMIC QUANTITIES TO BE CALCULATED
 *******************************************************************************
oldgeo thermo nosym precise THREADS=1  pm3
 InChI=1S/C7H8/c1-2-4-7-5-6(7)3-1/h1,3-4,6H,2,5H2

   ATOM   CHEMICAL          X               Y               Z
  NUMBER   SYMBOL      (ANGSTROMS)     (ANGSTROMS)     (ANGSTROMS)
 
     1       C          1.14701175  *   0.23343875  *   0.50856065  *
     2       C          1.91108782  *  -0.65948922  *  -0.46509481  *
     3       C         -1.65351792  *  -0.20648394  *   0.25123458  *
     4       C          0.55731124  *  -0.99613531  *  -0.04482854  *
     5       C          0.28007031  *   1.38649263  *   0.17485220  *
     6       C         -0.71843101  *  -1.27140451  *  -0.25101644  *
     7       C         -1.04090212  *   1.16193497  *   0.10353838  *
     8       H          1.52447449  *   0.28227693  *   1.54601285  *
     9       H          2.78079945  *  -1.20806596  *  -0.08505652  *
    10       H          2.07801397  *  -0.36128516  *  -1.50705057  *
    11       H         -1.91324148  *  -0.37825205  *   1.31489060  *
    12       H         -2.60564889  *  -0.25277694  *  -0.31051303  *
    13       H          0.73149083  *   2.37232891  *   0.04039408  *
    14       H         -1.09972804  *  -2.11312185  *  -0.83123901  *
    15       H         -1.74150282  *   1.98411980  *  -0.07438796  *
 


          CARTESIAN COORDINATES 

    NO.       ATOM           X           Y           Z

     1         C          1.1470      0.2334      0.5086
     2         C          1.9111     -0.6595     -0.4651
     3         C         -1.6535     -0.2065      0.2512
     4         C          0.5573     -0.9961     -0.0448
     5         C          0.2801      1.3865      0.1749
     6         C         -0.7184     -1.2714     -0.2510
     7         C         -1.0409      1.1619      0.1035
     8         H          1.5245      0.2823      1.5460
     9         H          2.7808     -1.2081     -0.0851
    10         H          2.0780     -0.3613     -1.5071
    11         H         -1.9132     -0.3783      1.3149
    12         H         -2.6056     -0.2528     -0.3105
    13         H          0.7315      2.3723      0.0404
    14         H         -1.0997     -2.1131     -0.8312
    15         H         -1.7415      1.9841     -0.0744

  H: (PM3): J. J. P. STEWART, J. COMP. CHEM. 10, 209 (1989).
  C: (PM3): J. J. P. STEWART, J. COMP. CHEM. 10, 209 (1989).

           Empirical Formula: C7 H8  =    15 atoms



      MOLECULAR POINT GROUP   :   C1  


      RHF CALCULATION, NO. OF DOUBLY OCCUPIED LEVELS = 18



          HEAT OF FORMATION =      74.951549 KCALS/MOLE


          CARTESIAN COORDINATE DERIVATIVES

   NUMBER  ATOM         X            Y            Z

     1       C      0.000939    -0.006993     0.000081
     2       C      0.002590     0.000163     0.004743
     3       C     -0.000522    -0.004576     0.004042
     4       C     -0.000206     0.010661    -0.007192
     5       C      0.008546    -0.011742    -0.002115
     6       C      0.005850    -0.004997    -0.000112
     7       C      0.005645    -0.009539    -0.002127
     8       H     -0.004307     0.005806    -0.000333
     9       H     -0.007586     0.005768     0.003369
    10       H      0.001273    -0.000783     0.000434
    11       H     -0.003630     0.003773    -0.000407
    12       H     -0.001082     0.007401    -0.001212
    13       H     -0.001589     0.001230     0.003200
    14       H     -0.001820    -0.003553     0.000417
    15       H     -0.004101     0.007381    -0.002787
 


          GRADIENT NORM =   0.03218


          TIME FOR SCF CALCULATION =    0.02

          TIME FOR DERIVATIVES     =    0.01

          MOLECULAR WEIGHT =   92.14



          ROTATIONAL CONSTANTS IN CM(-1)

          A =    0.16429391   B =    0.10371125   C =    0.06961375



           PRINCIPAL MOMENTS OF INERTIA IN UNITS OF 10**(-40)*GRAM-CM**2

          A =      170.3823   B =      269.9107   C =      402.1156


          ORIENTATION OF MOLECULE IN FORCE CALCULATION

    NO.       ATOM         X         Y         Z

     1          C       0.0820   -1.1996   -0.1832
     2          C       1.6082   -1.1996   -0.1832
     3          C      -0.8985    1.4727   -0.1832
     4          C       0.8593   -0.0407   -0.6509
     5          C      -0.8137   -0.7774    0.9177
     6          C       0.5132    1.2344   -0.6427
     7          C      -1.2982    0.4730    0.8706
     8          H      -0.4194   -1.8871   -0.8882
     9          H       2.1221   -1.8688   -0.8831
    10          H       2.1820   -1.1127    0.7472
    11          H      -1.6066    1.4109   -1.0335
    12          H      -0.9897    2.4988    0.2207
    13          H      -1.0787   -1.4971    1.6959
    14          H       1.1849    2.0749   -0.8239
    15          H      -2.0165    0.8254    1.6178


    FIRST DERIVATIVES WILL BE USED IN THE CALCULATION OF SECOND DERIVATIVES

          ESTIMATED TIME TO COMPLETE CALCULATION =        5.62 SECONDS

    FOR POINT-GROUP C1   THERE ARE   1 UNIQUE SYMMETRY FUNCTIONS.

 STEP:   1 TIME =     0.04 SECS, INTEGRAL =      0.04 TIME LEFT: 172799.93
 STEP:   2 TIME =     0.03 SECS, INTEGRAL =      0.07 TIME LEFT: 172799.90
 STEP:   3 TIME =     0.03 SECS, INTEGRAL =      0.09 TIME LEFT: 172799.88
 STEP:   4 TIME =     0.03 SECS, INTEGRAL =      0.12 TIME LEFT: 172799.85
 STEP:   5 TIME =     0.03 SECS, INTEGRAL =      0.15 TIME LEFT: 172799.82
 STEP:   6 TIME =     0.03 SECS, INTEGRAL =      0.18 TIME LEFT: 172799.79
 STEP:   7 TIME =     0.03 SECS, INTEGRAL =      0.20 TIME LEFT: 172799.77
 STEP:   8 TIME =     0.03 SECS, INTEGRAL =      0.23 TIME LEFT: 172799.73
 STEP:   9 TIME =     0.03 SECS, INTEGRAL =      0.26 TIME LEFT: 172799.71
 STEP:  10 TIME =     0.03 SECS, INTEGRAL =      0.29 TIME LEFT: 172799.68
 STEP:  11 TIME =     0.03 SECS, INTEGRAL =      0.32 TIME LEFT: 172799.65
 STEP:  12 TIME =     0.03 SECS, INTEGRAL =      0.34 TIME LEFT: 172799.62
 STEP:  13 TIME =     0.03 SECS, INTEGRAL =      0.37 TIME LEFT: 172799.60
 STEP:  14 TIME =     0.03 SECS, INTEGRAL =      0.40 TIME LEFT: 172799.57
 STEP:  15 TIME =     0.03 SECS, INTEGRAL =      0.43 TIME LEFT: 172799.54
 STEP:  16 TIME =     0.03 SECS, INTEGRAL =      0.45 TIME LEFT: 172799.52
 STEP:  17 TIME =     0.03 SECS, INTEGRAL =      0.48 TIME LEFT: 172799.48
 STEP:  18 TIME =     0.03 SECS, INTEGRAL =      0.52 TIME LEFT: 172799.45
 STEP:  19 TIME =     0.03 SECS, INTEGRAL =      0.54 TIME LEFT: 172799.43
 STEP:  20 TIME =     0.03 SECS, INTEGRAL =      0.57 TIME LEFT: 172799.40
 STEP:  21 TIME =     0.03 SECS, INTEGRAL =      0.60 TIME LEFT: 172799.37
 STEP:  22 TIME =     0.03 SECS, INTEGRAL =      0.62 TIME LEFT: 172799.34
 STEP:  23 TIME =     0.03 SECS, INTEGRAL =      0.65 TIME LEFT: 172799.32
 STEP:  24 TIME =     0.03 SECS, INTEGRAL =      0.68 TIME LEFT: 172799.29
 STEP:  25 TIME =     0.03 SECS, INTEGRAL =      0.71 TIME LEFT: 172799.26
 STEP:  26 TIME =     0.03 SECS, INTEGRAL =      0.74 TIME LEFT: 172799.23
 STEP:  27 TIME =     0.03 SECS, INTEGRAL =      0.77 TIME LEFT: 172799.20
 STEP:  28 TIME =     0.02 SECS, INTEGRAL =      0.79 TIME LEFT: 172799.18
 STEP:  29 TIME =     0.03 SECS, INTEGRAL =      0.82 TIME LEFT: 172799.15
 STEP:  30 TIME =     0.03 SECS, INTEGRAL =      0.84 TIME LEFT: 172799.12
 STEP:  31 TIME =     0.03 SECS, INTEGRAL =      0.87 TIME LEFT: 172799.10
 STEP:  32 TIME =     0.03 SECS, INTEGRAL =      0.90 TIME LEFT: 172799.07
 STEP:  33 TIME =     0.03 SECS, INTEGRAL =      0.93 TIME LEFT: 172799.04
 STEP:  34 TIME =     0.03 SECS, INTEGRAL =      0.95 TIME LEFT: 172799.02
 STEP:  35 TIME =     0.03 SECS, INTEGRAL =      0.98 TIME LEFT: 172798.99
 STEP:  36 TIME =     0.03 SECS, INTEGRAL =      1.01 TIME LEFT: 172798.96
 STEP:  37 TIME =     0.03 SECS, INTEGRAL =      1.04 TIME LEFT: 172798.93
 STEP:  38 TIME =     0.03 SECS, INTEGRAL =      1.06 TIME LEFT: 172798.91
 STEP:  39 TIME =     0.03 SECS, INTEGRAL =      1.09 TIME LEFT: 172798.88
 STEP:  40 TIME =     0.03 SECS, INTEGRAL =      1.12 TIME LEFT: 172798.85
 STEP:  41 TIME =     0.03 SECS, INTEGRAL =      1.14 TIME LEFT: 172798.82
 STEP:  42 TIME =     0.03 SECS, INTEGRAL =      1.17 TIME LEFT: 172798.80
 STEP:  43 TIME =     0.03 SECS, INTEGRAL =      1.20 TIME LEFT: 172798.77
 STEP:  44 TIME =     0.03 SECS, INTEGRAL =      1.23 TIME LEFT: 172798.74
 STEP:  45 TIME =     0.03 SECS, INTEGRAL =      1.25 TIME LEFT: 172798.71

(To convert to Hartree/Bohr^2, multiply by (10^(-21) x N x a0^2)/(4.184 x 627.51) =  0.0642)


           FORCE MATRIX IN MILLIDYNES/ANGSTROM


                  C  1       C  2       C  3       C  4       C  5       C  6
 ------------------------------------------------------------------------------
     C    1  15.666719
     C    2   4.099106  15.265937
     C    3   0.229266   0.146144  14.519716
     C    4   5.614900   6.179875   1.148385  21.147403
     C    5   5.038041   0.446459   0.795955   0.932838  17.888858
     C    6   0.797973   0.428532   4.371950  10.905321   0.086499  17.996689
     C    7   1.015423   0.047661   4.307430   0.159740  10.267826   0.735745
     H    8   4.542661   0.447969   0.024145   0.451107   0.405913   0.027697
     H    9   0.453139   4.794537   0.016276   0.453913   0.045820   0.035420
     H   10   0.444066   4.781938   0.018292   0.463178   0.025382   0.030515
     H   11   0.021729   0.015953   4.413623   0.030504   0.024211   0.423719
     H   12   0.011935   0.008295   4.503242   0.053632   0.047140   0.427280
     H   13   0.429660   0.015425   0.114129   0.042511   4.913059   0.008630
     H   14   0.137162   0.074110   0.426051   0.460441   0.017265   4.957224
     H   15   0.122130   0.016453   0.427219   0.008378   0.440266   0.037429


                  C  7       H  8       H  9       H 10       H 11       H 12
 ------------------------------------------------------------------------------
     C    7  17.636898
     H    8   0.029288   5.073542
     H    9   0.009029   0.024052   5.386469
     H   10   0.003911   0.038501   0.480638   5.368757
     H   11   0.421671   0.005435   0.002363   0.002143   5.015480
     H   12   0.430260   0.002332   0.000747   0.002086   0.562461   5.079946
     H   13   0.449121   0.011398   0.002244   0.002428   0.015691   0.010516
     H   14   0.035733   0.019578   0.008337   0.011829   0.016242   0.032243
     H   15   4.857354   0.014194   0.003003   0.001539   0.013336   0.036989


                  H 13       H 14       H 15
 ------------------------------------------
     H   13   5.299491
     H   14   0.003482   5.341424
     H   15   0.063012   0.004270   5.226863


          HEAT OF FORMATION =      74.951549 KCALS/MOLE

          ZERO POINT ENERGY      79.834 KCAL/MOL


           NORMAL COORDINATE ANALYSIS (Total motion = 1 Angstrom)


   Root No.       1         2         3         4         5         6         7         8

                 1 A       2 A       3 A       4 A       5 A       6 A       7 A       8 A   

                 219.1     296.0     378.3     467.3     523.3     557.8     747.6     760.8
  
           1    0.0107   -0.0199   -0.0003   -0.0127    0.0111    0.0325    0.0225   -0.0017
           2   -0.0172   -0.0021   -0.0316    0.0093   -0.0573    0.0229    0.0134    0.0205
           3    0.0114   -0.0471    0.0051   -0.0319   -0.0149   -0.0164    0.0294    0.0137
           4    0.0127   -0.0220    0.0097   -0.0293    0.0138    0.0393   -0.0273    0.0054
           5    0.0253    0.0188    0.0321   -0.0147   -0.0154   -0.0438   -0.0301    0.0032
           6    0.0226    0.0545   -0.0123    0.0262    0.0015    0.0059    0.0132    0.0006
           7    0.0227   -0.0038    0.0002   -0.0051   -0.0348   -0.0417   -0.0231   -0.0114
           8    0.0297   -0.0123    0.0092    0.0052    0.0525    0.0006    0.0297   -0.0102
           9    0.0391   -0.0039   -0.0111    0.0056   -0.0154    0.0285   -0.0086   -0.0218
          10   -0.0190   -0.0056   -0.0465    0.0070   -0.0202    0.0643    0.0091    0.0152
          11   -0.0154    0.0008   -0.0289    0.0007   -0.0071   -0.0253    0.0152    0.0032
          12   -0.0277   -0.0205   -0.0573   -0.0208    0.0655   -0.0432   -0.0282   -0.0087
          13   -0.0165   -0.0019    0.0089    0.0625    0.0244   -0.0024    0.0173   -0.0319
          14   -0.0112   -0.0149    0.0164    0.0151    0.0098    0.0585   -0.0198   -0.0200
          15   -0.0151   -0.0283    0.0015    0.0214   -0.0275   -0.0471    0.0061    0.0019
          16   -0.0118   -0.0039    0.0157   -0.0021   -0.0412   -0.0409   -0.0176    0.0006
          17   -0.0132    0.0028   -0.0108   -0.0002   -0.0109   -0.0491    0.0208   -0.0026
          18   -0.0360   -0.0111    0.0664    0.0040    0.0135    0.0206    0.0062    0.0031
          19   -0.0061    0.0533   -0.0019   -0.0230    0.0349   -0.0438    0.0481   -0.0051
          20   -0.0074    0.0080    0.0127   -0.0213    0.0188    0.0436   -0.0114   -0.0120
          21   -0.0084    0.0391   -0.0100   -0.0272   -0.0248    0.0419   -0.0225   -0.0152
          22    0.0423    0.0098    0.0224   -0.0461    0.0250    0.0330    0.0124    0.0174
          23   -0.0611   -0.0072   -0.1204    0.0304   -0.0551    0.0120   -0.0185    0.0233
          24    0.0313   -0.0606    0.0781   -0.0265   -0.0243   -0.0070    0.0646   -0.0037
          25    0.0386    0.0505    0.0262    0.0114    0.0415    0.0093   -0.1147   -0.0537
          26    0.0063    0.0091    0.0120   -0.0298    0.0728   -0.1103   -0.1397   -0.0512
          27    0.0605    0.1191    0.0199    0.0728   -0.0639    0.0466    0.0510    0.0077
          28    0.0028   -0.1033    0.0221   -0.0937    0.0026    0.0410    0.0187    0.0597
          29    0.0893    0.0575    0.1144   -0.0088   -0.0938   -0.0261   -0.0164    0.0312
          30    0.0231    0.1025   -0.0277    0.0672    0.0148    0.0032   -0.0166   -0.0366
          31   -0.0215   -0.0190    0.0437   -0.0046   -0.0603   -0.0626   -0.0439   -0.0212
          32    0.1449   -0.0819   -0.0298    0.0936    0.1080   -0.0077    0.0230    0.1262
          33    0.0683    0.0135   -0.0450    0.0006    0.0036    0.0459    0.0083   -0.0197
          34    0.1146   -0.0349   -0.0440    0.0359    0.0091   -0.0034   -0.0593    0.0672
          35    0.0066    0.0034    0.0177   -0.0182    0.0444    0.0203    0.0209   -0.0393
          36    0.1219   -0.0533   -0.0450    0.0783    0.0197   -0.0111    0.0086    0.0773
          37   -0.0554    0.0069    0.0152    0.1873    0.0443   -0.0028   -0.1307    0.0833
          38   -0.0194   -0.0314    0.0363    0.0464    0.0547    0.0268   -0.0643    0.0256
          39   -0.0353   -0.0405    0.0226    0.0923    0.0212   -0.0757   -0.0848    0.0832
          40   -0.0029    0.0008    0.0854   -0.0004   -0.0172   -0.0708   -0.0204    0.0027
          41   -0.0283    0.0052   -0.0337    0.0054   -0.0293   -0.0179    0.0397    0.0129
          42   -0.0769    0.0180    0.2186    0.0343    0.0145    0.0461    0.0766    0.0796
          43   -0.0316    0.1349   -0.0017   -0.0585    0.0981   -0.0309   -0.0080    0.1883
          44   -0.0257    0.0312    0.0136   -0.0500    0.0134    0.0138   -0.0561    0.0840
          45   -0.0234    0.1059   -0.0102   -0.0478    0.0392    0.0683   -0.0559    0.1258


   Root No.       9        10        11        12        13        14        15        16

                 9 A      10 A      11 A      12 A      13 A      14 A      15 A      16 A   

                 818.2     863.2     921.2     940.8     975.8     985.4    1016.5    1051.3
  
           1   -0.0083   -0.0104   -0.0032    0.0170    0.0010    0.0151   -0.0058    0.0069
           2    0.0127    0.0104    0.0061    0.0063   -0.0125   -0.0310    0.0092   -0.0136
           3   -0.0064   -0.0016   -0.0024    0.0169    0.0024    0.0048   -0.0127   -0.0006
           4    0.0098    0.0209    0.0097    0.0122   -0.0004   -0.0005    0.0090    0.0054
           5    0.0112    0.0001    0.0006   -0.0163   -0.0074   -0.0291   -0.0082   -0.0072
           6   -0.0014   -0.0196    0.0103   -0.0077   -0.0166   -0.0389   -0.0164    0.0051
           7   -0.0044   -0.0072    0.0039   -0.0008    0.0053   -0.0078   -0.0187    0.0046
           8   -0.0172    0.0174    0.0261    0.0422   -0.0197   -0.0055    0.0240   -0.0085
           9   -0.0209   -0.0075    0.0102    0.0165    0.0124   -0.0015   -0.0390    0.0019
          10    0.0057    0.0004   -0.0092    0.0089    0.0169   -0.0091    0.0097   -0.0079
          11   -0.0038   -0.0160   -0.0052   -0.0023    0.0085    0.0136    0.0030    0.0001
          12    0.0036    0.0032    0.0173   -0.0315   -0.0051    0.0318    0.0024   -0.0017
          13    0.0037   -0.0012   -0.0104   -0.0231   -0.0371    0.0121   -0.0221   -0.0098
          14    0.0026   -0.0116   -0.0131   -0.0215   -0.0070    0.0148   -0.0244    0.0023
          15    0.0237    0.0255   -0.0105    0.0203   -0.0071   -0.0006    0.0137   -0.0030
          16   -0.0102   -0.0136   -0.0039   -0.0032   -0.0077    0.0230    0.0126   -0.0201
          17   -0.0173   -0.0247   -0.0060    0.0032    0.0080    0.0321    0.0069    0.0033
          18   -0.0205    0.0337   -0.0306   -0.0193    0.0075   -0.0347    0.0116   -0.0236
          19    0.0121    0.0193    0.0023   -0.0144    0.0369   -0.0307    0.0037    0.0159
          20    0.0053   -0.0008   -0.0036   -0.0124    0.0161    0.0003    0.0016    0.0140
          21    0.0116   -0.0143    0.0066   -0.0096   -0.0127    0.0099    0.0472    0.0293
          22   -0.0413   -0.0825    0.0070   -0.0177    0.0241   -0.0101    0.0724    0.0342
          23    0.0531    0.1855    0.0682    0.0370   -0.0278   -0.0101   -0.1175    0.0330
          24   -0.0204   -0.1227   -0.0731    0.0122    0.0014    0.0022    0.0573   -0.0681
          25    0.0494    0.0903   -0.0704    0.1306    0.0570    0.1071    0.0441   -0.0033
          26    0.0876   -0.0455   -0.0670    0.0879   -0.0128   -0.1212   -0.0381   -0.0147
          27   -0.0449    0.0827    0.0141   -0.0187    0.0330    0.1367    0.0400    0.0040
          28   -0.0260   -0.0190    0.1004   -0.1207   -0.0540   -0.0947   -0.0465    0.0212
          29   -0.0504    0.1572    0.0566   -0.1287    0.0236    0.1504    0.0020   -0.0179
          30    0.0260   -0.0052   -0.0528    0.0877    0.0164    0.0103    0.0188   -0.0039
          31   -0.0777    0.0224   -0.0252    0.0391   -0.0841   -0.0366   -0.0179    0.2483
          32    0.0626    0.0281   -0.0707   -0.0492   -0.0508    0.0039    0.1063    0.1035
          33    0.0373   -0.0343    0.0397   -0.0132    0.0889    0.0234   -0.0446   -0.2092
          34    0.0983   -0.0137   -0.0316   -0.1000    0.0135   -0.0157    0.0597   -0.1183
          35   -0.0261    0.0211    0.0518    0.0610   -0.0236   -0.0196    0.0375   -0.0652
          36    0.0294   -0.0164   -0.0676   -0.0556    0.0275    0.0316   -0.0502    0.1198
          37   -0.0981   -0.0683    0.1189    0.0105    0.0368   -0.0636    0.1101    0.0018
          38   -0.0410   -0.0157    0.0063    0.0063    0.1414    0.0064   -0.0865    0.0291
          39   -0.0516   -0.0013    0.0516    0.0591    0.1537   -0.0339    0.0043    0.0256
          40    0.0515   -0.0324    0.0915    0.0400   -0.0916    0.0497    0.0221   -0.0568
          41   -0.0177   -0.0402   -0.0518   -0.0155    0.0826    0.0421   -0.0161    0.0557
          42    0.2028   -0.1009    0.1111    0.0496    0.0363    0.1011   -0.0643    0.0818
          43   -0.0563    0.0056   -0.0617    0.0593   -0.0771    0.0397   -0.1056   -0.0674
          44    0.0095    0.0100   -0.0525    0.0126    0.0343    0.0056   -0.0314   -0.0094
          45   -0.0558   -0.0328   -0.0327    0.0501   -0.1295    0.0768   -0.0422   -0.0378


   Root No.      17        18        19        20        21        22        23        24

                17 A      18 A      19 A      20 A      21 A      22 A      23 A      24 A   

                1068.4    1084.5    1093.0    1114.8    1136.6    1150.6    1194.5    1217.1
  
           1    0.0301    0.0352   -0.0126   -0.0070   -0.0014    0.0176    0.0159   -0.0148
           2   -0.0111   -0.0126    0.0272   -0.0292   -0.0008    0.0161   -0.0540   -0.0252
           3    0.0347    0.0323    0.0215   -0.0013   -0.0051    0.0140   -0.0064    0.0251
           4   -0.0061   -0.0236   -0.0073   -0.0285    0.0104   -0.0492   -0.0153   -0.0132
           5   -0.0074   -0.0010    0.0010   -0.0152   -0.0284   -0.0212    0.0349    0.0398
           6    0.0106   -0.0073   -0.0130    0.0184    0.0178   -0.0065   -0.0017   -0.0203
           7   -0.0256    0.0308    0.0023   -0.0072    0.0020   -0.0025   -0.0145    0.0019
           8   -0.0138   -0.0076   -0.0050    0.0184    0.0047   -0.0087    0.0069    0.0120
           9   -0.0204   -0.0059    0.0048   -0.0073    0.0010    0.0075    0.0053   -0.0028
          10   -0.0288   -0.0192    0.0154    0.0364   -0.0166    0.0157    0.0479    0.0295
          11   -0.0047    0.0115   -0.0022    0.0014   -0.0101    0.0124    0.0173   -0.0112
          12   -0.0241   -0.0026    0.0200   -0.0134   -0.0048    0.0037   -0.0058    0.0033
          13   -0.0083    0.0039   -0.0057    0.0004   -0.0035    0.0027    0.0016   -0.0045
          14    0.0064   -0.0046    0.0042   -0.0056    0.0001    0.0031   -0.0144    0.0107
          15   -0.0304   -0.0207   -0.0372    0.0074    0.0062   -0.0014   -0.0058    0.0095
          16    0.0358   -0.0322   -0.0097    0.0172    0.0107   -0.0183   -0.0034    0.0202
          17    0.0179    0.0002   -0.0190    0.0016    0.0135   -0.0126    0.0008   -0.0279
          18    0.0111    0.0113   -0.0049   -0.0054   -0.0022    0.0038   -0.0018   -0.0046
          19    0.0093   -0.0091    0.0220   -0.0094   -0.0030    0.0046   -0.0091   -0.0002
          20    0.0094    0.0000    0.0017   -0.0045    0.0062    0.0034   -0.0066    0.0142
          21    0.0202    0.0079   -0.0096    0.0130   -0.0050   -0.0047    0.0209   -0.0104
          22   -0.0529   -0.0191   -0.1838   -0.0336   -0.0523    0.1830   -0.1920    0.0869
          23    0.1505    0.0906   -0.0230    0.0089    0.0100   -0.0317    0.0334    0.0153
          24   -0.0681   -0.0331    0.1995   -0.0209    0.0204   -0.0611    0.0594   -0.0902
          25    0.0121   -0.0085    0.0592    0.0406    0.0651    0.0500   -0.1026   -0.0800
          26    0.0463   -0.0045    0.0512    0.1400    0.0548    0.1065   -0.0322   -0.0188
          27   -0.0284    0.0088   -0.0059   -0.0812   -0.0235   -0.0534   -0.0019   -0.0104
          28   -0.0101   -0.0663   -0.0419    0.0954    0.0836   -0.0302   -0.0213   -0.0975
          29   -0.0506   -0.0037    0.0861    0.1343    0.0354    0.1283    0.0043   -0.0124
          30    0.0171    0.0207    0.0029   -0.0733   -0.0332   -0.0325    0.0044    0.0349
          31   -0.0885    0.0565    0.0439   -0.0051   -0.0471    0.0169    0.0092   -0.0450
          32    0.0459   -0.0090   -0.0044    0.0329   -0.0107   -0.0134    0.0345   -0.0056
          33    0.0296   -0.0270   -0.0299   -0.0107    0.0423   -0.0082   -0.0180    0.0365
          34   -0.0200    0.1997   -0.0381    0.0288   -0.0823   -0.0253   -0.0372   -0.1017
          35   -0.0521    0.0606   -0.0239    0.0464   -0.0225   -0.0239    0.0112   -0.0171
          36    0.0775   -0.1423    0.0399   -0.0667    0.0572    0.0382   -0.0046    0.0520
          37    0.0454    0.1035    0.0988   -0.0504    0.1103    0.0222   -0.0104    0.0863
          38    0.0328   -0.0725   -0.0340    0.0399   -0.1431   -0.0191    0.0134   -0.1123
          39    0.0118   -0.0492   -0.0377    0.0346   -0.0874   -0.0165    0.0173   -0.0715
          40    0.0843   -0.0962    0.0084   -0.0861   -0.0640    0.1301    0.0999   -0.0775
          41   -0.0401    0.0621   -0.0287    0.0943    0.0764   -0.1392   -0.0872    0.0564
          42   -0.0755    0.0517    0.0261    0.0258    0.0068   -0.0189   -0.0282    0.0269
          43   -0.0466   -0.0003    0.0015   -0.0123    0.0036    0.0034   -0.0216    0.0032
          44   -0.0949    0.0446   -0.1186   -0.1015    0.1755    0.0815    0.2031   -0.0528
          45    0.0161   -0.0072    0.0239    0.0561   -0.0768   -0.0420   -0.0860    0.0243


   Root No.      25        26        27        28        29        30        31        32

                25 A      26 A      27 A      28 A      29 A      30 A      31 A      32 A   

                1323.1    1349.6    1381.2    1399.2    1500.3    1825.5    2046.1    2954.1
  
           1   -0.0036    0.0260   -0.0033   -0.0197    0.1249   -0.0260   -0.0468   -0.0001
           2    0.0326    0.0183   -0.0061    0.0094    0.0255    0.0142   -0.0381   -0.0001
           3    0.0151   -0.0118    0.0024    0.0244   -0.0768    0.0203    0.0187   -0.0001
           4    0.0011   -0.0021   -0.0177   -0.0316   -0.0684    0.0065    0.0563    0.0000
           5    0.0027   -0.0054    0.0089    0.0236    0.0286   -0.0040   -0.0558    0.0000
           6   -0.0048    0.0020   -0.0041   -0.0125   -0.0056    0.0036    0.0229   -0.0000
           7   -0.0234    0.0690    0.0438   -0.0079   -0.0252    0.0023   -0.0019   -0.0230
           8   -0.0046    0.0323   -0.0310    0.0265    0.0010   -0.0265    0.0066   -0.0332
           9    0.0208   -0.0601    0.0023   -0.0149    0.0163    0.0122   -0.0006   -0.0430
          10   -0.0170   -0.0115    0.0043    0.0063   -0.0361   -0.0006   -0.0645   -0.0002
          11   -0.0208   -0.0033    0.0102   -0.0044   -0.0057    0.0100    0.2749   -0.0002
          12    0.0128    0.0077   -0.0014    0.0032    0.0295   -0.0054   -0.0397   -0.0001
          13    0.0245    0.0108   -0.0026    0.0226   -0.0378    0.1055   -0.0007    0.0000
          14   -0.0102   -0.0134    0.0067   -0.0086   -0.0061   -0.2174    0.0086   -0.0002
          15   -0.0312   -0.0110    0.0011   -0.0268    0.0469   -0.0246   -0.0029   -0.0003
          16    0.0378   -0.0247   -0.0205    0.0104    0.0471   -0.0018    0.0624    0.0004
          17   -0.0216   -0.0181    0.0026   -0.0175   -0.0674   -0.0005   -0.1714    0.0015
          18   -0.0113    0.0134    0.0061   -0.0009   -0.0090   -0.0002   -0.0011   -0.0003
          19    0.0027   -0.0245   -0.0016   -0.0053    0.0027   -0.0715    0.0032   -0.0011
          20   -0.0202   -0.0192    0.0025   -0.0192    0.0327    0.2341   -0.0095    0.0011
          21    0.0109    0.0370   -0.0023    0.0176   -0.0165   -0.0329    0.0017    0.0007
          22    0.0417   -0.0138   -0.0014    0.0287   -0.0641   -0.0100   -0.0218    0.0020
          23    0.0046    0.0031    0.0003    0.0068    0.0046   -0.0074   -0.0337    0.0033
          24    0.0105    0.0335   -0.0056   -0.0087    0.0874    0.0222   -0.0147    0.0029
          25   -0.0472   -0.0758    0.1044    0.1589    0.0128    0.0047    0.0238    0.0002
          26    0.0187    0.0098   -0.0142   -0.0087   -0.0098    0.0017   -0.0420   -0.0003
          27   -0.0492   -0.0611    0.0996    0.1482    0.0854   -0.0009   -0.0204   -0.0002
          28   -0.0744   -0.0669    0.0950    0.1217    0.0531    0.0046    0.0290   -0.0003
          29    0.0420    0.0663   -0.0870   -0.1335   -0.0479   -0.0018    0.0026    0.0000
          30    0.0347    0.0310   -0.0580   -0.0828   -0.0705    0.0057    0.0436   -0.0006
          31   -0.0122   -0.0842   -0.0775    0.0136    0.0096   -0.0109   -0.0019    0.3222
          32    0.1323   -0.0332    0.2242   -0.0972   -0.0090   -0.0007   -0.0040    0.0256
          33   -0.0088    0.0732    0.0590   -0.0122   -0.0098    0.0126    0.0074    0.3854
          34   -0.0638   -0.1322   -0.1846    0.0425   -0.0108   -0.0180   -0.0303   -0.0393
          35    0.0563   -0.0523    0.0289   -0.0156    0.0030   -0.0357   -0.0031    0.3665
          36   -0.1181    0.1096   -0.1525    0.0836    0.0119    0.0385    0.0046    0.1359
          37   -0.0427   -0.0591    0.0094   -0.0228   -0.0063   -0.0655    0.0074   -0.0008
          38    0.0758    0.0807   -0.0067    0.0451   -0.0296   -0.0559   -0.0051   -0.0003
          39    0.0222    0.0523   -0.0076    0.0059    0.0391    0.1186   -0.0141   -0.0000
          40   -0.0596   -0.0648    0.0218   -0.0329   -0.0840    0.0107   -0.1026   -0.0084
          41    0.0615    0.0104   -0.0346    0.0184    0.0316   -0.0114   -0.1030   -0.0147
          42    0.0202    0.0054   -0.0042    0.0094    0.0102    0.0038    0.0169    0.0011
          43   -0.0052   -0.0159    0.0037   -0.0087    0.0043   -0.0875    0.0022    0.0101
          44    0.1108    0.0190   -0.0372    0.0671   -0.0444   -0.0069    0.0043   -0.0081
          45   -0.0584    0.0293    0.0200   -0.0258    0.0258    0.1221   -0.0093   -0.0113


   Root No.      33        34        35        36        37        38        39

                33 A      34 A      35 A      36 A      37 A      38 A      39 A   

                3005.8    3031.5    3061.5    3076.7    3091.5    3102.6    3114.4
  
           1   -0.0308   -0.0003   -0.0002   -0.0016    0.0002   -0.0001    0.0003
           2   -0.0423   -0.0005    0.0004   -0.0026    0.0011    0.0007    0.0009
           3   -0.0403   -0.0005    0.0004   -0.0029    0.0007    0.0001   -0.0001
           4    0.0002    0.0000    0.0001   -0.0045    0.0001    0.0004   -0.0378
           5    0.0014   -0.0000   -0.0001   -0.0235   -0.0001   -0.0002    0.0226
           6    0.0053    0.0001   -0.0002   -0.0533    0.0000    0.0006   -0.0044
           7   -0.0000    0.0214    0.0016   -0.0000    0.0007    0.0004   -0.0000
           8    0.0008   -0.0326   -0.0036   -0.0000   -0.0017   -0.0031   -0.0000
           9    0.0004    0.0082   -0.0005   -0.0001    0.0001   -0.0008   -0.0000
          10   -0.0002   -0.0004    0.0000   -0.0000   -0.0004   -0.0026    0.0000
          11    0.0013    0.0006    0.0000   -0.0004   -0.0004    0.0072   -0.0017
          12   -0.0010    0.0001   -0.0000   -0.0005    0.0004   -0.0001    0.0006
          13    0.0004    0.0000   -0.0055   -0.0002    0.0111    0.0006    0.0002
          14    0.0001    0.0001   -0.0095    0.0002    0.0394    0.0024    0.0001
          15   -0.0008   -0.0001    0.0129   -0.0001   -0.0378   -0.0022   -0.0001
          16   -0.0001    0.0017    0.0005   -0.0003    0.0017   -0.0391    0.0001
          17   -0.0001    0.0011    0.0009    0.0000    0.0025   -0.0580    0.0001
          18   -0.0001   -0.0005    0.0000   -0.0000   -0.0004    0.0115    0.0000
          19    0.0001   -0.0034    0.0345   -0.0001    0.0140    0.0022    0.0001
          20    0.0001    0.0012   -0.0189    0.0000   -0.0112   -0.0011   -0.0000
          21   -0.0006    0.0037   -0.0347    0.0001   -0.0122   -0.0020   -0.0001
          22    0.3701    0.0038   -0.0018    0.0254   -0.0041   -0.0022   -0.0011
          23    0.5027    0.0050   -0.0022    0.0284   -0.0054   -0.0031   -0.0016
          24    0.5005    0.0051   -0.0017    0.0292   -0.0071   -0.0027   -0.0019
          25    0.0184    0.0003   -0.0008   -0.2014   -0.0003    0.0021    0.2259
          26   -0.0281   -0.0004    0.0009    0.2513    0.0008   -0.0028   -0.3056
          27   -0.0270   -0.0004    0.0010    0.2522    0.0008   -0.0022   -0.3317
          28   -0.0202   -0.0001    0.0007    0.2543   -0.0013   -0.0010    0.2197
          29   -0.0022    0.0000    0.0000    0.0315   -0.0002   -0.0004    0.0457
          30   -0.0381   -0.0003    0.0011    0.3956   -0.0020   -0.0018    0.3799
          31    0.0012   -0.2365   -0.0132    0.0001   -0.0055   -0.0005    0.0001
          32    0.0003   -0.0489   -0.0042    0.0000   -0.0018   -0.0026    0.0000
          33    0.0016   -0.2977   -0.0182    0.0002   -0.0072   -0.0026    0.0001
          34    0.0005   -0.0199   -0.0011    0.0000   -0.0003   -0.0071    0.0001
          35   -0.0102    0.4386    0.0512    0.0003    0.0178    0.0337    0.0000
          36   -0.0044    0.1944    0.0179    0.0001    0.0062    0.0156   -0.0000
          37   -0.0030    0.0002    0.0548   -0.0007   -0.1506   -0.0083   -0.0006
          38   -0.0078    0.0014    0.1409   -0.0015   -0.4091   -0.0230   -0.0012
          39    0.0062   -0.0008   -0.1565    0.0015    0.4436    0.0248    0.0015
          40    0.0023   -0.0116   -0.0097    0.0025   -0.0227    0.4916   -0.0006
          41    0.0034   -0.0173   -0.0121    0.0029   -0.0280    0.6092   -0.0005
          42   -0.0016    0.0039    0.0027   -0.0003    0.0062   -0.1352    0.0001
          43   -0.0071    0.0371   -0.3988    0.0006   -0.1415   -0.0188   -0.0007
          44    0.0031   -0.0198    0.1920   -0.0002    0.0713    0.0093    0.0003
          45    0.0062   -0.0367    0.4168   -0.0006    0.1462    0.0194    0.0007


           MASS-WEIGHTED COORDINATE ANALYSIS (NORMAL COORDINATES)


   Root No.       1         2         3         4         5         6         7         8

                 1 A       2 A       3 A       4 A       5 A       6 A       7 A       8 A   

                 219.1     296.0     378.3     467.3     523.3     557.8     747.6     760.8
  
           1    0.0847   -0.1400   -0.0021   -0.0951    0.0719    0.1763    0.1676   -0.0142
           2   -0.1364   -0.0148   -0.2086    0.0698   -0.3723    0.1244    0.0998    0.1758
           3    0.0900   -0.3313    0.0338   -0.2381   -0.0966   -0.0891    0.2194    0.1177
           4    0.1007   -0.1550    0.0641   -0.2187    0.0895    0.2133   -0.2037    0.0460
           5    0.2008    0.1320    0.2121   -0.1095   -0.0997   -0.2376   -0.2243    0.0278
           6    0.1791    0.3836   -0.0815    0.1957    0.0096    0.0321    0.0988    0.0056
           7    0.1799   -0.0270    0.0015   -0.0382   -0.2261   -0.2263   -0.1720   -0.0975
           8    0.2354   -0.0862    0.0607    0.0389    0.3411    0.0034    0.2213   -0.0876
           9    0.3097   -0.0274   -0.0734    0.0419   -0.1001    0.1544   -0.0644   -0.1870
          10   -0.1503   -0.0393   -0.3070    0.0526   -0.1315    0.3486    0.0680    0.1302
          11   -0.1223    0.0057   -0.1906    0.0053   -0.0464   -0.1374    0.1132    0.0276
          12   -0.2192   -0.1440   -0.3785   -0.1556    0.4255   -0.2340   -0.2102   -0.0746
          13   -0.1308   -0.0136    0.0589    0.4672    0.1588   -0.0130    0.1290   -0.2734
          14   -0.0889   -0.1045    0.1082    0.1131    0.0635    0.3175   -0.1479   -0.1713
          15   -0.1200   -0.1988    0.0102    0.1595   -0.1783   -0.2553    0.0455    0.0167
          16   -0.0936   -0.0272    0.1037   -0.0158   -0.2675   -0.2217   -0.1313    0.0054
          17   -0.1045    0.0197   -0.0711   -0.0016   -0.0710   -0.2661    0.1554   -0.0227
          18   -0.2855   -0.0782    0.4386    0.0297    0.0877    0.1116    0.0466    0.0265
          19   -0.0484    0.3751   -0.0128   -0.1717    0.2268   -0.2376    0.3587   -0.0436
          20   -0.0590    0.0565    0.0839   -0.1594    0.1221    0.2363   -0.0852   -0.1024
          21   -0.0667    0.2753   -0.0663   -0.2031   -0.1613    0.2275   -0.1681   -0.1301
          22    0.0970    0.0200    0.0428   -0.0998    0.0471    0.0519    0.0269    0.0431
          23   -0.1402   -0.0148   -0.2304    0.0658   -0.1036    0.0189   -0.0400    0.0578
          24    0.0718   -0.1234    0.1493   -0.0572   -0.0457   -0.0110    0.1395   -0.0092
          25    0.0885    0.1028    0.0501    0.0248    0.0781    0.0146   -0.2477   -0.1333
          26    0.0144    0.0185    0.0230   -0.0646    0.1369   -0.1732   -0.3016   -0.1271
          27    0.1388    0.2427    0.0380    0.1576   -0.1203    0.0731    0.1102    0.0190
          28    0.0064   -0.2104    0.0423   -0.2028    0.0049    0.0644    0.0404    0.1482
          29    0.2050    0.1172    0.2188   -0.0190   -0.1764   -0.0409   -0.0355    0.0774
          30    0.0530    0.2087   -0.0530    0.1454    0.0278    0.0050   -0.0359   -0.0909
          31   -0.0493   -0.0387    0.0836   -0.0099   -0.1134   -0.0983   -0.0948   -0.0526
          32    0.3326   -0.1669   -0.0571    0.2026    0.2032   -0.0122    0.0498    0.3131
          33    0.1567    0.0275   -0.0860    0.0014    0.0067    0.0721    0.0178   -0.0488
          34    0.2630   -0.0711   -0.0841    0.0777    0.0171   -0.0053   -0.1281    0.1668
          35    0.0152    0.0070    0.0339   -0.0394    0.0835    0.0318    0.0451   -0.0976
          36    0.2798   -0.1085   -0.0861    0.1695    0.0370   -0.0175    0.0187    0.1918
          37   -0.1271    0.0141    0.0291    0.4054    0.0834   -0.0045   -0.2822    0.2067
          38   -0.0446   -0.0639    0.0694    0.1005    0.1029    0.0421   -0.1388    0.0634
          39   -0.0811   -0.0825    0.0433    0.1998    0.0399   -0.1189   -0.1831    0.2065
          40   -0.0068    0.0015    0.1632   -0.0008   -0.0323   -0.1113   -0.0441    0.0067
          41   -0.0649    0.0105   -0.0645    0.0117   -0.0550   -0.0281    0.0858    0.0321
          42   -0.1765    0.0367    0.4181    0.0741    0.0273    0.0724    0.1654    0.1974
          43   -0.0725    0.2749   -0.0032   -0.1266    0.1845   -0.0485   -0.0173    0.4673
          44   -0.0590    0.0636    0.0259   -0.1082    0.0251    0.0217   -0.1211    0.2084
          45   -0.0536    0.2158   -0.0195   -0.1035    0.0738    0.1073   -0.1207    0.3121


   Root No.       9        10        11        12        13        14        15        16

                 9 A      10 A      11 A      12 A      13 A      14 A      15 A      16 A   

                 818.2     863.2     921.2     940.8     975.8     985.4    1016.5    1051.3
  
           1   -0.0755   -0.0844   -0.0303    0.1390    0.0080    0.1121   -0.0481    0.0519
           2    0.1157    0.0844    0.0573    0.0514   -0.1036   -0.2302    0.0762   -0.1021
           3   -0.0578   -0.0132   -0.0225    0.1383    0.0202    0.0359   -0.1052   -0.0047
           4    0.0890    0.1698    0.0916    0.1001   -0.0035   -0.0040    0.0746    0.0405
           5    0.1015    0.0008    0.0058   -0.1337   -0.0614   -0.2163   -0.0680   -0.0541
           6   -0.0129   -0.1591    0.0969   -0.0630   -0.1383   -0.2888   -0.1355    0.0382
           7   -0.0400   -0.0583    0.0364   -0.0067    0.0439   -0.0580   -0.1547    0.0342
           8   -0.1567    0.1411    0.2468    0.3450   -0.1640   -0.0407    0.1984   -0.0636
           9   -0.1898   -0.0613    0.0964    0.1353    0.1028   -0.0110   -0.3228    0.0143
          10    0.0515    0.0034   -0.0871    0.0725    0.1402   -0.0679    0.0801   -0.0589
          11   -0.0350   -0.1297   -0.0487   -0.0191    0.0707    0.1011    0.0251    0.0008
          12    0.0329    0.0262    0.1630   -0.2579   -0.0421    0.2359    0.0198   -0.0127
          13    0.0338   -0.0101   -0.0980   -0.1894   -0.3089    0.0895   -0.1830   -0.0738
          14    0.0240   -0.0945   -0.1240   -0.1762   -0.0586    0.1099   -0.2017    0.0173
          15    0.2153    0.2072   -0.0994    0.1660   -0.0590   -0.0048    0.1134   -0.0223
          16   -0.0925   -0.1104   -0.0364   -0.0260   -0.0643    0.1711    0.1040   -0.1507
          17   -0.1571   -0.2004   -0.0563    0.0261    0.0662    0.2383    0.0569    0.0250
          18   -0.1868    0.2742   -0.2888   -0.1576    0.0627   -0.2575    0.0957   -0.1774
          19    0.1101    0.1565    0.0217   -0.1175    0.3071   -0.2277    0.0309    0.1193
          20    0.0483   -0.0066   -0.0342   -0.1013    0.1341    0.0020    0.0130    0.1051
          21    0.1054   -0.1164    0.0620   -0.0787   -0.1053    0.0732    0.3908    0.2199
          22   -0.1090   -0.1942    0.0191   -0.0420    0.0581   -0.0218    0.1736    0.0743
          23    0.1399    0.4367    0.1865    0.0876   -0.0669   -0.0218   -0.2816    0.0718
          24   -0.0538   -0.2890   -0.1999    0.0288    0.0033    0.0046    0.1373   -0.1481
          25    0.1302    0.2126   -0.1926    0.3095    0.1372    0.2305    0.1058   -0.0071
          26    0.2310   -0.1070   -0.1832    0.2084   -0.0309   -0.2607   -0.0914   -0.0319
          27   -0.1185    0.1946    0.0384   -0.0443    0.0795    0.2943    0.0960    0.0087
          28   -0.0686   -0.0447    0.2747   -0.2862   -0.1300   -0.2038   -0.1114    0.0460
          29   -0.1328    0.3700    0.1549   -0.3050    0.0569    0.3236    0.0047   -0.0388
          30    0.0684   -0.0123   -0.1445    0.2079    0.0394    0.0221    0.0451   -0.0084
          31   -0.2048    0.0528   -0.0689    0.0926   -0.2026   -0.0787   -0.0428    0.5396
          32    0.1649    0.0661   -0.1933   -0.1167   -0.1223    0.0084    0.2546    0.2250
          33    0.0983   -0.0807    0.1085   -0.0313    0.2141    0.0504   -0.1069   -0.4547
          34    0.2591   -0.0322   -0.0865   -0.2372    0.0325   -0.0337    0.1432   -0.2570
          35   -0.0687    0.0497    0.1417    0.1445   -0.0569   -0.0421    0.0898   -0.1417
          36    0.0775   -0.0387   -0.1848   -0.1317    0.0663    0.0679   -0.1203    0.2603
          37   -0.2586   -0.1608    0.3251    0.0248    0.0887   -0.1369    0.2637    0.0039
          38   -0.1081   -0.0369    0.0172    0.0148    0.3405    0.0137   -0.2074    0.0631
          39   -0.1359   -0.0031    0.1412    0.1401    0.3704   -0.0729    0.0103    0.0557
          40    0.1358   -0.0762    0.2502    0.0948   -0.2208    0.1070    0.0529   -0.1234
          41   -0.0467   -0.0946   -0.1418   -0.0368    0.1990    0.0907   -0.0385    0.1211
          42    0.5347   -0.2374    0.3038    0.1175    0.0874    0.2174   -0.1540    0.1778
          43   -0.1483    0.0131   -0.1687    0.1407   -0.1858    0.0853   -0.2530   -0.1465
          44    0.0250    0.0235   -0.1436    0.0299    0.0826    0.0122   -0.0752   -0.0205
          45   -0.1471   -0.0772   -0.0893    0.1187   -0.3120    0.1652   -0.1012   -0.0822


   Root No.      17        18        19        20        21        22        23        24

                17 A      18 A      19 A      20 A      21 A      22 A      23 A      24 A   

                1068.4    1084.5    1093.0    1114.8    1136.6    1150.6    1194.5    1217.1
  
           1    0.2406    0.2752   -0.1025   -0.0595   -0.0128    0.1433    0.1161   -0.1246
           2   -0.0885   -0.0986    0.2207   -0.2478   -0.0072    0.1311   -0.3928   -0.2132
           3    0.2775    0.2527    0.1745   -0.0109   -0.0460    0.1138   -0.0467    0.2124
           4   -0.0487   -0.1848   -0.0589   -0.2419    0.0934   -0.4002   -0.1117   -0.1117
           5   -0.0590   -0.0081    0.0082   -0.1290   -0.2558   -0.1721    0.2543    0.3358
           6    0.0852   -0.0573   -0.1050    0.1566    0.1599   -0.0531   -0.0125   -0.1717
           7   -0.2050    0.2411    0.0188   -0.0614    0.0184   -0.0205   -0.1057    0.0164
           8   -0.1100   -0.0595   -0.0405    0.1562    0.0425   -0.0708    0.0499    0.1017
           9   -0.1634   -0.0464    0.0385   -0.0623    0.0086    0.0612    0.0389   -0.0238
          10   -0.2304   -0.1505    0.1246    0.3093   -0.1491    0.1281    0.3485    0.2491
          11   -0.0377    0.0900   -0.0177    0.0117   -0.0906    0.1005    0.1259   -0.0950
          12   -0.1931   -0.0202    0.1625   -0.1135   -0.0435    0.0300   -0.0419    0.0282
          13   -0.0663    0.0308   -0.0464    0.0033   -0.0318    0.0218    0.0119   -0.0380
          14    0.0511   -0.0358    0.0340   -0.0479    0.0007    0.0254   -0.1050    0.0900
          15   -0.2434   -0.1621   -0.3016    0.0630    0.0561   -0.0116   -0.0420    0.0803
          16    0.2863   -0.2518   -0.0788    0.1462    0.0962   -0.1487   -0.0246    0.1705
          17    0.1433    0.0014   -0.1539    0.0135    0.1216   -0.1022    0.0057   -0.2354
          18    0.0891    0.0883   -0.0400   -0.0460   -0.0196    0.0310   -0.0130   -0.0391
          19    0.0747   -0.0711    0.1785   -0.0797   -0.0270    0.0373   -0.0659   -0.0019
          20    0.0755    0.0000    0.0140   -0.0381    0.0560    0.0274   -0.0482    0.1203
          21    0.1615    0.0616   -0.0778    0.1101   -0.0445   -0.0386    0.1523   -0.0881
          22   -0.1225   -0.0432   -0.4315   -0.0827   -0.1363    0.4313   -0.4050    0.2126
          23    0.3488    0.2054   -0.0540    0.0219    0.0262   -0.0747    0.0704    0.0375
          24   -0.1578   -0.0751    0.4685   -0.0515    0.0533   -0.1439    0.1253   -0.2206
          25    0.0279   -0.0193    0.1391    0.1000    0.1697    0.1178   -0.2164   -0.1958
          26    0.1072   -0.0101    0.1201    0.3442    0.1428    0.2509   -0.0678   -0.0459
          27   -0.0658    0.0199   -0.0138   -0.1997   -0.0612   -0.1258   -0.0040   -0.0254
          28   -0.0233   -0.1502   -0.0984    0.2347    0.2179   -0.0712   -0.0449   -0.2386
          29   -0.1172   -0.0083    0.2022    0.3303    0.0923    0.3024    0.0090   -0.0303
          30    0.0397    0.0470    0.0069   -0.1802   -0.0865   -0.0767    0.0093    0.0853
          31   -0.2052    0.1282    0.1031   -0.0126   -0.1228    0.0398    0.0195   -0.1101
          32    0.1063   -0.0204   -0.0103    0.0809   -0.0280   -0.0317    0.0727   -0.0137
          33    0.0686   -0.0611   -0.0702   -0.0263    0.1103   -0.0192   -0.0379    0.0894
          34   -0.0462    0.4525   -0.0895    0.0708   -0.2145   -0.0595   -0.0784   -0.2488
          35   -0.1207    0.1373   -0.0561    0.1142   -0.0585   -0.0562    0.0236   -0.0418
          36    0.1795   -0.3224    0.0936   -0.1639    0.1490    0.0900   -0.0097    0.1274
          37    0.1051    0.2346    0.2319   -0.1240    0.2875    0.0522   -0.0220    0.2112
          38    0.0759   -0.1643   -0.0799    0.0980   -0.3730   -0.0451    0.0284   -0.2747
          39    0.0273   -0.1116   -0.0885    0.0851   -0.2278   -0.0389    0.0364   -0.1749
          40    0.1955   -0.2181    0.0198   -0.2119   -0.1667    0.3065    0.2107   -0.1896
          41   -0.0930    0.1408   -0.0673    0.2320    0.1991   -0.3280   -0.1839    0.1380
          42   -0.1750    0.1172    0.0613    0.0635    0.0178   -0.0446   -0.0595    0.0659
          43   -0.1079   -0.0007    0.0035   -0.0303    0.0095    0.0080   -0.0455    0.0078
          44   -0.2199    0.1011   -0.2786   -0.2497    0.4574    0.1920    0.4283   -0.1291
          45    0.0374   -0.0163    0.0562    0.1380   -0.2001   -0.0990   -0.1813    0.0595


   Root No.      25        26        27        28        29        30        31        32

                25 A      26 A      27 A      28 A      29 A      30 A      31 A      32 A   

                1323.1    1349.6    1381.2    1399.2    1500.3    1825.5    2046.1    2954.1
  
           1   -0.0300    0.1760   -0.0247   -0.1557    0.5808   -0.0732   -0.1307   -0.0007
           2    0.2693    0.1241   -0.0458    0.0744    0.1184    0.0400   -0.1064   -0.0008
           3    0.1247   -0.0801    0.0182    0.1932   -0.3569    0.0570    0.0521   -0.0006
           4    0.0094   -0.0143   -0.1334   -0.2502   -0.3179    0.0184    0.1572    0.0000
           5    0.0223   -0.0364    0.0671    0.1869    0.1329   -0.0113   -0.1559    0.0000
           6   -0.0393    0.0133   -0.0306   -0.0992   -0.0259    0.0101    0.0639   -0.0000
           7   -0.1933    0.4671    0.3295   -0.0627   -0.1173    0.0065   -0.0054   -0.1186
           8   -0.0382    0.2189   -0.2335    0.2098    0.0045   -0.0745    0.0185   -0.1710
           9    0.1717   -0.4071    0.0174   -0.1175    0.0759    0.0342   -0.0018   -0.2214
          10   -0.1408   -0.0776    0.0322    0.0499   -0.1676   -0.0017   -0.1802   -0.0011
          11   -0.1718   -0.0223    0.0767   -0.0351   -0.0266    0.0281    0.7680   -0.0011
          12    0.1054    0.0523   -0.0107    0.0254    0.1372   -0.0153   -0.1110   -0.0006
          13    0.2026    0.0734   -0.0192    0.1790   -0.1759    0.2967   -0.0019    0.0002
          14   -0.0846   -0.0910    0.0508   -0.0679   -0.0285   -0.6114    0.0242   -0.0011
          15   -0.2575   -0.0743    0.0084   -0.2119    0.2181   -0.0692   -0.0081   -0.0013
          16    0.3120   -0.1673   -0.1541    0.0818    0.2188   -0.0050    0.1743    0.0022
          17   -0.1782   -0.1226    0.0194   -0.1386   -0.3134   -0.0014   -0.4787    0.0078
          18   -0.0932    0.0906    0.0456   -0.0072   -0.0417   -0.0005   -0.0031   -0.0014
          19    0.0227   -0.1661   -0.0118   -0.0418    0.0124   -0.2010    0.0088   -0.0055
          20   -0.1669   -0.1297    0.0187   -0.1515    0.1522    0.6585   -0.0265    0.0054
          21    0.0899    0.2502   -0.0172    0.1393   -0.0766   -0.0925    0.0046    0.0037
          22    0.0998   -0.0271   -0.0031    0.0656   -0.0863   -0.0082   -0.0176    0.0031
          23    0.0110    0.0060    0.0007    0.0157    0.0062   -0.0060   -0.0272    0.0049
          24    0.0251    0.0657   -0.0123   -0.0200    0.1176    0.0181   -0.0119    0.0044
          25   -0.1131   -0.1487    0.2276    0.3640    0.0172    0.0038    0.0193    0.0003
          26    0.0448    0.0191   -0.0310   -0.0200   -0.0132    0.0014   -0.0340   -0.0004
          27   -0.1177   -0.1199    0.2172    0.3394    0.1150   -0.0007   -0.0165   -0.0003
          28   -0.1780   -0.1312    0.2072    0.2787    0.0715    0.0037    0.0235   -0.0005
          29    0.1005    0.1300   -0.1897   -0.3057   -0.0645   -0.0015    0.0021    0.0000
          30    0.0830    0.0607   -0.1265   -0.1896   -0.0950    0.0047    0.0353   -0.0009
          31   -0.0292   -0.1652   -0.1690    0.0312    0.0130   -0.0089   -0.0015    0.4806
          32    0.3166   -0.0651    0.4889   -0.2227   -0.0121   -0.0005   -0.0033    0.0381
          33   -0.0210    0.1436    0.1286   -0.0280   -0.0131    0.0103    0.0060    0.5749
          34   -0.1527   -0.2591   -0.4026    0.0973   -0.0145   -0.0147   -0.0245   -0.0586
          35    0.1348   -0.1026    0.0629   -0.0357    0.0040   -0.0291   -0.0025    0.5466
          36   -0.2827    0.2149   -0.3326    0.1915    0.0160    0.0313    0.0037    0.2027
          37   -0.1022   -0.1159    0.0205   -0.0523   -0.0085   -0.0534    0.0060   -0.0013
          38    0.1813    0.1582   -0.0146    0.1032   -0.0398   -0.0455   -0.0041   -0.0005
          39    0.0532    0.1025   -0.0165    0.0136    0.0526    0.0966   -0.0114   -0.0001
          40   -0.1426   -0.1270    0.0476   -0.0753   -0.1131    0.0087   -0.0830   -0.0126
          41    0.1473    0.0205   -0.0755    0.0421    0.0426   -0.0093   -0.0834   -0.0219
          42    0.0483    0.0106   -0.0091    0.0216    0.0138    0.0031    0.0137    0.0016
          43   -0.0123   -0.0312    0.0081   -0.0198    0.0058   -0.0713    0.0017    0.0151
          44    0.2652    0.0373   -0.0811    0.1536   -0.0598   -0.0056    0.0034   -0.0121
          45   -0.1398    0.0575    0.0435   -0.0591    0.0347    0.0995   -0.0075   -0.0168


   Root No.      33        34        35        36        37        38        39

                33 A      34 A      35 A      36 A      37 A      38 A      39 A   

                3005.8    3031.5    3061.5    3076.7    3091.5    3102.6    3114.4
  
           1   -0.1273   -0.0016   -0.0010   -0.0084    0.0011   -0.0005    0.0014
           2   -0.1750   -0.0029    0.0021   -0.0135    0.0057    0.0030    0.0047
           3   -0.1668   -0.0025    0.0020   -0.0152    0.0033    0.0005   -0.0007
           4    0.0009    0.0002    0.0003   -0.0238    0.0005    0.0019   -0.1896
           5    0.0058   -0.0002   -0.0003   -0.1234   -0.0003   -0.0010    0.1137
           6    0.0217    0.0005   -0.0008   -0.2798    0.0000    0.0024   -0.0221
           7   -0.0001    0.1166    0.0083   -0.0001    0.0036    0.0018   -0.0002
           8    0.0034   -0.1780   -0.0184   -0.0001   -0.0083   -0.0128   -0.0001
           9    0.0016    0.0449   -0.0026   -0.0005    0.0004   -0.0035   -0.0000
          10   -0.0006   -0.0024    0.0002   -0.0001   -0.0022   -0.0109    0.0000
          11    0.0054    0.0033    0.0002   -0.0020   -0.0021    0.0299   -0.0085
          12   -0.0040    0.0004   -0.0002   -0.0026    0.0022   -0.0003    0.0032
          13    0.0015    0.0002   -0.0280   -0.0011    0.0555    0.0025    0.0009
          14    0.0004    0.0007   -0.0486    0.0013    0.1969    0.0101    0.0003
          15   -0.0034   -0.0005    0.0661   -0.0007   -0.1886   -0.0090   -0.0007
          16   -0.0004    0.0093    0.0026   -0.0017    0.0085   -0.1620    0.0006
          17   -0.0005    0.0061    0.0047    0.0000    0.0125   -0.2400    0.0007
          18   -0.0006   -0.0025    0.0001   -0.0002   -0.0020    0.0475    0.0002
          19    0.0004   -0.0183    0.1761   -0.0004    0.0699    0.0090    0.0003
          20    0.0003    0.0068   -0.0967    0.0000   -0.0558   -0.0047   -0.0001
          21   -0.0024    0.0203   -0.1772    0.0004   -0.0612   -0.0081   -0.0004
          22    0.4434    0.0060   -0.0027    0.0386   -0.0060   -0.0027   -0.0016
          23    0.6023    0.0079   -0.0033    0.0431   -0.0078   -0.0038   -0.0023
          24    0.5996    0.0080   -0.0025    0.0444   -0.0102   -0.0033   -0.0027
          25    0.0220    0.0004   -0.0012   -0.3061   -0.0004    0.0025    0.3286
          26   -0.0336   -0.0006    0.0013    0.3820    0.0011   -0.0034   -0.4446
          27   -0.0323   -0.0006    0.0014    0.3834    0.0012   -0.0026   -0.4825
          28   -0.0242   -0.0002    0.0010    0.3865   -0.0019   -0.0011    0.3196
          29   -0.0027    0.0000    0.0000    0.0478   -0.0003   -0.0005    0.0665
          30   -0.0456   -0.0005    0.0017    0.6014   -0.0029   -0.0022    0.5526
          31    0.0015   -0.3738   -0.0196    0.0001   -0.0080   -0.0006    0.0001
          32    0.0003   -0.0773   -0.0062    0.0000   -0.0025   -0.0031    0.0001
          33    0.0019   -0.4705   -0.0269    0.0003   -0.0104   -0.0031    0.0002
          34    0.0006   -0.0314   -0.0016    0.0000   -0.0004   -0.0085    0.0001
          35   -0.0122    0.6930    0.0757    0.0004    0.0258    0.0404    0.0000
          36   -0.0053    0.3072    0.0264    0.0002    0.0089    0.0187   -0.0000
          37   -0.0036    0.0002    0.0810   -0.0010   -0.2179   -0.0100   -0.0009
          38   -0.0094    0.0022    0.2085   -0.0023   -0.5917   -0.0276   -0.0018
          39    0.0074   -0.0013   -0.2315    0.0023    0.6416    0.0297    0.0021
          40    0.0027   -0.0183   -0.0143    0.0037   -0.0329    0.5894   -0.0009
          41    0.0041   -0.0273   -0.0179    0.0045   -0.0405    0.7305   -0.0008
          42   -0.0019    0.0062    0.0039   -0.0004    0.0090   -0.1621    0.0002
          43   -0.0086    0.0586   -0.5898    0.0009   -0.2047   -0.0226   -0.0010
          44    0.0037   -0.0312    0.2840   -0.0003    0.1031    0.0111    0.0004
          45    0.0074   -0.0580    0.6165   -0.0010    0.2114    0.0233    0.0010


          DESCRIPTION OF VIBRATIONS


 VIBRATION    1    1A         ATOM PAIR      ENERGY CONTRIBUTION    RADIAL
 FREQ.       219.14         C  3 -- C  6         +17.8% (248.0%)      0.1%
 T-DIPOLE    0.1461         C  3 -- H 12         +14.8% (225.9%)     87.5%
 TRAVEL      0.0734         C  3 -- H 11         +14.2% (220.9%)     78.2%
 RED. MASS   0.7788         C  3 -- C  7         +13.8% (217.8%)      0.0%
 EFF. MASS  57.0796

 VIBRATION    2    2A         ATOM PAIR      ENERGY CONTRIBUTION    RADIAL
 FREQ.       295.96         C  1 -- C  2         +20.1% (200.4%)      0.0%
 T-DIPOLE    0.1503         C  2 -- C  4         +13.4% (163.7%)      0.0%
 TRAVEL      0.0807         C  2 -- H 10         +12.7% (159.0%)     94.1%
 RED. MASS   1.2801         C  2 -- H  9          +9.4% (137.1%)     79.1%
 EFF. MASS  34.9640

 VIBRATION    3    3A         ATOM PAIR      ENERGY CONTRIBUTION    RADIAL
 FREQ.       378.28         C  4 -- C  6         +20.8% (131.1%)      0.0%
 T-DIPOLE    0.1988         C  2 -- C  4         +12.4% (101.5%)      0.3%
 TRAVEL      0.1026         C  1 -- C  4         +11.5% ( 97.5%)      0.1%
 RED. MASS   1.5399         C  3 -- C  6          +9.4% ( 88.4%)      0.5%
 EFF. MASS  16.9187

 VIBRATION    4    4A         ATOM PAIR      ENERGY CONTRIBUTION    RADIAL
 FREQ.       467.30         C  5 -- C  7         +16.8% ( 94.3%)      0.0%
 T-DIPOLE    0.1827         C  1 -- C  5         +16.1% ( 92.3%)      0.2%
 TRAVEL      0.1036         C  1 -- C  2         +10.3% ( 74.0%)      6.5%
 RED. MASS   1.1419         C  5 -- H 13          +8.8% ( 68.2%)     48.3%
 EFF. MASS  13.4567

 VIBRATION    5    5A         ATOM PAIR      ENERGY CONTRIBUTION    RADIAL
 FREQ.       523.29         C  3 -- C  7         +10.9% (101.8%)      0.1%
 T-DIPOLE    0.1568         C  3 -- C  6         +10.4% ( 99.4%)      0.5%
 TRAVEL      0.0878         C  1 -- C  4          +9.3% ( 94.2%)      0.1%
 RED. MASS   1.3869         C  1 -- C  5          +8.3% ( 88.5%)      0.1%
 EFF. MASS  16.7154

 VIBRATION    6    6A         ATOM PAIR      ENERGY CONTRIBUTION    RADIAL
 FREQ.       557.81         C  5 -- C  7         +10.4% (108.3%)      0.0%
 T-DIPOLE    0.2647         C  1 -- C  5         +10.3% (107.7%)      2.1%
 TRAVEL      0.0803         C  3 -- C  7          +9.8% (105.5%)     16.9%
 RED. MASS   1.5562         C  4 -- C  6          +9.5% (103.5%)      0.2%
 EFF. MASS  18.7506

 VIBRATION    7    7A         ATOM PAIR      ENERGY CONTRIBUTION    RADIAL
 FREQ.       747.58         C  3 -- C  7         +14.8% ( 79.1%)      0.0%
 T-DIPOLE    0.3598         C  5 -- C  7          +8.4% ( 59.6%)      0.3%
 TRAVEL      0.0935         C  1 -- C  2          +8.4% ( 59.6%)     53.6%
 RED. MASS   0.7554         C  1 -- C  5          +7.6% ( 56.5%)     33.5%
 EFF. MASS  10.3100

 VIBRATION    8    8A         ATOM PAIR      ENERGY CONTRIBUTION    RADIAL
 FREQ.       760.82         C  7 -- H 15         +20.1% ( 69.8%)      0.8%
 T-DIPOLE    0.4921         C  5 -- H 13         +11.2% ( 52.2%)      5.7%
 TRAVEL      0.1410         C  3 -- H 11         +11.0% ( 51.7%)     13.6%
 RED. MASS   0.3633         C  3 -- H 12         +10.9% ( 51.5%)      5.4%
 EFF. MASS   4.4569

 VIBRATION    9    9A         ATOM PAIR      ENERGY CONTRIBUTION    RADIAL
 FREQ.       818.21         C  6 -- H 14         +21.3% ( 65.8%)      1.9%
 T-DIPOLE    0.1980         C  3 -- H 11         +11.9% ( 49.1%)      8.4%
 TRAVEL      0.1432         C  3 -- H 12         +10.6% ( 46.4%)     14.2%
 RED. MASS   0.2758         C  5 -- H 13          +8.5% ( 41.5%)      3.8%
 EFF. MASS   4.0161

 VIBRATION   10   10A         ATOM PAIR      ENERGY CONTRIBUTION    RADIAL
 FREQ.       863.18         C  1 -- H  8         +12.9% ( 55.6%)      0.0%
 T-DIPOLE    0.3159         C  2 -- H 10         +11.1% ( 51.6%)      0.8%
 TRAVEL      0.1166         C  3 -- C  6         +10.7% ( 50.7%)      4.1%
 RED. MASS   0.4281         C  6 -- H 14         +10.3% ( 49.7%)     12.8%
 EFF. MASS   5.7485

 VIBRATION   11   11A         ATOM PAIR      ENERGY CONTRIBUTION    RADIAL
 FREQ.       921.16         C  6 -- H 14         +15.0% ( 50.4%)      0.0%
 T-DIPOLE    0.1877         C  3 -- H 11         +11.2% ( 43.4%)      3.3%
 TRAVEL      0.1366         C  3 -- C  6          +9.6% ( 40.3%)      3.9%
 RED. MASS   0.2718         C  5 -- H 13          +9.2% ( 39.5%)      0.2%
 EFF. MASS   3.9254

 VIBRATION   12   12A         ATOM PAIR      ENERGY CONTRIBUTION    RADIAL
 FREQ.       940.77         C  2 -- H 10         +11.8% ( 52.3%)      0.1%
 T-DIPOLE    0.3146         C  3 -- H 11         +10.5% ( 49.3%)      3.2%
 TRAVEL      0.1055         C  3 -- C  7         +10.1% ( 48.3%)     12.0%
 RED. MASS   0.5281         C  3 -- C  6          +9.2% ( 46.2%)      7.9%
 EFF. MASS   6.4344

 VIBRATION   13   13A         ATOM PAIR      ENERGY CONTRIBUTION    RADIAL
 FREQ.       975.78         C  5 -- H 13         +19.3% ( 58.6%)      0.6%
 T-DIPOLE    0.0908         C  7 -- H 15         +12.6% ( 47.4%)      9.5%
 TRAVEL      0.1149         C  5 -- C  7         +12.4% ( 47.0%)      0.4%
 RED. MASS   0.4545         C  3 -- C  7         +12.2% ( 46.7%)     84.8%
 EFF. MASS   5.2368

 VIBRATION   14   14A         ATOM PAIR      ENERGY CONTRIBUTION    RADIAL
 FREQ.       985.43         C  2 -- H  9         +15.9% ( 61.7%)     13.9%
 T-DIPOLE    0.2018         C  2 -- H 10         +14.7% ( 59.4%)      9.5%
 TRAVEL      0.0977         C  3 -- C  6          +9.9% ( 48.7%)     31.7%
 RED. MASS   0.7118         C  2 -- C  4          +9.7% ( 48.2%)      3.6%
 EFF. MASS   7.1658

 VIBRATION   15   15A         ATOM PAIR      ENERGY CONTRIBUTION    RADIAL
 FREQ.      1016.50         C  3 -- C  7         +19.4% ( 65.1%)     56.8%
 T-DIPOLE    0.2014         C  5 -- C  7         +10.4% ( 47.7%)      7.6%
 TRAVEL      0.0961         C  3 -- C  6         +10.0% ( 46.6%)      7.2%
 RED. MASS   0.7792         C  3 -- H 12          +9.9% ( 46.5%)      1.9%
 EFF. MASS   7.1904

 VIBRATION   16   16A         ATOM PAIR      ENERGY CONTRIBUTION    RADIAL
 FREQ.      1051.28         C  3 -- H 11         +46.1% ( 72.4%)      0.1%
 T-DIPOLE    0.0295         C  3 -- H 12         +15.2% ( 41.5%)      1.1%
 TRAVEL      0.1627         C  6 -- H 14          +8.0% ( 30.1%)      0.7%
 RED. MASS   0.4375         C  7 -- H 15          +5.9% ( 25.9%)      2.9%
 EFF. MASS   2.4231

 VIBRATION   17   17A         ATOM PAIR      ENERGY CONTRIBUTION    RADIAL
 FREQ.      1068.41         C  1 -- H  8         +13.0% ( 50.2%)      5.7%
 T-DIPOLE    0.2326         C  3 -- C  6         +12.1% ( 48.3%)     32.0%
 TRAVEL      0.0930         C  1 -- C  5         +10.1% ( 44.1%)      6.8%
 RED. MASS   0.6852         C  4 -- C  6          +9.1% ( 41.9%)      0.4%
 EFF. MASS   7.2992

 VIBRATION   18   18A         ATOM PAIR      ENERGY CONTRIBUTION    RADIAL
 FREQ.      1084.46         C  3 -- H 12         +18.3% ( 58.6%)      2.6%
 T-DIPOLE    0.0951         C  3 -- C  6         +11.0% ( 45.5%)     99.6%
 TRAVEL      0.1033         C  1 -- C  2         +10.7% ( 44.8%)     67.0%
 RED. MASS   0.5443         C  1 -- C  4          +8.5% ( 40.0%)      0.0%
 EFF. MASS   5.8223

 VIBRATION   19   19A         ATOM PAIR      ENERGY CONTRIBUTION    RADIAL
 FREQ.      1092.99         C  1 -- H  8         +26.3% ( 65.4%)      6.5%
 T-DIPOLE    0.1480         C  1 -- C  5         +14.3% ( 48.3%)     73.5%
 TRAVEL      0.1124         C  5 -- C  7          +7.4% ( 34.7%)     11.5%
 RED. MASS   0.4408         C  1 -- C  4          +7.2% ( 34.3%)      3.8%
 EFF. MASS   4.8817

 VIBRATION   20   20A         ATOM PAIR      ENERGY CONTRIBUTION    RADIAL
 FREQ.      1114.80         C  2 -- H 10         +15.9% ( 51.2%)      0.0%
 T-DIPOLE    0.1379         C  2 -- H  9         +13.4% ( 47.1%)      2.1%
 TRAVEL      0.1114         C  1 -- C  4         +11.8% ( 44.1%)     87.1%
 RED. MASS   0.4247         C  2 -- C  4          +8.4% ( 37.1%)      1.8%
 EFF. MASS   4.8758

 VIBRATION   21   21A         ATOM PAIR      ENERGY CONTRIBUTION    RADIAL
 FREQ.      1136.61         C  5 -- H 13         +19.6% ( 52.1%)      0.3%
 T-DIPOLE    0.0486         C  7 -- H 15         +17.3% ( 49.0%)      0.0%
 TRAVEL      0.1410         C  2 -- H  9         +10.7% ( 38.6%)      2.1%
 RED. MASS   0.2961         C  2 -- H 10         +10.7% ( 38.5%)      6.9%
 EFF. MASS   2.9854

 VIBRATION   22   22A         ATOM PAIR      ENERGY CONTRIBUTION    RADIAL
 FREQ.      1150.63         C  1 -- C  2         +15.5% ( 50.4%)     71.1%
 T-DIPOLE    0.0459         C  2 -- H  9         +15.0% ( 49.6%)      0.2%
 TRAVEL      0.1140         C  1 -- H  8         +13.7% ( 47.4%)     13.7%
 RED. MASS   0.6092         C  2 -- H 10         +13.1% ( 46.3%)     10.8%
 EFF. MASS   4.5085         C  6 -- H 14         +13.1% ( 46.3%)      5.4%
                            C  2 -- C  4         +10.3% ( 41.0%)      1.8%

 VIBRATION   23   23A         ATOM PAIR      ENERGY CONTRIBUTION    RADIAL
 FREQ.      1194.50         C  1 -- H  8         +16.8% ( 55.1%)      5.1%
 T-DIPOLE    0.0394         C  1 -- C  4         +15.1% ( 52.2%)     86.8%
 TRAVEL      0.0991         C  7 -- H 15         +13.1% ( 48.6%)      2.3%
 RED. MASS   0.7584         C  1 -- C  2         +12.4% ( 47.2%)     11.0%
 EFF. MASS   5.7476

 VIBRATION   24   24A         ATOM PAIR      ENERGY CONTRIBUTION    RADIAL
 FREQ.      1217.09         C  2 -- C  4         +14.2% ( 54.0%)     98.6%
 T-DIPOLE    0.1648         C  1 -- C  2         +10.4% ( 46.2%)      0.0%
 TRAVEL      0.0978         C  1 -- H  8          +9.6% ( 44.3%)      0.3%
 RED. MASS   0.6329         C  6 -- H 14          +9.0% ( 42.8%)      0.8%
 EFF. MASS   5.7947

 VIBRATION   25   25A         ATOM PAIR      ENERGY CONTRIBUTION    RADIAL
 FREQ.      1323.09         C  3 -- C  6         +12.0% ( 46.3%)     96.7%
 T-DIPOLE    0.1393         C  1 -- C  5         +11.8% ( 45.9%)     84.9%
 TRAVEL      0.0895         C  6 -- H 14          +9.7% ( 41.6%)      0.8%
 RED. MASS   0.6373         C  1 -- C  4          +8.4% ( 38.8%)     77.1%
 EFF. MASS   6.3682

 VIBRATION   26   26A         ATOM PAIR      ENERGY CONTRIBUTION    RADIAL
 FREQ.      1349.57         C  3 -- C  7         +21.2% ( 67.7%)     77.3%
 T-DIPOLE    0.0753         C  3 -- H 12         +19.8% ( 65.5%)      0.0%
 TRAVEL      0.0783         C  3 -- C  6         +17.4% ( 61.4%)     62.7%
 RED. MASS   2.4715         C  3 -- H 11         +15.9% ( 58.7%)      0.0%
 EFF. MASS   8.1406

 VIBRATION   27   27A         ATOM PAIR      ENERGY CONTRIBUTION    RADIAL
 FREQ.      1381.20         C  3 -- H 11         +26.4% ( 56.1%)      4.8%
 T-DIPOLE    0.0468         C  3 -- H 12         +25.2% ( 54.8%)      5.8%
 TRAVEL      0.1223         C  3 -- C  6         +13.4% ( 40.0%)     84.6%
 RED. MASS   0.5140         C  3 -- C  7          +9.4% ( 33.4%)      5.6%
 EFF. MASS   3.2664

 VIBRATION   28   28A         ATOM PAIR      ENERGY CONTRIBUTION    RADIAL
 FREQ.      1399.23         C  2 -- H  9         +17.2% ( 52.4%)      2.9%
 T-DIPOLE    0.0903         C  2 -- H 10         +14.9% ( 48.8%)      4.9%
 TRAVEL      0.0968         C  1 -- C  5         +10.1% ( 40.1%)     99.9%
 RED. MASS   0.4611         C  1 -- C  2          +7.4% ( 34.2%)      8.3%
 EFF. MASS   5.1448

 VIBRATION   29   29A         ATOM PAIR      ENERGY CONTRIBUTION    RADIAL
 FREQ.      1500.26         C  1 -- C  2         +19.2% ( 72.2%)     88.0%
 T-DIPOLE    0.3249         C  1 -- C  5         +17.7% ( 69.4%)     76.9%
 TRAVEL      0.0632         C  1 -- C  4         +15.2% ( 64.1%)     53.8%
 RED. MASS   3.3057         C  1 -- H  8         +13.5% ( 60.5%)      0.7%
 EFF. MASS  11.2550

 VIBRATION   30   30A         ATOM PAIR      ENERGY CONTRIBUTION    RADIAL
 FREQ.      1825.52         C  5 -- C  7         +44.7% ( 98.7%)    100.0%
 T-DIPOLE    0.1185         C  3 -- C  7         +14.3% ( 55.9%)     45.3%
 TRAVEL      0.0558         C  1 -- C  5         +13.8% ( 54.9%)     43.9%
 RED. MASS   5.4153         C  7 -- H 15         +13.4% ( 54.0%)      5.7%
 EFF. MASS  11.8835         C  5 -- H 13         +12.6% ( 52.4%)      6.1%

 VIBRATION   31   31A         ATOM PAIR      ENERGY CONTRIBUTION    RADIAL
 FREQ.      2046.07         C  4 -- C  6         +38.5% ( 92.4%)     99.2%
 T-DIPOLE    0.7455         C  2 -- C  4         +23.5% ( 72.3%)     93.2%
 TRAVEL      0.0526         C  1 -- C  4         +21.6% ( 69.3%)     64.3%
 RED. MASS   5.6926         C  3 -- C  6          +6.0% ( 36.5%)     22.0%
 EFF. MASS  11.9139

 VIBRATION   32   32A         ATOM PAIR      ENERGY CONTRIBUTION    RADIAL
 FREQ.      2954.05         C  3 -- H 11         +59.6% ( 80.1%)     97.5%
 T-DIPOLE    0.0629         C  3 -- H 12         +38.0% ( 63.9%)     95.2%
 TRAVEL      0.1218         C  3 -- C  6          +1.1% ( 11.0%)      0.3%
 RED. MASS   0.5405         C  3 -- C  7          +1.1% ( 11.0%)      0.1%
 EFF. MASS   1.5384

 VIBRATION   33   33A         ATOM PAIR      ENERGY CONTRIBUTION    RADIAL
 FREQ.      3005.76         C  1 -- H  8         +96.0% ( 99.7%)    100.0%
 T-DIPOLE    0.2890         C  1 -- C  2          +1.1% ( 10.8%)     19.4%
 TRAVEL      0.1243         C  1 -- C  4          +1.1% ( 10.8%)     32.9%
 RED. MASS   0.9180         C  1 -- C  5          +1.1% ( 10.7%)     11.8%
 EFF. MASS   1.4512

 VIBRATION   34   34A         ATOM PAIR      ENERGY CONTRIBUTION    RADIAL
 FREQ.      3031.53         C  3 -- H 12         +60.3% ( 76.6%)     98.7%
 T-DIPOLE    0.1054         C  3 -- H 11         +37.3% ( 60.3%)     95.8%
 TRAVEL      0.1315         C  7 -- H 15          +0.9% (  9.3%)    100.0%
 RED. MASS   0.4967         C  3 -- C  7          +0.7% (  8.2%)     20.4%
 EFF. MASS   1.2865

 VIBRATION   35   35A         ATOM PAIR      ENERGY CONTRIBUTION    RADIAL
 FREQ.      3061.54         C  7 -- H 15         +85.7% ( 93.9%)    100.0%
 T-DIPOLE    0.3015         C  5 -- H 13         +11.0% ( 33.6%)     99.8%
 TRAVEL      0.1220         C  5 -- C  7          +1.2% ( 11.3%)     11.7%
 RED. MASS   0.7323         C  3 -- C  7          +1.2% ( 11.2%)     20.3%
 EFF. MASS   1.4792

 VIBRATION   36   36A         ATOM PAIR      ENERGY CONTRIBUTION    RADIAL
 FREQ.      3076.70         C  2 -- H 10         +55.0% ( 76.5%)     97.8%
 T-DIPOLE    0.1537         C  2 -- H  9         +42.3% ( 67.1%)     96.4%
 TRAVEL      0.1191         C  2 -- C  4          +1.1% ( 10.8%)      0.0%
 RED. MASS   0.5227         C  1 -- C  2          +1.1% ( 10.8%)      0.3%
 EFF. MASS   1.5461

 VIBRATION   37   37A         ATOM PAIR      ENERGY CONTRIBUTION    RADIAL
 FREQ.      3091.53         C  5 -- H 13         +85.8% ( 94.0%)    100.0%
 T-DIPOLE    0.3166         C  7 -- H 15         +10.3% ( 32.7%)     99.6%
 TRAVEL      0.1179         C  5 -- C  7          +1.9% ( 13.9%)     74.8%
 RED. MASS   0.7433         C  1 -- C  5          +1.4% ( 11.9%)     19.2%
 EFF. MASS   1.5691

 VIBRATION   38   38A         ATOM PAIR      ENERGY CONTRIBUTION    RADIAL
 FREQ.      3102.61         C  6 -- H 14         +96.1% ( 99.6%)    100.0%
 T-DIPOLE    0.3063         C  4 -- C  6          +1.8% ( 13.6%)     49.7%
 TRAVEL      0.1183         C  3 -- C  6          +1.6% ( 12.7%)     21.9%
 RED. MASS   0.9187         C  3 -- H 12          +0.2% (  4.5%)     99.1%
 EFF. MASS   1.5536

 VIBRATION   39   39A         ATOM PAIR      ENERGY CONTRIBUTION    RADIAL
 FREQ.      3114.37         C  2 -- H  9         +55.9% ( 74.4%)     97.2%
 T-DIPOLE    0.1819         C  2 -- H 10         +42.3% ( 64.7%)     95.1%
 TRAVEL      0.1287         C  2 -- C  4          +0.9% (  9.4%)     79.8%
 RED. MASS   0.4926         C  1 -- C  2          +0.9% (  9.3%)     74.7%
 EFF. MASS   1.3069

      SYMMETRY NUMBER FOR POINT-GROUP C1  =  1


          SYSTEM IS A GROUND STATE



 InChI=1S/C7H8/c1-2-4-7-5-6(7)3-1/h1,3-4,6H,2,5H2


          MOLECULE IS NOT LINEAR

          THERE ARE 39 GENUINE VIBRATIONS IN THIS SYSTEM
          THIS THERMODYNAMICS CALCULATION IS LIMITED TO
          MOLECULES WHICH HAVE NO INTERNAL ROTATIONS




                    CALCULATED THERMODYNAMIC PROPERTIES
                                          *
   TEMP. (K)   PARTITION FUNCTION   H.O.F.    ENTHALPY  HEAT CAPACITY ENTROPY
                                   KCAL/MOL   CAL/MOLE    CAL/K/MOL  CAL/K/MOL


 298.00  VIB.     0.3755D+01                  1698.3764    16.3098     8.3287
         ROT.     0.1534D+06                   888.2813     2.9808    26.7097
         INT.     0.5761D+06                  2586.6577    19.2906    35.0384
         TRA.     0.8551D+27                  1480.4688     4.9680    39.4718
         TOT.                       74.952    4067.1266    24.2586    74.5101

 200.00  VIB.     0.1690D+01                   520.8694     7.9849     3.6476
         ROT.     0.8434D+05                   596.1620     2.9808    25.5210
         INT.     0.1426D+06                  1117.0314    10.9657    29.1686
         TRA.     0.4701D+27                   993.6033     4.9680    37.4906
         TOT.                       72.995    2110.6346    15.9337    66.6592

 210.00  VIB.     0.1808D+01                   604.4994     8.7457     4.0554
         ROT.     0.9075D+05                   625.9700     2.9808    25.6665
         INT.     0.1641D+06                  1230.4694    11.7265    29.7219
         TRA.     0.5058D+27                  1043.2834     4.9680    37.7330
         TOT.                       73.158    2273.7528    16.6946    67.4549

 220.00  VIB.     0.1940D+01                   695.8738     9.5335     4.4804
         ROT.     0.9731D+05                   655.7781     2.9808    25.8051
         INT.     0.1888D+06                  1351.6520    12.5143    30.2855
         TRA.     0.5424D+27                  1092.9636     4.9680    37.9641
         TOT.                       73.329    2444.6155    17.4823    68.2496

 230.00  VIB.     0.2089D+01                   795.2519    10.3461     4.9220
         ROT.     0.1040D+06                   685.5862     2.9808    25.9376
         INT.     0.2173D+06                  1480.8381    13.3269    30.8596
         TRA.     0.5798D+27                  1142.6437     4.9680    38.1850
         TOT.                       73.508    2623.4818    18.2949    69.0446

 240.00  VIB.     0.2257D+01                   902.8691    11.1809     5.3799
         ROT.     0.1109D+06                   715.3943     2.9808    26.0645
         INT.     0.2503D+06                  1618.2634    14.1617    31.4444
         TRA.     0.6180D+27                  1192.3239     4.9680    38.3964
         TOT.                       73.695    2810.5873    19.1297    69.8408

 250.00  VIB.     0.2446D+01                  1018.9341    12.0351     5.8536
         ROT.     0.1179D+06                   745.2024     2.9808    26.1862
         INT.     0.2884D+06                  1764.1366    15.0159    32.0398
         TRA.     0.6570D+27                  1242.0041     4.9680    38.5992
         TOT.                       73.891    3006.1406    19.9840    70.6390

 260.00  VIB.     0.2660D+01                  1143.6263    12.9058     6.3425
         ROT.     0.1250D+06                   775.0105     2.9808    26.3031
         INT.     0.3325D+06                  1918.6368    15.8866    32.6456
         TRA.     0.6968D+27                  1291.6842     4.9680    38.7941
         TOT.                       74.095    3210.3210    20.8546    71.4397

 270.00  VIB.     0.2900D+01                  1277.0941    13.7897     6.8461
         ROT.     0.1323D+06                   804.8186     2.9808    26.4156
         INT.     0.3837D+06                  2081.9127    16.7706    33.2617
         TRA.     0.7374D+27                  1341.3644     4.9680    38.9816
         TOT.                       74.308    3423.2771    21.7386    72.2433

 280.00  VIB.     0.3172D+01                  1419.4553    14.6839     7.3637
         ROT.     0.1397D+06                   834.6267     2.9808    26.5240
         INT.     0.4433D+06                  2254.0820    17.6648    33.8877
         TRA.     0.7788D+27                  1391.0445     4.9680    39.1622
         TOT.                       74.530    3645.1266    22.6328    73.0500

 290.00  VIB.     0.3480D+01                  1570.7971    15.5854     7.8947
         ROT.     0.1473D+06                   864.4348     2.9808    26.6286
         INT.     0.5125D+06                  2435.2319    18.5662    34.5233
         TRA.     0.8209D+27                  1440.7247     4.9680    39.3366
         TOT.                       74.760    3875.9566    23.5342    73.8599

 300.00  VIB.     0.3828D+01                  1731.1774    16.4912     8.4384
         ROT.     0.1550D+06                   894.2429     2.9808    26.7297
         INT.     0.5932D+06                  2625.4203    19.4720    35.1680
         TRA.     0.8637D+27                  1490.4049     4.9680    39.5050
         TOT.                       75.000    4115.8252    24.4400    74.6730

 310.00  VIB.     0.4223D+01                  1900.6263    17.3987     8.9939
         ROT.     0.1628D+06                   924.0510     2.9808    26.8274
         INT.     0.6874D+06                  2824.6773    20.3795    35.8213
         TRA.     0.9072D+27                  1540.0850     4.9680    39.6679
         TOT.                       75.249    4364.7623    25.3475    75.4892

 320.00  VIB.     0.4672D+01                  2079.1480    18.3053     9.5606
         ROT.     0.1707D+06                   953.8591     2.9808    26.9220
         INT.     0.7974D+06                  3033.0071    21.2862    36.4826
         TRA.     0.9515D+27                  1589.7652     4.9680    39.8256
         TOT.                       75.507    4622.7723    26.2542    76.3083

 330.00  VIB.     0.5181D+01                  2266.7230    19.2090    10.1377
         ROT.     0.1788D+06                   983.6672     2.9808    27.0138
         INT.     0.9262D+06                  3250.3902    22.1898    37.1515
         TRA.     0.9964D+27                  1639.4454     4.9680    39.9785
         TOT.                       75.774    4889.8356    27.1578    77.1300

 340.00  VIB.     0.5760D+01                  2463.3103    20.1075    10.7245
         ROT.     0.1870D+06                  1013.4753     2.9808    27.1027
         INT.     0.1077D+07                  3476.7856    23.0883    37.8273
         TRA.     0.1042D+28                  1689.1255     4.9680    40.1268
         TOT.                       76.050    5165.9111    28.0563    77.9541

 350.00  VIB.     0.6420D+01                  2668.8496    20.9991    11.3203
         ROT.     0.1953D+06                  1043.2834     2.9808    27.1891
         INT.     0.1254D+07                  3712.1330    23.9799    38.5094
         TRA.     0.1088D+28                  1738.8057     4.9680    40.2708
         TOT.                       76.335    5450.9387    28.9479    78.7803

 360.00  VIB.     0.7172D+01                  2883.2638    21.8822    11.9243
         ROT.     0.2037D+06                  1073.0915     2.9808    27.2731
         INT.     0.1461D+07                  3956.3553    24.8630    39.1974
         TRA.     0.1135D+28                  1788.4859     4.9680    40.4108
         TOT.                       76.629    5744.8412    29.8310    79.6081

 370.00  VIB.     0.8031D+01                  3106.4609    22.7555    12.5357
         ROT.     0.2122D+06                  1102.8996     2.9808    27.3548
         INT.     0.1704D+07                  4209.3605    25.7363    39.8905
         TRA.     0.1183D+28                  1838.1660     4.9680    40.5469
         TOT.                       76.932    6047.5265    30.7043    80.4374

 380.00  VIB.     0.9012D+01                  3338.3363    23.6177    13.1541
         ROT.     0.2209D+06                  1132.7077     2.9808    27.4343
         INT.     0.1991D+07                  4471.0440    26.5985    40.5883
         TRA.     0.1231D+28                  1887.8462     4.9680    40.6794
         TOT.                       77.243    6358.8901    31.5665    81.2677

 390.00  VIB.     0.1013D+02                  3578.7745    24.4679    13.7786
         ROT.     0.2297D+06                  1162.5158     2.9808    27.5117
         INT.     0.2328D+07                  4741.2903    27.4487    41.2903
         TRA.     0.1280D+28                  1937.5263     4.9680    40.8084
         TOT.                       77.563    6678.8167    32.4167    82.0987

 400.00  VIB.     0.1142D+02                  3827.6514    25.3053    14.4086
         ROT.     0.2386D+06                  1192.3239     2.9808    27.5872
         INT.     0.2724D+07                  5019.9753    28.2861    41.9958
         TRA.     0.1330D+28                  1987.2065     4.9680    40.9342
         TOT.                       77.892    7007.1818    33.2541    82.9300

   *: NOTE: HEATS OF FORMATION ARE RELATIVE TO THE
            ELEMENTS IN THEIR STANDARD STATE AT 298K
              (=  Standard Enthalpy of Formation).

            Hvib:  Zero-point energy is not included.
                   frequencies of less than zero cm-1 are not included.
            Hrot = (3/2)RT
            Htra = (3/2)RT + pV = (5/2)RT

            Heat capacity is Cp, not Cv

          For more information, see: HTTP://OpenMOPAC.net/Manual/thermochemistry.html


           FORCE CONSTANT IN CARTESIAN COORDINATES (Millidynes/A)

    ATOM   CHEMICAL       X               Y               Z
   NUMBER   SYMBOL  FORCE CONSTANT  FORCE CONSTANT  FORCE CONSTANT

      1       C       10.047313        8.289230        7.499968
      2       C        9.392546        7.369431        7.852037
      3       C        8.392603        8.903898        7.783689
      4       C        6.438364       18.908574        3.412553
      5       C        5.993418       13.412384        7.788008
      6       C        8.407037       15.408688        2.912039
      7       C        6.497820       13.177980        6.847468
      8       H        1.628963        2.262433        2.314492
      9       H        1.703550        2.305197        2.555033
     10       H        1.929019        0.625969        3.980075
     11       H        2.349920        0.668450        3.182342
     12       H        0.705246        4.345924        1.304263
     13       H        0.755895        2.636023        2.912095
     14       H        2.432579        3.399713        0.499067
     15       H        2.418028        1.171795        2.680026

 **********************
 *                    *
 * JOB ENDED NORMALLY *
 *                    *
 **********************



 TOTAL JOB TIME:             4.20 SECONDS

 == MOPAC DONE ==
