 *******************************************************************************
 ** Site#: 14399        For non-commercial use only    Version 18.184L 64BITS **
 *******************************************************************************
 ** Cite this program as: MOPAC2016, Version: 18.184L, James J. P. Stewart,   **
 ** Stewart Computational Chemistry, web: HTTP://OpenMOPAC.net. Days left:  20**
 *******************************************************************************
 **                                                                           **
 **                                MOPAC2016                                  **
 **                                                                           **
 *******************************************************************************

                              PM3 CALCULATION RESULTS

 *******************************************************************************
 *  CALCULATION DONE:                                Thu Jun 13 23:39:46 2019  *
 *  PM3        - The PM3 Hamiltonian to be used
 *  PRECISE    - CRITERIA TO BE INCREASED BY 100 TIMES
 *  NOSYM      - POINT-GROUP SYMMETRY SET TO C1
 *  THREADS=1  - MULTI-THREADING NOT USED
 *  T=         - A TIME OF 172800.0 SECONDS REQUESTED
 *  DUMP=N     - RESTART FILE WRITTEN EVERY  7200.000 SECONDS
 *******************************************************************************
pm3  precise nosym THREADS=1
 InChI=1S/C7H10/c1-2-7-4-3-6(1)5-7/h5-6H,1-4H2

   ATOM   CHEMICAL          X               Y               Z
  NUMBER   SYMBOL      (ANGSTROMS)     (ANGSTROMS)     (ANGSTROMS)
 
     1       C          0.04010000  *  -0.01350000  *  -1.09090000  *
     2       C         -1.29300000  *  -0.39040000  *  -0.41460000  *
     3       C          1.19160000  *  -0.78990000  *  -0.43510000  *
     4       C         -1.16440000  *   0.35910000  *   0.91960000  *
     5       C          1.30420000  *  -0.05850000  *   0.90450000  *
     6       C          0.20750000  *   0.96470000  *   0.75340000  *
     7       C          0.25660000  *   1.34050000  *  -0.51990000  *
     8       H          0.02840000  *  -0.05630000  *  -2.20100000  *
     9       H         -1.39970000  *  -1.48770000  *  -0.26990000  *
    10       H         -2.15320000  *  -0.00170000  *  -1.00320000  *
    11       H          2.12660000  *  -0.67550000  *  -1.02710000  *
    12       H          0.95570000  *  -1.86890000  *  -0.30560000  *
    13       H         -1.93990000  *   1.15230000  *   1.01170000  *
    14       H         -1.22020000  *  -0.32800000  *   1.79210000  *
    15       H          2.29450000  *   0.43920000  *   1.00670000  *
    16       H          1.13240000  *  -0.73850000  *   1.76750000  *
    17       H         -0.36730000  *   2.15320000  *  -0.88830000  *
 


          CARTESIAN COORDINATES 

    NO.       ATOM           X           Y           Z

     1         C          0.0401     -0.0135     -1.0909
     2         C         -1.2930     -0.3904     -0.4146
     3         C          1.1916     -0.7899     -0.4351
     4         C         -1.1644      0.3591      0.9196
     5         C          1.3042     -0.0585      0.9045
     6         C          0.2075      0.9647      0.7534
     7         C          0.2566      1.3405     -0.5199
     8         H          0.0284     -0.0563     -2.2010
     9         H         -1.3997     -1.4877     -0.2699
    10         H         -2.1532     -0.0017     -1.0032
    11         H          2.1266     -0.6755     -1.0271
    12         H          0.9557     -1.8689     -0.3056
    13         H         -1.9399      1.1523      1.0117
    14         H         -1.2202     -0.3280      1.7921
    15         H          2.2945      0.4392      1.0067
    16         H          1.1324     -0.7385      1.7675
    17         H         -0.3673      2.1532     -0.8883

  H: (PM3): J. J. P. STEWART, J. COMP. CHEM. 10, 209 (1989).
  C: (PM3): J. J. P. STEWART, J. COMP. CHEM. 10, 209 (1989).

           Empirical Formula: C7 H10  =    17 atoms



      MOLECULAR POINT GROUP   :   C1  


      RHF CALCULATION, NO. OF DOUBLY OCCUPIED LEVELS = 19


          Geometry optimization using EF

          DIAGONAL MATRIX USED AS START HESSIAN

 CYCLE:     1 TIME:   0.031 TIME LEFT:  2.00D  GRAD.:   211.486 HEAT:  112.5264
 CYCLE:     2 TIME:   0.047 TIME LEFT:  2.00D  GRAD.:   110.466 HEAT:  105.3453
 CYCLE:     3 TIME:   0.023 TIME LEFT:  2.00D  GRAD.:    75.772 HEAT:  101.3349
 CYCLE:     4 TIME:   0.031 TIME LEFT:  2.00D  GRAD.:    56.937 HEAT:  99.50165
 CYCLE:     5 TIME:   0.023 TIME LEFT:  2.00D  GRAD.:    61.633 HEAT:  99.04212
 CYCLE:     6 TIME:   0.023 TIME LEFT:  2.00D  GRAD.:    61.370 HEAT:  98.60706
 CYCLE:     7 TIME:   0.039 TIME LEFT:  2.00D  GRAD.:    23.997 HEAT:  97.64549
 CYCLE:     8 TIME:   0.031 TIME LEFT:  2.00D  GRAD.:    15.739 HEAT:  97.42194
 CYCLE:     9 TIME:   0.023 TIME LEFT:  2.00D  GRAD.:    22.567 HEAT:  97.35258
 CYCLE:    10 TIME:   0.023 TIME LEFT:  2.00D  GRAD.:    19.598 HEAT:  97.22711
 CYCLE:    11 TIME:   0.031 TIME LEFT:  2.00D  GRAD.:     8.772 HEAT:  97.11807
 CYCLE:    12 TIME:   0.023 TIME LEFT:  2.00D  GRAD.:     8.205 HEAT:  97.08105
 CYCLE:    13 TIME:   0.023 TIME LEFT:  2.00D  GRAD.:     9.070 HEAT:  97.04790
 CYCLE:    14 TIME:   0.023 TIME LEFT:  2.00D  GRAD.:     6.634 HEAT:  97.01255
 CYCLE:    15 TIME:   0.023 TIME LEFT:  2.00D  GRAD.:     9.116 HEAT:  97.00137
 CYCLE:    16 TIME:   0.023 TIME LEFT:  2.00D  GRAD.:     4.874 HEAT:  96.96604
 CYCLE:    17 TIME:   0.023 TIME LEFT:  2.00D  GRAD.:     6.343 HEAT:  96.94331
 CYCLE:    18 TIME:   0.023 TIME LEFT:  2.00D  GRAD.:     7.793 HEAT:  96.91297
 CYCLE:    19 TIME:   0.023 TIME LEFT:  2.00D  GRAD.:     6.115 HEAT:  96.85668
 CYCLE:    20 TIME:   0.023 TIME LEFT:  2.00D  GRAD.:     5.218 HEAT:  96.81929
 CYCLE:    21 TIME:   0.016 TIME LEFT:  2.00D  GRAD.:     7.592 HEAT:  96.78597
 CYCLE:    22 TIME:   0.023 TIME LEFT:  2.00D  GRAD.:     7.415 HEAT:  96.75508
 CYCLE:    23 TIME:   0.023 TIME LEFT:  2.00D  GRAD.:     3.794 HEAT:  96.72195
 CYCLE:    24 TIME:   0.023 TIME LEFT:  2.00D  GRAD.:     2.804 HEAT:  96.71026
 CYCLE:    25 TIME:   0.023 TIME LEFT:  2.00D  GRAD.:     1.924 HEAT:  96.70426
 CYCLE:    26 TIME:   0.023 TIME LEFT:  2.00D  GRAD.:     1.597 HEAT:  96.70001
 CYCLE:    27 TIME:   0.023 TIME LEFT:  2.00D  GRAD.:     1.571 HEAT:  96.69630
 CYCLE:    28 TIME:   0.023 TIME LEFT:  2.00D  GRAD.:     1.650 HEAT:  96.69203
 CYCLE:    29 TIME:   0.023 TIME LEFT:  2.00D  GRAD.:     1.292 HEAT:  96.68806
 CYCLE:    30 TIME:   0.023 TIME LEFT:  2.00D  GRAD.:     0.926 HEAT:  96.68552
 CYCLE:    31 TIME:   0.023 TIME LEFT:  2.00D  GRAD.:     0.844 HEAT:  96.68357
 CYCLE:    32 TIME:   0.023 TIME LEFT:  2.00D  GRAD.:     0.721 HEAT:  96.68207
 CYCLE:    33 TIME:   0.023 TIME LEFT:  2.00D  GRAD.:     0.406 HEAT:  96.68122
 CYCLE:    34 TIME:   0.023 TIME LEFT:  2.00D  GRAD.:     0.224 HEAT:  96.68096
 CYCLE:    35 TIME:   0.016 TIME LEFT:  2.00D  GRAD.:     0.136 HEAT:  96.68089
 CYCLE:    36 TIME:   0.023 TIME LEFT:  2.00D  GRAD.:     0.100 HEAT:  96.68086
 CYCLE:    37 TIME:   0.023 TIME LEFT:  2.00D  GRAD.:     0.071 HEAT:  96.68084
 CYCLE:    38 TIME:   0.023 TIME LEFT:  2.00D  GRAD.:     0.056 HEAT:  96.68083
 CYCLE:    39 TIME:   0.023 TIME LEFT:  2.00D  GRAD.:     0.042 HEAT:  96.68082

     GRADIENT =  0.04235  IS LESS THAN CUTOFF =  0.05000



 -------------------------------------------------------------------------------
 pm3  precise nosym THREADS=1
 InChI=1S/C7H10/c1-2-7-4-3-6(1)5-7/h5-6H,1-4H2



     GEOMETRY OPTIMISED USING EIGENVECTOR FOLLOWING (EF).     
     SCF FIELD WAS ACHIEVED                                   


                              PM3 CALCULATION
                                                       MOPAC2016 (Version: 18.184L)
                                                       Thu Jun 13 23:39:47 2019
                                                       No. of days remaining =  20




          FINAL HEAT OF FORMATION =         96.68082 KCAL/MOL =     404.51255 KJ/MOL


          TOTAL ENERGY            =       -979.61722 EV
          ELECTRONIC ENERGY       =      -4767.94395 EV  POINT GROUP:     C1  
          CORE-CORE REPULSION     =       3788.32673 EV
          COSMO AREA              =        136.07 SQUARE ANGSTROMS
          COSMO VOLUME            =        132.93 CUBIC ANGSTROMS

          GRADIENT NORM           =          0.04235 = 0.01027 PER ATOM
          IONIZATION POTENTIAL    =          8.204285 EV
          HOMO LUMO ENERGIES (EV) =         -8.204 -0.768
          NO. OF FILLED LEVELS    =         19
          MOLECULAR WEIGHT        =         94.1560

          MOLECULAR DIMENSIONS (Angstroms)

            Atom       Atom       Distance
            H    13    H    11     4.99693
            H    17    H    16     4.17275
            H    15    H     9     3.86059


          SCF CALCULATIONS        =         45
 
          WALL-CLOCK TIME         =          1.133 SECONDS
          COMPUTATION TIME        =          0.458 SECONDS




   ATOM   CHEMICAL          X               Y               Z
  NUMBER   SYMBOL      (ANGSTROMS)     (ANGSTROMS)     (ANGSTROMS)
 
     1       C          0.08507484  *  -0.02144109  *  -1.16059242  *
     2       C         -1.26313053  *  -0.40421711  *  -0.37703077  *
     3       C          1.24187905  *  -0.77572144  *  -0.48372319  *
     4       C         -1.19172389  *   0.43554795  *   0.99150977  *
     5       C          1.27506458  *  -0.12136694  *   0.91514384  *
     6       C          0.20882931  *   0.94269678  *   0.77635484  *
     7       C          0.16357736  *   1.36825579  *  -0.55814004  *
     8       H          0.01878268  *  -0.12647652  *  -2.25475963  *
     9       H         -1.32600097  *  -1.48883407  *  -0.20038805  *
    10       H         -2.15216442  *  -0.11956048  *  -0.96039280  *
    11       H          2.18680073  *  -0.63692787  *  -1.03591871  *
    12       H          1.05958599  *  -1.86312428  *  -0.43964323  *
    13       H         -1.96691323  *   1.21660956  *   1.03298429  *
    14       H         -1.30544368  *  -0.19773035  *   1.88475187  *
    15       H          2.24987536  *   0.33975503  *   1.15006171  *
    16       H          1.06489835  *  -0.83695325  *   1.72854860  *
    17       H         -0.29262190  *   2.26076664  *  -0.97581699  *

                             CARTESIAN COORDINATES

   1    C        0.085074841    -0.021441087    -1.160592420
   2    C       -1.263130526    -0.404217110    -0.377030775
   3    C        1.241879045    -0.775721439    -0.483723191
   4    C       -1.191723892     0.435547954     0.991509772
   5    C        1.275064583    -0.121366942     0.915143837
   6    C        0.208829313     0.942696783     0.776354844
   7    C        0.163577355     1.368255792    -0.558140044
   8    H        0.018782676    -0.126476519    -2.254759631
   9    H       -1.326000967    -1.488834069    -0.200388052
  10    H       -2.152164420    -0.119560477    -0.960392803
  11    H        2.186800735    -0.636927872    -1.035918712
  12    H        1.059585992    -1.863124281    -0.439643226
  13    H       -1.966913229     1.216609564     1.032984289
  14    H       -1.305443681    -0.197730345     1.884751873
  15    H        2.249875358     0.339755033     1.150061707
  16    H        1.064898353    -0.836953254     1.728548598
  17    H       -0.292621896     2.260766640    -0.975816988


           Empirical Formula: C7 H10  =    17 atoms



      MOLECULAR POINT GROUP   :   C1  


                  EIGENVALUES  
 -42.80616 -30.70495 -28.11365 -26.37797 -21.79972 -19.02049 -18.68232 -16.31770
 -16.03901 -15.51517 -14.23360 -13.65350 -13.03967 -12.97447 -12.66938 -12.39307
 -11.77452 -11.25243  -8.20429  -0.76833   3.00712   3.23884   3.37879   3.59204
   3.71536   3.84780   3.96542   4.08207   4.09464   4.20175   4.30159   4.46053
   4.55598   4.73388   5.13037   5.16339   5.34720   5.58575


              NET ATOMIC CHARGES AND DIPOLE CONTRIBUTIONS

  ATOM NO.   TYPE          CHARGE      No. of ELECS.   s-Pop       p-Pop       
    1          C          -0.044415        4.0444     1.19068     2.85374
    2          C          -0.126082        4.1261     1.21003     2.91605
    3          C          -0.100141        4.1001     1.16420     2.93594
    4          C           0.007816        3.9922     1.15573     2.83645
    5          C          -0.085088        4.0851     1.16389     2.92120
    6          C          -0.179774        4.1798     1.27960     2.90017
    7          C          -0.122173        4.1222     1.23400     2.88817
    8          H           0.081574        0.9184     0.91843
    9          H           0.053927        0.9461     0.94607
   10          H           0.050145        0.9499     0.94985
   11          H           0.056517        0.9435     0.94348
   12          H           0.057226        0.9428     0.94277
   13          H           0.057147        0.9429     0.94285
   14          H           0.055325        0.9447     0.94467
   15          H           0.062802        0.9372     0.93720
   16          H           0.056269        0.9437     0.94373
   17          H           0.118923        0.8811     0.88108
 DIPOLE           X         Y         Z       TOTAL
 POINT-CHG.    -0.750    -0.628    -0.499     1.098
 HYBRID        -0.048    -0.192    -0.314     0.371
 SUM           -0.798    -0.820    -0.813     1.404


          ATOMIC ORBITAL ELECTRON POPULATIONS

     Atom    s        px        py        pz   
    1  C   1.19068   0.94998   0.92785   0.97591
    2  C   1.21003   0.96962   1.00472   0.94170
    3  C   1.16420   0.97802   0.98257   0.97534
    4  C   1.15573   0.91887   0.96461   0.95298
    5  C   1.16389   0.99578   0.96906   0.95636
    6  C   1.27960   0.93714   0.94893   1.01410
    7  C   1.23400   0.93967   0.95729   0.99121
    8  H   0.91843
    9  H   0.94607
   10  H   0.94985
   11  H   0.94348
   12  H   0.94277
   13  H   0.94285
   14  H   0.94467
   15  H   0.93720
   16  H   0.94373
   17  H   0.88108
 *******************************************************************************
 ** Site#: 14399        For non-commercial use only    Version 18.184L 64BITS **
 *******************************************************************************
 ** Cite this program as: MOPAC2016, Version: 18.184L, James J. P. Stewart,   **
 ** Stewart Computational Chemistry, web: HTTP://OpenMOPAC.net. Days left:  20**
 *******************************************************************************
 **                                                                           **
 **                                MOPAC2016                                  **
 **                                                                           **
 *******************************************************************************

                              PM3 CALCULATION RESULTS

 *******************************************************************************
 *  CALCULATION DONE:                                Thu Jun 13 23:39:47 2019  *
 *  PM3        - The PM3 Hamiltonian to be used
 *  OLDGEO     - PREVIOUS GEOMETRY TO BE USED
 *  PRECISE    - CRITERIA TO BE INCREASED BY 100 TIMES
 *  NOSYM      - POINT-GROUP SYMMETRY SET TO C1
 *  THREADS=1  - MULTI-THREADING NOT USED
 *  T=         - A TIME OF 172800.0 SECONDS REQUESTED
 *  DUMP=N     - RESTART FILE WRITTEN EVERY  7200.000 SECONDS
 *  THERMO     - THERMODYNAMIC QUANTITIES TO BE CALCULATED
 *******************************************************************************
oldgeo thermo nosym precise THREADS=1  pm3
 InChI=1S/C7H10/c1-2-7-4-3-6(1)5-7/h5-6H,1-4H2

   ATOM   CHEMICAL          X               Y               Z
  NUMBER   SYMBOL      (ANGSTROMS)     (ANGSTROMS)     (ANGSTROMS)
 
     1       C          0.08507484  *  -0.02144109  *  -1.16059242  *
     2       C         -1.26313053  *  -0.40421711  *  -0.37703077  *
     3       C          1.24187905  *  -0.77572144  *  -0.48372319  *
     4       C         -1.19172389  *   0.43554795  *   0.99150977  *
     5       C          1.27506458  *  -0.12136694  *   0.91514384  *
     6       C          0.20882931  *   0.94269678  *   0.77635484  *
     7       C          0.16357736  *   1.36825579  *  -0.55814004  *
     8       H          0.01878268  *  -0.12647652  *  -2.25475963  *
     9       H         -1.32600097  *  -1.48883407  *  -0.20038805  *
    10       H         -2.15216442  *  -0.11956048  *  -0.96039280  *
    11       H          2.18680073  *  -0.63692787  *  -1.03591871  *
    12       H          1.05958599  *  -1.86312428  *  -0.43964323  *
    13       H         -1.96691323  *   1.21660956  *   1.03298429  *
    14       H         -1.30544368  *  -0.19773035  *   1.88475187  *
    15       H          2.24987536  *   0.33975503  *   1.15006171  *
    16       H          1.06489835  *  -0.83695325  *   1.72854860  *
    17       H         -0.29262190  *   2.26076664  *  -0.97581699  *
 


          CARTESIAN COORDINATES 

    NO.       ATOM           X           Y           Z

     1         C          0.0851     -0.0214     -1.1606
     2         C         -1.2631     -0.4042     -0.3770
     3         C          1.2419     -0.7757     -0.4837
     4         C         -1.1917      0.4355      0.9915
     5         C          1.2751     -0.1214      0.9151
     6         C          0.2088      0.9427      0.7764
     7         C          0.1636      1.3683     -0.5581
     8         H          0.0188     -0.1265     -2.2548
     9         H         -1.3260     -1.4888     -0.2004
    10         H         -2.1522     -0.1196     -0.9604
    11         H          2.1868     -0.6369     -1.0359
    12         H          1.0596     -1.8631     -0.4396
    13         H         -1.9669      1.2166      1.0330
    14         H         -1.3054     -0.1977      1.8848
    15         H          2.2499      0.3398      1.1501
    16         H          1.0649     -0.8370      1.7285
    17         H         -0.2926      2.2608     -0.9758

  H: (PM3): J. J. P. STEWART, J. COMP. CHEM. 10, 209 (1989).
  C: (PM3): J. J. P. STEWART, J. COMP. CHEM. 10, 209 (1989).

           Empirical Formula: C7 H10  =    17 atoms



      MOLECULAR POINT GROUP   :   C1  


      RHF CALCULATION, NO. OF DOUBLY OCCUPIED LEVELS = 19



          HEAT OF FORMATION =      96.680821 KCALS/MOLE


          CARTESIAN COORDINATE DERIVATIVES

   NUMBER  ATOM         X            Y            Z

     1       C     -0.009111     0.001121     0.006537
     2       C     -0.006669     0.006302    -0.004171
     3       C      0.000572     0.005874     0.001228
     4       C      0.011589    -0.005181    -0.001979
     5       C      0.004681    -0.001598    -0.002551
     6       C      0.012455    -0.003148     0.004729
     7       C      0.000127     0.002154     0.000524
     8       H     -0.000602    -0.011414     0.007068
     9       H     -0.008876     0.006592     0.000790
    10       H     -0.003155     0.007856    -0.007014
    11       H     -0.003097     0.002582    -0.003453
    12       H      0.012968    -0.009875    -0.005849
    13       H     -0.003881    -0.006396     0.011320
    14       H      0.005928     0.001371     0.003004
    15       H     -0.007094    -0.000630    -0.004733
    16       H     -0.006372     0.003379     0.002720
    17       H      0.000537     0.001011    -0.008171
 


          GRADIENT NORM =   0.04285


          TIME FOR SCF CALCULATION =    0.03

          TIME FOR DERIVATIVES     =    0.01

          MOLECULAR WEIGHT =   94.16



          ROTATIONAL CONSTANTS IN CM(-1)

          A =    0.13806298   B =    0.11062570   C =    0.09502509



           PRINCIPAL MOMENTS OF INERTIA IN UNITS OF 10**(-40)*GRAM-CM**2

          A =      202.7537   B =      253.0404   C =      294.5830


          ORIENTATION OF MOLECULE IN FORCE CALCULATION

    NO.       ATOM         X         Y         Z

     1          C      -0.5477   -0.5982   -0.8683
     2          C       1.0580   -0.5982   -0.8683
     3          C      -1.0089    0.8690   -0.8683
     4          C       1.4657   -0.2141    0.6382
     5          C      -0.5101    1.3609    0.5084
     6          C       0.0638    0.0895    1.0938
     7          C      -0.6509   -1.0053    0.5891
     8          H      -1.0009   -1.2437   -1.6367
     9          H       1.4555    0.1163   -1.6052
    10          H       1.4519   -1.5908   -1.1352
    11          H      -2.1049    0.9434   -0.9701
    12          H      -0.5751    1.4410   -1.7063
    13          H       1.9506   -1.0553    1.1577
    14          H       2.1480    0.6484    0.6867
    15          H      -1.3239    1.7450    1.1474
    16          H       0.2339    2.1722    0.4303
    17          H      -0.6844   -2.0270    0.9552


    FIRST DERIVATIVES WILL BE USED IN THE CALCULATION OF SECOND DERIVATIVES

          ESTIMATED TIME TO COMPLETE CALCULATION =        7.97 SECONDS

    FOR POINT-GROUP C1   THERE ARE   1 UNIQUE SYMMETRY FUNCTIONS.

 STEP:   1 TIME =     0.04 SECS, INTEGRAL =      0.04 TIME LEFT: 172799.92
 STEP:   2 TIME =     0.09 SECS, INTEGRAL =      0.12 TIME LEFT: 172799.84
 STEP:   3 TIME =     0.04 SECS, INTEGRAL =      0.16 TIME LEFT: 172799.80
 STEP:   4 TIME =     0.03 SECS, INTEGRAL =      0.20 TIME LEFT: 172799.77
 STEP:   5 TIME =     0.04 SECS, INTEGRAL =      0.23 TIME LEFT: 172799.73
 STEP:   6 TIME =     0.03 SECS, INTEGRAL =      0.27 TIME LEFT: 172799.70
 STEP:   7 TIME =     0.02 SECS, INTEGRAL =      0.29 TIME LEFT: 172799.67
 STEP:   8 TIME =     0.03 SECS, INTEGRAL =      0.32 TIME LEFT: 172799.64
 STEP:   9 TIME =     0.02 SECS, INTEGRAL =      0.34 TIME LEFT: 172799.62
 STEP:  10 TIME =     0.03 SECS, INTEGRAL =      0.38 TIME LEFT: 172799.59
 STEP:  11 TIME =     0.02 SECS, INTEGRAL =      0.40 TIME LEFT: 172799.56
 STEP:  12 TIME =     0.03 SECS, INTEGRAL =      0.43 TIME LEFT: 172799.53
 STEP:  13 TIME =     0.03 SECS, INTEGRAL =      0.46 TIME LEFT: 172799.50
 STEP:  14 TIME =     0.03 SECS, INTEGRAL =      0.49 TIME LEFT: 172799.47
 STEP:  15 TIME =     0.03 SECS, INTEGRAL =      0.52 TIME LEFT: 172799.44
 STEP:  16 TIME =     0.03 SECS, INTEGRAL =      0.55 TIME LEFT: 172799.41
 STEP:  17 TIME =     0.03 SECS, INTEGRAL =      0.59 TIME LEFT: 172799.38
 STEP:  18 TIME =     0.03 SECS, INTEGRAL =      0.62 TIME LEFT: 172799.34
 STEP:  19 TIME =     0.02 SECS, INTEGRAL =      0.64 TIME LEFT: 172799.32
 STEP:  20 TIME =     0.03 SECS, INTEGRAL =      0.67 TIME LEFT: 172799.29
 STEP:  21 TIME =     0.03 SECS, INTEGRAL =      0.70 TIME LEFT: 172799.26
 STEP:  22 TIME =     0.02 SECS, INTEGRAL =      0.73 TIME LEFT: 172799.23
 STEP:  23 TIME =     0.03 SECS, INTEGRAL =      0.76 TIME LEFT: 172799.20
 STEP:  24 TIME =     0.02 SECS, INTEGRAL =      0.78 TIME LEFT: 172799.18
 STEP:  25 TIME =     0.03 SECS, INTEGRAL =      0.81 TIME LEFT: 172799.15
 STEP:  26 TIME =     0.03 SECS, INTEGRAL =      0.84 TIME LEFT: 172799.12
 STEP:  27 TIME =     0.02 SECS, INTEGRAL =      0.87 TIME LEFT: 172799.09
 STEP:  28 TIME =     0.04 SECS, INTEGRAL =      0.91 TIME LEFT: 172799.05
 STEP:  29 TIME =     0.03 SECS, INTEGRAL =      0.94 TIME LEFT: 172799.02
 STEP:  30 TIME =     0.03 SECS, INTEGRAL =      0.97 TIME LEFT: 172798.99
 STEP:  31 TIME =     0.03 SECS, INTEGRAL =      1.00 TIME LEFT: 172798.96
 STEP:  32 TIME =     0.02 SECS, INTEGRAL =      1.02 TIME LEFT: 172798.94
 STEP:  33 TIME =     0.03 SECS, INTEGRAL =      1.05 TIME LEFT: 172798.91
 STEP:  34 TIME =     0.03 SECS, INTEGRAL =      1.09 TIME LEFT: 172798.88
 STEP:  35 TIME =     0.03 SECS, INTEGRAL =      1.12 TIME LEFT: 172798.84
 STEP:  36 TIME =     0.02 SECS, INTEGRAL =      1.14 TIME LEFT: 172798.82
 STEP:  37 TIME =     0.03 SECS, INTEGRAL =      1.17 TIME LEFT: 172798.79
 STEP:  38 TIME =     0.03 SECS, INTEGRAL =      1.20 TIME LEFT: 172798.76
 STEP:  39 TIME =     0.02 SECS, INTEGRAL =      1.23 TIME LEFT: 172798.73
 STEP:  40 TIME =     0.03 SECS, INTEGRAL =      1.26 TIME LEFT: 172798.70
 STEP:  41 TIME =     0.02 SECS, INTEGRAL =      1.28 TIME LEFT: 172798.68
 STEP:  42 TIME =     0.04 SECS, INTEGRAL =      1.32 TIME LEFT: 172798.64
 STEP:  43 TIME =     0.03 SECS, INTEGRAL =      1.35 TIME LEFT: 172798.61
 STEP:  44 TIME =     0.03 SECS, INTEGRAL =      1.38 TIME LEFT: 172798.58
 STEP:  45 TIME =     0.04 SECS, INTEGRAL =      1.42 TIME LEFT: 172798.54
 STEP:  46 TIME =     0.04 SECS, INTEGRAL =      1.46 TIME LEFT: 172798.50
 STEP:  47 TIME =     0.04 SECS, INTEGRAL =      1.50 TIME LEFT: 172798.46
 STEP:  48 TIME =     0.04 SECS, INTEGRAL =      1.54 TIME LEFT: 172798.42
 STEP:  49 TIME =     0.03 SECS, INTEGRAL =      1.57 TIME LEFT: 172798.39
 STEP:  50 TIME =     0.03 SECS, INTEGRAL =      1.60 TIME LEFT: 172798.36
 STEP:  51 TIME =     0.04 SECS, INTEGRAL =      1.64 TIME LEFT: 172798.32

(To convert to Hartree/Bohr^2, multiply by (10^(-21) x N x a0^2)/(4.184 x 627.51) =  0.0642)


           FORCE MATRIX IN MILLIDYNES/ANGSTROM


                  C  1       C  2       C  3       C  4       C  5       C  6
 ------------------------------------------------------------------------------
     C    1  14.098004
     C    2   2.156398  12.969254
     C    3   3.664128   0.595667  14.205524
     C    4   0.645954   2.193490   0.053599  13.742219
     C    5   0.961954   0.085384   3.494925   0.593305  14.373550
     C    6   1.612232   1.189277   0.986916   4.127296   4.067102  13.763999
     C    7   3.890072   1.227658   0.845967   1.242586   0.988943   7.647984
     H    8   4.684351   0.400280   0.408957   0.035210   0.038379   0.043012
     H    9   0.422060   4.679290   0.034643   0.414017   0.005473   0.035421
     H   10   0.427943   4.682898   0.045428   0.432970   0.002856   0.013959
     H   11   0.442857   0.047322   4.608258   0.004616   0.439990   0.018781
     H   12   0.453191   0.027841   4.591681   0.005318   0.445336   0.022857
     H   13   0.018944   0.431633   0.004440   4.652296   0.046920   0.449724
     H   14   0.024192   0.421604   0.003638   4.662300   0.025810   0.466653
     H   15   0.034011   0.004219   0.451738   0.038905   4.585989   0.404484
     H   16   0.024493   0.005954   0.439897   0.032482   4.594329   0.438284
     H   17   0.387707   0.021492   0.041190   0.041781   0.111019   0.496193


                  C  7       H  8       H  9       H 10       H 11       H 12
 ------------------------------------------------------------------------------
     C    7  15.381956
     H    8   0.425890   5.209853
     H    9   0.030578   0.011565   5.296272
     H   10   0.036795   0.022025   0.559415   5.293991
     H   11   0.016851   0.023144   0.002999   0.007867   5.220282
     H   12   0.060140   0.010268   0.029529   0.003483   0.561277   5.214669
     H   13   0.053900   0.002273   0.031545   0.027496   0.000611   0.000586
     H   14   0.038335   0.005230   0.025109   0.026478   0.000626   0.000573
     H   15   0.031362   0.003185   0.000774   0.000574   0.027695   0.027015
     H   16   0.053452   0.003257   0.001288   0.000598   0.030403   0.028676
     H   17   5.101340   0.005316   0.001306   0.004272   0.004074   0.008339


                  H 13       H 14       H 15       H 16       H 17
 ------------------------------------------------------------------
     H   13   5.274146
     H   14   0.534053   5.264143
     H   15   0.006055   0.002802   5.192486
     H   16   0.003166   0.027292   0.567008   5.215124
     H   17   0.007066   0.002202   0.010684   0.007958   5.521308


          HEAT OF FORMATION =      96.680821 KCALS/MOLE

          ZERO POINT ENERGY      94.204 KCAL/MOL


           NORMAL COORDINATE ANALYSIS (Total motion = 1 Angstrom)


   Root No.       1         2         3         4         5         6         7         8

                 1 A       2 A       3 A       4 A       5 A       6 A       7 A       8 A   

                 213.2     368.9     410.4     505.5     570.0     688.8     745.0     799.8
  
           1    0.0045   -0.0066   -0.0196   -0.0210    0.0573    0.0320    0.0362    0.0043
           2   -0.0025   -0.0131   -0.0158   -0.0009   -0.0283    0.0453    0.0389    0.0024
           3   -0.0020    0.0173    0.0110   -0.0020   -0.0072   -0.0042    0.0491   -0.0046
           4    0.0075   -0.0099   -0.0202   -0.0200    0.0081   -0.0290    0.0413   -0.0059
           5    0.0372    0.0304    0.0320   -0.0102   -0.0105    0.0060    0.0102   -0.0198
           6    0.0036   -0.0152   -0.0009   -0.0047   -0.0368   -0.0067    0.0133    0.0127
           7   -0.0358    0.0257    0.0320    0.0073    0.0323   -0.0103   -0.0125    0.0088
           8   -0.0167   -0.0040   -0.0018    0.0119   -0.0284    0.0034    0.0349    0.0054
           9    0.0045   -0.0197   -0.0090    0.0004    0.0367   -0.0368   -0.0110   -0.0119
          10   -0.0012   -0.0004   -0.0106   -0.0311   -0.0518   -0.0079   -0.0063    0.0021
          11   -0.0258   -0.0285    0.0418   -0.0092   -0.0017   -0.0148   -0.0174   -0.0187
          12    0.0232   -0.0052   -0.0043    0.0152   -0.0435   -0.0101   -0.0558    0.0005
          13    0.0315   -0.0207    0.0404    0.0051    0.0040   -0.0072   -0.0202    0.0082
          14    0.0055   -0.0031   -0.0153    0.0241    0.0317   -0.0395    0.0069   -0.0006
          15   -0.0273   -0.0012   -0.0101   -0.0056    0.0292   -0.0221   -0.0190   -0.0027
          16   -0.0025    0.0089   -0.0172   -0.0336   -0.0375    0.0021   -0.0223   -0.0010
          17   -0.0000    0.0122   -0.0331    0.0187    0.0260   -0.0066   -0.0257   -0.0035
          18   -0.0008    0.0053    0.0140    0.0149    0.0281    0.0932   -0.0293    0.0059
          19   -0.0046    0.0050   -0.0182    0.0715   -0.0103    0.0360   -0.0383   -0.0176
          20    0.0020    0.0066   -0.0270   -0.0324    0.0091    0.0157   -0.0422    0.0190
          21   -0.0020    0.0241    0.0088   -0.0107   -0.0031    0.0104    0.0610    0.0047
          22    0.0248   -0.0150   -0.0197   -0.0458    0.0485    0.0272    0.0687   -0.0010
          23   -0.0140   -0.0301   -0.0158    0.0151   -0.0155    0.0278    0.0307   -0.0008
          24   -0.0042    0.0370    0.0117   -0.0005   -0.0145    0.0093    0.0389    0.0010
          25   -0.0134   -0.0504   -0.0521   -0.0118   -0.0097    0.0246    0.0779   -0.0520
          26    0.0914    0.0939    0.0500   -0.0145    0.0087   -0.0456   -0.0291    0.0821
          27    0.0443    0.0218   -0.0023   -0.0027   -0.0327   -0.0279   -0.0069    0.0809
          28    0.0373    0.0295    0.0159   -0.0265    0.0553   -0.0961   -0.0055    0.0447
          29    0.0645    0.0669    0.0498   -0.0142    0.0115   -0.0309   -0.0145    0.0334
          30   -0.0511   -0.0888   -0.0104    0.0014   -0.0554    0.0166    0.0212   -0.0981
          31   -0.0449    0.0347    0.0382    0.0105    0.0250   -0.0157   -0.0132   -0.0032
          32   -0.0526    0.0342    0.0543    0.0418   -0.0966   -0.0434   -0.0003   -0.0453
          33    0.0720   -0.0809   -0.0257   -0.0091    0.0631   -0.0330   -0.0323    0.0574
          34   -0.1053    0.0879    0.0706    0.0273   -0.0150   -0.0483   -0.0192   -0.0732
          35   -0.0114   -0.0261   -0.0311   -0.0105   -0.0025    0.0362    0.0338    0.0306
          36   -0.0272   -0.0043   -0.0106   -0.0059    0.0322   -0.0347   -0.0160   -0.0344
          37   -0.0434   -0.0484    0.0624   -0.0632   -0.0564    0.0474   -0.0090    0.0999
          38   -0.0621   -0.0717    0.0730   -0.0242   -0.0013   -0.0130   -0.0221    0.0628
          39    0.0046   -0.0283   -0.0253    0.0222   -0.0382   -0.0604   -0.0558    0.0330
          40    0.0305    0.0427   -0.0659   -0.0087   -0.0498   -0.0308   -0.0053   -0.0722
          41   -0.0538   -0.0657    0.0883   -0.0295   -0.0029    0.0045   -0.0185    0.0494
          42    0.0651    0.0250   -0.0142    0.0223   -0.0460   -0.0279   -0.0210   -0.0798
          43    0.0733   -0.0562    0.0581    0.0189    0.0036   -0.0178    0.0084   -0.0307
          44    0.0682   -0.0477    0.0444    0.0923    0.0906    0.0011    0.0626   -0.0510
          45   -0.0125   -0.0188   -0.0250   -0.0305   -0.0070   -0.0618   -0.0189   -0.0196
          46    0.0682   -0.0518    0.0872    0.0507    0.0331    0.0118    0.0349   -0.0233
          47   -0.0329    0.0271   -0.0565   -0.0170    0.0057   -0.0590   -0.0419    0.0303
          48   -0.0844    0.0312   -0.0154   -0.0226    0.0160   -0.0384   -0.0222    0.0444
          49   -0.0197    0.0047   -0.0347    0.3102   -0.0579   -0.0893    0.1259    0.1232
          50    0.0054    0.0123   -0.0286   -0.0640    0.0273    0.0089   -0.0678   -0.0045
          51    0.0053    0.0402    0.0023   -0.0633    0.0416   -0.0251    0.0127   -0.0393


   Root No.       9        10        11        12        13        14        15        16

                 9 A      10 A      11 A      12 A      13 A      14 A      15 A      16 A   

                 816.5     844.3     885.5     892.8     931.5     949.6    1004.7    1013.4
  
           1   -0.0169   -0.0061    0.0003   -0.0422   -0.0102   -0.0153   -0.0077   -0.0175
           2   -0.0024   -0.0062   -0.0055   -0.0052    0.0073   -0.0006   -0.0252    0.0102
           3    0.0019   -0.0194   -0.0042    0.0032    0.0158    0.0075   -0.0232   -0.0163
           4    0.0339   -0.0013   -0.0382    0.0523    0.0097    0.0106   -0.0018    0.0085
           5   -0.0182    0.0216    0.0182    0.0087    0.0137   -0.0126    0.0053    0.0103
           6    0.0071    0.0177    0.0821    0.0202   -0.0190    0.0015    0.0054   -0.0052
           7   -0.0259   -0.0042    0.0120   -0.0032    0.0090    0.0159   -0.0019    0.0163
           8    0.0028   -0.0329   -0.0109    0.0029   -0.0229    0.0053    0.0206   -0.0175
           9    0.0062   -0.0028    0.0107   -0.0071    0.0127   -0.0075   -0.0130    0.0211
          10    0.0046    0.0061    0.0145   -0.0271    0.0176    0.0235    0.0117    0.0025
          11   -0.0159    0.0043   -0.0153   -0.0026   -0.0190    0.0187   -0.0161   -0.0003
          12   -0.0116   -0.0201   -0.0432   -0.0378    0.0148   -0.0033    0.0034   -0.0003
          13   -0.0201    0.0040   -0.0060    0.0256   -0.0091   -0.0212   -0.0107   -0.0090
          14    0.0013   -0.0228    0.0301   -0.0064    0.0348   -0.0028    0.0066   -0.0222
          15    0.0065    0.0239   -0.0019   -0.0057   -0.0022    0.0076    0.0106   -0.0103
          16   -0.0016    0.0059    0.0027   -0.0071   -0.0009    0.0002   -0.0057    0.0009
          17    0.0034    0.0024    0.0057    0.0051   -0.0112   -0.0061   -0.0006    0.0045
          18    0.0169    0.0131   -0.0060    0.0251    0.0057    0.0090   -0.0054   -0.0049
          19    0.0105   -0.0387    0.0178    0.0132   -0.0112   -0.0062    0.0088   -0.0027
          20    0.0082    0.0497   -0.0250    0.0061    0.0016    0.0032    0.0003    0.0013
          21   -0.0130   -0.0046   -0.0238   -0.0104   -0.0104   -0.0070    0.0032    0.0135
          22   -0.0137    0.0455    0.0832   -0.0444   -0.0335   -0.0639    0.0175   -0.0351
          23   -0.0068   -0.0450    0.0367   -0.0275    0.0084   -0.0045   -0.0555    0.1192
          24    0.0055   -0.0182   -0.0899    0.0268    0.0271    0.0397   -0.0122   -0.0967
          25    0.0077    0.0302   -0.0523    0.0705    0.0635   -0.0640   -0.0015    0.1041
          26    0.0500   -0.0361    0.0306   -0.0170   -0.0315    0.0062   -0.0196    0.0168
          27    0.0561   -0.0202    0.0827    0.0069   -0.0301   -0.0209   -0.0159    0.0529
          28    0.0650   -0.0239   -0.0471    0.0590   -0.0745    0.0642    0.0143   -0.0778
          29    0.0183   -0.0073    0.0175    0.0005   -0.0241    0.0117   -0.0024   -0.0129
          30   -0.0729    0.0804    0.0634    0.0569   -0.0064   -0.0034    0.0519   -0.0417
          31   -0.0085    0.0049    0.0118   -0.0102    0.0084    0.0038   -0.0063    0.0132
          32    0.0744   -0.0062   -0.0259    0.0702   -0.0251   -0.0616    0.0024    0.0056
          33   -0.1027   -0.0571    0.0041    0.0935    0.0106    0.0447    0.0150    0.0546
          34    0.0890    0.0580    0.0129   -0.0481    0.0144   -0.0613   -0.0381    0.0102
          35   -0.0153   -0.0209   -0.0365   -0.0574   -0.0984    0.0387    0.0898   -0.0164
          36    0.0490    0.0363   -0.0069   -0.0688   -0.0359   -0.0217    0.0174    0.0188
          37    0.0606   -0.0128    0.0311   -0.0423    0.1200   -0.0466    0.1127   -0.0172
          38    0.0405   -0.0349   -0.0131   -0.0193   -0.0087   -0.0209   -0.0313    0.0321
          39    0.0240   -0.0604   -0.0492   -0.0443   -0.0684    0.0035   -0.1155    0.0685
          40   -0.0383    0.0410    0.0532   -0.0259   -0.0643    0.0996   -0.0571    0.0162
          41    0.0246   -0.0253   -0.0393   -0.0056    0.0442   -0.0436    0.0348   -0.0064
          42   -0.0580    0.0155   -0.0987    0.0192    0.0616    0.0038    0.0853   -0.0509
          43    0.0428    0.0346   -0.0277   -0.0411   -0.0512   -0.0542   -0.0190   -0.0523
          44    0.1007    0.0238    0.0399   -0.1057    0.0518    0.1077    0.0676    0.0344
          45    0.0228    0.0312   -0.0344   -0.0260   -0.0646   -0.1019   -0.0360   -0.0992
          46    0.0328    0.0329   -0.0214   -0.0312   -0.0388    0.0597    0.0469    0.0223
          47   -0.0516   -0.0533    0.0442    0.0492    0.0600   -0.0716   -0.0391   -0.0489
          48   -0.0831   -0.0283   -0.0052    0.0831   -0.0137    0.0478    0.0636    0.0049
          49   -0.0511    0.1983   -0.0802   -0.0242   -0.0034   -0.0262    0.0193    0.0293
          50    0.0131    0.0129   -0.0220    0.0118   -0.0270   -0.0243    0.0616    0.0387
          51   -0.0070   -0.0719   -0.0294    0.0014   -0.0869   -0.0842    0.1731    0.1182


   Root No.      17        18        19        20        21        22        23        24

                17 A      18 A      19 A      20 A      21 A      22 A      23 A      24 A   

                1026.6    1047.2    1076.3    1095.6    1099.2    1142.7    1152.4    1169.4
  
           1    0.0019    0.0143   -0.0081   -0.0085    0.0167   -0.0288   -0.0287    0.0035
           2    0.0008   -0.0048    0.0150    0.0001   -0.0119   -0.0198   -0.0026   -0.0050
           3    0.0005    0.0031    0.0037   -0.0009   -0.0069   -0.0158    0.0128   -0.0366
           4   -0.0039   -0.0038    0.0031    0.0054   -0.0094    0.0142    0.0077   -0.0203
           5    0.0175   -0.0095   -0.0204    0.0240   -0.0066   -0.0020    0.0017   -0.0047
           6   -0.0040   -0.0137    0.0045   -0.0081    0.0045   -0.0155   -0.0010   -0.0134
           7   -0.0095   -0.0279    0.0037    0.0190    0.0209    0.0017    0.0166   -0.0082
           8   -0.0056    0.0054   -0.0101    0.0045    0.0159    0.0086    0.0007   -0.0088
           9   -0.0280    0.0012   -0.0300   -0.0119    0.0040   -0.0184   -0.0051   -0.0132
          10   -0.0010    0.0146    0.0004    0.0010    0.0062    0.0170   -0.0095   -0.0200
          11   -0.0082    0.0032    0.0168   -0.0262    0.0117    0.0172   -0.0101   -0.0011
          12    0.0021    0.0097   -0.0043    0.0075   -0.0014    0.0082   -0.0106    0.0061
          13    0.0055    0.0057   -0.0034   -0.0181   -0.0300    0.0103   -0.0087   -0.0019
          14    0.0087    0.0051    0.0065    0.0012   -0.0137    0.0271   -0.0095    0.0104
          15    0.0326    0.0012    0.0290    0.0109   -0.0027    0.0081    0.0053    0.0165
          16   -0.0025   -0.0060    0.0002    0.0005   -0.0036   -0.0120    0.0198    0.0315
          17    0.0034   -0.0026    0.0004   -0.0041    0.0010   -0.0153    0.0097    0.0012
          18   -0.0140    0.0128   -0.0011    0.0045   -0.0001    0.0370   -0.0103   -0.0093
          19    0.0079   -0.0095    0.0035   -0.0017   -0.0026   -0.0136    0.0109    0.0051
          20   -0.0033    0.0006   -0.0034   -0.0009    0.0039   -0.0188    0.0068   -0.0050
          21   -0.0042    0.0004    0.0034    0.0001   -0.0046    0.0150    0.0117    0.0526
          22    0.0157    0.1431   -0.0106   -0.0210    0.0033    0.0934    0.1899   -0.0317
          23   -0.1170    0.0183    0.1165    0.0380   -0.0810   -0.0401   -0.0414    0.0356
          24    0.0897   -0.0927   -0.0812   -0.0249    0.0592   -0.0732   -0.0834   -0.0505
          25    0.0972   -0.0718   -0.0125   -0.0521    0.0541    0.0809   -0.0452    0.1178
          26    0.0027   -0.0174    0.0266   -0.0440    0.0220   -0.0034   -0.0117    0.0246
          27    0.0374   -0.0598    0.0407   -0.1047    0.0663    0.0196   -0.0407    0.0893
          28   -0.1074    0.0335   -0.0067    0.0792   -0.0629   -0.0433   -0.0580    0.1417
          29   -0.0191    0.0045   -0.0035    0.0204   -0.0131   -0.0139   -0.0144    0.0283
          30   -0.0215   -0.0143   -0.0683    0.1140   -0.0526   -0.0589   -0.0380    0.1042
          31   -0.0103   -0.0190   -0.0007    0.0118    0.0154   -0.0013    0.0110   -0.0060
          32   -0.0175    0.1577   -0.0708   -0.0101    0.1502   -0.0309   -0.0093    0.0712
          33   -0.0179    0.0228   -0.0322    0.0476    0.1665   -0.0240    0.0465    0.0183
          34   -0.0174    0.0222   -0.0310   -0.0387   -0.0305   -0.0352   -0.0222   -0.0051
          35   -0.0408   -0.1243   -0.1072   -0.0419   -0.0508    0.0993    0.0552   -0.0006
          36   -0.0536   -0.0629   -0.1141   -0.0733   -0.0677    0.0241    0.0131   -0.0070
          37   -0.0125    0.0039   -0.0122    0.0248    0.0017   -0.0079   -0.0446    0.0050
          38    0.0477    0.0007   -0.0298    0.0374   -0.0207   -0.0081    0.0282   -0.0105
          39    0.0993    0.0153   -0.0660    0.0869   -0.0490   -0.0073    0.0822   -0.0327
          40    0.0081    0.0424   -0.0021   -0.0064    0.0269    0.1073   -0.0993   -0.0322
          41   -0.0078   -0.0179    0.0123   -0.0131   -0.0062   -0.0499    0.0539    0.0091
          42   -0.0930   -0.0263    0.0924   -0.1065    0.0212   -0.0721    0.1048   -0.0050
          43    0.0062   -0.0514    0.0591    0.0438    0.0383    0.0132    0.0011   -0.0143
          44    0.0344    0.0090    0.0052    0.0203    0.0212    0.0021    0.0299    0.0601
          45    0.0168   -0.0709    0.1064    0.0772    0.0641    0.0293   -0.0070   -0.0282
          46    0.0720    0.0249    0.0240   -0.0227   -0.0271   -0.0827    0.0074    0.0007
          47   -0.0438   -0.0054   -0.0214   -0.0034   -0.0262    0.1052   -0.0259    0.0098
          48    0.1204    0.0957    0.0074   -0.0829   -0.1112   -0.0721   -0.0272    0.0136
          49   -0.0320    0.0227   -0.0004    0.0105    0.0027    0.0092   -0.0365   -0.0533
          50    0.0011    0.0045    0.0150    0.0136    0.0007   -0.0230   -0.0254   -0.0705
          51    0.0017    0.0170    0.0529    0.0421   -0.0129    0.0141   -0.0842   -0.1341


   Root No.      25        26        27        28        29        30        31        32

                25 A      26 A      27 A      28 A      29 A      30 A      31 A      32 A   

                1192.3    1226.3    1250.2    1283.9    1308.9    1332.9    1397.6    1410.1
  
           1   -0.0095   -0.0187   -0.0016   -0.0240   -0.0004    0.0003   -0.0003    0.0026
           2   -0.0179    0.0203   -0.0283    0.0676    0.0069    0.0083    0.0041   -0.0048
           3    0.0130    0.0224    0.0007   -0.0425    0.0569    0.0097   -0.0015    0.0010
           4    0.0100   -0.0070   -0.0207   -0.0067   -0.0277    0.0028    0.0196    0.0095
           5    0.0065   -0.0102    0.0012   -0.0153   -0.0067   -0.0015   -0.0066   -0.0017
           6   -0.0053   -0.0102   -0.0142   -0.0043   -0.0241    0.0039   -0.0214   -0.0085
           7    0.0065    0.0091    0.0013    0.0133   -0.0004    0.0020    0.0092   -0.0133
           8   -0.0000    0.0132    0.0400   -0.0318   -0.0290   -0.0306   -0.0120    0.0194
           9    0.0043    0.0145    0.0272    0.0149   -0.0293   -0.0141    0.0118   -0.0153
          10    0.0013   -0.0300    0.0176    0.0245    0.0216   -0.0193   -0.0199   -0.0148
          11   -0.0039    0.0101   -0.0028   -0.0026   -0.0056    0.0088    0.0017    0.0000
          12    0.0187    0.0235   -0.0208   -0.0095   -0.0142    0.0070   -0.0023   -0.0022
          13   -0.0123   -0.0013   -0.0153   -0.0066    0.0072   -0.0302   -0.0050    0.0054
          14   -0.0058   -0.0128    0.0089    0.0105   -0.0043    0.0345    0.0127   -0.0235
          15   -0.0256    0.0018   -0.0309   -0.0188    0.0106   -0.0391   -0.0027   -0.0016
          16   -0.0238    0.0197    0.0057   -0.0359   -0.0227    0.0473    0.0075    0.0004
          17    0.0304   -0.0058   -0.0133    0.0000    0.0139   -0.0442   -0.0064    0.0035
          18   -0.0065   -0.0134    0.0222    0.0010    0.0000    0.0182    0.0021   -0.0019
          19    0.0055    0.0042   -0.0044    0.0081   -0.0025   -0.0048   -0.0009    0.0008
          20    0.0061    0.0041    0.0088   -0.0092   -0.0019    0.0047    0.0007    0.0013
          21    0.0107   -0.0197   -0.0064    0.0256   -0.0346   -0.0176    0.0009    0.0026
          22    0.0193    0.1277    0.0181    0.0781    0.0395    0.0020    0.0134   -0.0034
          23    0.0523   -0.0687   -0.0115   -0.1367    0.0614    0.0141   -0.0098    0.0085
          24   -0.0620    0.0119   -0.0264    0.0680   -0.0110    0.0034    0.0022   -0.0062
          25    0.0268    0.0587    0.1026   -0.0315    0.1066   -0.0132   -0.1087   -0.0508
          26   -0.0159    0.0095    0.0166    0.0052    0.0273    0.0044    0.1506    0.0622
          27   -0.0173    0.0452    0.0682   -0.0006    0.0833    0.0016    0.0805    0.0280
          28   -0.0200    0.0764    0.0441    0.0954    0.0960   -0.0089   -0.0965   -0.0471
          29   -0.0042    0.0137    0.0072    0.0211    0.0134   -0.0025   -0.0841   -0.0358
          30   -0.0126    0.0259    0.0571    0.0144    0.0867   -0.0071    0.1477    0.0565
          31    0.0038    0.0058   -0.0004    0.0123   -0.0021    0.0003    0.0159   -0.0223
          32   -0.0164   -0.0850   -0.1035   -0.0308    0.0688    0.0544    0.0654   -0.0967
          33    0.0269   -0.0202   -0.0615    0.0570    0.0676    0.0795   -0.0821    0.1153
          34    0.0072    0.0042    0.0014    0.0693   -0.0018    0.0320   -0.0964    0.1465
          35    0.0302   -0.0492   -0.0782   -0.0458    0.1041    0.0633    0.0255   -0.0483
          36    0.0277   -0.0296   -0.0529    0.0358    0.0633    0.0675   -0.0272    0.0344
          37    0.0910    0.0152   -0.0331    0.0327    0.0335   -0.0877    0.0681    0.0669
          38   -0.0216   -0.0435    0.0382    0.0229    0.0352   -0.0393    0.0505    0.0470
          39   -0.0957   -0.1084    0.0958    0.0284    0.0433   -0.0110    0.0048    0.0069
          40    0.0388    0.0116   -0.0055    0.0389    0.0246   -0.0429    0.0598    0.0546
          41   -0.0258   -0.0172    0.0103   -0.0161   -0.0100    0.0257   -0.0569   -0.0513
          42   -0.0855   -0.1051    0.0874    0.0580    0.0655   -0.0540    0.0302    0.0334
          43    0.0593   -0.0279    0.0272    0.0320   -0.0003    0.0849   -0.0184    0.0535
          44   -0.0719    0.0067   -0.0305   -0.0400   -0.0104    0.0695   -0.0429    0.1086
          45    0.1048   -0.0466    0.0471    0.0614    0.0040    0.0936    0.0073   -0.0042
          46    0.0795    0.0005    0.0339    0.0183   -0.0087    0.0133    0.0371   -0.0855
          47   -0.0780   -0.0198   -0.0277   -0.0072    0.0061    0.0208   -0.0314    0.0759
          48    0.1040   -0.0433    0.0555    0.0425   -0.0167    0.1544   -0.0134    0.0523
          49   -0.0387    0.0160    0.0195   -0.0205    0.0082    0.0424    0.0038   -0.0016
          50   -0.0321    0.0278    0.0068   -0.0021    0.0210    0.0279    0.0019   -0.0024
          51   -0.1021    0.0445   -0.0067    0.0374    0.0279    0.0543    0.0049   -0.0078


   Root No.      33        34        35        36        37        38        39        40

                33 A      34 A      35 A      36 A      37 A      38 A      39 A      40 A   

                1413.4    1427.7    1600.3    2995.0    3010.3    3023.1    3036.7    3046.0
  
           1    0.0023   -0.0024   -0.0049   -0.0002    0.0004   -0.0011    0.0027   -0.0205
           2   -0.0009    0.0066    0.0231   -0.0004    0.0008   -0.0014    0.0037   -0.0300
           3    0.0002    0.0027   -0.0247   -0.0006    0.0012   -0.0020    0.0049   -0.0365
           4   -0.0089   -0.0056    0.0073   -0.0000    0.0000    0.0000    0.0001   -0.0014
           5    0.0044    0.0007   -0.0021    0.0002    0.0001    0.0256   -0.0292   -0.0102
           6    0.0165    0.0036   -0.0076   -0.0002    0.0001   -0.0071    0.0080    0.0032
           7   -0.0000    0.0144    0.0003    0.0219   -0.0296   -0.0002    0.0000   -0.0007
           8   -0.0036   -0.0102    0.0054    0.0073   -0.0099   -0.0000    0.0000   -0.0023
           9   -0.0022    0.0220   -0.0016   -0.0107    0.0148   -0.0001    0.0002    0.0027
          10   -0.0465   -0.0017    0.0082   -0.0000   -0.0000   -0.0040   -0.0035   -0.0007
          11    0.0031   -0.0013   -0.0085   -0.0000    0.0003   -0.0312   -0.0244   -0.0033
          12   -0.0065   -0.0011    0.0071   -0.0001   -0.0001    0.0084    0.0064    0.0008
          13   -0.0062    0.0039   -0.0050   -0.0311   -0.0220   -0.0003   -0.0004   -0.0005
          14    0.0149   -0.0367   -0.0172   -0.0081   -0.0056   -0.0002   -0.0003   -0.0006
          15   -0.0010   -0.0122   -0.0090    0.0145    0.0103   -0.0001   -0.0000    0.0000
          16    0.0268   -0.0079    0.0954   -0.0002   -0.0003    0.0001   -0.0000    0.0005
          17   -0.0081    0.0101    0.1575    0.0001   -0.0000   -0.0003   -0.0004    0.0003
          18    0.0008   -0.0072    0.0667    0.0000    0.0000    0.0000   -0.0001    0.0010
          19   -0.0019    0.0018   -0.1054    0.0000   -0.0000    0.0002    0.0005   -0.0003
          20   -0.0023    0.0021   -0.1396    0.0001    0.0001    0.0001    0.0000    0.0004
          21   -0.0050   -0.0015   -0.0476    0.0001   -0.0000    0.0002   -0.0000   -0.0004
          22   -0.0078    0.0110   -0.0233    0.0041   -0.0081    0.0125   -0.0319    0.2533
          23    0.0024   -0.0084   -0.0650    0.0045   -0.0097    0.0193   -0.0471    0.3576
          24    0.0029    0.0084    0.0509    0.0058   -0.0122    0.0225   -0.0557    0.4268
          25    0.0524    0.0266   -0.0155   -0.0013    0.0010   -0.0758    0.0842    0.0333
          26   -0.1073   -0.0338    0.0160   -0.0013    0.0001   -0.1287    0.1436    0.0563
          27   -0.0716   -0.0160   -0.0029    0.0015   -0.0004    0.1347   -0.1558   -0.0607
          28    0.0439    0.0264    0.0025   -0.0004    0.0020    0.0744   -0.0840   -0.0298
          29    0.0530    0.0192   -0.0083    0.0007   -0.0044   -0.1790    0.2057    0.0643
          30   -0.1219   -0.0298    0.0131    0.0001   -0.0012   -0.0495    0.0607    0.0187
          31   -0.0000    0.0234   -0.0013   -0.1892    0.2550    0.0045   -0.0039   -0.0135
          32    0.0138    0.0693   -0.0142    0.0158   -0.0196   -0.0005    0.0007   -0.0029
          33    0.0051   -0.1371   -0.0011   -0.0181    0.0292    0.0003   -0.0001   -0.0002
          34   -0.0053   -0.1504    0.0057   -0.0745    0.0995   -0.0002    0.0007    0.0199
          35    0.0129    0.0190   -0.0101   -0.1036    0.1392   -0.0009    0.0018    0.0244
          36    0.0062   -0.0569   -0.0116    0.1477   -0.2055    0.0008   -0.0020   -0.0370
          37    0.1667    0.0308    0.0163    0.0020    0.0025   -0.1109   -0.0857   -0.0090
          38    0.1403    0.0176   -0.0110   -0.0032   -0.0040    0.1818    0.1374    0.0130
          39    0.0442    0.0025   -0.0093    0.0019    0.0024   -0.1138   -0.0902   -0.0092
          40    0.1388    0.0212   -0.0670    0.0013   -0.0003    0.1572    0.1259    0.0222
          41   -0.1332   -0.0186    0.0550    0.0008   -0.0010    0.1927    0.1542    0.0276
          42    0.1131    0.0175    0.0297    0.0001   -0.0001    0.0126    0.0129    0.0026
          43   -0.0255    0.1065    0.0227    0.2011    0.1424   -0.0018   -0.0000   -0.0068
          44   -0.0378    0.1658   -0.0043   -0.0983   -0.0713    0.0008   -0.0000    0.0023
          45   -0.0013    0.0227    0.0198   -0.1581   -0.1161    0.0013   -0.0001    0.0052
          46    0.0392   -0.1210    0.0417    0.1716    0.1205    0.0027    0.0028    0.0120
          47   -0.0336    0.1089   -0.0485    0.1945    0.1368    0.0038    0.0039    0.0123
          48   -0.0190    0.1190    0.0470   -0.0169   -0.0081   -0.0005   -0.0004   -0.0012
          49    0.0094   -0.0035    0.0680   -0.0002   -0.0002    0.0002    0.0003   -0.0007
          50    0.0017    0.0024   -0.1310    0.0006    0.0035   -0.0004    0.0013   -0.0112
          51    0.0089   -0.0045    0.0635    0.0000   -0.0011    0.0002   -0.0003    0.0029


   Root No.      41        42        43        44        45

                41 A      42 A      43 A      44 A      45 A   

                3074.7    3078.1    3087.0    3096.9    3156.0
  
           1    0.0002   -0.0012   -0.0005    0.0011   -0.0008
           2   -0.0003   -0.0012   -0.0004   -0.0005   -0.0013
           3    0.0001   -0.0021   -0.0007   -0.0008   -0.0018
           4   -0.0004    0.0006   -0.0004    0.0236    0.0007
           5    0.0005   -0.0012   -0.0001   -0.0082   -0.0004
           6    0.0004   -0.0005    0.0026   -0.0298   -0.0006
           7    0.0083   -0.0130   -0.0002    0.0003   -0.0002
           8   -0.0072    0.0122    0.0001   -0.0009    0.0010
           9    0.0111   -0.0173   -0.0002    0.0013   -0.0011
          10    0.0014    0.0006    0.0350    0.0013    0.0006
          11   -0.0005   -0.0005   -0.0007   -0.0002   -0.0002
          12    0.0008    0.0004    0.0165   -0.0007    0.0003
          13   -0.0003   -0.0006   -0.0006   -0.0001    0.0004
          14    0.0236    0.0138   -0.0021   -0.0001    0.0014
          15    0.0106    0.0057   -0.0006    0.0000    0.0001
          16   -0.0002    0.0002    0.0005   -0.0002    0.0021
          17    0.0004    0.0002    0.0002    0.0002    0.0027
          18   -0.0003    0.0003    0.0002    0.0005    0.0026
          19   -0.0000   -0.0000   -0.0004   -0.0004   -0.0059
          20    0.0000    0.0002   -0.0000    0.0003   -0.0703
          21   -0.0001   -0.0001   -0.0002    0.0001    0.0237
          22   -0.0015    0.0124    0.0027    0.0055    0.0062
          23   -0.0035    0.0191    0.0045    0.0056    0.0081
          24   -0.0028    0.0212    0.0053    0.0064    0.0119
          25    0.0015   -0.0011    0.0080   -0.1453   -0.0019
          26    0.0028   -0.0023    0.0147   -0.2987   -0.0035
          27   -0.0025    0.0016   -0.0136    0.2788    0.0029
          28    0.0033   -0.0064    0.0040   -0.1443   -0.0023
          29   -0.0089    0.0167   -0.0100    0.4006    0.0057
          30   -0.0021    0.0042   -0.0010    0.0867    0.0010
          31   -0.1731    0.2785    0.0031   -0.0137    0.0036
          32    0.0066   -0.0098   -0.0002    0.0004   -0.0001
          33   -0.0074    0.0124    0.0002   -0.0003   -0.0003
          34    0.0739   -0.1205   -0.0011    0.0099   -0.0036
          35    0.0839   -0.1361   -0.0012    0.0105   -0.0039
          36   -0.1211    0.1996    0.0015   -0.0161    0.0061
          37   -0.0085   -0.0047   -0.1772   -0.0064   -0.0022
          38    0.0162    0.0086    0.3456    0.0126    0.0036
          39   -0.0096   -0.0053   -0.2030   -0.0082   -0.0022
          40   -0.0077   -0.0023   -0.2440   -0.0101   -0.0030
          41   -0.0104   -0.0032   -0.3392   -0.0145   -0.0031
          42   -0.0002    0.0001   -0.0084   -0.0013    0.0002
          43    0.2093    0.1235   -0.0150   -0.0001    0.0034
          44   -0.0793   -0.0470    0.0053   -0.0001   -0.0010
          45   -0.1558   -0.0931    0.0109    0.0001   -0.0022
          46   -0.2042   -0.1192    0.0210    0.0011   -0.0066
          47   -0.2032   -0.1180    0.0203    0.0010   -0.0069
          48    0.0304    0.0171   -0.0027   -0.0001    0.0008
          49   -0.0003   -0.0004   -0.0000   -0.0002    0.0426
          50   -0.0023   -0.0074   -0.0041   -0.0057    0.8002
          51    0.0007    0.0027    0.0016    0.0021   -0.2924


           MASS-WEIGHTED COORDINATE ANALYSIS (NORMAL COORDINATES)


   Root No.       1         2         3         4         5         6         7         8

                 1 A       2 A       3 A       4 A       5 A       6 A       7 A       8 A   

                 213.2     368.9     410.4     505.5     570.0     688.8     745.0     799.8
  
           1    0.0395   -0.0632   -0.1603   -0.1417    0.3810    0.2130    0.2234    0.0425
           2   -0.0218   -0.1244   -0.1286   -0.0058   -0.1882    0.3017    0.2405    0.0238
           3   -0.0175    0.1644    0.0902   -0.0133   -0.0479   -0.0277    0.3035   -0.0464
           4    0.0667   -0.0940   -0.1652   -0.1350    0.0538   -0.1932    0.2550   -0.0588
           5    0.3307    0.2889    0.2613   -0.0687   -0.0696    0.0403    0.0629   -0.1983
           6    0.0316   -0.1447   -0.0070   -0.0318   -0.2449   -0.0445    0.0822    0.1269
           7   -0.3178    0.2441    0.2614    0.0493    0.2146   -0.0689   -0.0769    0.0878
           8   -0.1482   -0.0379   -0.0149    0.0804   -0.1891    0.0229    0.2155    0.0542
           9    0.0396   -0.1870   -0.0732    0.0025    0.2443   -0.2452   -0.0682   -0.1194
          10   -0.0111   -0.0042   -0.0861   -0.2098   -0.3447   -0.0525   -0.0387    0.0211
          11   -0.2290   -0.2708    0.3415   -0.0621   -0.0116   -0.0988   -0.1073   -0.1865
          12    0.2058   -0.0491   -0.0349    0.1026   -0.2891   -0.0675   -0.3444    0.0053
          13    0.2798   -0.1970    0.3295    0.0341    0.0264   -0.0482   -0.1249    0.0824
          14    0.0488   -0.0292   -0.1250    0.1621    0.2111   -0.2635    0.0425   -0.0060
          15   -0.2429   -0.0110   -0.0823   -0.0380    0.1942   -0.1474   -0.1172   -0.0269
          16   -0.0221    0.0849   -0.1405   -0.2267   -0.2494    0.0142   -0.1380   -0.0095
          17   -0.0003    0.1164   -0.2701    0.1260    0.1730   -0.0439   -0.1589   -0.0346
          18   -0.0075    0.0504    0.1142    0.1006    0.1868    0.6216   -0.1807    0.0592
          19   -0.0405    0.0472   -0.1485    0.4818   -0.0688    0.2401   -0.2364   -0.1757
          20    0.0179    0.0624   -0.2202   -0.2180    0.0605    0.1047   -0.2603    0.1904
          21   -0.0180    0.2297    0.0718   -0.0724   -0.0205    0.0692    0.3765    0.0469
          22    0.0639   -0.0414   -0.0465   -0.0895    0.0935    0.0525    0.1229   -0.0030
          23   -0.0360   -0.0831   -0.0373    0.0294   -0.0299    0.0536    0.0548   -0.0024
          24   -0.0107    0.1019    0.0277   -0.0010   -0.0280    0.0180    0.0696    0.0029
          25   -0.0346   -0.1389   -0.1233   -0.0230   -0.0186    0.0474    0.1393   -0.1507
          26    0.2351    0.2589    0.1183   -0.0283    0.0168   -0.0880   -0.0521    0.2379
          27    0.1139    0.0602   -0.0054   -0.0053   -0.0630   -0.0540   -0.0123    0.2344
          28    0.0958    0.0812    0.0376   -0.0517    0.1067   -0.1856   -0.0098    0.1296
          29    0.1660    0.1844    0.1177   -0.0277    0.0221   -0.0597   -0.0260    0.0968
          30   -0.1314   -0.2447   -0.0247    0.0027   -0.1068    0.0320    0.0379   -0.2840
          31   -0.1154    0.0957    0.0903    0.0204    0.0482   -0.0303   -0.0236   -0.0094
          32   -0.1352    0.0943    0.1284    0.0817   -0.1862   -0.0837   -0.0005   -0.1313
          33    0.1851   -0.2231   -0.0608   -0.0177    0.1215   -0.0637   -0.0578    0.1664
          34   -0.2710    0.2424    0.1671    0.0533   -0.0289   -0.0933   -0.0344   -0.2119
          35   -0.0293   -0.0719   -0.0735   -0.0204   -0.0049    0.0700    0.0604    0.0885
          36   -0.0700   -0.0118   -0.0252   -0.0114    0.0620   -0.0671   -0.0286   -0.0996
          37   -0.1116   -0.1333    0.1477   -0.1233   -0.1087    0.0916   -0.0161    0.2894
          38   -0.1597   -0.1977    0.1726   -0.0473   -0.0025   -0.0251   -0.0395    0.1820
          39    0.0118   -0.0780   -0.0598    0.0432   -0.0736   -0.1166   -0.0997    0.0957
          40    0.0785    0.1176   -0.1560   -0.0170   -0.0959   -0.0596   -0.0095   -0.2092
          41   -0.1385   -0.1810    0.2089   -0.0576   -0.0055    0.0087   -0.0332    0.1431
          42    0.1674    0.0688   -0.0336    0.0435   -0.0886   -0.0539   -0.0375   -0.2312
          43    0.1887   -0.1549    0.1375    0.0369    0.0069   -0.0344    0.0150   -0.0889
          44    0.1753   -0.1314    0.1050    0.1802    0.1746    0.0022    0.1120   -0.1478
          45   -0.0322   -0.0519   -0.0591   -0.0595   -0.0135   -0.1194   -0.0337   -0.0568
          46    0.1754   -0.1428    0.2062    0.0990    0.0638    0.0229    0.0624   -0.0674
          47   -0.0847    0.0746   -0.1336   -0.0332    0.0109   -0.1140   -0.0749    0.0878
          48   -0.2172    0.0859   -0.0365   -0.0442    0.0309   -0.0742   -0.0397    0.1286
          49   -0.0507    0.0130   -0.0820    0.6057   -0.1116   -0.1725    0.2253    0.3569
          50    0.0138    0.0339   -0.0676   -0.1250    0.0526    0.0172   -0.1212   -0.0129
          51    0.0135    0.1109    0.0055   -0.1236    0.0802   -0.0484    0.0227   -0.1138


   Root No.       9        10        11        12        13        14        15        16

                 9 A      10 A      11 A      12 A      13 A      14 A      15 A      16 A   

                 816.5     844.3     885.5     892.8     931.5     949.6    1004.7    1013.4
  
           1   -0.1633   -0.0498    0.0021   -0.3459   -0.0973   -0.1555   -0.0722   -0.1700
           2   -0.0234   -0.0505   -0.0395   -0.0426    0.0693   -0.0056   -0.2358    0.0992
           3    0.0181   -0.1583   -0.0299    0.0265    0.1510    0.0758   -0.2168   -0.1585
           4    0.3266   -0.0106   -0.2743    0.4295    0.0929    0.1079   -0.0172    0.0822
           5   -0.1760    0.1767    0.1309    0.0710    0.1310   -0.1282    0.0498    0.1004
           6    0.0686    0.1448    0.5886    0.1658   -0.1815    0.0156    0.0503   -0.0508
           7   -0.2500   -0.0346    0.0863   -0.0265    0.0859    0.1622   -0.0178    0.1584
           8    0.0270   -0.2682   -0.0779    0.0234   -0.2191    0.0539    0.1922   -0.1702
           9    0.0594   -0.0226    0.0764   -0.0585    0.1211   -0.0765   -0.1219    0.2054
          10    0.0444    0.0498    0.1037   -0.2224    0.1684    0.2388    0.1095    0.0240
          11   -0.1532    0.0353   -0.1100   -0.0217   -0.1817    0.1906   -0.1501   -0.0025
          12   -0.1122   -0.1645   -0.3099   -0.3098    0.1415   -0.0336    0.0315   -0.0028
          13   -0.1939    0.0325   -0.0429    0.2101   -0.0866   -0.2160   -0.1004   -0.0873
          14    0.0128   -0.1863    0.2160   -0.0528    0.3324   -0.0284    0.0612   -0.2160
          15    0.0627    0.1950   -0.0134   -0.0470   -0.0213    0.0776    0.0990   -0.1001
          16   -0.0156    0.0483    0.0195   -0.0584   -0.0088    0.0019   -0.0536    0.0085
          17    0.0331    0.0194    0.0407    0.0417   -0.1068   -0.0619   -0.0053    0.0441
          18    0.1629    0.1068   -0.0428    0.2063    0.0545    0.0913   -0.0501   -0.0478
          19    0.1010   -0.3156    0.1276    0.1085   -0.1068   -0.0635    0.0820   -0.0262
          20    0.0789    0.4053   -0.1795    0.0504    0.0154    0.0328    0.0031    0.0127
          21   -0.1250   -0.0377   -0.1707   -0.0857   -0.0997   -0.0711    0.0302    0.1307
          22   -0.0384    0.1075    0.1729   -0.1055   -0.0927   -0.1884    0.0474   -0.0989
          23   -0.0190   -0.1063    0.0763   -0.0655    0.0233   -0.0134   -0.1503    0.3357
          24    0.0153   -0.0430   -0.1868    0.0636    0.0751    0.1170   -0.0329   -0.2722
          25    0.0216    0.0713   -0.1087    0.1675    0.1757   -0.1885   -0.0040    0.2932
          26    0.1398   -0.0854    0.0636   -0.0404   -0.0871    0.0182   -0.0529    0.0472
          27    0.1568   -0.0477    0.1718    0.0164   -0.0833   -0.0617   -0.0431    0.1490
          28    0.1817   -0.0565   -0.0979    0.1402   -0.2062    0.1892    0.0388   -0.2191
          29    0.0510   -0.0172    0.0363    0.0011   -0.0667    0.0346   -0.0065   -0.0363
          30   -0.2038    0.1900    0.1316    0.1351   -0.0177   -0.0101    0.1406   -0.1174
          31   -0.0237    0.0116    0.0246   -0.0241    0.0232    0.0113   -0.0170    0.0371
          32    0.2080   -0.0146   -0.0539    0.1669   -0.0696   -0.1817    0.0064    0.0158
          33   -0.2871   -0.1350    0.0085    0.2223    0.0294    0.1316    0.0406    0.1538
          34    0.2487    0.1372    0.0269   -0.1143    0.0400   -0.1806   -0.1032    0.0286
          35   -0.0427   -0.0495   -0.0758   -0.1365   -0.2723    0.1141    0.2430   -0.0462
          36    0.1368    0.0859   -0.0144   -0.1635   -0.0994   -0.0639    0.0472    0.0530
          37    0.1693   -0.0303    0.0646   -0.1004    0.3319   -0.1374    0.3052   -0.0484
          38    0.1132   -0.0825   -0.0272   -0.0458   -0.0242   -0.0616   -0.0847    0.0903
          39    0.0669   -0.1428   -0.1022   -0.1053   -0.1892    0.0104   -0.3127    0.1927
          40   -0.1069    0.0969    0.1105   -0.0616   -0.1780    0.2936   -0.1546    0.0455
          41    0.0686   -0.0599   -0.0817   -0.0134    0.1223   -0.1286    0.0942   -0.0179
          42   -0.1621    0.0367   -0.2051    0.0457    0.1705    0.0111    0.2310   -0.1434
          43    0.1197    0.0819   -0.0575   -0.0977   -0.1418   -0.1597   -0.0514   -0.1473
          44    0.2815    0.0563    0.0830   -0.2512    0.1433    0.3174    0.1829    0.0969
          45    0.0638    0.0738   -0.0714   -0.0619   -0.1788   -0.3004   -0.0973   -0.2794
          46    0.0916    0.0779   -0.0445   -0.0742   -0.1074    0.1759    0.1270    0.0628
          47   -0.1443   -0.1261    0.0919    0.1170    0.1661   -0.2110   -0.1059   -0.1378
          48   -0.2321   -0.0669   -0.0107    0.1974   -0.0378    0.1409    0.1722    0.0137
          49   -0.1427    0.4688   -0.1667   -0.0575   -0.0094   -0.0771    0.0523    0.0825
          50    0.0367    0.0306   -0.0458    0.0281   -0.0748   -0.0716    0.1667    0.1091
          51   -0.0195   -0.1701   -0.0611    0.0034   -0.2404   -0.2481    0.4685    0.3326


   Root No.      17        18        19        20        21        22        23        24

                17 A      18 A      19 A      20 A      21 A      22 A      23 A      24 A   

                1026.6    1047.2    1076.3    1095.6    1099.2    1142.7    1152.4    1169.4
  
           1    0.0186    0.1368   -0.0784   -0.0860    0.1543   -0.2472   -0.2676    0.0283
           2    0.0081   -0.0456    0.1452    0.0007   -0.1103   -0.1699   -0.0239   -0.0407
           3    0.0046    0.0291    0.0353   -0.0095   -0.0641   -0.1359    0.1189   -0.2965
           4   -0.0372   -0.0366    0.0303    0.0544   -0.0868    0.1220    0.0721   -0.1642
           5    0.1683   -0.0902   -0.1965    0.2421   -0.0610   -0.0171    0.0155   -0.0383
           6   -0.0380   -0.1303    0.0436   -0.0813    0.0421   -0.1333   -0.0090   -0.1087
           7   -0.0916   -0.2666    0.0358    0.1910    0.1939    0.0147    0.1548   -0.0668
           8   -0.0541    0.0515   -0.0980    0.0448    0.1472    0.0736    0.0068   -0.0716
           9   -0.2693    0.0119   -0.2896   -0.1200    0.0372   -0.1577   -0.0475   -0.1072
          10   -0.0098    0.1394    0.0036    0.0098    0.0572    0.1459   -0.0889   -0.1620
          11   -0.0786    0.0306    0.1622   -0.2637    0.1085    0.1473   -0.0939   -0.0087
          12    0.0199    0.0924   -0.0417    0.0757   -0.0126    0.0703   -0.0987    0.0496
          13    0.0530    0.0544   -0.0325   -0.1818   -0.2780    0.0882   -0.0810   -0.0157
          14    0.0839    0.0486    0.0627    0.0121   -0.1269    0.2323   -0.0889    0.0839
          15    0.3126    0.0117    0.2804    0.1099   -0.0246    0.0691    0.0496    0.1337
          16   -0.0243   -0.0570    0.0021    0.0046   -0.0332   -0.1030    0.1845    0.2557
          17    0.0330   -0.0245    0.0038   -0.0411    0.0094   -0.1316    0.0905    0.0095
          18   -0.1340    0.1222   -0.0107    0.0453   -0.0009    0.3175   -0.0958   -0.0756
          19    0.0755   -0.0909    0.0334   -0.0169   -0.0243   -0.1168    0.1014    0.0412
          20   -0.0314    0.0059   -0.0331   -0.0095    0.0363   -0.1615    0.0635   -0.0409
          21   -0.0403    0.0042    0.0329    0.0006   -0.0423    0.1286    0.1090    0.4266
          22    0.0437    0.3956   -0.0296   -0.0612    0.0089    0.2320    0.5126   -0.0744
          23   -0.3255    0.0506    0.3259    0.1109   -0.2173   -0.0996   -0.1119    0.0835
          24    0.2494   -0.2561   -0.2271   -0.0726    0.1587   -0.1819   -0.2250   -0.1185
          25    0.2704   -0.1985   -0.0348   -0.1518    0.1451    0.2009   -0.1221    0.2766
          26    0.0074   -0.0482    0.0744   -0.1283    0.0590   -0.0084   -0.0316    0.0578
          27    0.1040   -0.1654    0.1138   -0.3054    0.1777    0.0487   -0.1100    0.2096
          28   -0.2988    0.0927   -0.0188    0.2310   -0.1687   -0.1076   -0.1567    0.3328
          29   -0.0532    0.0126   -0.0097    0.0594   -0.0352   -0.0345   -0.0390    0.0665
          30   -0.0598   -0.0396   -0.1911    0.3324   -0.1411   -0.1462   -0.1027    0.2447
          31   -0.0286   -0.0526   -0.0020    0.0343    0.0412   -0.0031    0.0297   -0.0140
          32   -0.0487    0.4358   -0.1979   -0.0294    0.4026   -0.0767   -0.0251    0.1672
          33   -0.0499    0.0631   -0.0900    0.1389    0.4464   -0.0595    0.1256    0.0430
          34   -0.0484    0.0615   -0.0866   -0.1128   -0.0818   -0.0874   -0.0600   -0.0119
          35   -0.1134   -0.3436   -0.2999   -0.1222   -0.1363    0.2466    0.1490   -0.0014
          36   -0.1491   -0.1739   -0.3190   -0.2138   -0.1814    0.0597    0.0354   -0.0164
          37   -0.0348    0.0109   -0.0342    0.0724    0.0044   -0.0197   -0.1204    0.0118
          38    0.1326    0.0020   -0.0834    0.1091   -0.0556   -0.0200    0.0762   -0.0247
          39    0.2763    0.0424   -0.1845    0.2533   -0.1313   -0.0181    0.2218   -0.0768
          40    0.0227    0.1173   -0.0058   -0.0186    0.0721    0.2665   -0.2680   -0.0756
          41   -0.0216   -0.0494    0.0343   -0.0381   -0.0166   -0.1239    0.1454    0.0215
          42   -0.2586   -0.0728    0.2584   -0.3105    0.0568   -0.1790    0.2828   -0.0117
          43    0.0171   -0.1421    0.1652    0.1278    0.1026    0.0328    0.0029   -0.0335
          44    0.0956    0.0248    0.0145    0.0593    0.0569    0.0052    0.0807    0.1411
          45    0.0469   -0.1960    0.2977    0.2251    0.1720    0.0728   -0.0189   -0.0663
          46    0.2002    0.0687    0.0671   -0.0661   -0.0727   -0.2053    0.0199    0.0016
          47   -0.1219   -0.0149   -0.0600   -0.0100   -0.0703    0.2612   -0.0700    0.0229
          48    0.3348    0.2644    0.0207   -0.2416   -0.2981   -0.1791   -0.0734    0.0319
          49   -0.0889    0.0628   -0.0012    0.0307    0.0072    0.0230   -0.0984   -0.1251
          50    0.0030    0.0125    0.0418    0.0396    0.0020   -0.0572   -0.0686   -0.1656
          51    0.0046    0.0470    0.1478    0.1227   -0.0345    0.0351   -0.2272   -0.3147


   Root No.      25        26        27        28        29        30        31        32

                25 A      26 A      27 A      28 A      29 A      30 A      31 A      32 A   

                1192.3    1226.3    1250.2    1283.9    1308.9    1332.9    1397.6    1410.1
  
           1   -0.0882   -0.1762   -0.0144   -0.1797   -0.0030    0.0024   -0.0032    0.0254
           2   -0.1659    0.1912   -0.2499    0.5054    0.0554    0.0631    0.0373   -0.0461
           3    0.1206    0.2107    0.0063   -0.3180    0.4554    0.0733   -0.0140    0.0100
           4    0.0922   -0.0662   -0.1822   -0.0500   -0.2219    0.0211    0.1777    0.0918
           5    0.0603   -0.0960    0.0105   -0.1142   -0.0533   -0.0115   -0.0598   -0.0161
           6   -0.0487   -0.0964   -0.1248   -0.0322   -0.1927    0.0297   -0.1942   -0.0822
           7    0.0597    0.0856    0.0112    0.0998   -0.0033    0.0153    0.0839   -0.1281
           8   -0.0003    0.1245    0.3526   -0.2376   -0.2318   -0.2318   -0.1092    0.1870
           9    0.0402    0.1364    0.2402    0.1111   -0.2347   -0.1069    0.1074   -0.1479
          10    0.0121   -0.2827    0.1554    0.1832    0.1733   -0.1457   -0.1806   -0.1426
          11   -0.0363    0.0954   -0.0249   -0.0194   -0.0445    0.0668    0.0154    0.0005
          12    0.1731    0.2215   -0.1836   -0.0714   -0.1138    0.0528   -0.0205   -0.0217
          13   -0.1137   -0.0124   -0.1349   -0.0492    0.0580   -0.2286   -0.0451    0.0525
          14   -0.0536   -0.1203    0.0788    0.0783   -0.0344    0.2611    0.1154   -0.2265
          15   -0.2371    0.0170   -0.2728   -0.1405    0.0848   -0.2961   -0.0242   -0.0154
          16   -0.2200    0.1851    0.0504   -0.2682   -0.1817    0.3579    0.0681    0.0039
          17    0.2813   -0.0549   -0.1172    0.0000    0.1110   -0.3343   -0.0581    0.0341
          18   -0.0603   -0.1258    0.1958    0.0072    0.0001    0.1376    0.0191   -0.0184
          19    0.0507    0.0392   -0.0392    0.0603   -0.0199   -0.0365   -0.0080    0.0074
          20    0.0569    0.0384    0.0775   -0.0685   -0.0152    0.0354    0.0065    0.0122
          21    0.0991   -0.1851   -0.0562    0.1915   -0.2772   -0.1330    0.0084    0.0255
          22    0.0516    0.3482    0.0463    0.1691    0.0916    0.0044    0.0352   -0.0096
          23    0.1401   -0.1873   -0.0294   -0.2961    0.1423    0.0309   -0.0256    0.0238
          24   -0.1662    0.0324   -0.0674    0.1472   -0.0255    0.0075    0.0058   -0.0173
          25    0.0719    0.1601    0.2620   -0.0682    0.2472   -0.0290   -0.2857   -0.1422
          26   -0.0425    0.0260    0.0425    0.0113    0.0633    0.0095    0.3960    0.1741
          27   -0.0464    0.1234    0.1742   -0.0012    0.1933    0.0035    0.2115    0.0782
          28   -0.0537    0.2082    0.1127    0.2066    0.2225   -0.0196   -0.2537   -0.1318
          29   -0.0113    0.0374    0.0184    0.0458    0.0310   -0.0055   -0.2210   -0.1003
          30   -0.0338    0.0707    0.1459    0.0311    0.2011   -0.0156    0.3883    0.1581
          31    0.0102    0.0159   -0.0009    0.0267   -0.0048    0.0007    0.0419   -0.0624
          32   -0.0440   -0.2317   -0.2645   -0.0668    0.1595    0.1193    0.1719   -0.2705
          33    0.0721   -0.0551   -0.1571    0.1234    0.1567    0.1743   -0.2157    0.3226
          34    0.0194    0.0115    0.0035    0.1501   -0.0041    0.0702   -0.2534    0.4098
          35    0.0810   -0.1342   -0.1997   -0.0993    0.2415    0.1388    0.0671   -0.1351
          36    0.0741   -0.0806   -0.1351    0.0774    0.1469    0.1479   -0.0716    0.0962
          37    0.2438    0.0415   -0.0845    0.0708    0.0777   -0.1922    0.1789    0.1872
          38   -0.0579   -0.1187    0.0975    0.0497    0.0816   -0.0862    0.1326    0.1316
          39   -0.2565   -0.2956    0.2447    0.0614    0.1003   -0.0241    0.0127    0.0192
          40    0.1039    0.0317   -0.0141    0.0843    0.0569   -0.0940    0.1572    0.1527
          41   -0.0691   -0.0469    0.0263   -0.0348   -0.0232    0.0562   -0.1497   -0.1434
          42   -0.2291   -0.2865    0.2232    0.1257    0.1520   -0.1184    0.0795    0.0935
          43    0.1589   -0.0762    0.0696    0.0693   -0.0007    0.1860   -0.0484    0.1496
          44   -0.1927    0.0183   -0.0779   -0.0867   -0.0242    0.1522   -0.1128    0.3038
          45    0.2809   -0.1270    0.1204    0.1329    0.0092    0.2051    0.0191   -0.0119
          46    0.2129    0.0014    0.0865    0.0396   -0.0201    0.0293    0.0976   -0.2391
          47   -0.2089   -0.0540   -0.0708   -0.0156    0.0142    0.0457   -0.0825    0.2124
          48    0.2786   -0.1181    0.1417    0.0921   -0.0388    0.3384   -0.0353    0.1462
          49   -0.1035    0.0437    0.0497   -0.0445    0.0191    0.0929    0.0101   -0.0044
          50   -0.0861    0.0759    0.0173   -0.0046    0.0486    0.0611    0.0050   -0.0066
          51   -0.2736    0.1214   -0.0171    0.0809    0.0648    0.1190    0.0130   -0.0217


   Root No.      33        34        35        36        37        38        39        40

                33 A      34 A      35 A      36 A      37 A      38 A      39 A      40 A   

                1413.4    1427.7    1600.3    2995.0    3010.3    3023.1    3036.7    3046.0
  
           1    0.0180   -0.0201   -0.0178   -0.0014    0.0027   -0.0080    0.0207   -0.1084
           2   -0.0073    0.0555    0.0830   -0.0030    0.0055   -0.0106    0.0284   -0.1586
           3    0.0015    0.0223   -0.0889   -0.0043    0.0088   -0.0145    0.0376   -0.1931
           4   -0.0712   -0.0472    0.0261   -0.0003    0.0003    0.0002    0.0007   -0.0074
           5    0.0353    0.0055   -0.0074    0.0012    0.0010    0.1869   -0.2226   -0.0539
           6    0.1313    0.0300   -0.0274   -0.0013    0.0009   -0.0518    0.0611    0.0167
           7   -0.0002    0.1211    0.0009    0.1545   -0.2124   -0.0012    0.0001   -0.0035
           8   -0.0287   -0.0855    0.0193    0.0516   -0.0711   -0.0002    0.0001   -0.0121
           9   -0.0178    0.1852   -0.0057   -0.0757    0.1058   -0.0010    0.0017    0.0142
          10   -0.3701   -0.0141    0.0294   -0.0002   -0.0001   -0.0294   -0.0270   -0.0038
          11    0.0243   -0.0111   -0.0304   -0.0001    0.0019   -0.2278   -0.1861   -0.0176
          12   -0.0520   -0.0091    0.0255   -0.0007   -0.0010    0.0613    0.0486    0.0043
          13   -0.0496    0.0325   -0.0179   -0.2191   -0.1576   -0.0023   -0.0033   -0.0026
          14    0.1183   -0.3084   -0.0617   -0.0571   -0.0400   -0.0016   -0.0020   -0.0030
          15   -0.0080   -0.1027   -0.0323    0.1025    0.0740   -0.0007   -0.0001    0.0002
          16    0.2134   -0.0668    0.3431   -0.0015   -0.0022    0.0009   -0.0003    0.0026
          17   -0.0647    0.0850    0.5662    0.0006   -0.0001   -0.0019   -0.0030    0.0014
          18    0.0067   -0.0609    0.2397    0.0002    0.0001    0.0001   -0.0008    0.0054
          19   -0.0154    0.0151   -0.3789    0.0002   -0.0002    0.0011    0.0037   -0.0016
          20   -0.0186    0.0181   -0.5020    0.0006    0.0008    0.0007    0.0003    0.0024
          21   -0.0396   -0.0126   -0.1712    0.0007   -0.0001    0.0014   -0.0002   -0.0022
          22   -0.0179    0.0267   -0.0242    0.0084   -0.0167    0.0265   -0.0706    0.3883
          23    0.0056   -0.0204   -0.0678    0.0092   -0.0202    0.0410   -0.1041    0.5483
          24    0.0068    0.0205    0.0530    0.0118   -0.0254    0.0478   -0.1230    0.6543
          25    0.1208    0.0649   -0.0162   -0.0027    0.0020   -0.1605    0.1861    0.0510
          26   -0.2475   -0.0823    0.0166   -0.0026    0.0002   -0.2726    0.3173    0.0863
          27   -0.1652   -0.0389   -0.0030    0.0031   -0.0009    0.2854   -0.3443   -0.0931
          28    0.1013    0.0642    0.0026   -0.0008    0.0042    0.1576   -0.1857   -0.0456
          29    0.1222    0.0468   -0.0086    0.0014   -0.0091   -0.3791    0.4546    0.0985
          30   -0.2811   -0.0725    0.0137    0.0003   -0.0025   -0.1049    0.1340    0.0286
          31   -0.0001    0.0569   -0.0014   -0.3863    0.5295    0.0095   -0.0085   -0.0207
          32    0.0319    0.1687   -0.0148    0.0323   -0.0407   -0.0011    0.0016   -0.0044
          33    0.0117   -0.3339   -0.0012   -0.0370    0.0607    0.0006   -0.0003   -0.0003
          34   -0.0122   -0.3663    0.0059   -0.1521    0.2067   -0.0004    0.0015    0.0306
[...]
 EFF. MASS   3.2885

 VIBRATION   24   24A         ATOM PAIR      ENERGY CONTRIBUTION    RADIAL
 FREQ.      1169.41         C  1 -- C  7         +13.0% ( 55.7%)     92.1%
 T-DIPOLE    0.1376         C  7 -- H 17         +12.0% ( 53.6%)      2.7%
 TRAVEL      0.0973         C  2 -- H 10          +8.7% ( 45.7%)      0.0%
 RED. MASS   0.6829         C  4 -- C  7          +6.7% ( 40.1%)     19.0%
 EFF. MASS   6.0940

 VIBRATION   25   25A         ATOM PAIR      ENERGY CONTRIBUTION    RADIAL
 FREQ.      1192.27         C  5 -- H 16         +12.6% ( 46.7%)      1.2%
 T-DIPOLE    0.0848         C  5 -- H 15         +10.6% ( 42.8%)      0.7%
 TRAVEL      0.1209         C  5 -- C  6          +7.6% ( 36.3%)     41.5%
 RED. MASS   0.3973         C  1 -- C  6          +7.6% ( 36.2%)      1.4%
 EFF. MASS   3.8716

 VIBRATION   26   26A         ATOM PAIR      ENERGY CONTRIBUTION    RADIAL
 FREQ.      1226.34         C  1 -- H  8         +11.6% ( 48.1%)      3.8%
 T-DIPOLE    0.1842         C  4 -- H 13          +9.8% ( 44.3%)      0.9%
 TRAVEL      0.1025         C  4 -- H 14          +9.1% ( 42.6%)      1.0%
 RED. MASS   0.5123         C  4 -- C  6          +8.7% ( 41.8%)     90.1%
 EFF. MASS   5.2347

 VIBRATION   27   27A         ATOM PAIR      ENERGY CONTRIBUTION    RADIAL
 FREQ.      1250.19         C  3 -- H 11         +11.1% ( 47.7%)      0.0%
 T-DIPOLE    0.2828         C  3 -- C  5          +9.8% ( 44.7%)     97.4%
 TRAVEL      0.0938         C  1 -- C  3          +9.8% ( 44.7%)     76.9%
 RED. MASS   0.7041         C  3 -- H 12          +9.2% ( 43.5%)      0.0%
 EFF. MASS   6.1362

 VIBRATION   28   28A         ATOM PAIR      ENERGY CONTRIBUTION    RADIAL
 FREQ.      1283.88         C  1 -- H  8         +16.6% ( 65.1%)      0.0%
 T-DIPOLE    0.1224         C  1 -- C  3         +15.1% ( 62.1%)     77.2%
 TRAVEL      0.0806         C  1 -- C  7         +12.6% ( 56.8%)     60.9%
 RED. MASS   2.0339         C  1 -- C  6         +11.1% ( 53.5%)      3.2%
 EFF. MASS   8.0794         C  1 -- C  2         +10.1% ( 50.8%)      3.5%

 VIBRATION   29   29A         ATOM PAIR      ENERGY CONTRIBUTION    RADIAL
 FREQ.      1308.95         C  1 -- C  7         +12.0% ( 53.2%)     86.3%
 T-DIPOLE    0.2087         C  1 -- C  3         +10.9% ( 50.8%)     13.4%
 TRAVEL      0.0849         C  1 -- C  2          +9.5% ( 47.2%)     10.0%
 RED. MASS   0.9226         C  1 -- C  6          +8.7% ( 45.4%)     81.7%
 EFF. MASS   7.1412

 VIBRATION   30   30A         ATOM PAIR      ENERGY CONTRIBUTION    RADIAL
 FREQ.      1332.90         C  5 -- C  6         +18.8% ( 63.0%)     89.5%
 T-DIPOLE    0.0660         C  5 -- H 16         +10.8% ( 47.8%)      0.2%
 TRAVEL      0.0845         C  4 -- C  6         +10.3% ( 46.7%)     65.2%
 RED. MASS   1.4234         C  5 -- H 15          +9.6% ( 45.0%)      0.7%
 EFF. MASS   7.0926

 VIBRATION   31   31A         ATOM PAIR      ENERGY CONTRIBUTION    RADIAL
 FREQ.      1397.60         C  2 -- H  9         +21.5% ( 49.9%)      3.5%
 T-DIPOLE    0.0460         C  2 -- H 10         +19.8% ( 47.9%)      4.1%
 TRAVEL      0.1379         C  3 -- H 11          +6.7% ( 27.8%)      4.4%
 RED. MASS   0.2607         C  3 -- H 12          +6.5% ( 27.5%)      5.1%
 EFF. MASS   2.5382

 VIBRATION   32   32A         ATOM PAIR      ENERGY CONTRIBUTION    RADIAL
 FREQ.      1410.07         C  3 -- H 12         +17.4% ( 43.6%)      4.4%
 T-DIPOLE    0.0166         C  3 -- H 11         +16.3% ( 42.2%)      4.5%
 TRAVEL      0.1355         C  5 -- H 16         +11.7% ( 35.7%)      4.3%
 RED. MASS   0.2199         C  5 -- H 15         +11.0% ( 34.6%)      4.5%
 EFF. MASS   2.6052

 VIBRATION   33   33A         ATOM PAIR      ENERGY CONTRIBUTION    RADIAL
 FREQ.      1413.44         C  4 -- H 14         +21.2% ( 53.5%)      4.8%
 T-DIPOLE    0.1061         C  4 -- H 13         +21.1% ( 53.4%)      4.6%
 TRAVEL      0.1185         C  4 -- C  6         +12.2% ( 40.6%)     84.0%
 RED. MASS   0.4387         C  2 -- C  4          +8.1% ( 33.1%)     50.9%
 EFF. MASS   3.3973

 VIBRATION   34   34A         ATOM PAIR      ENERGY CONTRIBUTION    RADIAL
 FREQ.      1427.70         C  5 -- H 16         +22.2% ( 49.2%)      5.1%
 T-DIPOLE    0.0419         C  5 -- H 15         +21.6% ( 48.6%)      5.1%
 TRAVEL      0.1285         C  3 -- H 12         +13.4% ( 38.3%)      4.2%
 RED. MASS   0.3370         C  3 -- H 11         +12.4% ( 36.8%)      4.9%
 EFF. MASS   2.8585         C  3 -- C  5         +10.6% ( 34.0%)     90.4%

 VIBRATION   35   35A         ATOM PAIR      ENERGY CONTRIBUTION    RADIAL
 FREQ.      1600.34         C  6 -- C  7         +29.0% ( 97.3%)     99.6%
 T-DIPOLE    0.5876         C  1 -- C  6          +9.1% ( 54.5%)     64.8%
 TRAVEL      0.0602         C  1 -- C  7          +9.0% ( 54.4%)      2.2%
 RED. MASS   5.1240         C  5 -- C  6          +9.0% ( 54.1%)     13.6%
 EFF. MASS  11.6434

 VIBRATION   36   36A         ATOM PAIR      ENERGY CONTRIBUTION    RADIAL
 FREQ.      2994.99         C  5 -- H 15         +33.5% ( 60.3%)     96.7%
 T-DIPOLE    0.0297         C  5 -- H 16         +30.5% ( 57.5%)     96.4%
 TRAVEL      0.1201         C  3 -- H 12         +17.1% ( 43.1%)     96.6%
 RED. MASS   0.2859         C  3 -- H 11         +16.4% ( 42.2%)     96.3%
 EFF. MASS   1.5597

 VIBRATION   37   37A         ATOM PAIR      ENERGY CONTRIBUTION    RADIAL
 FREQ.      3010.26         C  3 -- H 12         +33.2% ( 59.6%)     97.0%
 T-DIPOLE    0.1049         C  3 -- H 11         +31.0% ( 57.6%)     96.5%
 TRAVEL      0.1208         C  5 -- H 15         +17.9% ( 43.8%)     97.1%
 RED. MASS   0.2845         C  5 -- H 16         +15.6% ( 40.8%)     96.6%
 EFF. MASS   1.5352

 VIBRATION   38   38A         ATOM PAIR      ENERGY CONTRIBUTION    RADIAL
 FREQ.      3023.14         C  4 -- H 14         +29.4% ( 56.8%)     96.9%
 T-DIPOLE    0.0356         C  4 -- H 13         +27.7% ( 55.2%)     96.6%
 TRAVEL      0.1195         C  2 -- H  9         +19.3% ( 46.0%)     96.6%
 RED. MASS   0.2679         C  2 -- H 10         +19.1% ( 45.8%)     96.5%
 EFF. MASS   1.5626

 VIBRATION   39   39A         ATOM PAIR      ENERGY CONTRIBUTION    RADIAL
 FREQ.      3036.65         C  2 -- H 10         +27.5% ( 54.7%)     96.9%
 T-DIPOLE    0.0800         C  2 -- H  9         +27.0% ( 54.2%)     96.8%
 TRAVEL      0.1201         C  4 -- H 14         +20.5% ( 47.2%)     97.4%
 RED. MASS   0.2513         C  4 -- H 13         +17.9% ( 44.1%)     96.6%
 EFF. MASS   1.5388

 VIBRATION   40   40A         ATOM PAIR      ENERGY CONTRIBUTION    RADIAL
 FREQ.      3046.00         C  1 -- H  8         +90.6% ( 97.6%)    100.0%
 T-DIPOLE    0.1557         C  2 -- H  9          +2.0% ( 14.6%)     98.1%
 TRAVEL      0.1227         C  2 -- H 10          +1.4% ( 12.1%)     95.5%
 RED. MASS   0.8465         C  1 -- C  2          +1.2% ( 11.2%)     15.7%
 EFF. MASS   1.4705

 VIBRATION   41   41A         ATOM PAIR      ENERGY CONTRIBUTION    RADIAL
 FREQ.      3074.68         C  5 -- H 16         +38.4% ( 61.2%)     97.7%
 T-DIPOLE    0.0766         C  5 -- H 15         +33.8% ( 57.4%)     97.1%
 TRAVEL      0.1307         C  3 -- H 11         +13.8% ( 36.6%)     97.7%
 RED. MASS   0.2944         C  3 -- H 12         +12.4% ( 34.7%)     97.0%
 EFF. MASS   1.2830

 VIBRATION   42   42A         ATOM PAIR      ENERGY CONTRIBUTION    RADIAL
 FREQ.      3078.14         C  3 -- H 11         +37.2% ( 60.2%)     97.7%
 T-DIPOLE    0.0974         C  3 -- H 12         +34.7% ( 58.1%)     97.2%
 TRAVEL      0.1308         C  5 -- H 16         +13.6% ( 36.3%)     97.7%
 RED. MASS   0.2911         C  5 -- H 15         +12.4% ( 34.7%)     97.3%
 EFF. MASS   1.2810

 VIBRATION   43   43A         ATOM PAIR      ENERGY CONTRIBUTION    RADIAL
 FREQ.      3086.99         C  4 -- H 13         +51.2% ( 70.9%)     97.3%
 T-DIPOLE    0.0576         C  4 -- H 14         +46.4% ( 67.5%)     96.9%
 TRAVEL      0.1308         C  4 -- C  7          +0.6% (  8.0%)     72.3%
 RED. MASS   0.4800         C  4 -- C  6          +0.6% (  7.9%)     51.6%
 EFF. MASS   1.2762

 VIBRATION   44   44A         ATOM PAIR      ENERGY CONTRIBUTION    RADIAL
 FREQ.      3096.88         C  2 -- H 10         +48.8% ( 69.3%)     97.4%
 T-DIPOLE    0.0614         C  2 -- H  9         +48.6% ( 69.1%)     97.4%
 TRAVEL      0.1311         C  2 -- C  6          +0.6% (  7.5%)     95.7%
 RED. MASS   0.4804         C  2 -- C  7          +0.6% (  7.5%)     81.8%
 EFF. MASS   1.2671

 VIBRATION   45   45A         ATOM PAIR      ENERGY CONTRIBUTION    RADIAL
 FREQ.      3156.01         C  7 -- H 17         +94.3% ( 99.9%)     99.9%
 T-DIPOLE    0.4415         C  6 -- C  7          +1.5% ( 12.4%)     49.0%
 TRAVEL      0.1188         C  1 -- C  7          +1.4% ( 12.1%)     34.6%
 RED. MASS   0.9282         C  2 -- C  7          +1.4% ( 12.1%)     19.7%
 EFF. MASS   1.5148

      SYMMETRY NUMBER FOR POINT-GROUP C1  =  1


          SYSTEM IS A GROUND STATE



 InChI=1S/C7H10/c1-2-7-4-3-6(1)5-7/h5-6H,1-4H2


          MOLECULE IS NOT LINEAR

          THERE ARE 45 GENUINE VIBRATIONS IN THIS SYSTEM
          THIS THERMODYNAMICS CALCULATION IS LIMITED TO
          MOLECULES WHICH HAVE NO INTERNAL ROTATIONS




                    CALCULATED THERMODYNAMIC PROPERTIES
                                          *
   TEMP. (K)   PARTITION FUNCTION   H.O.F.    ENTHALPY  HEAT CAPACITY ENTROPY
                                   KCAL/MOL   CAL/MOLE    CAL/K/MOL  CAL/K/MOL


 298.00  VIB.     0.3246D+01                  1627.8124    16.9510     7.8025
         ROT.     0.1387D+06                   888.2813     2.9808    26.5092
         INT.     0.4502D+06                  2516.0937    19.9318    34.3117
         TRA.     0.8833D+27                  1480.4688     4.9680    39.5363
         TOT.                       96.681    3996.5625    24.8998    73.8480

 200.00  VIB.     0.1559D+01                   453.7217     7.4336     3.1512
         ROT.     0.7625D+05                   596.1620     2.9808    25.3206
         INT.     0.1189D+06                  1049.8836    10.4145    28.4717
         TRA.     0.4856D+27                   993.6033     4.9680    37.5551
         TOT.                       94.728    2043.4869    15.3825    66.0268

 210.00  VIB.     0.1654D+01                   532.1819     8.2656     3.5338
         ROT.     0.8204D+05                   625.9700     2.9808    25.4660
         INT.     0.1357D+06                  1158.1520    11.2464    28.9998
         TRA.     0.5225D+27                  1043.2834     4.9680    37.7975
         TOT.                       94.886    2201.4354    16.2144    66.7973

 220.00  VIB.     0.1760D+01                   619.1709     9.1389     3.9383
         ROT.     0.8797D+05                   655.7781     2.9808    25.6047
         INT.     0.1549D+06                  1274.9491    12.1197    29.5430
         TRA.     0.5603D+27                  1092.9636     4.9680    38.0286
         TOT.                       95.052    2367.9126    17.0877    67.5716

 230.00  VIB.     0.1881D+01                   715.0872    10.0504     4.3645
         ROT.     0.9404D+05                   685.5862     2.9808    25.7372
         INT.     0.1769D+06                  1400.6735    13.0312    30.1017
         TRA.     0.5989D+27                  1142.6437     4.9680    38.2495
         TOT.                       95.228    2543.3172    17.9993    68.3512

 240.00  VIB.     0.2017D+01                   820.2948    10.9965     4.8121
         ROT.     0.1002D+06                   715.3943     2.9808    25.8640
         INT.     0.2022D+06                  1535.6891    13.9773    30.6762
         TRA.     0.6384D+27                  1192.3239     4.9680    38.4609
         TOT.                       95.412    2728.0130    18.9453    69.1371

 250.00  VIB.     0.2171D+01                   935.1189    11.9730     5.2807
         ROT.     0.1066D+06                   745.2024     2.9808    25.9857
         INT.     0.2313D+06                  1680.3213    14.9539    31.2664
         TRA.     0.6787D+27                  1242.0041     4.9680    38.6637
         TOT.                       95.607    2922.3254    19.9219    69.9302

 260.00  VIB.     0.2345D+01                  1059.8433    12.9758     5.7698
         ROT.     0.1130D+06                   775.0105     2.9808    26.1026
         INT.     0.2650D+06                  1834.8538    15.9567    31.8724
         TRA.     0.7198D+27                  1291.6842     4.9680    38.8586
         TOT.                       95.811    3126.5380    20.9247    70.7310

 270.00  VIB.     0.2542D+01                  1194.7090    14.0006     6.2787
         ROT.     0.1196D+06                   804.8186     2.9808    26.2151
         INT.     0.3040D+06                  1999.5277    16.9814    32.4938
         TRA.     0.7618D+27                  1341.3644     4.9680    39.0461
         TOT.                       96.025    3340.8920    21.9494    71.5398

 280.00  VIB.     0.2765D+01                  1339.9144    15.0431     6.8066
         ROT.     0.1263D+06                   834.6267     2.9808    26.3235
         INT.     0.3493D+06                  2174.5411    18.0239    33.1301
         TRA.     0.8045D+27                  1391.0445     4.9680    39.2267
         TOT.                       96.250    3565.5857    22.9919    72.3569

 290.00  VIB.     0.3019D+01                  1495.6155    16.0991     7.3529
         ROT.     0.1331D+06                   864.4348     2.9808    26.4281
         INT.     0.4019D+06                  2360.0504    19.0799    33.7810
         TRA.     0.8479D+27                  1440.7247     4.9680    39.4011
         TOT.                       96.485    3800.7751    24.0479    73.1821

 300.00  VIB.     0.3307D+01                  1661.9280    17.1647     7.9166
         ROT.     0.1401D+06                   894.2429     2.9808    26.5292
         INT.     0.4633D+06                  2556.1709    20.1455    34.4458
         TRA.     0.8922D+27                  1490.4049     4.9680    39.5695
         TOT.                       96.731    4046.5758    25.1135    74.0153

 310.00  VIB.     0.3635D+01                  1838.9288    18.2362     8.4969
         ROT.     0.1471D+06                   924.0510     2.9808    26.6269
         INT.     0.5349D+06                  2762.9799    21.2170    35.1238
         TRA.     0.9372D+27                  1540.0850     4.9680    39.7324
         TOT.                       96.987    4303.0649    26.1850    74.8562

 320.00  VIB.     0.4009D+01                  2026.6593    19.3101     9.0928
         ROT.     0.1543D+06                   953.8591     2.9808    26.7215
         INT.     0.6187D+06                  2980.5184    22.2909    35.8144
         TRA.     0.9829D+27                  1589.7652     4.9680    39.8901
         TOT.                       97.255    4570.2836    27.2589    75.7045

 330.00  VIB.     0.4436D+01                  2225.1275    20.3832     9.7035
         ROT.     0.1616D+06                   983.6672     2.9808    26.8133
         INT.     0.7170D+06                  3208.7947    23.3640    36.5167
         TRA.     0.1029D+28                  1639.4454     4.9680    40.0430
         TOT.                       97.532    4848.2401    28.3320    76.5597

 340.00  VIB.     0.4925D+01                  2434.3114    21.4527    10.3279
         ROT.     0.1690D+06                  1013.4753     2.9808    26.9023
         INT.     0.8323D+06                  3447.7867    24.4336    37.2301
         TRA.     0.1076D+28                  1689.1255     4.9680    40.1913
         TOT.                       97.821    5136.9122    29.4016    77.4214

 350.00  VIB.     0.5484D+01                  2654.1618    22.5161    10.9651
         ROT.     0.1765D+06                  1043.2834     2.9808    26.9887
         INT.     0.9680D+06                  3697.4453    25.4969    37.9537
         TRA.     0.1124D+28                  1738.8057     4.9680    40.3353
         TOT.                       98.121    5436.2509    30.4649    78.2891

 360.00  VIB.     0.6124D+01                  2884.6057    23.5711    11.6142
         ROT.     0.1841D+06                  1073.0915     2.9808    27.0726
         INT.     0.1128D+07                  3957.6972    26.5519    38.6868
         TRA.     0.1173D+28                  1788.4859     4.9680    40.4753
         TOT.                       98.430    5746.1831    31.5199    79.1621

 370.00  VIB.     0.6860D+01                  3125.5486    24.6156    12.2743
         ROT.     0.1919D+06                  1102.8996     2.9808    27.1543
         INT.     0.1316D+07                  4228.4482    27.5964    39.4286
         TRA.     0.1222D+28                  1838.1660     4.9680    40.6114
         TOT.                       98.751    6066.6142    32.5644    80.0400

 380.00  VIB.     0.7706D+01                  3376.8778    25.6481    12.9445
         ROT.     0.1997D+06                  1132.7077     2.9808    27.2338
         INT.     0.1539D+07                  4509.5855    28.6289    40.1783
         TRA.     0.1272D+28                  1887.8462     4.9680    40.7439
         TOT.                       99.082    6397.4317    33.5969    80.9222

 390.00  VIB.     0.8680D+01                  3638.4650    26.6670    13.6239
         ROT.     0.2076D+06                  1162.5158     2.9808    27.3112
         INT.     0.1802D+07                  4800.9808    29.6478    40.9351
         TRA.     0.1322D+28                  1937.5263     4.9680    40.8729
         TOT.                       99.423    6738.5072    34.6158    81.8081

 400.00  VIB.     0.9804D+01                  3910.1687    27.6712    14.3117
         ROT.     0.2157D+06                  1192.3239     2.9808    27.3867
         INT.     0.2114D+07                  5102.4926    30.6520    41.6984
         TRA.     0.1374D+28                  1987.2065     4.9680    40.9987
         TOT.                       99.774    7089.6991    35.6200    82.6972

   *: NOTE: HEATS OF FORMATION ARE RELATIVE TO THE
            ELEMENTS IN THEIR STANDARD STATE AT 298K
              (=  Standard Enthalpy of Formation).

            Hvib:  Zero-point energy is not included.
                   frequencies of less than zero cm-1 are not included.
            Hrot = (3/2)RT
            Htra = (3/2)RT + pV = (5/2)RT

            Heat capacity is Cp, not Cv

          For more information, see: HTTP://OpenMOPAC.net/Manual/thermochemistry.html


           FORCE CONSTANT IN CARTESIAN COORDINATES (Millidynes/A)

    ATOM   CHEMICAL       X               Y               Z
   NUMBER   SYMBOL  FORCE CONSTANT  FORCE CONSTANT  FORCE CONSTANT

      1       C        5.371211        8.131517        9.572669
      2       C        6.125671        8.510174        7.134972
      3       C        8.675529        7.459806        8.203382
      4       C        9.569837        8.369251        4.889542
      5       C        8.164728        9.503821        6.902453
      6       C        8.132062        9.288751        5.421249
      7       C        5.000804       11.999206        6.462383
      8       H        1.445793        2.205350        2.821773
      9       H        1.284571        2.665148        2.671457
     10       H        1.251553        4.402739        0.946463
     11       H        5.084577        0.702599        0.739431
     12       H        1.460764        1.867590        3.204007
     13       H        1.531858        3.353071        1.665340
     14       H        2.371621        3.498979        0.695123
     15       H        3.153894        1.160798        2.141427
     16       H        2.770538        3.035553        0.733228
     17       H        0.332283        4.888852        1.183920

 **********************
 *                    *
 * JOB ENDED NORMALLY *
 *                    *
 **********************



 TOTAL JOB TIME:             4.44 SECONDS

 == MOPAC DONE ==
