 *******************************************************************************
 ** Site#: 14399        For non-commercial use only    Version 18.184L 64BITS **
 *******************************************************************************
 ** Cite this program as: MOPAC2016, Version: 18.184L, James J. P. Stewart,   **
 ** Stewart Computational Chemistry, web: HTTP://OpenMOPAC.net. Days left:  20**
 *******************************************************************************
 **                                                                           **
 **                                MOPAC2016                                  **
 **                                                                           **
 *******************************************************************************

                              PM3 CALCULATION RESULTS

 *******************************************************************************
 *  CALCULATION DONE:                                Thu Jun 13 16:04:55 2019  *
 *  PM3        - The PM3 Hamiltonian to be used
 *  PRECISE    - CRITERIA TO BE INCREASED BY 100 TIMES
 *  NOSYM      - POINT-GROUP SYMMETRY SET TO C1
 *  THREADS=1  - MULTI-THREADING NOT USED
 *  T=         - A TIME OF 172800.0 SECONDS REQUESTED
 *  DUMP=N     - RESTART FILE WRITTEN EVERY  7200.000 SECONDS
 *******************************************************************************
pm3  precise nosym THREADS=1
 InChI=1S/C7H10/c1-2-7-4-3-6(1)5-7/h1-2,6-7H,3-5H2

   ATOM   CHEMICAL          X               Y               Z
  NUMBER   SYMBOL      (ANGSTROMS)     (ANGSTROMS)     (ANGSTROMS)
 
     1       C          0.55140000  *   0.75700000  *  -0.67520000  *
     2       C         -0.14380000  *  -1.11200000  *   0.27570000  *
     3       C          0.32860000  *  -0.68170000  *  -1.09940000  *
     4       C         -0.85470000  *   1.14430000  *  -0.17300000  *
     5       C         -1.34150000  *  -0.16450000  *   0.49300000  *
     6       C          1.41660000  *   0.53550000  *   0.53870000  *
     7       C          0.99680000  *  -0.59290000  *   1.11290000  *
     8       H          0.98500000  *   1.42750000  *  -1.44700000  *
     9       H         -0.36210000  *  -2.19410000  *   0.39570000  *
    10       H         -0.44860000  *  -0.79540000  *  -1.89100000  *
    11       H          1.26760000  *  -1.19320000  *  -1.41840000  *
    12       H         -0.81410000  *   1.98590000  *   0.55330000  *
    13       H         -1.51130000  *   1.42000000  *  -1.02750000  *
    14       H         -2.24630000  *  -0.55620000  *  -0.02190000  *
    15       H         -1.56030000  *  -0.02020000  *   1.57410000  *
    16       H          2.27740000  *   1.11980000  *   0.84540000  *
    17       H          1.45920000  *  -1.07990000  *   1.96470000  *
 


          CARTESIAN COORDINATES 

    NO.       ATOM           X           Y           Z

     1         C          0.5514      0.7570     -0.6752
     2         C         -0.1438     -1.1120      0.2757
     3         C          0.3286     -0.6817     -1.0994
     4         C         -0.8547      1.1443     -0.1730
     5         C         -1.3415     -0.1645      0.4930
     6         C          1.4166      0.5355      0.5387
     7         C          0.9968     -0.5929      1.1129
     8         H          0.9850      1.4275     -1.4470
     9         H         -0.3621     -2.1941      0.3957
    10         H         -0.4486     -0.7954     -1.8910
    11         H          1.2676     -1.1932     -1.4184
    12         H         -0.8141      1.9859      0.5533
    13         H         -1.5113      1.4200     -1.0275
    14         H         -2.2463     -0.5562     -0.0219
    15         H         -1.5603     -0.0202      1.5741
    16         H          2.2774      1.1198      0.8454
    17         H          1.4592     -1.0799      1.9647

  H: (PM3): J. J. P. STEWART, J. COMP. CHEM. 10, 209 (1989).
  C: (PM3): J. J. P. STEWART, J. COMP. CHEM. 10, 209 (1989).

           Empirical Formula: C7 H10  =    17 atoms



      MOLECULAR POINT GROUP   :   C1  


      RHF CALCULATION, NO. OF DOUBLY OCCUPIED LEVELS = 19


          Geometry optimization using EF

          DIAGONAL MATRIX USED AS START HESSIAN

 CYCLE:     1 TIME:   0.020 TIME LEFT:  2.00D  GRAD.:    92.965 HEAT:  25.69740
 CYCLE:     2 TIME:   0.035 TIME LEFT:  2.00D  GRAD.:    40.826 HEAT:  23.83546
 CYCLE:     3 TIME:   0.020 TIME LEFT:  2.00D  GRAD.:    67.915 HEAT:  23.66656
 CYCLE:     4 TIME:   0.023 TIME LEFT:  2.00D  GRAD.:    44.594 HEAT:  23.13144
 CYCLE:     5 TIME:   0.023 TIME LEFT:  2.00D  GRAD.:    47.610 HEAT:  23.13013
 CYCLE:     6 TIME:   0.023 TIME LEFT:  2.00D  GRAD.:    47.918 HEAT:  23.00076
 CYCLE:     7 TIME:   0.023 TIME LEFT:  2.00D  GRAD.:    47.824 HEAT:  22.81649
 CYCLE:     8 TIME:   0.020 TIME LEFT:  2.00D  GRAD.:    39.549 HEAT:  22.66215
 CYCLE:     9 TIME:   0.031 TIME LEFT:  2.00D  GRAD.:    18.561 HEAT:  22.27635
 CYCLE:    10 TIME:   0.137 TIME LEFT:  2.00D  GRAD.:    13.691 HEAT:  22.18562
 CYCLE:    11 TIME:   0.020 TIME LEFT:  2.00D  GRAD.:     8.086 HEAT:  22.13803
 CYCLE:    12 TIME:   0.020 TIME LEFT:  2.00D  GRAD.:     8.519 HEAT:  22.10321
 CYCLE:    13 TIME:   0.023 TIME LEFT:  2.00D  GRAD.:     7.401 HEAT:  22.05416
 CYCLE:    14 TIME:   0.023 TIME LEFT:  2.00D  GRAD.:    11.313 HEAT:  22.02527
 CYCLE:    15 TIME:   0.023 TIME LEFT:  2.00D  GRAD.:     8.418 HEAT:  22.00616
 CYCLE:    16 TIME:   0.020 TIME LEFT:  2.00D  GRAD.:     8.601 HEAT:  21.98693
 CYCLE:    17 TIME:   0.023 TIME LEFT:  2.00D  GRAD.:     6.814 HEAT:  21.97697
 CYCLE:    18 TIME:   0.023 TIME LEFT:  2.00D  GRAD.:     9.530 HEAT:  21.97386
 CYCLE:    19 TIME:   0.023 TIME LEFT:  2.00D  GRAD.:     6.424 HEAT:  21.95742
 CYCLE:    20 TIME:   0.023 TIME LEFT:  2.00D  GRAD.:     6.586 HEAT:  21.94793
 CYCLE:    21 TIME:   0.023 TIME LEFT:  2.00D  GRAD.:     2.417 HEAT:  21.93358
 CYCLE:    22 TIME:   0.023 TIME LEFT:  2.00D  GRAD.:     4.542 HEAT:  21.93178
 CYCLE:    23 TIME:   0.023 TIME LEFT:  2.00D  GRAD.:     2.316 HEAT:  21.92303
 CYCLE:    24 TIME:   0.020 TIME LEFT:  2.00D  GRAD.:     1.875 HEAT:  21.92012
 CYCLE:    25 TIME:   0.023 TIME LEFT:  2.00D  GRAD.:     0.918 HEAT:  21.91810
 CYCLE:    26 TIME:   0.023 TIME LEFT:  2.00D  GRAD.:     0.777 HEAT:  21.91744
 CYCLE:    27 TIME:   0.023 TIME LEFT:  2.00D  GRAD.:     0.456 HEAT:  21.91696
 CYCLE:    28 TIME:   0.062 TIME LEFT:  2.00D  GRAD.:     0.268 HEAT:  21.91670
 CYCLE:    29 TIME:   0.023 TIME LEFT:  2.00D  GRAD.:     0.216 HEAT:  21.91660
 CYCLE:    30 TIME:   0.023 TIME LEFT:  2.00D  GRAD.:     0.150 HEAT:  21.91655
 CYCLE:    31 TIME:   0.023 TIME LEFT:  2.00D  GRAD.:     0.102 HEAT:  21.91652
 CYCLE:    32 TIME:   0.023 TIME LEFT:  2.00D  GRAD.:     0.073 HEAT:  21.91651
 CYCLE:    33 TIME:   0.020 TIME LEFT:  2.00D  GRAD.:     0.059 HEAT:  21.91649
 CYCLE:    34 TIME:   0.023 TIME LEFT:  2.00D  GRAD.:     0.054 HEAT:  21.91648
 CYCLE:    35 TIME:   0.023 TIME LEFT:  2.00D  GRAD.:     0.051 HEAT:  21.91648
 CYCLE:    36 TIME:   0.023 TIME LEFT:  2.00D  GRAD.:     0.047 HEAT:  21.91647

     GRADIENT =  0.04731  IS LESS THAN CUTOFF =  0.05000



 -------------------------------------------------------------------------------
 pm3  precise nosym THREADS=1
 InChI=1S/C7H10/c1-2-7-4-3-6(1)5-7/h1-2,6-7H,3-5H2



     GEOMETRY OPTIMISED USING EIGENVECTOR FOLLOWING (EF).     
     SCF FIELD WAS ACHIEVED                                   


                              PM3 CALCULATION
                                                       MOPAC2016 (Version: 18.184L)
                                                       Thu Jun 13 16:04:56 2019
                                                       No. of days remaining =  20




          FINAL HEAT OF FORMATION =         21.91647 KCAL/MOL =      91.69852 KJ/MOL


          TOTAL ENERGY            =       -982.85931 EV
          ELECTRONIC ENERGY       =      -4785.64677 EV  POINT GROUP:     C1  
          CORE-CORE REPULSION     =       3802.78746 EV
          COSMO AREA              =        134.37 SQUARE ANGSTROMS
          COSMO VOLUME            =        130.30 CUBIC ANGSTROMS

          GRADIENT NORM           =          0.04731 = 0.01147 PER ATOM
          IONIZATION POTENTIAL    =          9.783365 EV
          HOMO LUMO ENERGIES (EV) =         -9.783  1.087
          NO. OF FILLED LEVELS    =         19
          MOLECULAR WEIGHT        =         94.1560

          MOLECULAR DIMENSIONS (Angstroms)

            Atom       Atom       Distance
            H    16    H    14     4.86725
            H    13    H    17     4.33408
            H    11    H    15     3.96847


          SCF CALCULATIONS        =         42
 
          WALL-CLOCK TIME         =          1.039 SECONDS
          COMPUTATION TIME        =          0.245 SECONDS




   ATOM   CHEMICAL          X               Y               Z
  NUMBER   SYMBOL      (ANGSTROMS)     (ANGSTROMS)     (ANGSTROMS)
 
     1       C          0.56800048  *   0.77318971  *  -0.69474751  *
     2       C         -0.14435499  *  -1.14195894  *   0.27983825  *
     3       C          0.32766434  *  -0.69875446  *  -1.13359688  *
     4       C         -0.84051832  *   1.14283344  *  -0.16407515  *
     5       C         -1.32720169  *  -0.16518826  *   0.50102164  *
     6       C          1.42401523  *   0.54054229  *   0.53941520  *
     7       C          1.00026496  *  -0.59828795  *   1.11908158  *
     8       H          0.98443820  *   1.46140069  *  -1.44795550  *
     9       H         -0.38058906  *  -2.20916062  *   0.42005392  *
    10       H         -0.43573237  *  -0.81439528  *  -1.91911643  *
    11       H          1.23685477  *  -1.21363045  *  -1.48089345  *
    12       H         -0.80290935  *   1.98729451  *   0.54469924  *
    13       H         -1.50410457  *   1.45604033  *  -0.98853236  *
    14       H         -2.24899088  *  -0.54741201  *   0.02939319  *
    15       H         -1.55572559  *  -0.03369426  *   1.57217222  *
    16       H          2.20980517  *   1.21926462  *   0.85890514  *
    17       H          1.35541891  *  -1.07646979  *   2.02760954  *

                             CARTESIAN COORDINATES

   1    C        0.568000475     0.773189706    -0.694747513
   2    C       -0.144354987    -1.141958937     0.279838250
   3    C        0.327664335    -0.698754462    -1.133596884
   4    C       -0.840518322     1.142833438    -0.164075152
   5    C       -1.327201694    -0.165188260     0.501021645
   6    C        1.424015228     0.540542287     0.539415198
   7    C        1.000264959    -0.598287951     1.119081583
   8    H        0.984438200     1.461400692    -1.447955504
   9    H       -0.380589059    -2.209160622     0.420053920
  10    H       -0.435732370    -0.814395285    -1.919116435
  11    H        1.236854766    -1.213630452    -1.480893454
  12    H       -0.802909355     1.987294506     0.544699239
  13    H       -1.504104572     1.456040331    -0.988532359
  14    H       -2.248990876    -0.547412009     0.029393192
  15    H       -1.555725593    -0.033694257     1.572172219
  16    H        2.209805165     1.219264619     0.858905145
  17    H        1.355418912    -1.076469791     2.027609540


           Empirical Formula: C7 H10  =    17 atoms



      MOLECULAR POINT GROUP   :   C1  


                  EIGENVALUES  
 -42.85109 -30.00721 -28.33063 -27.00800 -20.65574 -19.75929 -18.17127 -17.65864
 -16.37493 -15.02938 -14.18586 -13.38953 -12.69517 -12.45129 -12.43787 -12.23507
 -12.16396 -11.21633  -9.78337   1.08657   3.41166   3.45561   3.52251   3.65599
   3.70178   3.78027   3.91996   4.19659   4.30534   4.35830   4.43527   4.61609
   4.86828   4.88338   5.17463   5.29432   5.47347   6.05775


              NET ATOMIC CHARGES AND DIPOLE CONTRIBUTIONS

  ATOM NO.   TYPE          CHARGE      No. of ELECS.   s-Pop       p-Pop       
    1          C          -0.056666        4.0567     1.18406     2.87260
    2          C          -0.056643        4.0566     1.18406     2.87258
    3          C          -0.104816        4.1048     1.18102     2.92380
    4          C          -0.098681        4.0987     1.17067     2.92801
    5          C          -0.098663        4.0987     1.17067     2.92800
    6          C          -0.153534        4.1535     1.20980     2.94373
    7          C          -0.153546        4.1535     1.20980     2.94375
    8          H           0.080841        0.9192     0.91916
    9          H           0.080840        0.9192     0.91916
   10          H           0.057553        0.9424     0.94245
   11          H           0.059907        0.9401     0.94009
   12          H           0.054569        0.9454     0.94543
   13          H           0.050937        0.9491     0.94906
   14          H           0.050925        0.9491     0.94908
   15          H           0.054573        0.9454     0.94543
   16          H           0.116202        0.8838     0.88380
   17          H           0.116200        0.8838     0.88380
 DIPOLE           X         Y         Z       TOTAL
 POINT-CHG.    -0.117    -0.019    -0.124     0.172
 HYBRID        -0.042     0.057     0.081     0.108
 SUM           -0.160     0.038    -0.043     0.170


          ATOMIC ORBITAL ELECTRON POPULATIONS

     Atom    s        px        py        pz   
    1  C   1.18406   0.95109   0.96546   0.95605
    2  C   1.18406   0.94710   0.97606   0.94943
    3  C   1.18102   1.00924   0.95444   0.96011
    4  C   1.17067   0.95953   0.96874   0.99973
    5  C   1.17067   0.96715   0.95650   1.00435
    6  C   1.20980   0.98537   0.97578   0.98259
    7  C   1.20980   0.97283   0.97982   0.99109
    8  H   0.91916
    9  H   0.91916
   10  H   0.94245
   11  H   0.94009
   12  H   0.94543
   13  H   0.94906
   14  H   0.94908
   15  H   0.94543
   16  H   0.88380
   17  H   0.88380
 *******************************************************************************
 ** Site#: 14399        For non-commercial use only    Version 18.184L 64BITS **
 *******************************************************************************
 ** Cite this program as: MOPAC2016, Version: 18.184L, James J. P. Stewart,   **
 ** Stewart Computational Chemistry, web: HTTP://OpenMOPAC.net. Days left:  20**
 *******************************************************************************
 **                                                                           **
 **                                MOPAC2016                                  **
 **                                                                           **
 *******************************************************************************

                              PM3 CALCULATION RESULTS

 *******************************************************************************
 *  CALCULATION DONE:                                Thu Jun 13 16:04:56 2019  *
 *  PM3        - The PM3 Hamiltonian to be used
 *  OLDGEO     - PREVIOUS GEOMETRY TO BE USED
 *  PRECISE    - CRITERIA TO BE INCREASED BY 100 TIMES
 *  NOSYM      - POINT-GROUP SYMMETRY SET TO C1
 *  THREADS=1  - MULTI-THREADING NOT USED
 *  T=         - A TIME OF 172800.0 SECONDS REQUESTED
 *  DUMP=N     - RESTART FILE WRITTEN EVERY  7200.000 SECONDS
 *  THERMO     - THERMODYNAMIC QUANTITIES TO BE CALCULATED
 *******************************************************************************
oldgeo thermo nosym precise THREADS=1  pm3
 InChI=1S/C7H10/c1-2-7-4-3-6(1)5-7/h1-2,6-7H,3-5H2

   ATOM   CHEMICAL          X               Y               Z
  NUMBER   SYMBOL      (ANGSTROMS)     (ANGSTROMS)     (ANGSTROMS)
 
     1       C          0.56800048  *   0.77318971  *  -0.69474751  *
     2       C         -0.14435499  *  -1.14195894  *   0.27983825  *
     3       C          0.32766434  *  -0.69875446  *  -1.13359688  *
     4       C         -0.84051832  *   1.14283344  *  -0.16407515  *
     5       C         -1.32720169  *  -0.16518826  *   0.50102164  *
     6       C          1.42401523  *   0.54054229  *   0.53941520  *
     7       C          1.00026496  *  -0.59828795  *   1.11908158  *
     8       H          0.98443820  *   1.46140069  *  -1.44795550  *
     9       H         -0.38058906  *  -2.20916062  *   0.42005392  *
    10       H         -0.43573237  *  -0.81439528  *  -1.91911643  *
    11       H          1.23685477  *  -1.21363045  *  -1.48089345  *
    12       H         -0.80290935  *   1.98729451  *   0.54469924  *
    13       H         -1.50410457  *   1.45604033  *  -0.98853236  *
    14       H         -2.24899088  *  -0.54741201  *   0.02939319  *
    15       H         -1.55572559  *  -0.03369426  *   1.57217222  *
    16       H          2.20980517  *   1.21926462  *   0.85890514  *
    17       H          1.35541891  *  -1.07646979  *   2.02760954  *
 


          CARTESIAN COORDINATES 

    NO.       ATOM           X           Y           Z

     1         C          0.5680      0.7732     -0.6947
     2         C         -0.1444     -1.1420      0.2798
     3         C          0.3277     -0.6988     -1.1336
     4         C         -0.8405      1.1428     -0.1641
     5         C         -1.3272     -0.1652      0.5010
     6         C          1.4240      0.5405      0.5394
     7         C          1.0003     -0.5983      1.1191
     8         H          0.9844      1.4614     -1.4480
     9         H         -0.3806     -2.2092      0.4201
    10         H         -0.4357     -0.8144     -1.9191
    11         H          1.2369     -1.2136     -1.4809
    12         H         -0.8029      1.9873      0.5447
    13         H         -1.5041      1.4560     -0.9885
    14         H         -2.2490     -0.5474      0.0294
    15         H         -1.5557     -0.0337      1.5722
    16         H          2.2098      1.2193      0.8589
    17         H          1.3554     -1.0765      2.0276

  H: (PM3): J. J. P. STEWART, J. COMP. CHEM. 10, 209 (1989).
  C: (PM3): J. J. P. STEWART, J. COMP. CHEM. 10, 209 (1989).

           Empirical Formula: C7 H10  =    17 atoms



      MOLECULAR POINT GROUP   :   C1  


      RHF CALCULATION, NO. OF DOUBLY OCCUPIED LEVELS = 19



          HEAT OF FORMATION =      21.916472 KCALS/MOLE


          CARTESIAN COORDINATE DERIVATIVES

   NUMBER  ATOM         X            Y            Z

     1       C      0.004502     0.002166    -0.003937
     2       C     -0.002281     0.000602     0.003675
     3       C      0.008096     0.000676    -0.007618
     4       C      0.000971    -0.004995    -0.008172
     5       C     -0.003204    -0.004440    -0.003434
     6       C     -0.003002     0.008317     0.009453
     7       C      0.000646     0.003846     0.012330
     8       H      0.005798     0.005697     0.009262
     9       H     -0.001189    -0.001560     0.023301
    10       H     -0.011390    -0.001759     0.004846
    11       H     -0.002695    -0.005920    -0.005748
    12       H     -0.003982     0.003488     0.001197
    13       H     -0.003729    -0.009878    -0.002325
    14       H     -0.000330     0.002570    -0.006748
    15       H      0.010041     0.000894    -0.016748
    16       H      0.003452     0.005243    -0.002675
    17       H     -0.001704    -0.004950    -0.006661
 


          GRADIENT NORM =   0.04777


          TIME FOR SCF CALCULATION =    0.02

          TIME FOR DERIVATIVES     =    0.01

          MOLECULAR WEIGHT =   94.16



          ROTATIONAL CONSTANTS IN CM(-1)

          A =    0.13059027   B =    0.11482290   C =    0.10060575



           PRINCIPAL MOMENTS OF INERTIA IN UNITS OF 10**(-40)*GRAM-CM**2

          A =      214.3557   B =      243.7909   C =      278.2423


          ORIENTATION OF MOLECULE IN FORCE CALCULATION

    NO.       ATOM         X         Y         Z

     1          C      -1.1319    0.3177    0.0646
     2          C       1.1319    0.3177    0.0646
     3          C      -0.0000    1.3834    0.0646
     4          C      -0.7730   -0.4750   -1.2179
     5          C       0.7730   -0.4745   -1.2182
     6          C      -0.6732   -0.5495    1.2255
     7          C       0.6731   -0.5496    1.2254
     8          H      -2.1694    0.6854    0.1177
     9          H       2.1694    0.6853    0.1179
    10          H      -0.0001    2.0389   -0.8205
    11          H      -0.0000    2.0326    0.9540
    12          H      -1.1941   -1.4944   -1.2011
    13          H      -1.1841    0.0182   -2.1157
    14          H       1.1834    0.0196   -2.1158
    15          H       1.1948   -1.4937   -1.2023
    16          H      -1.3571   -1.0693    1.8905
    17          H       1.3570   -1.0697    1.8902


    FIRST DERIVATIVES WILL BE USED IN THE CALCULATION OF SECOND DERIVATIVES

          ESTIMATED TIME TO COMPLETE CALCULATION =        5.58 SECONDS

    FOR POINT-GROUP C1   THERE ARE   1 UNIQUE SYMMETRY FUNCTIONS.

 STEP:   1 TIME =     0.04 SECS, INTEGRAL =      0.04 TIME LEFT: 172799.94
 STEP:   2 TIME =     0.03 SECS, INTEGRAL =      0.07 TIME LEFT: 172799.91
 STEP:   3 TIME =     0.03 SECS, INTEGRAL =      0.10 TIME LEFT: 172799.88
 STEP:   4 TIME =     0.03 SECS, INTEGRAL =      0.13 TIME LEFT: 172799.84
 STEP:   5 TIME =     0.03 SECS, INTEGRAL =      0.16 TIME LEFT: 172799.81
 STEP:   6 TIME =     0.04 SECS, INTEGRAL =      0.20 TIME LEFT: 172799.78
 STEP:   7 TIME =     0.03 SECS, INTEGRAL =      0.23 TIME LEFT: 172799.75
 STEP:   8 TIME =     0.03 SECS, INTEGRAL =      0.26 TIME LEFT: 172799.71
 STEP:   9 TIME =     0.03 SECS, INTEGRAL =      0.29 TIME LEFT: 172799.68
 STEP:  10 TIME =     0.03 SECS, INTEGRAL =      0.32 TIME LEFT: 172799.65
 STEP:  11 TIME =     0.03 SECS, INTEGRAL =      0.35 TIME LEFT: 172799.62
 STEP:  12 TIME =     0.03 SECS, INTEGRAL =      0.38 TIME LEFT: 172799.59
 STEP:  13 TIME =     0.03 SECS, INTEGRAL =      0.41 TIME LEFT: 172799.56
 STEP:  14 TIME =     0.03 SECS, INTEGRAL =      0.44 TIME LEFT: 172799.53
 STEP:  15 TIME =     0.03 SECS, INTEGRAL =      0.47 TIME LEFT: 172799.50
 STEP:  16 TIME =     0.03 SECS, INTEGRAL =      0.50 TIME LEFT: 172799.47
 STEP:  17 TIME =     0.03 SECS, INTEGRAL =      0.54 TIME LEFT: 172799.44
 STEP:  18 TIME =     0.03 SECS, INTEGRAL =      0.57 TIME LEFT: 172799.41
 STEP:  19 TIME =     0.03 SECS, INTEGRAL =      0.60 TIME LEFT: 172799.38
 STEP:  20 TIME =     0.03 SECS, INTEGRAL =      0.63 TIME LEFT: 172799.34
 STEP:  21 TIME =     0.03 SECS, INTEGRAL =      0.66 TIME LEFT: 172799.31
 STEP:  22 TIME =     0.03 SECS, INTEGRAL =      0.69 TIME LEFT: 172799.28
 STEP:  23 TIME =     0.03 SECS, INTEGRAL =      0.72 TIME LEFT: 172799.25
 STEP:  24 TIME =     0.03 SECS, INTEGRAL =      0.75 TIME LEFT: 172799.22
 STEP:  25 TIME =     0.03 SECS, INTEGRAL =      0.79 TIME LEFT: 172799.19
 STEP:  26 TIME =     0.03 SECS, INTEGRAL =      0.82 TIME LEFT: 172799.16
 STEP:  27 TIME =     0.04 SECS, INTEGRAL =      0.85 TIME LEFT: 172799.12
 STEP:  28 TIME =     0.03 SECS, INTEGRAL =      0.88 TIME LEFT: 172799.09
 STEP:  29 TIME =     0.03 SECS, INTEGRAL =      0.91 TIME LEFT: 172799.06
 STEP:  30 TIME =     0.03 SECS, INTEGRAL =      0.95 TIME LEFT: 172799.03
 STEP:  31 TIME =     0.04 SECS, INTEGRAL =      0.98 TIME LEFT: 172798.99
 STEP:  32 TIME =     0.03 SECS, INTEGRAL =      1.01 TIME LEFT: 172798.96
 STEP:  33 TIME =     0.03 SECS, INTEGRAL =      1.04 TIME LEFT: 172798.93
 STEP:  34 TIME =     0.03 SECS, INTEGRAL =      1.07 TIME LEFT: 172798.90
 STEP:  35 TIME =     0.03 SECS, INTEGRAL =      1.10 TIME LEFT: 172798.87
 STEP:  36 TIME =     0.03 SECS, INTEGRAL =      1.13 TIME LEFT: 172798.84
 STEP:  37 TIME =     0.04 SECS, INTEGRAL =      1.16 TIME LEFT: 172798.81
 STEP:  38 TIME =     0.03 SECS, INTEGRAL =      1.19 TIME LEFT: 172798.78
 STEP:  39 TIME =     0.03 SECS, INTEGRAL =      1.22 TIME LEFT: 172798.75
 STEP:  40 TIME =     0.03 SECS, INTEGRAL =      1.25 TIME LEFT: 172798.72
 STEP:  41 TIME =     0.03 SECS, INTEGRAL =      1.29 TIME LEFT: 172798.69
 STEP:  42 TIME =     0.03 SECS, INTEGRAL =      1.31 TIME LEFT: 172798.66
 STEP:  43 TIME =     0.03 SECS, INTEGRAL =      1.34 TIME LEFT: 172798.63
 STEP:  44 TIME =     0.03 SECS, INTEGRAL =      1.38 TIME LEFT: 172798.60
 STEP:  45 TIME =     0.03 SECS, INTEGRAL =      1.41 TIME LEFT: 172798.57
 STEP:  46 TIME =     0.03 SECS, INTEGRAL =      1.44 TIME LEFT: 172798.54
 STEP:  47 TIME =     0.03 SECS, INTEGRAL =      1.47 TIME LEFT: 172798.50
 STEP:  48 TIME =     0.03 SECS, INTEGRAL =      1.50 TIME LEFT: 172798.47
 STEP:  49 TIME =     0.03 SECS, INTEGRAL =      1.53 TIME LEFT: 172798.44
 STEP:  50 TIME =     0.03 SECS, INTEGRAL =      1.56 TIME LEFT: 172798.41
 STEP:  51 TIME =     0.03 SECS, INTEGRAL =      1.59 TIME LEFT: 172798.38

(To convert to Hartree/Bohr^2, multiply by (10^(-21) x N x a0^2)/(4.184 x 627.51) =  0.0642)


           FORCE MATRIX IN MILLIDYNES/ANGSTROM


                  C  1       C  2       C  3       C  4       C  5       C  6
 ------------------------------------------------------------------------------
     C    1  14.732918
     C    2   1.305687  14.732547
     C    3   3.201417   3.200759  14.481161
     C    4   3.286243   0.832859   0.903599  14.100867
     C    5   0.832670   3.286421   0.903973   3.481505  14.099587
     C    6   3.963690   1.293722   1.009950   0.739451   0.126822  18.038135
     C    7   1.293785   3.964049   1.009753   0.126988   0.738836  10.180593
     H    8   4.659753   0.048418   0.409857   0.421802   0.043753   0.425508
     H    9   0.048628   4.659496   0.410024   0.043749   0.421794   0.049123
     H   10   0.431708   0.431615   4.649752   0.045172   0.045175   0.044901
     H   11   0.435218   0.435250   4.667171   0.047864   0.047825   0.037887
     H   12   0.442422   0.025878   0.047711   4.610030   0.438484   0.033358
     H   13   0.447328   0.028293   0.019087   4.588045   0.439559   0.045679
     H   14   0.028272   0.447327   0.019143   0.439451   4.587391   0.004865
     H   15   0.025905   0.442392   0.047738   0.438474   4.610189   0.005931
     H   16   0.401763   0.107510   0.033939   0.017966   0.012102   5.121700
     H   17   0.107443   0.401738   0.033910   0.012035   0.017956   0.448356


                  C  7       H  8       H  9       H 10       H 11       H 12
 ------------------------------------------------------------------------------
     C    7  18.039450
     H    8   0.049074   5.192427
     H    9   0.425500   0.006297   5.191813
     H   10   0.044879   0.006965   0.006881   5.296799
     H   11   0.037811   0.008540   0.008448   0.541062   5.308660
     H   12   0.006014   0.009892   0.003252   0.002259   0.007717   5.233174
     H   13   0.004929   0.023489   0.003338   0.010625   0.001982   0.565196
     H   14   0.045618   0.003335   0.023466   0.010724   0.001974   0.027974
     H   15   0.033164   0.003252   0.009865   0.002270   0.007727   0.029044
     H   16   0.448337   0.011727   0.007648   0.004827   0.002231   0.003154
     H   17   5.121639   0.007652   0.011727   0.004833   0.002243   0.001026


                  H 13       H 14       H 15       H 16       H 17
 ------------------------------------------------------------------
     H   13   5.207204
     H   14   0.029359   5.206586
     H   15   0.027933   0.565197   5.233390
     H   16   0.002422   0.002230   0.001019   5.516050
     H   17   0.002232   0.002429   0.003157   0.043480   5.515912


          HEAT OF FORMATION =      21.916472 KCALS/MOLE

          ZERO POINT ENERGY      95.465 KCAL/MOL


           NORMAL COORDINATE ANALYSIS (Total motion = 1 Angstrom)


   Root No.       1         2         3         4         5         6         7         8

                 1 A       2 A       3 A       4 A       5 A       6 A       7 A       8 A   

                 268.1     416.6     464.4     485.3     650.0     796.4     798.2     805.6
  
           1    0.0027    0.0000    0.0116    0.0008    0.0069   -0.0116    0.0207    0.0533
           2    0.0120   -0.0334    0.0058    0.0002   -0.0077    0.0023   -0.0475    0.0050
           3   -0.0037   -0.0013   -0.0116   -0.0257   -0.0474   -0.0004    0.0045    0.0015
           4    0.0027   -0.0001    0.0116   -0.0008    0.0069    0.0106    0.0217   -0.0532
           5   -0.0120   -0.0333   -0.0059    0.0003    0.0077    0.0001    0.0475    0.0053
           6    0.0036   -0.0014    0.0114   -0.0258    0.0474   -0.0002   -0.0045    0.0015
           7    0.0134   -0.0001    0.0297   -0.0001   -0.0027   -0.0013    0.0567    0.0001
           8   -0.0000   -0.0283   -0.0001    0.0020    0.0000   -0.0075   -0.0003    0.0548
           9    0.0000   -0.0037    0.0002    0.0652   -0.0000   -0.0009   -0.0000    0.0031
          10    0.0074    0.0009   -0.0274    0.0048   -0.0395   -0.0060   -0.0192    0.0126
          11   -0.0409    0.0187   -0.0107   -0.0212   -0.0178    0.0176   -0.0270   -0.0020
          12    0.0268   -0.0338    0.0022   -0.0107   -0.0368    0.0102   -0.0126   -0.0352
          13    0.0074   -0.0008   -0.0274   -0.0046   -0.0395    0.0068   -0.0187   -0.0127
          14    0.0409    0.0186    0.0106   -0.0213    0.0178    0.0163    0.0281   -0.0018
          15   -0.0269   -0.0338   -0.0025   -0.0107    0.0369    0.0096    0.0135   -0.0351
          16   -0.0179    0.0001    0.0025   -0.0013    0.0381    0.0011   -0.0338    0.0028
          17    0.0202    0.0192   -0.0421    0.0217    0.0309   -0.0253   -0.0204   -0.0272
          18    0.0089    0.0387   -0.0429   -0.0062   -0.0121   -0.0274    0.0259    0.0308
          19   -0.0179   -0.0001    0.0025    0.0013    0.0381    0.0005   -0.0338   -0.0029
          20   -0.0202    0.0190    0.0424    0.0214   -0.0309   -0.0262    0.0189   -0.0272
          21   -0.0088    0.0385    0.0430   -0.0065    0.0121   -0.0261   -0.0278    0.0307
          22    0.0065   -0.0030    0.0224   -0.0015    0.0053   -0.0080    0.0401    0.0474
          23    0.0252   -0.0402    0.0325   -0.0024   -0.0135    0.0091    0.0055   -0.0158
          24   -0.0264   -0.0032    0.0152   -0.0511   -0.0294    0.0279   -0.0066    0.0029
          25    0.0065    0.0029    0.0225    0.0014    0.0053    0.0061    0.0409   -0.0473
          26   -0.0253   -0.0400   -0.0328   -0.0021    0.0135    0.0094   -0.0052   -0.0157
          27    0.0263   -0.0031   -0.0157   -0.0510    0.0294    0.0276    0.0083    0.0030
          28    0.0244   -0.0001    0.0458   -0.0001    0.0676   -0.0009    0.0376    0.0002
          29    0.0000   -0.0286    0.0004    0.1150    0.0000   -0.0292   -0.0010    0.0315
          30    0.0000   -0.0040    0.0006    0.1544   -0.0000   -0.0183   -0.0006   -0.0162
          31    0.0148   -0.0001    0.0227   -0.0001   -0.0897   -0.0011    0.0475    0.0001
          32   -0.0001   -0.0264   -0.0005   -0.1159    0.0000    0.0137    0.0003    0.0864
          33    0.0001   -0.0053    0.0006    0.1558   -0.0000   -0.0180   -0.0006   -0.0206
          34    0.0692   -0.0030   -0.0153    0.0053   -0.0360    0.0372   -0.0030    0.0478
          35   -0.0660    0.0209   -0.0165   -0.0222   -0.0202   -0.0013   -0.0344   -0.0178
          36    0.1127   -0.0976    0.0452    0.0215   -0.0282    0.0714   -0.1109    0.0548
          37   -0.0548    0.0042   -0.0520    0.0013   -0.0291   -0.0383   -0.0273   -0.0609
          38   -0.1291    0.0775   -0.0509   -0.0513   -0.0435   -0.0477    0.0439   -0.0787
          39    0.0082   -0.0048   -0.0079   -0.0251   -0.0566   -0.0080    0.0274   -0.0410
          40   -0.0549   -0.0039   -0.0520   -0.0009   -0.0292    0.0396   -0.0254    0.0608
          41    0.1291    0.0771    0.0509   -0.0517    0.0436   -0.0455   -0.0462   -0.0789
          42   -0.0081   -0.0048    0.0077   -0.0252    0.0566   -0.0068   -0.0277   -0.0413
          43    0.0690    0.0030   -0.0154   -0.0052   -0.0359   -0.0370   -0.0049   -0.0478
          44    0.0662    0.0208    0.0165   -0.0224    0.0203   -0.0029    0.0344   -0.0178
          45   -0.1128   -0.0972   -0.0455    0.0219    0.0281    0.0662    0.1148    0.0555
          46   -0.0278    0.0006   -0.0078   -0.0015    0.0210    0.0042   -0.0149   -0.0404
          47    0.0468    0.0859   -0.1287    0.0583    0.0994    0.1819    0.0181    0.0118
          48    0.0193    0.0916   -0.1211    0.0214    0.0230    0.1373    0.0767    0.0174
          49   -0.0278   -0.0005   -0.0078    0.0016    0.0210   -0.0035   -0.0153    0.0403
          50   -0.0467    0.0855    0.1296    0.0573   -0.0995    0.1822   -0.0062    0.0118
          51   -0.0192    0.0912    0.1218    0.0206   -0.0230    0.1406   -0.0678    0.0172


   Root No.       9        10        11        12        13        14        15        16

                 9 A      10 A      11 A      12 A      13 A      14 A      15 A      16 A   

                 838.6     926.4     955.6     967.4     969.5     975.4    1002.3    1014.6
  
           1    0.0181   -0.0295    0.0146   -0.0026   -0.0143   -0.0037   -0.0321   -0.0068
           2    0.0019    0.0140    0.0161    0.0166    0.0040    0.0049    0.0032   -0.0041
           3   -0.0011    0.0059   -0.0050    0.0149   -0.0059    0.0134    0.0016    0.0151
           4   -0.0181   -0.0296   -0.0148    0.0028   -0.0141   -0.0038   -0.0321    0.0069
           5    0.0018   -0.0140    0.0162    0.0166   -0.0038   -0.0051   -0.0034   -0.0042
           6   -0.0011   -0.0059   -0.0049    0.0146    0.0062   -0.0136   -0.0016    0.0151
           7   -0.0001    0.0157    0.0001   -0.0000    0.0064   -0.0019    0.0172   -0.0000
           8    0.0366   -0.0000   -0.0334   -0.0215   -0.0001    0.0001    0.0001    0.0288
           9   -0.0020   -0.0000   -0.0300    0.0558    0.0006   -0.0003   -0.0000   -0.0035
          10    0.0064    0.0002   -0.0257   -0.0072    0.0010   -0.0023    0.0055   -0.0316
          11   -0.0236   -0.0016   -0.0010   -0.0200   -0.0083   -0.0223   -0.0067   -0.0180
          12    0.0147   -0.0320   -0.0032   -0.0262    0.0109   -0.0099    0.0156   -0.0164
          13   -0.0063    0.0003    0.0257    0.0071    0.0009   -0.0024    0.0054    0.0316
          14   -0.0237    0.0016   -0.0010   -0.0199    0.0080    0.0225    0.0067   -0.0180
          15    0.0146    0.0320   -0.0035   -0.0259   -0.0114    0.0103   -0.0155   -0.0163
          16    0.0011    0.0029   -0.0007   -0.0023    0.0040    0.0070    0.0094    0.0047
          17   -0.0146   -0.0107   -0.0117    0.0075    0.0217    0.0300   -0.0113    0.0115
          18   -0.0106    0.0167    0.0152   -0.0078    0.0226   -0.0089   -0.0313   -0.0127
          19   -0.0011    0.0029    0.0007    0.0024    0.0040    0.0070    0.0094   -0.0047
          20   -0.0146    0.0107   -0.0118    0.0076   -0.0214   -0.0301    0.0114    0.0115
          21   -0.0106   -0.0167    0.0151   -0.0069   -0.0229    0.0090    0.0312   -0.0127
          22    0.0138   -0.0173    0.0634    0.0265   -0.0161   -0.0023   -0.0439   -0.0137
          23   -0.0096    0.0397    0.1485    0.0995    0.0036    0.0047   -0.0347   -0.0445
          24   -0.0102    0.0167    0.0490    0.0088   -0.0410    0.0418    0.0244    0.1627
          25   -0.0139   -0.0174   -0.0641   -0.0265   -0.0161   -0.0021   -0.0438    0.0139
          26   -0.0096   -0.0395    0.1497    0.1000   -0.0027   -0.0056    0.0341   -0.0451
          27   -0.0102   -0.0166    0.0496    0.0073    0.0407   -0.0419   -0.0244    0.1625
          28   -0.0001    0.0304    0.0013   -0.0030    0.1770   -0.1302    0.1435   -0.0002
          29    0.0453    0.0001    0.0622   -0.1768   -0.0019    0.0010    0.0002    0.0619
          30    0.0045    0.0000    0.0431   -0.0664   -0.0008    0.0004    0.0000    0.0246
          31   -0.0000    0.1267   -0.0002    0.0026   -0.0998    0.1416    0.0604   -0.0002
          32    0.0323   -0.0001   -0.1304    0.1395    0.0018   -0.0009   -0.0000    0.0003
          33    0.0012    0.0000    0.0466   -0.0658   -0.0008    0.0004    0.0000    0.0197
          34   -0.0968    0.0330   -0.0710   -0.0579    0.0069    0.0381    0.0453   -0.0134
          35    0.0210   -0.0149    0.0201    0.0020   -0.0104   -0.0385   -0.0228   -0.0260
          36   -0.0887    0.0055    0.0149   -0.0230   -0.0469   -0.0944   -0.0544   -0.0401
          37    0.1000    0.0492   -0.0089    0.0226    0.0024    0.0014   -0.0071   -0.0896
          38    0.0939   -0.0795    0.0079   -0.0162    0.0423    0.0252    0.0467    0.0062
          39    0.0316   -0.0947   -0.0056   -0.0385    0.0367    0.0138    0.0504    0.0253
          40   -0.1000    0.0491    0.0086   -0.0228    0.0018    0.0016   -0.0067    0.0896
          41    0.0938    0.0795    0.0074   -0.0156   -0.0426   -0.0250   -0.0464    0.0063
          42    0.0318    0.0947   -0.0062   -0.0380   -0.0374   -0.0134   -0.0500    0.0254
          43    0.0968    0.0332    0.0709    0.0584    0.0075    0.0376    0.0446    0.0135
          44    0.0211    0.0150    0.0201    0.0024    0.0102    0.0385    0.0225   -0.0259
          45   -0.0889   -0.0055    0.0151   -0.0226    0.0463    0.0949    0.0541   -0.0400
          46   -0.0137    0.0781   -0.0419    0.0111    0.0406   -0.0420    0.0064    0.0515
          47    0.0722   -0.0554    0.0151    0.0123   -0.1299   -0.0239    0.0904   -0.0118
          48    0.0414    0.0584   -0.0059    0.0091   -0.0589   -0.1008    0.0448    0.0168
          49    0.0137    0.0782    0.0422   -0.0127    0.0400   -0.0418    0.0061   -0.0515
          50    0.0721    0.0554    0.0159    0.0091    0.1300    0.0238   -0.0906   -0.0116
          51    0.0416   -0.0584   -0.0056    0.0090    0.0593    0.1006   -0.0448    0.0169


   Root No.      17        18        19        20        21        22        23        24

                17 A      18 A      19 A      20 A      21 A      22 A      23 A      24 A   

                1043.1    1056.1    1063.8    1068.5    1101.5    1108.1    1161.7    1198.2
  
           1   -0.0035    0.0122   -0.0050   -0.0097   -0.0065   -0.0007    0.0448   -0.0375
           2   -0.0174   -0.0028    0.0075    0.0102    0.0076    0.0007   -0.0124   -0.0544
           3   -0.0093    0.0034   -0.0127    0.0078    0.0132    0.0073   -0.0034   -0.0173
           4   -0.0036   -0.0121   -0.0051    0.0097    0.0065   -0.0007   -0.0446   -0.0377
           5    0.0172   -0.0030   -0.0076    0.0100    0.0076   -0.0007   -0.0126    0.0549
           6    0.0094    0.0033    0.0126    0.0078    0.0132   -0.0074   -0.0035    0.0176
           7    0.0200   -0.0001   -0.0053   -0.0001    0.0000    0.0000   -0.0000    0.0431
           8    0.0001   -0.0078   -0.0000    0.0074   -0.0097    0.0000   -0.0283   -0.0002
           9    0.0000    0.0067    0.0000   -0.0143   -0.0086    0.0000    0.0031   -0.0001
          10   -0.0026    0.0067   -0.0015    0.0186    0.0267    0.0000    0.0276    0.0066
          11    0.0124   -0.0070   -0.0117   -0.0072   -0.0027   -0.0340    0.0070    0.0206
          12    0.0048    0.0083    0.0149   -0.0049   -0.0063    0.0159    0.0065    0.0165
          13   -0.0028   -0.0067   -0.0013   -0.0186   -0.0267    0.0001   -0.0276    0.0063
          14   -0.0125   -0.0069    0.0118   -0.0070   -0.0026    0.0340    0.0071   -0.0208
          15   -0.0046    0.0084   -0.0148   -0.0049   -0.0063   -0.0159    0.0066   -0.0167
          16   -0.0006   -0.0026    0.0073    0.0008   -0.0001    0.0000    0.0062    0.0086
          17    0.0122    0.0057   -0.0073   -0.0075    0.0028   -0.0016    0.0213    0.0220
          18    0.0047   -0.0104   -0.0051    0.0026   -0.0026   -0.0023   -0.0229   -0.0071
          19   -0.0006    0.0026    0.0073   -0.0008    0.0001    0.0000   -0.0062    0.0086
          20   -0.0120    0.0058    0.0073   -0.0074    0.0028    0.0016    0.0213   -0.0220
          21   -0.0049   -0.0104    0.0051    0.0026   -0.0026    0.0023   -0.0230    0.0069
          22   -0.0604    0.0316    0.0110    0.0194   -0.0058   -0.0022    0.0523    0.0355
          23   -0.1702    0.0563    0.0763    0.0949   -0.0094   -0.0109   -0.0110    0.1420
          24   -0.0770   -0.0170   -0.1592   -0.0269    0.1255    0.0465    0.0845    0.0599
          25   -0.0608   -0.0309    0.0111   -0.0189    0.0058   -0.0022   -0.0524    0.0358
          26    0.1707    0.0546   -0.0769    0.0936   -0.0095    0.0109   -0.0107   -0.1429
          27    0.0770   -0.0176    0.1593   -0.0262    0.1255   -0.0468    0.0846   -0.0603
          28    0.0065   -0.0002   -0.1139   -0.0005    0.0000    0.0401    0.0000   -0.0854
          29    0.0001   -0.0238   -0.0001    0.0496    0.0144   -0.0000   -0.0491   -0.0001
          30    0.0000   -0.0057   -0.0000    0.0178    0.0110   -0.0000   -0.0119    0.0000
          31    0.1825   -0.0010    0.0727   -0.0002    0.0000   -0.0128   -0.0002   -0.0194
          32    0.0002    0.0055   -0.0000   -0.0267   -0.0373    0.0001   -0.0344   -0.0006
          33   -0.0000   -0.0030    0.0000    0.0128    0.0132   -0.0000    0.0068    0.0002
          34   -0.0502    0.1062   -0.0429    0.0855    0.0608   -0.1555   -0.0232    0.0007
          35    0.0309   -0.0497    0.0054   -0.0361   -0.0174    0.0304    0.0301    0.0233
          36    0.0666   -0.0717   -0.0241   -0.0638   -0.0303    0.0089    0.0761    0.0745
          37   -0.0124   -0.0944    0.0115    0.0197    0.1042    0.1774    0.0024    0.0301
          38   -0.0154    0.0531    0.0399   -0.0030   -0.0374   -0.0067    0.0307   -0.0049
          39   -0.0064    0.0885    0.0350   -0.0036   -0.0609   -0.0499    0.0329   -0.0060
          40   -0.0111    0.0947    0.0117   -0.0194   -0.1039    0.1776   -0.0024    0.0310
          41    0.0161    0.0531   -0.0398   -0.0033   -0.0375    0.0068    0.0307    0.0056
          42    0.0078    0.0886   -0.0350   -0.0038   -0.0609    0.0498    0.0330    0.0068
          43   -0.0525   -0.1058   -0.0422   -0.0856   -0.0611   -0.1552    0.0233    0.0013
          44   -0.0319   -0.0494   -0.0052   -0.0360   -0.0175   -0.0304    0.0302   -0.0230
          45   -0.0681   -0.0711    0.0246   -0.0633   -0.0303   -0.0088    0.0764   -0.0741
          46   -0.0084   -0.0711    0.0612    0.1319   -0.0715   -0.0263    0.0974   -0.0033
          47   -0.0246    0.0449   -0.0111   -0.0573    0.0410    0.0184   -0.0283   -0.0003
          48   -0.0317   -0.0511    0.0451    0.0984   -0.0456   -0.0131    0.0270   -0.0372
          49   -0.0087    0.0713    0.0619   -0.1314    0.0714   -0.0264   -0.0974   -0.0037
          50    0.0247    0.0449    0.0114   -0.0573    0.0410   -0.0185   -0.0282    0.0004
          51    0.0317   -0.0513   -0.0457    0.0980   -0.0456    0.0132    0.0268    0.0375


   Root No.      25        26        27        28        29        30        31        32

                25 A      26 A      27 A      28 A      29 A      30 A      31 A      32 A   

                1208.9    1219.7    1245.9    1286.3    1299.5    1315.3    1342.3    1404.1
  
           1   -0.0030    0.0064    0.0046    0.0231    0.0158    0.0310    0.0210    0.0005
           2    0.0368    0.0095   -0.0094    0.0472    0.0004   -0.0130   -0.0264    0.0027
           3    0.0379   -0.0275   -0.0155   -0.0277   -0.0336    0.0460    0.0368    0.0037
           4    0.0033    0.0064    0.0045   -0.0231    0.0158   -0.0310    0.0210    0.0005
           5    0.0364   -0.0096    0.0095    0.0471   -0.0003   -0.0130    0.0264   -0.0027
           6    0.0378    0.0275    0.0154   -0.0278    0.0335    0.0460   -0.0368   -0.0037
           7   -0.0002    0.0050   -0.0494    0.0000   -0.0234   -0.0000   -0.0312    0.0026
           8   -0.0266    0.0000   -0.0000   -0.0330    0.0000   -0.0035   -0.0000    0.0000
           9   -0.0203    0.0000    0.0000    0.0114    0.0000   -0.0128    0.0000   -0.0000
          10    0.0258    0.0078    0.0122   -0.0233   -0.0292   -0.0337   -0.0101   -0.0162
          11   -0.0160   -0.0085   -0.0050   -0.0010    0.0186    0.0100    0.0087   -0.0169
          12   -0.0254    0.0033   -0.0071    0.0140    0.0372    0.0048    0.0008   -0.0285
          13   -0.0258    0.0079    0.0123    0.0232   -0.0293    0.0337   -0.0102   -0.0162
          14   -0.0158    0.0085    0.0051   -0.0009   -0.0186    0.0100   -0.0087    0.0168
          15   -0.0253   -0.0033    0.0072    0.0141   -0.0372    0.0048   -0.0008    0.0285
          16   -0.0023   -0.0182    0.0029    0.0055   -0.0010    0.0002   -0.0200    0.0005
          17   -0.0039    0.0127   -0.0045   -0.0095   -0.0069    0.0154    0.0317   -0.0013
          18   -0.0056   -0.0114    0.0116    0.0119    0.0138   -0.0234   -0.0425    0.0008
          19    0.0023   -0.0182    0.0028   -0.0055   -0.0010   -0.0002   -0.0200    0.0005
          20   -0.0038   -0.0127    0.0045   -0.0095    0.0068    0.0153   -0.0317    0.0013
          21   -0.0057    0.0114   -0.0115    0.0120   -0.0138   -0.0234    0.0426   -0.0008
          22   -0.0528   -0.0055    0.0378   -0.0345    0.0149    0.0212    0.0351   -0.0034
          23   -0.0877   -0.0465    0.0769   -0.1251   -0.0109   -0.0232    0.0271   -0.0066
          24   -0.0747    0.1292    0.0481    0.0265    0.0388   -0.1098   -0.0517   -0.0122
          25    0.0525   -0.0054    0.0377    0.0342    0.0150   -0.0210    0.0350   -0.0034
          26   -0.0863    0.0466   -0.0768   -0.1245    0.0109   -0.0233   -0.0270    0.0066
          27   -0.0743   -0.1292   -0.0479    0.0267   -0.0386   -0.1098    0.0519    0.0122
          28    0.0006   -0.0792    0.1398   -0.0001    0.0072    0.0001    0.1226   -0.0036
          29    0.0156    0.0000   -0.0001   -0.0855   -0.0000    0.0108    0.0000   -0.0001
          30    0.0132    0.0000   -0.0001   -0.0295   -0.0000    0.0023    0.0000   -0.0001
          31    0.0005    0.0044    0.1800   -0.0002    0.0935    0.0001    0.0430   -0.0081
          32   -0.0865    0.0000    0.0001   -0.0301    0.0001   -0.0585    0.0001   -0.0001
          33    0.0266    0.0000   -0.0000    0.0076   -0.0000    0.0287   -0.0001    0.0001
          34   -0.0648   -0.0347   -0.0522    0.0647    0.1306    0.0294    0.0273    0.0890
          35    0.0232    0.0092    0.0219   -0.0381   -0.0468   -0.0184   -0.0066   -0.0408
          36    0.0356    0.0072    0.0331   -0.0880   -0.0464   -0.0589    0.0096    0.1945
          37   -0.0778   -0.0272   -0.0560    0.0189    0.1254    0.0555    0.0390    0.0896
          38    0.0329    0.0322    0.0242   -0.0026   -0.0020   -0.0775   -0.0260    0.1875
          39    0.0489    0.0413    0.0398   -0.0078   -0.0435   -0.0850   -0.0389    0.0535
          40    0.0774   -0.0273   -0.0561   -0.0188    0.1253   -0.0552    0.0391    0.0897
          41    0.0328   -0.0322   -0.0243   -0.0026    0.0022   -0.0775    0.0261   -0.1874
          42    0.0487   -0.0413   -0.0398   -0.0077    0.0436   -0.0849    0.0390   -0.0537
          43    0.0646   -0.0347   -0.0525   -0.0646    0.1307   -0.0292    0.0274    0.0889
          44    0.0233   -0.0092   -0.0220   -0.0379    0.0468   -0.0184    0.0067    0.0411
          45    0.0360   -0.0072   -0.0334   -0.0879    0.0464   -0.0589   -0.0095   -0.1944
          46   -0.0091    0.1223   -0.0288    0.0339   -0.0099    0.0138    0.1109   -0.0030
          47    0.0240   -0.0598    0.0055   -0.0177   -0.0064    0.0166   -0.0317    0.0009
          48    0.0094    0.0757   -0.0131    0.0335    0.0047   -0.0120    0.0419   -0.0009
          49    0.0092    0.1224   -0.0289   -0.0337   -0.0099   -0.0137    0.1110   -0.0030
          50    0.0241    0.0598   -0.0056   -0.0177    0.0064    0.0167    0.0317   -0.0009
          51    0.0092   -0.0757    0.0132    0.0334   -0.0046   -0.0120   -0.0419    0.0009


   Root No.      33        34        35        36        37        38        39        40

                33 A      34 A      35 A      36 A      37 A      38 A      39 A      40 A   

                1419.9    1430.6    1781.4    2997.4    3011.7    3034.2    3038.2    3041.8
  
           1    0.0027    0.0057    0.0150    0.0012    0.0018   -0.0010   -0.0326   -0.0324
           2    0.0030    0.0027    0.0007   -0.0003   -0.0004    0.0004    0.0116    0.0112
           3    0.0053   -0.0015   -0.0048   -0.0001   -0.0002   -0.0005    0.0013    0.0013
           4   -0.0027   -0.0057   -0.0150    0.0012   -0.0018    0.0011   -0.0339    0.0312
           5    0.0030    0.0027    0.0007    0.0003   -0.0004    0.0004   -0.0121    0.0108
           6    0.0053   -0.0015   -0.0048    0.0001   -0.0002   -0.0005   -0.0014    0.0013
           7   -0.0000    0.0000    0.0000   -0.0001   -0.0000   -0.0000   -0.0008   -0.0000
           8   -0.0167   -0.0433    0.0037    0.0000   -0.0002    0.0016    0.0000   -0.0008
           9   -0.0000   -0.0003   -0.0036   -0.0000    0.0020   -0.0550   -0.0002    0.0017
          10   -0.0221    0.0099   -0.0031   -0.0005   -0.0005   -0.0002    0.0004    0.0005
          11   -0.0089    0.0060    0.0015    0.0251    0.0238    0.0021    0.0020    0.0029
          12   -0.0153    0.0105    0.0023   -0.0162   -0.0154   -0.0014   -0.0000   -0.0003
          13    0.0221   -0.0099    0.0031   -0.0005    0.0005    0.0002    0.0004   -0.0005
          14   -0.0089    0.0060    0.0015   -0.0253    0.0236    0.0021   -0.0021    0.0028
          15   -0.0153    0.0105    0.0023    0.0163   -0.0153   -0.0014    0.0000   -0.0003
          16   -0.0002    0.0006   -0.2201    0.0001    0.0001    0.0001    0.0004    0.0003
          17    0.0006    0.0017    0.0077    0.0000    0.0001   -0.0003    0.0004    0.0005
          18   -0.0012   -0.0020   -0.0107    0.0002    0.0003   -0.0001   -0.0005   -0.0005
          19    0.0002   -0.0006    0.2201    0.0001   -0.0001   -0.0001    0.0004   -0.0003
          20    0.0006    0.0017    0.0076   -0.0000    0.0001   -0.0003   -0.0004    0.0005
          21   -0.0012   -0.0020   -0.0108   -0.0002    0.0003   -0.0001    0.0006   -0.0004
          22   -0.0038    0.0011   -0.0001   -0.0139   -0.0205    0.0109    0.3949    0.3762
          23   -0.0119   -0.0128   -0.0380    0.0049    0.0072   -0.0041   -0.1385   -0.1325
          24   -0.0153    0.0045    0.0546   -0.0002    0.0002   -0.0013   -0.0209   -0.0199
          25    0.0038   -0.0011    0.0000   -0.0141    0.0204   -0.0131    0.4099   -0.3621
          26   -0.0119   -0.0127   -0.0380   -0.0049    0.0072   -0.0048    0.1439   -0.1276
          27   -0.0153    0.0045    0.0546    0.0002    0.0002   -0.0014    0.0218   -0.0193
          28    0.0000   -0.0001    0.0000   -0.0003   -0.0000    0.0000   -0.0013   -0.0000
          29    0.0912    0.2007    0.0062   -0.0000    0.0094   -0.2652   -0.0010    0.0127
          30    0.0723    0.1633   -0.0051    0.0000   -0.0135    0.3399    0.0013   -0.0174
          31    0.0000   -0.0000   -0.0000   -0.0001   -0.0000   -0.0000   -0.0016   -0.0000
          32    0.0875    0.1980   -0.0004    0.0000   -0.0113    0.2460    0.0008   -0.0033
          33   -0.0677   -0.1588   -0.0014    0.0000   -0.0145    0.3177    0.0010   -0.0027
          34    0.0931   -0.0456    0.0009   -0.0820   -0.0811   -0.0040   -0.0077   -0.0150
          35   -0.0422    0.0210   -0.0003   -0.1978   -0.1856   -0.0079   -0.0185   -0.0354
          36    0.1251   -0.0740   -0.0022   -0.0012   -0.0015   -0.0003    0.0003    0.0012
          37    0.0946   -0.0481    0.0022    0.0880    0.0881    0.0093    0.0020    0.0004
          38    0.1265   -0.0737   -0.0033   -0.1035   -0.0987   -0.0104   -0.0016    0.0014
          39    0.0198   -0.0139   -0.0027    0.1947    0.1857    0.0201    0.0071    0.0031
          40   -0.0947    0.0482   -0.0022    0.0885   -0.0876   -0.0093    0.0020   -0.0004
          41    0.1264   -0.0739   -0.0033    0.1045   -0.0985   -0.0105    0.0016    0.0014
          42    0.0199   -0.0140   -0.0026   -0.1962    0.1848    0.0202   -0.0073    0.0030
          43   -0.0930    0.0457   -0.0008   -0.0825    0.0806    0.0040   -0.0083    0.0148
          44   -0.0424    0.0211   -0.0003    0.1986   -0.1840   -0.0079    0.0198   -0.0347
          45    0.1250   -0.0742   -0.0022    0.0014   -0.0017   -0.0003   -0.0004    0.0011
          46    0.0009    0.0048   -0.0642   -0.0002    0.0001   -0.0034   -0.0030   -0.0109
          47    0.0010   -0.0001   -0.1007   -0.0002   -0.0001   -0.0028   -0.0012   -0.0066
          48    0.0001   -0.0002    0.1328    0.0004    0.0002    0.0036    0.0015    0.0089
          49   -0.0009   -0.0049    0.0642   -0.0002   -0.0001    0.0034   -0.0034    0.0108
          50    0.0010   -0.0001   -0.1007    0.0002   -0.0001   -0.0028    0.0014   -0.0066
          51    0.0001   -0.0002    0.1328   -0.0004    0.0002    0.0036   -0.0019    0.0088


   Root No.      41        42        43        44        45

                41 A      42 A      43 A      44 A      45 A   

                3076.7    3079.9    3097.4    3147.0    3165.3
  
           1    0.0004   -0.0019    0.0003   -0.0001   -0.0020
           2    0.0001    0.0004   -0.0011   -0.0001    0.0007
           3    0.0005   -0.0002   -0.0000    0.0003   -0.0003
           4    0.0004    0.0018   -0.0003   -0.0001    0.0020
           5   -0.0001    0.0004   -0.0011    0.0001    0.0007
           6   -0.0005   -0.0002   -0.0000   -0.0003   -0.0003
           7   -0.0001    0.0000    0.0000    0.0002   -0.0000
           8   -0.0000   -0.0001   -0.0411   -0.0000    0.0014
           9    0.0000    0.0012   -0.0022    0.0000   -0.0010
          10    0.0137   -0.0125    0.0004    0.0000   -0.0002
          11    0.0097   -0.0096    0.0005    0.0000    0.0000
          12    0.0133   -0.0128    0.0003   -0.0002   -0.0004
          13    0.0139    0.0123   -0.0004    0.0000    0.0002
          14   -0.0098   -0.0095    0.0005   -0.0000    0.0000
          15   -0.0134   -0.0127    0.0003    0.0002   -0.0004
          16   -0.0000    0.0001   -0.0002   -0.0242   -0.0297
          17    0.0000    0.0001   -0.0001   -0.0183   -0.0179
          18   -0.0000   -0.0000    0.0001    0.0235    0.0229
          19   -0.0000   -0.0001    0.0002   -0.0243    0.0296
          20   -0.0000    0.0001   -0.0001    0.0184   -0.0178
          21    0.0000   -0.0000    0.0001   -0.0236    0.0229
          22   -0.0077    0.0192   -0.0095    0.0041    0.0148
          23    0.0034   -0.0072    0.0021   -0.0025   -0.0062
          24    0.0014   -0.0017    0.0005    0.0011    0.0006
          25   -0.0078   -0.0190    0.0094    0.0041   -0.0148
          26   -0.0034   -0.0072    0.0021    0.0025   -0.0062
          27   -0.0014   -0.0017    0.0005   -0.0011    0.0006
          28    0.0002   -0.0000   -0.0000    0.0002    0.0000
          29    0.0001    0.0069    0.2435   -0.0000   -0.0054
          30   -0.0001   -0.0098   -0.3641    0.0000    0.0078
          31   -0.0002    0.0000   -0.0000   -0.0000   -0.0000
          32   -0.0000   -0.0015    0.2594   -0.0000   -0.0003
          33   -0.0000   -0.0016    0.3909   -0.0000   -0.0014
          34   -0.0852    0.0840   -0.0019   -0.0002    0.0001
          35   -0.2282    0.2212   -0.0046   -0.0005    0.0006
          36    0.0147   -0.0146    0.0004    0.0000   -0.0000
          37   -0.0747    0.0725   -0.0009    0.0001    0.0009
          38    0.1102   -0.1062    0.0011   -0.0002   -0.0011
          39   -0.1774    0.1701   -0.0022    0.0003    0.0019
          40   -0.0753   -0.0713    0.0009    0.0001   -0.0009
          41   -0.1116   -0.1049    0.0011    0.0002   -0.0011
          42    0.1792    0.1675   -0.0022   -0.0003    0.0019
          43   -0.0867   -0.0832    0.0019   -0.0003   -0.0001
          44    0.2316    0.2187   -0.0046    0.0006    0.0006
          45   -0.0147   -0.0143    0.0004   -0.0000   -0.0000
          46    0.0000   -0.0015    0.0040    0.2845    0.2711
          47    0.0000   -0.0011    0.0031    0.2180    0.2060
          48    0.0000    0.0013   -0.0040   -0.2794   -0.2642
          49    0.0000    0.0015   -0.0040    0.2851   -0.2706
          50   -0.0000   -0.0011    0.0030   -0.2185    0.2057
          51   -0.0000    0.0013   -0.0040    0.2799   -0.2635


           MASS-WEIGHTED COORDINATE ANALYSIS (NORMAL COORDINATES)


   Root No.       1         2         3         4         5         6         7         8

                 1 A       2 A       3 A       4 A       5 A       6 A       7 A       8 A   

                 268.1     416.6     464.4     485.3     650.0     796.4     798.2     805.6
  
           1    0.0223    0.0003    0.0874    0.0060    0.0481   -0.0958    0.1458    0.3833
           2    0.0984   -0.2685    0.0433    0.0018   -0.0535    0.0189   -0.3339    0.0362
           3   -0.0300   -0.0107   -0.0870   -0.2045   -0.3287   -0.0035    0.0316    0.0109
           4    0.0223   -0.0007    0.0875   -0.0067    0.0481    0.0875    0.1525   -0.3826
           5   -0.0987   -0.2682   -0.0446    0.0023    0.0535    0.0007    0.3343    0.0379
           6    0.0298   -0.0111    0.0856   -0.2050    0.3287   -0.0018   -0.0318    0.0110
           7    0.1102   -0.0006    0.2234   -0.0008   -0.0190   -0.0109    0.3987    0.0010
           8   -0.0001   -0.2277   -0.0004    0.0158    0.0001   -0.0619   -0.0022    0.3939
           9    0.0001   -0.0299    0.0018    0.5179   -0.0002   -0.0078   -0.0002    0.0226
          10    0.0607    0.0071   -0.2063    0.0378   -0.2740   -0.0492   -0.1349    0.0904
          11   -0.3354    0.1506   -0.0804   -0.1686   -0.1234    0.1453   -0.1902   -0.0141
          12    0.2201   -0.2722    0.0168   -0.0853   -0.2556    0.0845   -0.0888   -0.2529
          13    0.0604   -0.0062   -0.2067   -0.0365   -0.2740    0.0564   -0.1317   -0.0914
          14    0.3355    0.1499    0.0798   -0.1694    0.1233    0.1349    0.1974   -0.0131
          15   -0.2205   -0.2717   -0.0186   -0.0850    0.2559    0.0794    0.0948   -0.2525
          16   -0.1466    0.0007    0.0189   -0.0103    0.2645    0.0089   -0.2374    0.0200
          17    0.1661    0.1542   -0.3171    0.1725    0.2147   -0.2087   -0.1437   -0.1956
          18    0.0727    0.3111   -0.3229   -0.0490   -0.0838   -0.2261    0.1822    0.2213
          19   -0.1466   -0.0005    0.0191    0.0103    0.2644    0.0041   -0.2375   -0.0210
          20   -0.1658    0.1527    0.3192    0.1704   -0.2147   -0.2162    0.1329   -0.1951
          21   -0.0723    0.3096    0.3237   -0.0513    0.0837   -0.2154   -0.1956    0.2205
          22    0.0154   -0.0070    0.0489   -0.0035    0.0106   -0.0191    0.0817    0.0987
          23    0.0599   -0.0936    0.0708   -0.0055   -0.0272    0.0217    0.0113   -0.0329
          24   -0.0627   -0.0073    0.0332   -0.1175   -0.0592    0.0667   -0.0135    0.0060
          25    0.0155    0.0067    0.0491    0.0031    0.0106    0.0146    0.0833   -0.0984
          26   -0.0601   -0.0933   -0.0715   -0.0049    0.0271    0.0224   -0.0105   -0.0326
          27    0.0625   -0.0073   -0.0342   -0.1173    0.0592    0.0659    0.0169    0.0062
          28    0.0579   -0.0003    0.1000   -0.0003    0.1358   -0.0021    0.0766    0.0004
          29    0.0001   -0.0668    0.0008    0.2648    0.0001   -0.0697   -0.0021    0.0656
          30    0.0001   -0.0094    0.0013    0.3553   -0.0000   -0.0438   -0.0012   -0.0338
          31    0.0351   -0.0002    0.0496   -0.0003   -0.1804   -0.0025    0.0968    0.0002
          32   -0.0001   -0.0615   -0.0011   -0.2666    0.0000    0.0329    0.0007    0.1798
          33    0.0001   -0.0125    0.0013    0.3586   -0.0001   -0.0431   -0.0011   -0.0428
          34    0.1644   -0.0071   -0.0334    0.0121   -0.0724    0.0890   -0.0062    0.0995
          35   -0.1570    0.0486   -0.0361   -0.0511   -0.0407   -0.0030   -0.0701   -0.0371
          36    0.2678   -0.2275    0.0986    0.0495   -0.0568    0.1706   -0.2259    0.1141
          37   -0.1303    0.0097   -0.1134    0.0030   -0.0584   -0.0916   -0.0555   -0.1268
          38   -0.3068    0.1806   -0.1111   -0.1181   -0.0874   -0.1140    0.0895   -0.1638
          39    0.0195   -0.0112   -0.0172   -0.0579   -0.1137   -0.0191    0.0559   -0.0853
          40   -0.1305   -0.0090   -0.1136   -0.0021   -0.0587    0.0946   -0.0517    0.1265
          41    0.3068    0.1797    0.1111   -0.1190    0.0876   -0.1088   -0.0942   -0.1642
          42   -0.0193   -0.0111    0.0169   -0.0579    0.1139   -0.0162   -0.0564   -0.0859
          43    0.1641    0.0070   -0.0335   -0.0120   -0.0722   -0.0885   -0.0099   -0.0995
          44    0.1573    0.0484    0.0360   -0.0516    0.0408   -0.0070    0.0701   -0.0370
          45   -0.2681   -0.2267   -0.0994    0.0503    0.0565    0.1582    0.2339    0.1155
          46   -0.0660    0.0013   -0.0171   -0.0033    0.0422    0.0101   -0.0304   -0.0841
          47    0.1112    0.2003   -0.2809    0.1342    0.1999    0.4348    0.0369    0.0245
          48    0.0459    0.2136   -0.2642    0.0494    0.0461    0.3282    0.1563    0.0363
          49   -0.0660   -0.0012   -0.0171    0.0036    0.0422   -0.0083   -0.0312    0.0840
          50   -0.1109    0.1992    0.2829    0.1320   -0.2000    0.4356   -0.0127    0.0246
          51   -0.0457    0.2126    0.2657    0.0473   -0.0463    0.3362   -0.1382    0.0359


   Root No.       9        10        11        12        13        14        15        16

                 9 A      10 A      11 A      12 A      13 A      14 A      15 A      16 A   

                 838.6     926.4     955.6     967.4     969.5     975.4    1002.3    1014.6
  
           1    0.1643   -0.2653    0.1267   -0.0216   -0.1344   -0.0349   -0.2993   -0.0602
           2    0.0175    0.1256    0.1396    0.1359    0.0376    0.0460    0.0302   -0.0364
           3   -0.0097    0.0526   -0.0437    0.1220   -0.0552    0.1260    0.0149    0.1334
           4   -0.1644   -0.2656   -0.1282    0.0230   -0.1324   -0.0354   -0.2992    0.0607
           5    0.0166   -0.1254    0.1400    0.1360   -0.0357   -0.0475   -0.0317   -0.0368
           6   -0.0101   -0.0527   -0.0427    0.1193    0.0581   -0.1280   -0.0146    0.1331
           7   -0.0005    0.1411    0.0011   -0.0002    0.0599   -0.0176    0.1609   -0.0004
           8    0.3323   -0.0001   -0.2896   -0.1758   -0.0007    0.0007    0.0011    0.2540
           9   -0.0184   -0.0002   -0.2602    0.4564    0.0061   -0.0031   -0.0004   -0.0308
          10    0.0578    0.0019   -0.2225   -0.0589    0.0094   -0.0219    0.0513   -0.2787
          11   -0.2149   -0.0145   -0.0087   -0.1638   -0.0783   -0.2092   -0.0625   -0.1591
          12    0.1333   -0.2872   -0.0279   -0.2147    0.1026   -0.0933    0.1453   -0.1446
          13   -0.0571    0.0022    0.2224    0.0584    0.0087   -0.0224    0.0502    0.2787
          14   -0.2153    0.0145   -0.0085   -0.1626    0.0748    0.2115    0.0626   -0.1585
          15    0.1330    0.2872   -0.0300   -0.2117   -0.1066    0.0963   -0.1446   -0.1441
          16    0.0102    0.0258   -0.0061   -0.0192    0.0375    0.0656    0.0879    0.0413
          17   -0.1329   -0.0962   -0.1009    0.0611    0.2034    0.2813   -0.1058    0.1019
          18   -0.0968    0.1501    0.1318   -0.0635    0.2121   -0.0838   -0.2917   -0.1117
          19   -0.0100    0.0258    0.0062    0.0196    0.0378    0.0653    0.0878   -0.0414
          20   -0.1331    0.0959   -0.1019    0.0619   -0.2014   -0.2823    0.1066    0.1017
          21   -0.0964   -0.1497    0.1309   -0.0567   -0.2149    0.0848    0.2909   -0.1122
          22    0.0364   -0.0449    0.1591    0.0628   -0.0439   -0.0063   -0.1187   -0.0350
          23   -0.0253    0.1033    0.3726    0.2359    0.0097    0.0128   -0.0937   -0.1138
          24   -0.0268    0.0433    0.1228    0.0208   -0.1117    0.1136    0.0660    0.4160
          25   -0.0366   -0.0451   -0.1607   -0.0627   -0.0439   -0.0058   -0.1183    0.0356
          26   -0.0253   -0.1028    0.3754    0.2370   -0.0074   -0.0151    0.0921   -0.1154
          27   -0.0269   -0.0432    0.1244    0.0174    0.1108   -0.1139   -0.0659    0.4156
          28   -0.0004    0.0792    0.0032   -0.0070    0.4816   -0.3541    0.3879   -0.0005
          29    0.1193    0.0002    0.1560   -0.4190   -0.0052    0.0028    0.0006    0.1583
          30    0.0120    0.0001    0.1082   -0.1574   -0.0022    0.0011    0.0001    0.0629
          31   -0.0000    0.3295   -0.0006    0.0061   -0.2716    0.3848    0.1634   -0.0006
          32    0.0851   -0.0002   -0.3270    0.3305    0.0050   -0.0026   -0.0000    0.0007
          33    0.0032    0.0001    0.1170   -0.1558   -0.0022    0.0012    0.0001    0.0504
          34   -0.2550    0.0859   -0.1780   -0.1373    0.0187    0.1035    0.1223   -0.0343
          35    0.0552   -0.0388    0.0504    0.0048   -0.0282   -0.1047   -0.0616   -0.0666
          36   -0.2335    0.0143    0.0373   -0.0544   -0.1276   -0.2567   -0.1472   -0.1026
          37    0.2631    0.1279   -0.0223    0.0537    0.0065    0.0037   -0.0192   -0.2291
          38    0.2471   -0.2069    0.0199   -0.0383    0.1151    0.0685    0.1263    0.0159
          39    0.0833   -0.2464   -0.0140   -0.0912    0.0998    0.0374    0.1361    0.0647
          40   -0.2632    0.1276    0.0217   -0.0541    0.0048    0.0043   -0.0182    0.2292
          41    0.2470    0.2067    0.0186   -0.0370   -0.1158   -0.0681   -0.1255    0.0161
          42    0.0836    0.2463   -0.0155   -0.0899   -0.1017   -0.0365   -0.1350    0.0649
          43    0.2549    0.0863    0.1779    0.1384    0.0203    0.1022    0.1205    0.0345
          44    0.0554    0.0391    0.0505    0.0058    0.0278    0.1047    0.0609   -0.0663
          45   -0.2342   -0.0142    0.0379   -0.0536    0.1260    0.2578    0.1463   -0.1022
          46   -0.0362    0.2032   -0.1051    0.0264    0.1103   -0.1142    0.0172    0.1316
          47    0.1900   -0.1440    0.0379    0.0292   -0.3535   -0.0650    0.2443   -0.0301
          48    0.1091    0.1520   -0.0149    0.0217   -0.1602   -0.2740    0.1211    0.0431
          49    0.0361    0.2034    0.1057   -0.0301    0.1087   -0.1135    0.0165   -0.1316
          50    0.1899    0.1442    0.0399    0.0216    0.3539    0.0647   -0.2448   -0.0296
          51    0.1094   -0.1519   -0.0140    0.0213    0.1612    0.2736   -0.1212    0.0433


   Root No.      17        18        19        20        21        22        23        24

                17 A      18 A      19 A      20 A      21 A      22 A      23 A      24 A   

                1043.1    1056.1    1063.8    1068.5    1101.5    1108.1    1161.7    1198.2
  
           1   -0.0311    0.1224   -0.0495   -0.0921   -0.0649   -0.0058    0.3744   -0.2632
           2   -0.1530   -0.0277    0.0744    0.0971    0.0756    0.0061   -0.1038   -0.3824
           3   -0.0822    0.0342   -0.1257    0.0741    0.1312    0.0628   -0.0288   -0.1214
           4   -0.0314   -0.1213   -0.0504    0.0926    0.0647   -0.0060   -0.3733   -0.2646
           5    0.1515   -0.0297   -0.0749    0.0957    0.0756   -0.0063   -0.1052    0.3857
           6    0.0829    0.0333    0.1250    0.0743    0.1311   -0.0631   -0.0292    0.1238
           7    0.1758   -0.0011   -0.0525   -0.0007    0.0000    0.0003   -0.0004    0.3026
           8    0.0009   -0.0785   -0.0003    0.0702   -0.0964    0.0001   -0.2369   -0.0017
           9    0.0002    0.0675    0.0002   -0.1367   -0.0858    0.0002    0.0261   -0.0007
          10   -0.0225    0.0669   -0.0145    0.1772    0.2662    0.0001    0.2305    0.0465
          11    0.1087   -0.0707   -0.1161   -0.0686   -0.0268   -0.2916    0.0585    0.1446
          12    0.0420    0.0835    0.1471   -0.0464   -0.0626    0.1364    0.0547    0.1160
          13   -0.0245   -0.0669   -0.0131   -0.1774   -0.2661    0.0007   -0.2308    0.0442
          14   -0.1097   -0.0692    0.1166   -0.0671   -0.0262    0.2917    0.0590   -0.1459
          15   -0.0408    0.0844   -0.1468   -0.0467   -0.0630   -0.1363    0.0553   -0.1177
          16   -0.0052   -0.0264    0.0724    0.0078   -0.0008    0.0002    0.0515    0.0606
          17    0.1071    0.0575   -0.0720   -0.0716    0.0283   -0.0140    0.1780    0.1547
          18    0.0410   -0.1043   -0.0507    0.0248   -0.0261   -0.0196   -0.1919   -0.0496
          19   -0.0052    0.0262    0.0725   -0.0076    0.0009    0.0002   -0.0519    0.0606
          20   -0.1060    0.0586    0.0723   -0.0706    0.0282    0.0140    0.1784   -0.1548
          21   -0.0431   -0.1046    0.0508    0.0251   -0.0260    0.0197   -0.1923    0.0488
          22   -0.1540    0.0919    0.0316    0.0535   -0.0167   -0.0054    0.1267    0.0722
          23   -0.4339    0.1638    0.2188    0.2624   -0.0272   -0.0270   -0.0265    0.2890
          24   -0.1961   -0.0494   -0.4567   -0.0743    0.3620    0.1156    0.2048    0.1219
          25   -0.1549   -0.0900    0.0318   -0.0524    0.0166   -0.0055   -0.1269    0.0729
          26    0.4351    0.1587   -0.2205    0.2587   -0.0275    0.0271   -0.0258   -0.2908
          27    0.1962   -0.0513    0.4569   -0.0723    0.3621   -0.1163    0.2049   -0.1228
          28    0.0165   -0.0006   -0.3266   -0.0015    0.0000    0.0995    0.0000   -0.1738
          29    0.0002   -0.0693   -0.0003    0.1370    0.0416   -0.0001   -0.1190   -0.0001
          30    0.0000   -0.0166   -0.0001    0.0493    0.0316   -0.0001   -0.0288    0.0001
          31    0.4651   -0.0028    0.2087   -0.0006    0.0001   -0.0317   -0.0005   -0.0394
          32    0.0004    0.0160   -0.0000   -0.0737   -0.1077    0.0002   -0.0832   -0.0012
          33   -0.0000   -0.0087    0.0000    0.0354    0.0381   -0.0001    0.0165    0.0003
          34   -0.1280    0.3090   -0.1231    0.2363    0.1754   -0.3860   -0.0563    0.0014
          35    0.0788   -0.1446    0.0156   -0.0998   -0.0503    0.0754    0.0730    0.0474
          36    0.1698   -0.2087   -0.0691   -0.1765   -0.0875    0.0222    0.1845    0.1516
          37   -0.0315   -0.2746    0.0330    0.0544    0.3007    0.4403    0.0057    0.0612
          38   -0.0393    0.1546    0.1144   -0.0083   -0.1080   -0.0167    0.0744   -0.0101
          39   -0.0164    0.2573    0.1003   -0.0100   -0.1758   -0.1238    0.0797   -0.0123
          40   -0.0284    0.2754    0.0336   -0.0537   -0.2997    0.4409   -0.0058    0.0631
          41    0.0411    0.1544   -0.1142   -0.0091   -0.1083    0.0170    0.0745    0.0113
          42    0.0198    0.2576   -0.1003   -0.0104   -0.1757    0.1237    0.0799    0.0139
          43   -0.1337   -0.3077   -0.1211   -0.2367   -0.1763   -0.3853    0.0563    0.0027
          44   -0.0813   -0.1437   -0.0149   -0.0994   -0.0506   -0.0754    0.0731   -0.0468
          45   -0.1735   -0.2067    0.0705   -0.1750   -0.0873   -0.0218    0.1851   -0.1507
          46   -0.0215   -0.2069    0.1754    0.3645   -0.2061   -0.0652    0.2361   -0.0068
          47   -0.0628    0.1306   -0.0318   -0.1583    0.1183    0.0456   -0.0686   -0.0006
          48   -0.0808   -0.1486    0.1295    0.2720   -0.1315   -0.0326    0.0654   -0.0757
          49   -0.0221    0.2073    0.1776   -0.3633    0.2061   -0.0655   -0.2359   -0.0075
          50    0.0630    0.1306    0.0326   -0.1582    0.1182   -0.0458   -0.0683    0.0009
          51    0.0807   -0.1493   -0.1311    0.2708   -0.1314    0.0327    0.0650    0.0763


   Root No.      25        26        27        28        29        30        31        32

                25 A      26 A      27 A      28 A      29 A      30 A      31 A      32 A   

                1208.9    1219.7    1245.9    1286.3    1299.5    1315.3    1342.3    1404.1
  
           1   -0.0239    0.0583    0.0422    0.1789    0.1225    0.2383    0.1552    0.0034
           2    0.2910    0.0873   -0.0874    0.3652    0.0029   -0.1001   -0.1952    0.0197
           3    0.2993   -0.2521   -0.1434   -0.2143   -0.2610    0.3535    0.2722    0.0272
           4    0.0264    0.0586    0.0413   -0.1787    0.1229   -0.2380    0.1555    0.0035
           5    0.2876   -0.0876    0.0878    0.3644   -0.0027   -0.0997    0.1952   -0.0199
           6    0.2986    0.2521    0.1421   -0.2149    0.2604    0.3536   -0.2727   -0.0271
           7   -0.0019    0.0456   -0.4569    0.0004   -0.1815   -0.0003   -0.2310    0.0191
           8   -0.2103    0.0002   -0.0003   -0.2555    0.0000   -0.0268   -0.0000    0.0003
           9   -0.1607    0.0000    0.0004    0.0878    0.0001   -0.0984    0.0001   -0.0000
          10    0.2035    0.0719    0.1132   -0.1799   -0.2273   -0.2593   -0.0750   -0.1191
          11   -0.1263   -0.0777   -0.0466   -0.0074    0.1443    0.0770    0.0642   -0.1239
          12   -0.2007    0.0305   -0.0655    0.1086    0.2888    0.0371    0.0057   -0.2095
          13   -0.2037    0.0720    0.1138    0.1796   -0.2276    0.2589   -0.0754   -0.1192
          14   -0.1250    0.0778    0.0468   -0.0072   -0.1446    0.0767   -0.0643    0.1237
          15   -0.1995   -0.0305    0.0662    0.1086   -0.2888    0.0367   -0.0057    0.2095
          16   -0.0185   -0.1667    0.0264    0.0422   -0.0076    0.0013   -0.1481    0.0035
          17   -0.0310    0.1163   -0.0418   -0.0735   -0.0533    0.1182    0.2347   -0.0098
          18   -0.0442   -0.1044    0.1069    0.0920    0.1073   -0.1799   -0.3149    0.0056
          19    0.0180   -0.1667    0.0262   -0.0424   -0.0076   -0.0015   -0.1480    0.0034
          20   -0.0299   -0.1164    0.0418   -0.0735    0.0531    0.1177   -0.2348    0.0098
          21   -0.0449    0.1045   -0.1066    0.0926   -0.1071   -0.1798    0.3151   -0.0056
          22   -0.1208   -0.0145    0.1013   -0.0772    0.0336    0.0471    0.0752   -0.0072
          23   -0.2006   -0.1235    0.2060   -0.2802   -0.0246   -0.0516    0.0581   -0.0140
          24   -0.1709    0.3427    0.1290    0.0594    0.0873   -0.2445   -0.1110   -0.0259
          25    0.1201   -0.0144    0.1010    0.0767    0.0337   -0.0468    0.0751   -0.0072
          26   -0.1975    0.1236   -0.2058   -0.2788    0.0246   -0.0518   -0.0578    0.0141
          27   -0.1700   -0.3427   -0.1283    0.0598   -0.0869   -0.2445    0.1114    0.0260
          28    0.0013   -0.2102    0.3746   -0.0002    0.0162    0.0002    0.2630   -0.0077
          29    0.0356    0.0000   -0.0003   -0.1915   -0.0000    0.0241    0.0001   -0.0003
          30    0.0303    0.0000   -0.0001   -0.0661   -0.0000    0.0051    0.0000   -0.0002
          31    0.0011    0.0118    0.4826   -0.0004    0.2105    0.0003    0.0923   -0.0172
          32   -0.1979    0.0000    0.0002   -0.0674    0.0001   -0.1302    0.0002   -0.0003
          33    0.0608    0.0000   -0.0001    0.0171   -0.0001    0.0639   -0.0001    0.0003
          34   -0.1482   -0.0920   -0.1400    0.1450    0.2940    0.0654    0.0586    0.1895
          35    0.0532    0.0244    0.0587   -0.0853   -0.1053   -0.0411   -0.0142   -0.0870
          36    0.0814    0.0191    0.0888   -0.1971   -0.1044   -0.1311    0.0205    0.4142
          37   -0.1781   -0.0723   -0.1501    0.0423    0.2822    0.1235    0.0837    0.1909
          38    0.0752    0.0854    0.0650   -0.0058   -0.0046   -0.1727   -0.0559    0.3994
          39    0.1118    0.1095    0.1067   -0.0174   -0.0980   -0.1893   -0.0834    0.1140
          40    0.1772   -0.0723   -0.1504   -0.0420    0.2821   -0.1230    0.0840    0.1912
          41    0.0750   -0.0855   -0.0651   -0.0059    0.0049   -0.1726    0.0560   -0.3992
          42    0.1115   -0.1097   -0.1068   -0.0172    0.0981   -0.1892    0.0837   -0.1144
          43    0.1478   -0.0921   -0.1407   -0.1446    0.2942   -0.0650    0.0589    0.1893
          44    0.0534   -0.0245   -0.0590   -0.0850    0.1054   -0.0409    0.0145    0.0875
          45    0.0825   -0.0191   -0.0895   -0.1969    0.1045   -0.1311   -0.0204   -0.4140
          46   -0.0209    0.3245   -0.0772    0.0760   -0.0223    0.0308    0.2379   -0.0064
          47    0.0550   -0.1586    0.0147   -0.0397   -0.0145    0.0369   -0.0680    0.0018
          48    0.0216    0.2008   -0.0351    0.0751    0.0105   -0.0267    0.0898   -0.0019
          49    0.0210    0.3246   -0.0776   -0.0755   -0.0223   -0.0305    0.2381   -0.0063
          50    0.0551    0.1586   -0.0150   -0.0397    0.0144    0.0371    0.0679   -0.0018
          51    0.0210   -0.2009    0.0353    0.0748   -0.0105   -0.0268   -0.0899    0.0019


   Root No.      33        34        35        36        37        38        39        40

                33 A      34 A      35 A      36 A      37 A      38 A      39 A      40 A   

                1419.9    1430.6    1781.4    2997.4    3011.7    3034.2    3038.2    3041.8
  
           1    0.0237    0.0444    0.0464    0.0088    0.0139   -0.0054   -0.1791   -0.1922
           2    0.0268    0.0211    0.0021   -0.0021   -0.0030    0.0020    0.0637    0.0662
           3    0.0472   -0.0117   -0.0149   -0.0010   -0.0013   -0.0027    0.0074    0.0078
           4   -0.0237   -0.0445   -0.0464    0.0089   -0.0138    0.0064   -0.1862    0.1853
           5    0.0268    0.0209    0.0021    0.0021   -0.0030    0.0024   -0.0662    0.0638
           6    0.0471   -0.0117   -0.0149    0.0010   -0.0013   -0.0027   -0.0077    0.0076
           7   -0.0000    0.0001    0.0000   -0.0008   -0.0000   -0.0000   -0.0044   -0.0001
           8   -0.1475   -0.3404    0.0115    0.0000   -0.0013    0.0087    0.0001   -0.0049
           9   -0.0001   -0.0027   -0.0113   -0.0000    0.0156   -0.3060   -0.0010    0.0100
          10   -0.1948    0.0774   -0.0097   -0.0038   -0.0040   -0.0011    0.0021    0.0030
          11   -0.0788    0.0474    0.0047    0.1817    0.1809    0.0115    0.0112    0.0172
          12   -0.1347    0.0825    0.0072   -0.1170   -0.1174   -0.0077   -0.0001   -0.0017
          13    0.1948   -0.0775    0.0097   -0.0038    0.0040    0.0011    0.0022   -0.0029
          14   -0.0785    0.0475    0.0047   -0.1828    0.1797    0.0116   -0.0118    0.0168
          15   -0.1347    0.0827    0.0072    0.1177   -0.1167   -0.0078    0.0002   -0.0017
          16   -0.0019    0.0048   -0.6828    0.0004    0.0004    0.0003    0.0023    0.0020
          17    0.0052    0.0135    0.0238    0.0004    0.0005   -0.0017    0.0022    0.0030
          18   -0.0103   -0.0158   -0.0332    0.0017    0.0020   -0.0003   -0.0029   -0.0027
          19    0.0019   -0.0047    0.6828    0.0004   -0.0004   -0.0003    0.0023   -0.0019
          20    0.0052    0.0136    0.0236   -0.0004    0.0005   -0.0017   -0.0023    0.0029
          21   -0.0102   -0.0159   -0.0334   -0.0017    0.0020   -0.0003    0.0030   -0.0026
          22   -0.0097    0.0025   -0.0000   -0.0291   -0.0451    0.0176    0.6278    0.6467
          23   -0.0305   -0.0291   -0.0342    0.0102    0.0158   -0.0065   -0.2202   -0.2278
          24   -0.0392    0.0103    0.0491   -0.0005    0.0004   -0.0021   -0.0332   -0.0342
          25    0.0097   -0.0025    0.0000   -0.0295    0.0451   -0.0211    0.6516   -0.6224
          26   -0.0304   -0.0290   -0.0341   -0.0104    0.0158   -0.0078    0.2287   -0.2194
          27   -0.0392    0.0103    0.0491    0.0005    0.0004   -0.0023    0.0346   -0.0331
          28    0.0000   -0.0002    0.0000   -0.0007   -0.0000    0.0001   -0.0020   -0.0001
          29    0.2331    0.4567    0.0055   -0.0001    0.0207   -0.4272   -0.0015    0.0218
          30    0.1848    0.3716   -0.0046    0.0001   -0.0297    0.5475    0.0020   -0.0299
          31    0.0001   -0.0000   -0.0000   -0.0002   -0.0000   -0.0000   -0.0026   -0.0001
          32    0.2238    0.4506   -0.0004    0.0001   -0.0249    0.3963    0.0012   -0.0057
          33   -0.1731   -0.3614   -0.0013    0.0001   -0.0319    0.5118    0.0015   -0.0047
          34    0.2382   -0.1037    0.0008   -0.1718   -0.1789   -0.0065   -0.0123   -0.0259
          35   -0.1080    0.0477   -0.0003   -0.4147   -0.4094   -0.0127   -0.0294   -0.0609
          36    0.3199   -0.1685   -0.0020   -0.0026   -0.0033   -0.0005    0.0005    0.0020
[...]
 EFF. MASS   9.3201

 VIBRATION   24   24A         ATOM PAIR      ENERGY CONTRIBUTION    RADIAL
 FREQ.      1198.20         C  2 -- H  9         +11.1% ( 54.5%)      1.0%
 T-DIPOLE    0.0245         C  1 -- H  8         +10.9% ( 54.1%)      1.0%
 TRAVEL      0.0814         C  1 -- C  2         +10.8% ( 53.7%)      0.0%
 RED. MASS   1.4741         C  2 -- C  3          +9.6% ( 50.6%)     94.5%
 EFF. MASS   8.4937

 VIBRATION   25   25A         ATOM PAIR      ENERGY CONTRIBUTION    RADIAL
 FREQ.      1208.91         C  1 -- C  4          +9.2% ( 48.2%)     97.1%
 T-DIPOLE    0.1527         C  2 -- C  5          +9.1% ( 48.0%)     97.1%
 TRAVEL      0.0854         C  1 -- C  2          +8.9% ( 47.5%)     99.5%
 RED. MASS   1.0341         C  1 -- H  8          +8.6% ( 46.6%)      1.9%
 EFF. MASS   7.6567

 VIBRATION   26   26A         ATOM PAIR      ENERGY CONTRIBUTION    RADIAL
 FREQ.      1219.69         C  7 -- H 17         +14.7% ( 47.2%)      0.0%
 T-DIPOLE    0.0543         C  6 -- H 16         +14.7% ( 47.2%)      0.0%
 TRAVEL      0.1342         C  2 -- H  9         +12.9% ( 44.2%)      0.2%
 RED. MASS   0.3008         C  1 -- H  8         +12.9% ( 44.2%)      0.2%
 EFF. MASS   3.0684

 VIBRATION   27   27A         ATOM PAIR      ENERGY CONTRIBUTION    RADIAL
 FREQ.      1245.88         C  3 -- H 11         +24.5% ( 60.1%)      0.0%
 T-DIPOLE    0.0372         C  3 -- H 10         +18.9% ( 52.7%)      0.0%
 TRAVEL      0.1210         C  1 -- C  3          +8.8% ( 36.0%)     33.3%
 RED. MASS   0.6477         C  2 -- C  3          +8.7% ( 35.9%)     33.1%
 EFF. MASS   3.6995

 VIBRATION   28   28A         ATOM PAIR      ENERGY CONTRIBUTION    RADIAL
 FREQ.      1286.25         C  1 -- C  2         +11.2% ( 50.5%)    100.0%
 T-DIPOLE    0.0402         C  1 -- H  8         +10.2% ( 48.1%)      0.3%
 TRAVEL      0.0847         C  2 -- H  9         +10.1% ( 48.0%)      0.3%
 RED. MASS   1.2136         C  1 -- C  3          +9.9% ( 47.3%)     60.7%
 EFF. MASS   7.3029

 VIBRATION   29   29A         ATOM PAIR      ENERGY CONTRIBUTION    RADIAL
 FREQ.      1299.55         C  5 -- H 15         +10.4% ( 45.0%)      0.1%
 T-DIPOLE    0.0492         C  4 -- H 12         +10.4% ( 44.9%)      0.1%
 TRAVEL      0.0905         C  1 -- C  4          +9.4% ( 42.8%)     83.2%
 RED. MASS   0.8099         C  2 -- C  5          +9.4% ( 42.8%)     83.2%
 EFF. MASS   6.3385

 VIBRATION   30   30A         ATOM PAIR      ENERGY CONTRIBUTION    RADIAL
 FREQ.      1315.33         C  1 -- C  2         +12.1% ( 53.9%)    100.0%
 T-DIPOLE    0.0480         C  1 -- C  6          +9.3% ( 47.3%)     93.8%
 TRAVEL      0.0807         C  2 -- C  7          +9.3% ( 47.2%)     93.7%
 RED. MASS   1.0916         C  1 -- H  8          +7.9% ( 43.6%)      7.1%
 EFF. MASS   7.8804

 VIBRATION   31   31A         ATOM PAIR      ENERGY CONTRIBUTION    RADIAL
 FREQ.      1342.29         C  2 -- C  7         +13.5% ( 55.1%)     99.2%
 T-DIPOLE    0.2212         C  1 -- C  6         +13.5% ( 55.1%)     99.2%
 TRAVEL      0.0773         C  6 -- C  7         +11.0% ( 49.8%)      0.0%
 RED. MASS   1.2464         C  7 -- H 17          +8.1% ( 42.6%)      5.5%
 EFF. MASS   8.4146

 VIBRATION   32   32A         ATOM PAIR      ENERGY CONTRIBUTION    RADIAL
 FREQ.      1404.10         C  4 -- H 12         +20.2% ( 45.2%)      4.2%
 T-DIPOLE    0.0090         C  5 -- H 15         +20.2% ( 45.1%)      4.2%
 TRAVEL      0.1419         C  5 -- H 14         +19.6% ( 44.5%)      4.4%
 RED. MASS   0.3107         C  4 -- H 13         +19.6% ( 44.5%)      4.4%
 EFF. MASS   2.3839

 VIBRATION   33   33A         ATOM PAIR      ENERGY CONTRIBUTION    RADIAL
 FREQ.      1419.88         C  4 -- H 12         +15.8% ( 40.2%)      4.4%
 T-DIPOLE    0.0394         C  5 -- H 15         +15.8% ( 40.2%)      4.4%
 TRAVEL      0.1388         C  4 -- H 13         +15.4% ( 39.6%)      4.6%
 RED. MASS   0.2276         C  5 -- H 14         +15.4% ( 39.6%)      4.6%
 EFF. MASS   2.4663

 VIBRATION   34   34A         ATOM PAIR      ENERGY CONTRIBUTION    RADIAL
 FREQ.      1430.64         C  3 -- H 10         +32.5% ( 57.7%)      3.9%
 T-DIPOLE    0.0214         C  3 -- H 11         +31.1% ( 56.4%)      4.1%
 TRAVEL      0.1379         C  1 -- C  3          +8.1% ( 28.8%)     59.1%
 RED. MASS   0.4072         C  2 -- C  3          +8.1% ( 28.8%)     59.2%
 EFF. MASS   2.4794

 VIBRATION   35   35A         ATOM PAIR      ENERGY CONTRIBUTION    RADIAL
 FREQ.      1781.36         C  6 -- C  7         +46.3% (100.7%)    100.0%
 T-DIPOLE    0.0871         C  2 -- C  7         +13.9% ( 55.2%)     11.4%
 TRAVEL      0.0565         C  1 -- C  6         +13.9% ( 55.2%)     11.4%
 RED. MASS   5.2615         C  7 -- H 17         +12.7% ( 52.8%)     14.1%
 EFF. MASS  11.8585         C  6 -- H 16         +12.7% ( 52.8%)     14.1%

 VIBRATION   36   36A         ATOM PAIR      ENERGY CONTRIBUTION    RADIAL
 FREQ.      2997.36         C  5 -- H 14         +26.9% ( 54.0%)     97.0%
 T-DIPOLE    0.0184         C  4 -- H 13         +26.5% ( 53.6%)     97.0%
 TRAVEL      0.1200         C  5 -- H 15         +22.1% ( 48.9%)     95.9%
 RED. MASS   0.2612         C  4 -- H 12         +21.9% ( 48.7%)     95.9%
 EFF. MASS   1.5620

 VIBRATION   37   37A         ATOM PAIR      ENERGY CONTRIBUTION    RADIAL
 FREQ.      3011.66         C  4 -- H 13         +27.0% ( 53.8%)     97.3%
 T-DIPOLE    0.0463         C  5 -- H 14         +26.8% ( 53.6%)     97.4%
 TRAVEL      0.1208         C  4 -- H 12         +21.8% ( 48.3%)     96.2%
 RED. MASS   0.2581         C  5 -- H 15         +21.4% ( 47.9%)     96.1%
 EFF. MASS   1.5337

 VIBRATION   38   38A         ATOM PAIR      ENERGY CONTRIBUTION    RADIAL
 FREQ.      3034.24         C  3 -- H 10         +51.7% ( 74.6%)     97.3%
 T-DIPOLE    0.0447         C  3 -- H 11         +45.4% ( 69.9%)     96.5%
 TRAVEL      0.1196         C  2 -- C  3          +1.2% ( 11.5%)      0.1%
 RED. MASS   0.5168         C  1 -- C  3          +1.2% ( 11.5%)      0.1%
 EFF. MASS   1.5538

 VIBRATION   39   39A         ATOM PAIR      ENERGY CONTRIBUTION    RADIAL
 FREQ.      3038.21         C  2 -- H  9         +49.3% ( 72.0%)    100.0%
 T-DIPOLE    0.2095         C  1 -- H  8         +45.7% ( 69.3%)    100.0%
 TRAVEL      0.1237         C  1 -- C  2          +1.1% ( 10.7%)      0.3%
 RED. MASS   0.4629         C  2 -- C  7          +0.6% (  8.2%)     18.2%
 EFF. MASS   1.4515

 VIBRATION   40   40A         ATOM PAIR      ENERGY CONTRIBUTION    RADIAL
 FREQ.      3041.84         C  1 -- H  8         +48.5% ( 71.6%)    100.0%
 T-DIPOLE    0.0650         C  2 -- H  9         +45.0% ( 68.9%)    100.0%
 TRAVEL      0.1217         C  1 -- C  2          +1.4% ( 12.3%)    100.0%
 RED. MASS   0.4544         C  1 -- C  3          +0.7% (  8.4%)     19.8%
 EFF. MASS   1.4970

 VIBRATION   41   41A         ATOM PAIR      ENERGY CONTRIBUTION    RADIAL
 FREQ.      3076.66         C  5 -- H 15         +27.6% ( 51.9%)     98.0%
 T-DIPOLE    0.0546         C  4 -- H 12         +26.8% ( 51.1%)     98.0%
 TRAVEL      0.1308         C  5 -- H 14         +22.4% ( 46.7%)     96.7%
 RED. MASS   0.2441         C  4 -- H 13         +21.9% ( 46.2%)     96.7%
 EFF. MASS   1.2801

 VIBRATION   42   42A         ATOM PAIR      ENERGY CONTRIBUTION    RADIAL
 FREQ.      3079.92         C  4 -- H 12         +27.6% ( 51.8%)     98.1%
 T-DIPOLE    0.0657         C  5 -- H 15         +27.0% ( 51.2%)     98.1%
 TRAVEL      0.1309         C  4 -- H 13         +22.1% ( 46.3%)     96.7%
 RED. MASS   0.2422         C  5 -- H 14         +21.4% ( 45.6%)     96.7%
 EFF. MASS   1.2782

 VIBRATION   43   43A         ATOM PAIR      ENERGY CONTRIBUTION    RADIAL
 FREQ.      3097.38         C  3 -- H 11         +52.8% ( 71.9%)     97.5%
 T-DIPOLE    0.0829         C  3 -- H 10         +45.7% ( 66.8%)     96.5%
 TRAVEL      0.1305         C  1 -- C  3          +0.7% (  8.1%)     47.6%
 RED. MASS   0.4855         C  2 -- C  3          +0.7% (  8.1%)     47.6%
 EFF. MASS   1.2793

 VIBRATION   44   44A         ATOM PAIR      ENERGY CONTRIBUTION    RADIAL
 FREQ.      3147.04         C  7 -- H 17         +48.8% ( 71.0%)    100.0%
 T-DIPOLE    0.4052         C  6 -- H 16         +48.6% ( 70.8%)    100.0%
 TRAVEL      0.1209         C  6 -- C  7          +1.1% ( 10.8%)      0.0%
 RED. MASS   0.4648         C  2 -- C  7          +0.7% (  8.8%)     30.0%
 EFF. MASS   1.4660

 VIBRATION   45   45A         ATOM PAIR      ENERGY CONTRIBUTION    RADIAL
 FREQ.      3165.32         C  6 -- H 16         +47.8% ( 70.5%)     99.9%
 T-DIPOLE    0.3665         C  7 -- H 17         +47.5% ( 70.3%)     99.9%
 TRAVEL      0.1131         C  6 -- C  7          +2.6% ( 16.4%)    100.0%
 RED. MASS   0.4664         C  1 -- C  6          +1.0% ( 10.1%)     24.3%
 EFF. MASS   1.6662

      SYMMETRY NUMBER FOR POINT-GROUP C1  =  1


          SYSTEM IS A GROUND STATE



 InChI=1S/C7H10/c1-2-7-4-3-6(1)5-7/h1-2,6-7H,3-5H2


          MOLECULE IS NOT LINEAR

          THERE ARE 45 GENUINE VIBRATIONS IN THIS SYSTEM
          THIS THERMODYNAMICS CALCULATION IS LIMITED TO
          MOLECULES WHICH HAVE NO INTERNAL ROTATIONS




                    CALCULATED THERMODYNAMIC PROPERTIES
                                          *
   TEMP. (K)   PARTITION FUNCTION   H.O.F.    ENTHALPY  HEAT CAPACITY ENTROPY
                                   KCAL/MOL   CAL/MOLE    CAL/K/MOL  CAL/K/MOL


 298.00  VIB.     0.2527D+01                  1429.1207    15.8210     6.6375
         ROT.     0.1360D+06                   888.2813     2.9808    26.4708
         INT.     0.3437D+06                  2317.4020    18.8018    33.1083
         TRA.     0.8833D+27                  1480.4688     4.9680    39.5363
         TOT.                       21.916    3797.8708    23.7698    72.6446

 200.00  VIB.     0.1359D+01                   361.2282     6.4584     2.4162
         ROT.     0.7479D+05                   596.1620     2.9808    25.2821
         INT.     0.1017D+06                   957.3902     9.4392    27.6984
         TRA.     0.4856D+27                   993.6033     4.9680    37.5551
         TOT.                       20.070    1950.9934    14.4072    65.2535

 210.00  VIB.     0.1425D+01                   429.7645     7.2567     2.7505
         ROT.     0.8047D+05                   625.9700     2.9808    25.4276
         INT.     0.1147D+06                  1055.7345    10.2375    28.1780
         TRA.     0.5225D+27                  1043.2834     4.9680    37.7975
         TOT.                       20.218    2099.0179    15.2055    65.9756

 220.00  VIB.     0.1499D+01                   506.5138     8.1006     3.1073
         ROT.     0.8629D+05                   655.7781     2.9808    25.5662
         INT.     0.1294D+06                  1162.2919    11.0814    28.6736
         TRA.     0.5603D+27                  1092.9636     4.9680    38.0286
         TOT.                       20.374    2255.2555    16.0494    66.7022

 230.00  VIB.     0.1583D+01                   591.9174     8.9870     3.4868
         ROT.     0.9223D+05                   685.5862     2.9808    25.6987
         INT.     0.1460D+06                  1277.5037    11.9678    29.1856
         TRA.     0.5989D+27                  1142.6437     4.9680    38.2495
         TOT.                       20.539    2420.1474    16.9358    67.4351

 240.00  VIB.     0.1678D+01                   686.3825     9.9122     3.8887
         ROT.     0.9832D+05                   715.3943     2.9808    25.8256
         INT.     0.1650D+06                  1401.7768    12.8930    29.7143
         TRA.     0.6384D+27                  1192.3239     4.9680    38.4609
         TOT.                       20.713    2594.1007    17.8610    68.1753

 250.00  VIB.     0.1785D+01                   790.2768    10.8721     4.3127
         ROT.     0.1045D+06                   745.2024     2.9808    25.9473
         INT.     0.1866D+06                  1535.4793    13.8529    30.2600
         TRA.     0.6787D+27                  1242.0041     4.9680    38.6637
         TOT.                       20.896    2777.4833    18.8209    68.9237

 260.00  VIB.     0.1906D+01                   903.9252    11.8623     4.7583
         ROT.     0.1109D+06                   775.0105     2.9808    26.0642
         INT.     0.2113D+06                  1678.9358    14.8431    30.8225
         TRA.     0.7198D+27                  1291.6842     4.9680    38.8586
         TOT.                       21.089    2970.6200    19.8111    69.6811

 270.00  VIB.     0.2042D+01                  1027.6076    12.8781     5.2250
         ROT.     0.1173D+06                   804.8186     2.9808    26.1767
         INT.     0.2396D+06                  1832.4262    15.8589    31.4017
         TRA.     0.7618D+27                  1341.3644     4.9680    39.0461
         TOT.                       21.292    3173.7906    20.8269    70.4478

 280.00  VIB.     0.2196D+01                  1161.5582    13.9151     5.7120
         ROT.     0.1239D+06                   834.6267     2.9808    26.2851
         INT.     0.2721D+06                  1996.1849    16.8959    31.9971
         TRA.     0.8045D+27                  1391.0445     4.9680    39.2267
         TOT.                       21.506    3387.2295    21.8640    71.2239

 290.00  VIB.     0.2371D+01                  1305.9660    14.9688     6.2187
         ROT.     0.1306D+06                   864.4348     2.9808    26.3897
         INT.     0.3096D+06                  2170.4009    17.9497    32.6084
         TRA.     0.8479D+27                  1440.7247     4.9680    39.4011
         TOT.                       21.730    3611.1256    22.9177    72.0094

 300.00  VIB.     0.2568D+01                  1460.9765    16.0350     6.7441
         ROT.     0.1374D+06                   894.2429     2.9808    26.4908
         INT.     0.3528D+06                  2355.2195    19.0158    33.2348
         TRA.     0.8922D+27                  1490.4049     4.9680    39.5695
         TOT.                       21.964    3845.6243    23.9838    72.8043

 310.00  VIB.     0.2791D+01                  1626.6934    17.1095     7.2874
         ROT.     0.1443D+06                   924.0510     2.9808    26.5885
         INT.     0.4029D+06                  2550.7444    20.0903    33.8758
         TRA.     0.9372D+27                  1540.0850     4.9680    39.7324
         TOT.                       22.209    4090.8294    25.0583    73.6083

 320.00  VIB.     0.3045D+01                  1803.1813    18.1886     7.8476
         ROT.     0.1514D+06                   953.8591     2.9808    26.6831
         INT.     0.4609D+06                  2757.0404    21.1694    34.5307
         TRA.     0.9829D+27                  1589.7652     4.9680    39.8901
         TOT.                       22.465    4346.8056    26.1374    74.4209

 330.00  VIB.     0.3333D+01                  1990.4690    19.2689     8.4238
         ROT.     0.1585D+06                   983.6672     2.9808    26.7749
         INT.     0.5283D+06                  2974.1362    22.2497    35.1987
         TRA.     0.1029D+28                  1639.4454     4.9680    40.0430
         TOT.                       22.732    4613.5816    27.2177    75.2417

 340.00  VIB.     0.3660D+01                  2188.5522    20.3472     9.0151
         ROT.     0.1658D+06                  1013.4753     2.9808    26.8638
         INT.     0.6067D+06                  3202.0275    23.3280    35.8789
         TRA.     0.1076D+28                  1689.1255     4.9680    40.1913
         TOT.                       23.010    4891.1530    28.2960    76.0702

 350.00  VIB.     0.4032D+01                  2397.3970    21.4208     9.6204
         ROT.     0.1731D+06                  1043.2834     2.9808    26.9502
         INT.     0.6981D+06                  3440.6804    24.4016    36.5706
         TRA.     0.1124D+28                  1738.8057     4.9680    40.3353
         TOT.                       23.298    5179.4861    29.3696    76.9060

 360.00  VIB.     0.4456D+01                  2616.9432    22.4871    10.2388
         ROT.     0.1806D+06                  1073.0915     2.9808    27.0342
         INT.     0.8049D+06                  3690.0347    25.4679    37.2730
         TRA.     0.1173D+28                  1788.4859     4.9680    40.4753
         TOT.                       23.597    5478.5206    30.4359    77.7483

 370.00  VIB.     0.4940D+01                  2847.1073    23.5440    10.8694
         ROT.     0.1882D+06                  1102.8996     2.9808    27.1159
         INT.     0.9298D+06                  3950.0069    26.5248    37.9853
         TRA.     0.1222D+28                  1838.1660     4.9680    40.6114
         TOT.                       23.907    5788.1729    31.4928    78.5967

 380.00  VIB.     0.5494D+01                  3087.7856    24.5896    11.5111
         ROT.     0.1959D+06                  1132.7077     2.9808    27.1954
         INT.     0.1076D+07                  4220.4933    27.5704    38.7065
         TRA.     0.1272D+28                  1887.8462     4.9680    40.7439
         TOT.                       24.227    6108.3395    32.5385    79.4504

 390.00  VIB.     0.6127D+01                  3338.8569    25.6224    12.1633
         ROT.     0.2037D+06                  1162.5158     2.9808    27.2728
         INT.     0.1248D+07                  4501.3727    28.6032    39.4361
         TRA.     0.1322D+28                  1937.5263     4.9680    40.8729
         TOT.                       24.557    6438.8991    33.5712    80.3090

 400.00  VIB.     0.6852D+01                  3600.1857    26.6409    12.8248
         ROT.     0.2115D+06                  1192.3239     2.9808    27.3483
         INT.     0.1449D+07                  4792.5096    29.6217    40.1731
         TRA.     0.1374D+28                  1987.2065     4.9680    40.9987
         TOT.                       24.898    6779.7161    34.5897    81.1718

   *: NOTE: HEATS OF FORMATION ARE RELATIVE TO THE
            ELEMENTS IN THEIR STANDARD STATE AT 298K
              (=  Standard Enthalpy of Formation).

            Hvib:  Zero-point energy is not included.
                   frequencies of less than zero cm-1 are not included.
            Hrot = (3/2)RT
            Htra = (3/2)RT + pV = (5/2)RT

            Heat capacity is Cp, not Cv

          For more information, see: HTTP://OpenMOPAC.net/Manual/thermochemistry.html


           FORCE CONSTANT IN CARTESIAN COORDINATES (Millidynes/A)

    ATOM   CHEMICAL       X               Y               Z
   NUMBER   SYMBOL  FORCE CONSTANT  FORCE CONSTANT  FORCE CONSTANT

      1       C       10.841307        6.733861        7.076245
      2       C       10.841263        6.733103        7.076458
      3       C        5.716968        9.663020        9.145520
      4       C        7.389623        8.533912        8.221071
      5       C        7.389464        8.534981        8.217922
      6       C       14.671132        5.241246        7.081850
      7       C       14.671302        5.242489        7.085848
      8       H        4.604599        1.150298        0.708096
      9       H        4.603304        1.150050        0.708217
     10       H        0.649127        2.315972        3.656861
     11       H        0.648065        2.273839        3.696839
     12       H        1.320970        4.522414        0.711053
     13       H        1.294727        1.636908        3.594865
     14       H        1.292547        1.640380        3.593103
     15       H        1.323103        4.520745        0.710676
     16       H        2.570085        1.565482        2.360219
     17       H        2.569993        1.566818        2.358880

 **********************
 *                    *
 * JOB ENDED NORMALLY *
 *                    *
 **********************



 TOTAL JOB TIME:             4.23 SECONDS

 == MOPAC DONE ==
