 *******************************************************************************
 ** Site#: 14399        For non-commercial use only    Version 18.184L 64BITS **
 *******************************************************************************
 ** Cite this program as: MOPAC2016, Version: 18.184L, James J. P. Stewart,   **
 ** Stewart Computational Chemistry, web: HTTP://OpenMOPAC.net. Days left:  20**
 *******************************************************************************
 **                                                                           **
 **                                MOPAC2016                                  **
 **                                                                           **
 *******************************************************************************

                              PM3 CALCULATION RESULTS

 *******************************************************************************
 *  CALCULATION DONE:                                Thu Jun 13 16:00:47 2019  *
 *  PM3        - The PM3 Hamiltonian to be used
 *  PRECISE    - CRITERIA TO BE INCREASED BY 100 TIMES
 *  NOSYM      - POINT-GROUP SYMMETRY SET TO C1
 *  THREADS=1  - MULTI-THREADING NOT USED
 *  T=         - A TIME OF 172800.0 SECONDS REQUESTED
 *  DUMP=N     - RESTART FILE WRITTEN EVERY  7200.000 SECONDS
 *******************************************************************************
pm3  precise nosym THREADS=1
 InChI=1S/C10H12/c1-2-4-6-8-10-9-7-5-3-1/h1-8H,9-10H2

   ATOM   CHEMICAL          X               Y               Z
  NUMBER   SYMBOL      (ANGSTROMS)     (ANGSTROMS)     (ANGSTROMS)
 
     1       C          0.63140000  *  -1.66140000  *  -0.10450000  *
     2       C          1.62530000  *  -0.60100000  *   0.40850000  *
     3       C         -0.59230000  *  -1.75370000  *   0.77510000  *
     4       C          1.84790000  *   0.49500000  *  -0.60600000  *
     5       C         -1.77010000  *  -1.18480000  *   0.48440000  *
     6       C          1.25890000  *   1.69730000  *  -0.55320000  *
     7       C         -1.97330000  *  -0.33890000  *  -0.70250000  *
     8       C         -1.54970000  *   0.92630000  *  -0.75850000  *
     9       C         -1.00130000  *   1.63100000  *   0.41490000  *
    10       C          0.26480000  *   2.05160000  *   0.47240000  *
    11       H          1.12680000  *  -2.65630000  *  -0.09400000  *
    12       H          0.35030000  *  -1.48070000  *  -1.16540000  *
    13       H          1.30820000  *  -0.18190000  *   1.38880000  *
    14       H          2.60710000  *  -1.08680000  *   0.59700000  *
    15       H         -0.51350000  *  -2.33290000  *   1.68700000  *
    16       H          2.54250000  *   0.29890000  *  -1.41360000  *
    17       H         -2.40680000  *  -0.79010000  *  -1.58580000  *
    18       H         -2.60970000  *  -1.34360000  *   1.14870000  *
    19       H         -1.60690000  *   1.45840000  *  -1.69980000  *
    20       H          1.51440000  *   2.44170000  *  -1.29630000  *
    21       H         -1.65330000  *   1.81000000  *   1.26060000  *
    22       H          0.59940000  *   2.60200000  *   1.34230000  *
 


          CARTESIAN COORDINATES 

    NO.       ATOM           X           Y           Z

     1         C          0.6314     -1.6614     -0.1045
     2         C          1.6253     -0.6010      0.4085
     3         C         -0.5923     -1.7537      0.7751
     4         C          1.8479      0.4950     -0.6060
     5         C         -1.7701     -1.1848      0.4844
     6         C          1.2589      1.6973     -0.5532
     7         C         -1.9733     -0.3389     -0.7025
     8         C         -1.5497      0.9263     -0.7585
     9         C         -1.0013      1.6310      0.4149
    10         C          0.2648      2.0516      0.4724
    11         H          1.1268     -2.6563     -0.0940
    12         H          0.3503     -1.4807     -1.1654
    13         H          1.3082     -0.1819      1.3888
    14         H          2.6071     -1.0868      0.5970
    15         H         -0.5135     -2.3329      1.6870
    16         H          2.5425      0.2989     -1.4136
    17         H         -2.4068     -0.7901     -1.5858
    18         H         -2.6097     -1.3436      1.1487
    19         H         -1.6069      1.4584     -1.6998
    20         H          1.5144      2.4417     -1.2963
    21         H         -1.6533      1.8100      1.2606
    22         H          0.5994      2.6020      1.3423

  H: (PM3): J. J. P. STEWART, J. COMP. CHEM. 10, 209 (1989).
  C: (PM3): J. J. P. STEWART, J. COMP. CHEM. 10, 209 (1989).

           Empirical Formula: C10 H12  =    22 atoms



      MOLECULAR POINT GROUP   :   C1  


      RHF CALCULATION, NO. OF DOUBLY OCCUPIED LEVELS = 26


          Geometry optimization using EF

          DIAGONAL MATRIX USED AS START HESSIAN

 CYCLE:     1 TIME:   0.031 TIME LEFT:  2.00D  GRAD.:    72.329 HEAT:  61.90417
 CYCLE:     2 TIME:   0.059 TIME LEFT:  2.00D  GRAD.:    39.247 HEAT:  60.75665
 CYCLE:     3 TIME:   0.023 TIME LEFT:  2.00D  GRAD.:    34.022 HEAT:  60.24842
 CYCLE:     4 TIME:   0.031 TIME LEFT:  2.00D  GRAD.:    41.388 HEAT:  60.14147
 CYCLE:     5 TIME:   0.027 TIME LEFT:  2.00D  GRAD.:    32.163 HEAT:  59.87649
 CYCLE:     6 TIME:   0.023 TIME LEFT:  2.00D  GRAD.:    37.341 HEAT:  59.76337
 CYCLE:     7 TIME:   0.027 TIME LEFT:  2.00D  GRAD.:    23.028 HEAT:  59.52180
 CYCLE:     8 TIME:   0.027 TIME LEFT:  2.00D  GRAD.:    28.840 HEAT:  59.50223
 CYCLE:     9 TIME:   0.023 TIME LEFT:  2.00D  GRAD.:    24.174 HEAT:  59.36504
 CYCLE:    10 TIME:   0.031 TIME LEFT:  2.00D  GRAD.:    16.594 HEAT:  59.23974
 CYCLE:    11 TIME:   0.035 TIME LEFT:  2.00D  GRAD.:    18.866 HEAT:  59.20004
 CYCLE:    12 TIME:   0.027 TIME LEFT:  2.00D  GRAD.:    13.057 HEAT:  59.12742
 CYCLE:    13 TIME:   0.020 TIME LEFT:  2.00D  GRAD.:    16.898 HEAT:  59.08380
 CYCLE:    14 TIME:   0.023 TIME LEFT:  2.00D  GRAD.:     9.692 HEAT:  58.99469
 CYCLE:    15 TIME:   0.023 TIME LEFT:  2.00D  GRAD.:    15.922 HEAT:  58.94468
 CYCLE:    16 TIME:   0.023 TIME LEFT:  2.00D  GRAD.:    15.410 HEAT:  58.86611
 CYCLE:    17 TIME:   0.023 TIME LEFT:  2.00D  GRAD.:    17.640 HEAT:  58.79805
 CYCLE:    18 TIME:   0.023 TIME LEFT:  2.00D  GRAD.:    15.153 HEAT:  58.68207
 CYCLE:    19 TIME:   0.031 TIME LEFT:  2.00D  GRAD.:    19.548 HEAT:  58.65886
 CYCLE:    20 TIME:   0.023 TIME LEFT:  2.00D  GRAD.:    20.914 HEAT:  58.62052
 CYCLE:    21 TIME:   0.023 TIME LEFT:  2.00D  GRAD.:    20.118 HEAT:  58.56664
 CYCLE:    22 TIME:   0.023 TIME LEFT:  2.00D  GRAD.:    10.321 HEAT:  58.43512
 CYCLE:    23 TIME:   0.039 TIME LEFT:  2.00D  GRAD.:    10.616 HEAT:  58.41631
 CYCLE:    24 TIME:   0.023 TIME LEFT:  2.00D  GRAD.:     8.771 HEAT:  58.39169
 CYCLE:    25 TIME:   0.023 TIME LEFT:  2.00D  GRAD.:     7.957 HEAT:  58.36077
 CYCLE:    26 TIME:   0.023 TIME LEFT:  2.00D  GRAD.:     3.789 HEAT:  58.31021
 CYCLE:    27 TIME:   0.023 TIME LEFT:  2.00D  GRAD.:     4.729 HEAT:  58.25653
 CYCLE:    28 TIME:   0.027 TIME LEFT:  2.00D  GRAD.:     4.902 HEAT:  58.17066
 CYCLE:    29 TIME:   0.023 TIME LEFT:  2.00D  GRAD.:    11.401 HEAT:  58.11155
 CYCLE:    30 TIME:   0.031 TIME LEFT:  2.00D  GRAD.:     8.356 HEAT:  58.07871
 CYCLE:    31 TIME:   0.023 TIME LEFT:  2.00D  GRAD.:     4.116 HEAT:  58.05487
 CYCLE:    32 TIME:   0.023 TIME LEFT:  2.00D  GRAD.:     3.326 HEAT:  58.04584
 CYCLE:    33 TIME:   0.023 TIME LEFT:  2.00D  GRAD.:     3.156 HEAT:  58.03778
 CYCLE:    34 TIME:   0.023 TIME LEFT:  2.00D  GRAD.:     3.214 HEAT:  58.02036
 CYCLE:    35 TIME:   0.023 TIME LEFT:  2.00D  GRAD.:     2.108 HEAT:  58.00892
 CYCLE:    36 TIME:   0.023 TIME LEFT:  2.00D  GRAD.:     1.181 HEAT:  58.00496
 CYCLE:    37 TIME:   0.020 TIME LEFT:  2.00D  GRAD.:     1.254 HEAT:  58.00230
 CYCLE:    38 TIME:   0.023 TIME LEFT:  2.00D  GRAD.:     1.416 HEAT:  57.99899
 CYCLE:    39 TIME:   0.023 TIME LEFT:  2.00D  GRAD.:     1.127 HEAT:  57.99700
 CYCLE:    40 TIME:   0.023 TIME LEFT:  2.00D  GRAD.:     0.986 HEAT:  57.99502
 CYCLE:    41 TIME:   0.023 TIME LEFT:  2.00D  GRAD.:     0.907 HEAT:  57.99336
 CYCLE:    42 TIME:   0.023 TIME LEFT:  2.00D  GRAD.:     0.782 HEAT:  57.99232
 CYCLE:    43 TIME:   0.023 TIME LEFT:  2.00D  GRAD.:     0.694 HEAT:  57.99120
 CYCLE:    44 TIME:   0.020 TIME LEFT:  2.00D  GRAD.:     0.616 HEAT:  57.99017
 CYCLE:    45 TIME:   0.023 TIME LEFT:  2.00D  GRAD.:     0.473 HEAT:  57.98953
 CYCLE:    46 TIME:   0.023 TIME LEFT:  2.00D  GRAD.:     0.378 HEAT:  57.98902
 CYCLE:    47 TIME:   0.023 TIME LEFT:  2.00D  GRAD.:     0.335 HEAT:  57.98865
 CYCLE:    48 TIME:   0.023 TIME LEFT:  2.00D  GRAD.:     0.280 HEAT:  57.98842
 CYCLE:    49 TIME:   0.023 TIME LEFT:  2.00D  GRAD.:     0.237 HEAT:  57.98827
 CYCLE:    50 TIME:   0.023 TIME LEFT:  2.00D  GRAD.:     0.243 HEAT:  57.98813
 CYCLE:    51 TIME:   0.020 TIME LEFT:  2.00D  GRAD.:     0.262 HEAT:  57.98798
 CYCLE:    52 TIME:   0.023 TIME LEFT:  2.00D  GRAD.:     0.246 HEAT:  57.98783
 CYCLE:    53 TIME:   0.023 TIME LEFT:  2.00D  GRAD.:     0.221 HEAT:  57.98770
 CYCLE:    54 TIME:   0.023 TIME LEFT:  2.00D  GRAD.:     0.220 HEAT:  57.98758
 CYCLE:    55 TIME:   0.023 TIME LEFT:  2.00D  GRAD.:     0.232 HEAT:  57.98745
 CYCLE:    56 TIME:   0.023 TIME LEFT:  2.00D  GRAD.:     0.231 HEAT:  57.98733
 CYCLE:    57 TIME:   0.020 TIME LEFT:  2.00D  GRAD.:     0.209 HEAT:  57.98720
 CYCLE:    58 TIME:   0.023 TIME LEFT:  2.00D  GRAD.:     0.187 HEAT:  57.98709
 CYCLE:    59 TIME:   0.023 TIME LEFT:  2.00D  GRAD.:     0.161 HEAT:  57.98701
 CYCLE:    60 TIME:   0.023 TIME LEFT:  2.00D  GRAD.:     0.131 HEAT:  57.98696
 CYCLE:    61 TIME:   0.023 TIME LEFT:  2.00D  GRAD.:     0.105 HEAT:  57.98693
 CYCLE:    62 TIME:   0.023 TIME LEFT:  2.00D  GRAD.:     0.118 HEAT:  57.98689
 CYCLE:    63 TIME:   0.023 TIME LEFT:  2.00D  GRAD.:     0.099 HEAT:  57.98687
 CYCLE:    64 TIME:   0.023 TIME LEFT:  2.00D  GRAD.:     0.153 HEAT:  57.98684
 CYCLE:    65 TIME:   0.020 TIME LEFT:  2.00D  GRAD.:     0.092 HEAT:  57.98681
 CYCLE:    66 TIME:   0.023 TIME LEFT:  2.00D  GRAD.:     0.065 HEAT:  57.98679
 CYCLE:    67 TIME:   0.023 TIME LEFT:  2.00D  GRAD.:     0.062 HEAT:  57.98677
 CYCLE:    68 TIME:   0.023 TIME LEFT:  2.00D  GRAD.:     0.065 HEAT:  57.98676
 CYCLE:    69 TIME:   0.023 TIME LEFT:  2.00D  GRAD.:     0.066 HEAT:  57.98674
 CYCLE:    70 TIME:   0.023 TIME LEFT:  2.00D  GRAD.:     0.064 HEAT:  57.98672
 CYCLE:    71 TIME:   0.020 TIME LEFT:  2.00D  GRAD.:     0.070 HEAT:  57.98670
 CYCLE:    72 TIME:   0.023 TIME LEFT:  2.00D  GRAD.:     0.074 HEAT:  57.98669
 CYCLE:    73 TIME:   0.023 TIME LEFT:  2.00D  GRAD.:     0.056 HEAT:  57.98668
 CYCLE:    74 TIME:   0.023 TIME LEFT:  2.00D  GRAD.:     0.055 HEAT:  57.98667
 CYCLE:    75 TIME:   0.027 TIME LEFT:  2.00D  GRAD.:     0.034 HEAT:  57.98667

     GRADIENT =  0.03407  IS LESS THAN CUTOFF =  0.05000



 -------------------------------------------------------------------------------
 pm3  precise nosym THREADS=1
 InChI=1S/C10H12/c1-2-4-6-8-10-9-7-5-3-1/h1-8H,9-10H2



     GEOMETRY OPTIMISED USING EIGENVECTOR FOLLOWING (EF).     
     SCF FIELD WAS ACHIEVED                                   


                              PM3 CALCULATION
                                                       MOPAC2016 (Version: 18.184L)
                                                       Thu Jun 13 16:00:49 2019
                                                       No. of days remaining =  20




          FINAL HEAT OF FORMATION =         57.98667 KCAL/MOL =     242.61622 KJ/MOL


          TOTAL ENERGY            =      -1367.88176 EV
          ELECTRONIC ENERGY       =      -7511.09954 EV  POINT GROUP:     C1  
          CORE-CORE REPULSION     =       6143.21778 EV
          COSMO AREA              =        173.23 SQUARE ANGSTROMS
          COSMO VOLUME            =        182.37 CUBIC ANGSTROMS

          GRADIENT NORM           =          0.03407 = 0.00726 PER ATOM
          IONIZATION POTENTIAL    =          9.671844 EV
          HOMO LUMO ENERGIES (EV) =         -9.672  0.918
          NO. OF FILLED LEVELS    =         26
          MOLECULAR WEIGHT        =        132.2048

          MOLECULAR DIMENSIONS (Angstroms)

            Atom       Atom       Distance
            H    20    H    18     5.97154
            H    11    H    21     5.71472
            H    13    H    17     4.36242


          SCF CALCULATIONS        =         86
 
          WALL-CLOCK TIME         =          1.906 SECONDS
          COMPUTATION TIME        =          0.831 SECONDS




   ATOM   CHEMICAL          X               Y               Z
  NUMBER   SYMBOL      (ANGSTROMS)     (ANGSTROMS)     (ANGSTROMS)
 
     1       C          0.67340640  *  -1.68429624  *  -0.12341280  *
     2       C          1.64489958  *  -0.63970959  *   0.43593424  *
     3       C         -0.54201168  *  -1.79165966  *   0.72966291  *
     4       C          1.87877099  *   0.45129355  *  -0.54973315  *
     5       C         -1.69618530  *  -1.17146394  *   0.47929482  *
     6       C          1.24402514  *   1.62451691  *  -0.54053526  *
     7       C         -1.94523520  *  -0.31730133  *  -0.67839715  *
     8       C         -1.66078836  *   0.98512270  *  -0.73006382  *
     9       C         -1.05432368  *   1.73703674  *   0.36462084  *
    10       C          0.24658975  *   2.02041140  *   0.44955748  *
    11       H          1.16457495  *  -2.67496253  *  -0.17942267  *
    12       H          0.38961778  *  -1.43432911  *  -1.16617168  *
    13       H          1.26128140  *  -0.22074142  *   1.38865591  *
    14       H          2.61363256  *  -1.11226859  *   0.68900130  *
    15       H         -0.44486049  *  -2.42004276  *   1.62314483  *
    16       H          2.61918556  *   0.23943567  *  -1.33044340  *
    17       H         -2.41486712  *  -0.82180669  *  -1.53216841  *
    18       H         -2.55415659  *  -1.29071220  *   1.15291510  *
    19       H         -1.88686979  *   1.57240266  *  -1.62883298  *
    20       H          1.46146209  *   2.38540452  *  -1.30070310  *
    21       H         -1.75329897  *   2.07729320  *   1.13886984  *
    22       H          0.63866029  *   2.60282654  *   1.29281012  *

                             CARTESIAN COORDINATES

   1    C        0.673406405    -1.684296238    -0.123412799
   2    C        1.644899578    -0.639709588     0.435934236
   3    C       -0.542011679    -1.791659659     0.729662911
   4    C        1.878770993     0.451293555    -0.549733150
   5    C       -1.696185302    -1.171463944     0.479294823
   6    C        1.244025141     1.624516911    -0.540535259
   7    C       -1.945235197    -0.317301326    -0.678397152
   8    C       -1.660788358     0.985122704    -0.730063816
   9    C       -1.054323677     1.737036738     0.364620840
  10    C        0.246589752     2.020411399     0.449557478
  11    H        1.164574948    -2.674962526    -0.179422672
  12    H        0.389617782    -1.434329109    -1.166171679
  13    H        1.261281405    -0.220741419     1.388655910
  14    H        2.613632565    -1.112268591     0.689001299
  15    H       -0.444860493    -2.420042755     1.623144831
  16    H        2.619185555     0.239435666    -1.330443397
  17    H       -2.414867117    -0.821806690    -1.532168414
  18    H       -2.554156586    -1.290712200     1.152915096
  19    H       -1.886869788     1.572402660    -1.628832977
  20    H        1.461462094     2.385404519    -1.300703104
  21    H       -1.753298970     2.077293199     1.138869843
  22    H        0.638660289     2.602826544     1.292810116


           Empirical Formula: C10 H12  =    22 atoms



      MOLECULAR POINT GROUP   :   C1  


                  EIGENVALUES  
 -39.84092 -34.63033 -34.56475 -27.94965 -27.60781 -23.07232 -21.93225 -20.05960
 -18.22862 -17.23954 -17.16339 -16.15929 -16.11586 -15.89359 -15.26053 -14.57807
 -14.51899 -13.44574 -12.62911 -12.52638 -11.67093 -11.53978 -10.17040 -10.15883
  -9.82561  -9.67184   0.91758   0.93935   1.21815   1.23986   3.27495   3.34954
   3.38454   3.63400   3.69413   3.84872   3.92858   4.05919   4.11173   4.13005
   4.24855   4.58877   4.63672   4.87616   4.98873   5.35326   5.66566   5.67687
   5.81530   5.85016   6.04276   6.22815


              NET ATOMIC CHARGES AND DIPOLE CONTRIBUTIONS

  ATOM NO.   TYPE          CHARGE      No. of ELECS.   s-Pop       p-Pop       
    1          C          -0.061610        4.0616     1.14880     2.91281
    2          C          -0.061623        4.0616     1.14880     2.91282
    3          C          -0.135606        4.1356     1.19446     2.94115
    4          C          -0.135617        4.1356     1.19446     2.94115
    5          C          -0.110572        4.1106     1.17912     2.93145
    6          C          -0.110580        4.1106     1.17912     2.93146
    7          C          -0.103687        4.1037     1.17705     2.92663
    8          C          -0.100509        4.1005     1.17726     2.92325
    9          C          -0.100497        4.1005     1.17726     2.92323
   10          C          -0.103699        4.1037     1.17706     2.92664
   11          H           0.049148        0.9509     0.95085
   12          H           0.063092        0.9369     0.93691
   13          H           0.063098        0.9369     0.93690
   14          H           0.049147        0.9509     0.95085
   15          H           0.094693        0.9053     0.90531
   16          H           0.094704        0.9053     0.90530
   17          H           0.101657        0.8983     0.89834
   18          H           0.101085        0.8989     0.89891
   19          H           0.102296        0.8977     0.89770
   20          H           0.101104        0.8989     0.89890
   21          H           0.102309        0.8977     0.89769
   22          H           0.101668        0.8983     0.89833
 DIPOLE           X         Y         Z       TOTAL
 POINT-CHG.     0.035    -0.035     0.005     0.049
 HYBRID        -0.038     0.038    -0.005     0.054
 SUM           -0.003     0.003    -0.000     0.005


          ATOMIC ORBITAL ELECTRON POPULATIONS

     Atom    s        px        py        pz   
    1  C   1.14880   0.94379   0.97989   0.98914
    2  C   1.14880   0.98464   0.95141   0.97677
    3  C   1.19446   0.95136   0.99627   0.99351
    4  C   1.19446   0.99419   0.95360   0.99336
    5  C   1.17912   0.97397   0.98259   0.97489
    6  C   1.17912   0.97525   0.97183   0.98438
    7  C   1.17705   1.00551   0.94633   0.97480
    8  C   1.17726   0.99604   0.95049   0.97672
    9  C   1.17726   0.95423   0.99138   0.97763
   10  C   1.17706   0.94090   1.00256   0.98318
   11  H   0.95085
   12  H   0.93691
   13  H   0.93690
   14  H   0.95085
   15  H   0.90531
   16  H   0.90530
   17  H   0.89834
   18  H   0.89891
   19  H   0.89770
   20  H   0.89890
   21  H   0.89769
   22  H   0.89833
 *******************************************************************************
 ** Site#: 14399        For non-commercial use only    Version 18.184L 64BITS **
 *******************************************************************************
 ** Cite this program as: MOPAC2016, Version: 18.184L, James J. P. Stewart,   **
 ** Stewart Computational Chemistry, web: HTTP://OpenMOPAC.net. Days left:  20**
 *******************************************************************************
 **                                                                           **
 **                                MOPAC2016                                  **
 **                                                                           **
 *******************************************************************************

                              PM3 CALCULATION RESULTS

 *******************************************************************************
 *  CALCULATION DONE:                                Thu Jun 13 16:00:49 2019  *
 *  PM3        - The PM3 Hamiltonian to be used
 *  OLDGEO     - PREVIOUS GEOMETRY TO BE USED
 *  PRECISE    - CRITERIA TO BE INCREASED BY 100 TIMES
 *  NOSYM      - POINT-GROUP SYMMETRY SET TO C1
 *  THREADS=1  - MULTI-THREADING NOT USED
 *  T=         - A TIME OF 172800.0 SECONDS REQUESTED
 *  DUMP=N     - RESTART FILE WRITTEN EVERY  7200.000 SECONDS
 *  THERMO     - THERMODYNAMIC QUANTITIES TO BE CALCULATED
 *******************************************************************************
oldgeo thermo nosym precise THREADS=1  pm3
 InChI=1S/C10H12/c1-2-4-6-8-10-9-7-5-3-1/h1-8H,9-10H2

   ATOM   CHEMICAL          X               Y               Z
  NUMBER   SYMBOL      (ANGSTROMS)     (ANGSTROMS)     (ANGSTROMS)
 
     1       C          0.67340640  *  -1.68429624  *  -0.12341280  *
     2       C          1.64489958  *  -0.63970959  *   0.43593424  *
     3       C         -0.54201168  *  -1.79165966  *   0.72966291  *
     4       C          1.87877099  *   0.45129355  *  -0.54973315  *
     5       C         -1.69618530  *  -1.17146394  *   0.47929482  *
     6       C          1.24402514  *   1.62451691  *  -0.54053526  *
     7       C         -1.94523520  *  -0.31730133  *  -0.67839715  *
     8       C         -1.66078836  *   0.98512270  *  -0.73006382  *
     9       C         -1.05432368  *   1.73703674  *   0.36462084  *
    10       C          0.24658975  *   2.02041140  *   0.44955748  *
    11       H          1.16457495  *  -2.67496253  *  -0.17942267  *
    12       H          0.38961778  *  -1.43432911  *  -1.16617168  *
    13       H          1.26128140  *  -0.22074142  *   1.38865591  *
    14       H          2.61363256  *  -1.11226859  *   0.68900130  *
    15       H         -0.44486049  *  -2.42004276  *   1.62314483  *
    16       H          2.61918556  *   0.23943567  *  -1.33044340  *
    17       H         -2.41486712  *  -0.82180669  *  -1.53216841  *
    18       H         -2.55415659  *  -1.29071220  *   1.15291510  *
    19       H         -1.88686979  *   1.57240266  *  -1.62883298  *
    20       H          1.46146209  *   2.38540452  *  -1.30070310  *
    21       H         -1.75329897  *   2.07729320  *   1.13886984  *
    22       H          0.63866029  *   2.60282654  *   1.29281012  *
 


          CARTESIAN COORDINATES 

    NO.       ATOM           X           Y           Z

     1         C          0.6734     -1.6843     -0.1234
     2         C          1.6449     -0.6397      0.4359
     3         C         -0.5420     -1.7917      0.7297
     4         C          1.8788      0.4513     -0.5497
     5         C         -1.6962     -1.1715      0.4793
     6         C          1.2440      1.6245     -0.5405
     7         C         -1.9452     -0.3173     -0.6784
     8         C         -1.6608      0.9851     -0.7301
     9         C         -1.0543      1.7370      0.3646
    10         C          0.2466      2.0204      0.4496
    11         H          1.1646     -2.6750     -0.1794
    12         H          0.3896     -1.4343     -1.1662
    13         H          1.2613     -0.2207      1.3887
    14         H          2.6136     -1.1123      0.6890
    15         H         -0.4449     -2.4200      1.6231
    16         H          2.6192      0.2394     -1.3304
    17         H         -2.4149     -0.8218     -1.5322
    18         H         -2.5542     -1.2907      1.1529
    19         H         -1.8869      1.5724     -1.6288
    20         H          1.4615      2.3854     -1.3007
    21         H         -1.7533      2.0773      1.1389
    22         H          0.6387      2.6028      1.2928

  H: (PM3): J. J. P. STEWART, J. COMP. CHEM. 10, 209 (1989).
  C: (PM3): J. J. P. STEWART, J. COMP. CHEM. 10, 209 (1989).

           Empirical Formula: C10 H12  =    22 atoms



      MOLECULAR POINT GROUP   :   C1  


      RHF CALCULATION, NO. OF DOUBLY OCCUPIED LEVELS = 26



          HEAT OF FORMATION =      57.986669 KCALS/MOLE


          CARTESIAN COORDINATE DERIVATIVES

   NUMBER  ATOM         X            Y            Z

     1       C      0.006517    -0.006319     0.004636
     2       C     -0.001269    -0.000740    -0.003873
     3       C      0.008066    -0.004627     0.002727
     4       C     -0.005032    -0.001511    -0.006056
     5       C      0.001681    -0.007670     0.002724
     6       C     -0.008620     0.002227    -0.009344
     7       C     -0.002421     0.002895    -0.001261
     8       C      0.001103     0.002586     0.000727
     9       C      0.001285     0.001967    -0.000461
    10       C     -0.001564    -0.000782     0.001529
    11       H     -0.007561     0.007551     0.001697
    12       H      0.003242     0.002769    -0.001251
    13       H     -0.002155     0.001074     0.008216
    14       H      0.008943     0.003202    -0.006633
    15       H     -0.005661     0.000130     0.000878
    16       H      0.002508     0.000276     0.006578
    17       H      0.002251     0.003244    -0.006824
    18       H     -0.000711    -0.000888    -0.005389
    19       H      0.000146    -0.003240     0.006520
    20       H     -0.001663    -0.001454     0.001218
    21       H      0.001811     0.000881    -0.002023
    22       H     -0.000897    -0.001571     0.005666
 


          GRADIENT NORM =   0.03424


          TIME FOR SCF CALCULATION =    0.03

          TIME FOR DERIVATIVES     =    0.01

          MOLECULAR WEIGHT =  132.20



          ROTATIONAL CONSTANTS IN CM(-1)

          A =    0.05583266   B =    0.05063367   C =    0.03157211



           PRINCIPAL MOMENTS OF INERTIA IN UNITS OF 10**(-40)*GRAM-CM**2

          A =      501.3692   B =      552.8490   C =      886.6299


          ORIENTATION OF MOLECULE IN FORCE CALCULATION

    NO.       ATOM         X         Y         Z

     1          C      -0.7664   -0.9004    1.5509
     2          C       0.7659   -0.9004    1.5509
     3          C      -1.2987    0.4900    1.5509
     4          C       1.2981   -1.5901    0.3436
     5          C      -1.6991    1.1441    0.4595
     6          C       1.6989   -0.9667   -0.7656
     7          C      -1.6973    0.5862   -0.8898
     8          C      -0.6479    0.6071   -1.7134
     9          C       0.6488    1.1871   -1.3763
    10          C       1.6978    0.4818   -0.9497
    11          H      -1.1508   -1.4348    2.4411
    12          H      -1.1565   -1.4608    0.6768
    13          H       1.1561    0.1366    1.6041
    14          H       1.1503   -1.4083    2.4565
    15          H      -1.3394    0.9862    2.5280
    16          H       1.3382   -2.6847    0.3972
    17          H      -2.6507    0.1468   -1.2093
    18          H      -2.0785    2.1714    0.5293
    19          H      -0.7190    0.1807   -2.7218
    20          H       2.0780   -1.5368   -1.6231
    21          H       0.7202    2.2743   -1.5058
    22          H       2.6513    0.9765   -0.7258


    FIRST DERIVATIVES WILL BE USED IN THE CALCULATION OF SECOND DERIVATIVES

          ESTIMATED TIME TO COMPLETE CALCULATION =       10.31 SECONDS

    FOR POINT-GROUP C1   THERE ARE   1 UNIQUE SYMMETRY FUNCTIONS.

 STEP:   1 TIME =     0.06 SECS, INTEGRAL =      0.06 TIME LEFT: 172799.90
 STEP:   2 TIME =     0.05 SECS, INTEGRAL =      0.11 TIME LEFT: 172799.85
 STEP:   3 TIME =     0.05 SECS, INTEGRAL =      0.16 TIME LEFT: 172799.80
 STEP:   4 TIME =     0.05 SECS, INTEGRAL =      0.21 TIME LEFT: 172799.75
 STEP:   5 TIME =     0.05 SECS, INTEGRAL =      0.27 TIME LEFT: 172799.70
 STEP:   6 TIME =     0.05 SECS, INTEGRAL =      0.32 TIME LEFT: 172799.64
 STEP:   7 TIME =     0.05 SECS, INTEGRAL =      0.37 TIME LEFT: 172799.59
 STEP:   8 TIME =     0.05 SECS, INTEGRAL =      0.42 TIME LEFT: 172799.54
 STEP:   9 TIME =     0.05 SECS, INTEGRAL =      0.47 TIME LEFT: 172799.49
 STEP:  10 TIME =     0.05 SECS, INTEGRAL =      0.52 TIME LEFT: 172799.44
 STEP:  11 TIME =     0.05 SECS, INTEGRAL =      0.57 TIME LEFT: 172799.39
 STEP:  12 TIME =     0.05 SECS, INTEGRAL =      0.62 TIME LEFT: 172799.34
 STEP:  13 TIME =     0.05 SECS, INTEGRAL =      0.68 TIME LEFT: 172799.29
 STEP:  14 TIME =     0.05 SECS, INTEGRAL =      0.73 TIME LEFT: 172799.23
 STEP:  15 TIME =     0.05 SECS, INTEGRAL =      0.78 TIME LEFT: 172799.18
 STEP:  16 TIME =     0.05 SECS, INTEGRAL =      0.83 TIME LEFT: 172799.13
 STEP:  17 TIME =     0.05 SECS, INTEGRAL =      0.88 TIME LEFT: 172799.08
 STEP:  18 TIME =     0.05 SECS, INTEGRAL =      0.93 TIME LEFT: 172799.03
 STEP:  19 TIME =     0.05 SECS, INTEGRAL =      0.98 TIME LEFT: 172798.98
 STEP:  20 TIME =     0.05 SECS, INTEGRAL =      1.04 TIME LEFT: 172798.92
 STEP:  21 TIME =     0.05 SECS, INTEGRAL =      1.09 TIME LEFT: 172798.87
 STEP:  22 TIME =     0.05 SECS, INTEGRAL =      1.14 TIME LEFT: 172798.82
 STEP:  23 TIME =     0.05 SECS, INTEGRAL =      1.20 TIME LEFT: 172798.77
 STEP:  24 TIME =     0.05 SECS, INTEGRAL =      1.25 TIME LEFT: 172798.71
 STEP:  25 TIME =     0.05 SECS, INTEGRAL =      1.30 TIME LEFT: 172798.66
 STEP:  26 TIME =     0.05 SECS, INTEGRAL =      1.35 TIME LEFT: 172798.61
 STEP:  27 TIME =     0.05 SECS, INTEGRAL =      1.40 TIME LEFT: 172798.56
 STEP:  28 TIME =     0.05 SECS, INTEGRAL =      1.45 TIME LEFT: 172798.51
 STEP:  29 TIME =     0.05 SECS, INTEGRAL =      1.50 TIME LEFT: 172798.46
 STEP:  30 TIME =     0.05 SECS, INTEGRAL =      1.55 TIME LEFT: 172798.41
 STEP:  31 TIME =     0.05 SECS, INTEGRAL =      1.61 TIME LEFT: 172798.36
 STEP:  32 TIME =     0.05 SECS, INTEGRAL =      1.66 TIME LEFT: 172798.30
 STEP:  33 TIME =     0.05 SECS, INTEGRAL =      1.71 TIME LEFT: 172798.25
 STEP:  34 TIME =     0.05 SECS, INTEGRAL =      1.76 TIME LEFT: 172798.20
 STEP:  35 TIME =     0.05 SECS, INTEGRAL =      1.81 TIME LEFT: 172798.15
 STEP:  36 TIME =     0.05 SECS, INTEGRAL =      1.86 TIME LEFT: 172798.10
 STEP:  37 TIME =     0.05 SECS, INTEGRAL =      1.91 TIME LEFT: 172798.05
 STEP:  38 TIME =     0.05 SECS, INTEGRAL =      1.96 TIME LEFT: 172798.00
 STEP:  39 TIME =     0.05 SECS, INTEGRAL =      2.02 TIME LEFT: 172797.95
 STEP:  40 TIME =     0.05 SECS, INTEGRAL =      2.07 TIME LEFT: 172797.89
 STEP:  41 TIME =     0.05 SECS, INTEGRAL =      2.12 TIME LEFT: 172797.84
 STEP:  42 TIME =     0.05 SECS, INTEGRAL =      2.17 TIME LEFT: 172797.79
 STEP:  43 TIME =     0.06 SECS, INTEGRAL =      2.23 TIME LEFT: 172797.73
 STEP:  44 TIME =     0.05 SECS, INTEGRAL =      2.28 TIME LEFT: 172797.68
 STEP:  45 TIME =     0.05 SECS, INTEGRAL =      2.33 TIME LEFT: 172797.63
 STEP:  46 TIME =     0.05 SECS, INTEGRAL =      2.38 TIME LEFT: 172797.58
 STEP:  47 TIME =     0.05 SECS, INTEGRAL =      2.43 TIME LEFT: 172797.53
 STEP:  48 TIME =     0.05 SECS, INTEGRAL =      2.48 TIME LEFT: 172797.48
 STEP:  49 TIME =     0.05 SECS, INTEGRAL =      2.53 TIME LEFT: 172797.43
 STEP:  50 TIME =     0.05 SECS, INTEGRAL =      2.59 TIME LEFT: 172797.38
 STEP:  51 TIME =     0.05 SECS, INTEGRAL =      2.64 TIME LEFT: 172797.32
 STEP:  52 TIME =     0.05 SECS, INTEGRAL =      2.69 TIME LEFT: 172797.27
 STEP:  53 TIME =     0.05 SECS, INTEGRAL =      2.74 TIME LEFT: 172797.22
 STEP:  54 TIME =     0.05 SECS, INTEGRAL =      2.79 TIME LEFT: 172797.17
 STEP:  55 TIME =     0.05 SECS, INTEGRAL =      2.84 TIME LEFT: 172797.12
 STEP:  56 TIME =     0.05 SECS, INTEGRAL =      2.89 TIME LEFT: 172797.07
 STEP:  57 TIME =     0.05 SECS, INTEGRAL =      2.95 TIME LEFT: 172797.02
 STEP:  58 TIME =     0.05 SECS, INTEGRAL =      3.00 TIME LEFT: 172796.96
 STEP:  59 TIME =     0.05 SECS, INTEGRAL =      3.05 TIME LEFT: 172796.91
 STEP:  60 TIME =     0.05 SECS, INTEGRAL =      3.10 TIME LEFT: 172796.86
 STEP:  61 TIME =     0.05 SECS, INTEGRAL =      3.15 TIME LEFT: 172796.81
 STEP:  62 TIME =     0.05 SECS, INTEGRAL =      3.20 TIME LEFT: 172796.76
 STEP:  63 TIME =     0.05 SECS, INTEGRAL =      3.25 TIME LEFT: 172796.71
 STEP:  64 TIME =     0.05 SECS, INTEGRAL =      3.30 TIME LEFT: 172796.66
 STEP:  65 TIME =     0.05 SECS, INTEGRAL =      3.35 TIME LEFT: 172796.61
 STEP:  66 TIME =     0.05 SECS, INTEGRAL =      3.41 TIME LEFT: 172796.55

(To convert to Hartree/Bohr^2, multiply by (10^(-21) x N x a0^2)/(4.184 x 627.51) =  0.0642)


           FORCE MATRIX IN MILLIDYNES/ANGSTROM


                  C  1       C  2       C  3       C  4       C  5       C  6
 ------------------------------------------------------------------------------
     C    1  14.483609
     C    2   3.789364  14.482573
     C    3   4.961423   0.683935  18.065086
     C    4   0.684483   4.962648   0.024418  18.069876
     C    5   0.785338   0.033384  10.663824   0.005662  18.439012
     C    6   0.033870   0.785981   0.005403  10.665057   0.003980  18.436813
     C    7   0.105924   0.017416   0.836144   0.005351   5.743725   0.019120
     C    8   0.022556   0.005289   0.034719   0.019492   0.836978   0.109732
     C    9   0.005042   0.022247   0.019722   0.035060   0.108865   0.837345
     C   10   0.017699   0.105876   0.005091   0.836098   0.018920   5.743557
     H   11   4.485837   0.442437   0.429839   0.027691   0.046677   0.003740
     H   12   4.430883   0.452795   0.452695   0.079978   0.038894   0.006880
     H   13   0.452578   4.432342   0.080130   0.452974   0.006916   0.038913
     H   14   0.442486   4.485702   0.027597   0.429472   0.003673   0.046289
     H   15   0.429702   0.009707   4.794774   0.001742   0.435325   0.000562
     H   16   0.009853   0.429826   0.001873   4.794832   0.000550   0.435830
     H   17   0.013172   0.002766   0.025763   0.001009   0.414300   0.002917
     H   18   0.120080   0.017737   0.447360   0.001373   4.757683   0.001302
     H   19   0.001995   0.000660   0.017916   0.002630   0.125733   0.013456
     H   20   0.017569   0.119971   0.001322   0.446871   0.001288   4.757841
     H   21   0.000706   0.002102   0.002872   0.017587   0.013367   0.126894
     H   22   0.002665   0.013186   0.001067   0.025626   0.002820   0.414835


                  C  7       C  8       C  9       C 10       H 11       H 12
 ------------------------------------------------------------------------------
     C    7  18.423503
     C    8  10.648691  18.426066
     C    9   0.844049   5.744575  18.427118
     C   10   0.036581   0.844624  10.647271  18.420342
     H   11   0.007712   0.001140   0.000738   0.001601   5.066990
     H   12   0.020937   0.007834   0.001295   0.001711   0.569467   5.035538
     H   13   0.001513   0.001260   0.008006   0.021039   0.023361   0.023338
     H   14   0.001535   0.000653   0.001156   0.007507   0.024282   0.023401
     H   15   0.126796   0.018869   0.001924   0.000925   0.035319   0.037224
     H   16   0.001030   0.001986   0.018515   0.127111   0.000627   0.006397
     H   17   4.759534   0.443119   0.124185   0.018271   0.000856   0.003958
     H   18   0.413636   0.025843   0.013657   0.002276   0.012053   0.003762
     H   19   0.443103   4.762926   0.417295   0.024241   0.000464   0.001135
     H   20   0.002297   0.013581   0.025948   0.413936   0.001825   0.001005
     H   21   0.024581   0.417645   4.762037   0.443112   0.000308   0.000503
     H   22   0.018716   0.126058   0.442907   4.759330   0.000371   0.000562


                  H 13       H 14       H 15       H 16       H 17       H 18
 ------------------------------------------------------------------------------
     H   13   5.036779
     H   14   0.568834   5.067376
     H   15   0.006267   0.000678   5.162469
     H   16   0.037229   0.035649   0.000738   5.163292
     H   17   0.000541   0.000389   0.014408   0.000638   5.120806
     H   18   0.000940   0.001862   0.072364   0.000215   0.013108   5.118429
     H   19   0.000529   0.000294   0.003029   0.000754   0.072240   0.013987
     H   20   0.003659   0.011753   0.000237   0.072458   0.000805   0.000511
     H   21   0.001182   0.000486   0.000743   0.003026   0.012936   0.002125
     H   22   0.004034   0.000802   0.000616   0.014318   0.002715   0.000799


                  H 19       H 20       H 21       H 22
 ------------------------------------------------------
     H   19   5.123298
     H   20   0.002024   5.118184
     H   21   0.015088   0.013989   5.123577
     H   22   0.013126   0.013087   0.073326   5.120832


          HEAT OF FORMATION =      57.986669 KCALS/MOLE

          ZERO POINT ENERGY     117.594 KCAL/MOL


           NORMAL COORDINATE ANALYSIS (Total motion = 1 Angstrom)


   Root No.       1         2         3         4         5         6         7         8

                 1 A       2 A       3 A       4 A       5 A       6 A       7 A       8 A   

                 122.5     124.8     176.1     186.0     295.3     304.0     377.2     388.5
  
           1   -0.0060   -0.0011    0.0040    0.0334   -0.0007   -0.0077    0.0227    0.0002
           2   -0.0020   -0.0016    0.0303    0.0078   -0.0086   -0.0151    0.0034   -0.0250
           3    0.0414   -0.0318   -0.0129    0.0104   -0.0338    0.0280   -0.0018    0.0053
           4   -0.0060   -0.0007    0.0027    0.0335    0.0003   -0.0078    0.0226    0.0028
           5    0.0295    0.0333   -0.0004    0.0143    0.0349    0.0143   -0.0015    0.0077
           6   -0.0192   -0.0178   -0.0323    0.0068   -0.0112   -0.0260    0.0015    0.0252
           7   -0.0305   -0.0283    0.0114    0.0062    0.0010    0.0000   -0.0150    0.0078
           8   -0.0116   -0.0117    0.0345   -0.0034   -0.0091   -0.0118   -0.0106   -0.0233
           9    0.0185    0.0075   -0.0097   -0.0175    0.0047   -0.0030   -0.0006   -0.0248
          10   -0.0348    0.0227   -0.0101    0.0088   -0.0014    0.0006   -0.0136   -0.0099
          11    0.0105    0.0013   -0.0116   -0.0152    0.0000   -0.0084   -0.0088    0.0326
          12   -0.0210    0.0104   -0.0332    0.0119    0.0093   -0.0090   -0.0100    0.0068
          13   -0.0062   -0.0274   -0.0235   -0.0258    0.0376    0.0320   -0.0158    0.0182
          14   -0.0204    0.0096    0.0126   -0.0202    0.0080    0.0044    0.0088    0.0057
          15    0.0045    0.0197   -0.0104   -0.0157    0.0018   -0.0049    0.0093   -0.0113
          16   -0.0109    0.0267    0.0182   -0.0288   -0.0354    0.0344   -0.0133   -0.0194
          17   -0.0024   -0.0220   -0.0024   -0.0243   -0.0053   -0.0019    0.0116    0.0082
          18   -0.0197   -0.0016   -0.0182   -0.0068   -0.0057    0.0066    0.0036   -0.0102
          19    0.0250   -0.0125   -0.0137   -0.0132    0.0199   -0.0117    0.0041   -0.0191
          20   -0.0192    0.0284   -0.0220    0.0107   -0.0189    0.0232    0.0359    0.0253
          21    0.0047    0.0122    0.0035   -0.0278    0.0114   -0.0126   -0.0023   -0.0173
          22    0.0252   -0.0046    0.0093   -0.0016    0.0060   -0.0169    0.0085    0.0076
          23    0.0051    0.0034   -0.0383    0.0366   -0.0118   -0.0015   -0.0338   -0.0292
          24    0.0061    0.0219    0.0319   -0.0127   -0.0053   -0.0202    0.0003    0.0170
          25    0.0242    0.0086   -0.0096    0.0002   -0.0069   -0.0164    0.0092   -0.0071
          26    0.0112   -0.0193   -0.0077    0.0080    0.0088   -0.0187   -0.0163   -0.0028
          27   -0.0003    0.0073    0.0566    0.0288    0.0074    0.0076   -0.0325    0.0311
          28    0.0226    0.0167    0.0110   -0.0151   -0.0204   -0.0106    0.0023    0.0197
          29   -0.0013   -0.0247    0.0036   -0.0206   -0.0002    0.0004    0.0152    0.0040
          30   -0.0159   -0.0220    0.0251    0.0188    0.0243    0.0244    0.0347   -0.0270
          31    0.0406    0.0015    0.0074    0.0416   -0.0079    0.0340    0.0273   -0.0049
          32    0.0162   -0.0410    0.0397    0.0232   -0.0546    0.0178   -0.0049   -0.0090
          33    0.0723   -0.0546   -0.0056    0.0235   -0.0656    0.0657   -0.0045    0.0128
          34   -0.0295    0.0198   -0.0149    0.0355    0.0240   -0.0350    0.0295    0.0164
          35   -0.0349    0.0201    0.0312   -0.0154    0.0231   -0.0521    0.0008   -0.0480
          36    0.0732   -0.0553   -0.0053    0.0243   -0.0662    0.0657   -0.0039    0.0135
          37   -0.0256   -0.0248    0.0211    0.0318   -0.0258   -0.0332    0.0316   -0.0118
          38    0.0390    0.0444   -0.0069    0.0162    0.0480    0.0277   -0.0052    0.0112
          39   -0.0576   -0.0544   -0.0358   -0.0213   -0.0581   -0.0736   -0.0006    0.0501
          40    0.0402    0.0040    0.0020    0.0421    0.0106    0.0331    0.0263    0.0077
          41    0.0581    0.0772   -0.0064    0.0360    0.0882    0.0598   -0.0080   -0.0087
          42   -0.0227    0.0046   -0.0352    0.0150    0.0133   -0.0178   -0.0040    0.0139
          43   -0.0665   -0.0460    0.0345   -0.0020   -0.0010   -0.0002   -0.0622    0.0244
          44   -0.0064   -0.0405    0.0452    0.0089   -0.0282   -0.0017   -0.0340   -0.0187
          45    0.0144    0.0212   -0.0146   -0.0236    0.0135   -0.0075    0.0098   -0.0254
          46   -0.0734    0.0344   -0.0349    0.0055   -0.0001    0.0012   -0.0581   -0.0332
          47    0.0091    0.0035   -0.0125   -0.0141    0.0018   -0.0073   -0.0112    0.0305
          48   -0.0203    0.0426   -0.0417    0.0285    0.0306    0.0009   -0.0352   -0.0010
          49    0.0365   -0.0181   -0.0051   -0.0114    0.0228   -0.0338   -0.0108   -0.0365
          50   -0.0393    0.0514   -0.0352    0.0275   -0.0466    0.0670    0.0754    0.0749
          51   -0.0032   -0.0040   -0.0022   -0.0557    0.0416   -0.0054   -0.0150   -0.0310
          52   -0.0173   -0.0440   -0.0408   -0.0624    0.0772    0.0796   -0.0569    0.0624
          53   -0.0234    0.0020    0.0068   -0.0338    0.0228    0.0218   -0.0081    0.0204
          54   -0.0072    0.0376   -0.0264   -0.0038   -0.0104    0.0054    0.0378    0.0148
          55    0.0285   -0.0131    0.0460    0.0101    0.0111   -0.0254   -0.0040    0.0408
          56    0.0084    0.0013   -0.0718    0.0774   -0.0263    0.0178   -0.0839   -0.0669
          57    0.0041    0.0229    0.0437   -0.0307    0.0011   -0.0269    0.0222    0.0309
          58   -0.0249    0.0421    0.0279   -0.0676   -0.0721    0.0847   -0.0488   -0.0681
          59   -0.0122   -0.0355    0.0145   -0.0239   -0.0007    0.0152    0.0305   -0.0202
          60   -0.0192    0.0146   -0.0244   -0.0235   -0.0241    0.0182   -0.0245   -0.0130
          61    0.0263    0.0172   -0.0438    0.0185   -0.0130   -0.0243   -0.0001   -0.0421
          62    0.0110   -0.0193   -0.0002    0.0114    0.0106   -0.0151   -0.0226    0.0034
          63    0.0028    0.0090    0.1028    0.0669    0.0242    0.0275   -0.0897    0.0668
          64    0.0331    0.0242    0.0024   -0.0118   -0.0252   -0.0326   -0.0144    0.0348
          65   -0.0183   -0.0244    0.0121   -0.0382   -0.0106    0.0290    0.0250   -0.0069
          66   -0.0250   -0.0531    0.0409    0.0450    0.0667    0.0569    0.0805   -0.0716


   Root No.       9        10        11        12        13        14        15        16

                 9 A      10 A      11 A      12 A      13 A      14 A      15 A      16 A   

                 442.1     492.0     569.0     623.6     627.8     702.5     769.6     806.7
  
           1   -0.0038   -0.0162   -0.0214    0.0046    0.0016    0.0039   -0.0062    0.0081
           2    0.0129   -0.0195    0.0001    0.0035   -0.0157    0.0078   -0.0017    0.0017
           3    0.0179    0.0076    0.0053    0.0022   -0.0021    0.0050    0.0105   -0.0041
           4    0.0034   -0.0162   -0.0215   -0.0044   -0.0015    0.0038    0.0066    0.0072
           5   -0.0221   -0.0030    0.0050   -0.0038    0.0093    0.0084   -0.0084   -0.0031
           6   -0.0021   -0.0205   -0.0020   -0.0020    0.0125    0.0044    0.0068    0.0035
           7   -0.0458    0.0237    0.0200    0.0174    0.0137   -0.0094   -0.0137   -0.0140
           8    0.0028   -0.0013    0.0132    0.0058   -0.0112   -0.0016    0.0028   -0.0053
           9    0.0037   -0.0202    0.0285    0.0195   -0.0256    0.0145    0.0127   -0.0086
          10    0.0461    0.0237    0.0193   -0.0175   -0.0138   -0.0098    0.0131   -0.0167
          11   -0.0042   -0.0178    0.0318   -0.0202    0.0266    0.0123   -0.0129   -0.0098
          12   -0.0005    0.0089   -0.0025    0.0048   -0.0026   -0.0087    0.0040   -0.0010
          13    0.0104   -0.0195   -0.0081    0.0016   -0.0174    0.0065   -0.0146   -0.0164
          14    0.0252    0.0059   -0.0280   -0.0173    0.0228   -0.0222   -0.0046    0.0079
          15   -0.0052    0.0003    0.0135    0.0088    0.0069   -0.0049    0.0032    0.0019
          16   -0.0106   -0.0201   -0.0073   -0.0020    0.0173    0.0066    0.0142   -0.0195
          17   -0.0079    0.0035   -0.0025    0.0012   -0.0169   -0.0156   -0.0004    0.0069
          18   -0.0248    0.0046   -0.0309    0.0198   -0.0153   -0.0172    0.0059    0.0058
          19    0.0164   -0.0066    0.0100    0.0253    0.0190   -0.0236   -0.0105    0.0076
          20    0.0098    0.0077    0.0080    0.0221    0.0088    0.0001    0.0098   -0.0130
          21    0.0011    0.0026   -0.0069   -0.0135    0.0148   -0.0149   -0.0100    0.0138
          22    0.0089    0.0129    0.0062    0.0183    0.0008    0.0089   -0.0043    0.0065
          23   -0.0126   -0.0032   -0.0140   -0.0192    0.0072    0.0028    0.0100   -0.0130
          24   -0.0062    0.0271   -0.0169   -0.0218   -0.0088    0.0259   -0.0094    0.0105
          25   -0.0088    0.0126    0.0064   -0.0184   -0.0008    0.0084    0.0048    0.0083
          26    0.0116    0.0217   -0.0214    0.0282    0.0048    0.0243    0.0043    0.0008
          27    0.0081   -0.0148   -0.0047    0.0061   -0.0107   -0.0098   -0.0145   -0.0172
          28   -0.0160   -0.0060    0.0098   -0.0250   -0.0190   -0.0245    0.0102    0.0109
          29   -0.0059    0.0063   -0.0025    0.0011   -0.0170   -0.0132    0.0039    0.0062
          30   -0.0088    0.0051    0.0098   -0.0261   -0.0011    0.0073   -0.0144   -0.0183
          31    0.0191    0.0046   -0.0318   -0.0111    0.0002   -0.0030   -0.0226    0.0123
          32    0.0334    0.0324   -0.0148   -0.0251    0.0211   -0.0336   -0.0364    0.0101
          33    0.0410    0.0483   -0.0085   -0.0224    0.0205   -0.0238   -0.0186    0.0028
          34   -0.0170   -0.0461   -0.0314    0.0037    0.0056    0.0231    0.0110    0.0202
          35   -0.0111   -0.0584    0.0307    0.0410   -0.0556    0.0392    0.0322   -0.0168
          36    0.0406    0.0485   -0.0096   -0.0229    0.0225   -0.0250   -0.0195    0.0025
          37    0.0163   -0.0462   -0.0318   -0.0036   -0.0057    0.0231   -0.0099    0.0193
          38   -0.0298    0.0133    0.0074   -0.0005    0.0079   -0.0022    0.0005   -0.0063
          39    0.0307   -0.0744    0.0325   -0.0480    0.0573    0.0479   -0.0384   -0.0185
          40   -0.0201    0.0047   -0.0315    0.0115    0.0003   -0.0033    0.0232    0.0135
          41   -0.0525    0.0580   -0.0145    0.0326   -0.0267   -0.0382    0.0343    0.0088
          42   -0.0084    0.0042   -0.0083    0.0110   -0.0075   -0.0177    0.0226    0.0074
          43   -0.1320    0.0955    0.0668   -0.0104    0.0356    0.0231    0.0727    0.0613
          44   -0.0179    0.0202    0.0341   -0.0021   -0.0249    0.0265    0.0411    0.0139
          45    0.0108   -0.0274    0.0195    0.0222   -0.0170    0.0015   -0.0029   -0.0153
          46    0.1332    0.0956    0.0648    0.0105   -0.0359    0.0237   -0.0711    0.0784
          47   -0.0002   -0.0134    0.0343   -0.0187    0.0259    0.0148   -0.0182   -0.0050
          48    0.0215    0.0313    0.0202    0.0130    0.0130    0.0233   -0.0368    0.0251
          49    0.0178    0.0078   -0.0133    0.0153    0.0496   -0.0238    0.0192   -0.0189
          50   -0.0094   -0.0131    0.0849    0.0546   -0.0867    0.0276   -0.0665    0.0792
          51    0.0230   -0.0116   -0.0448   -0.0289    0.0536   -0.0508    0.0052   -0.0340
          52    0.0197   -0.0218   -0.0523   -0.0894   -0.0684    0.1046    0.0826    0.0701
          53    0.0293    0.0035   -0.0438   -0.0520    0.0012    0.0151    0.0321    0.0416
          54   -0.0131    0.0178    0.0140    0.0306    0.0375   -0.0173   -0.0043   -0.0241
          55    0.0237    0.0307   -0.0179    0.0514   -0.0029    0.0496    0.0178   -0.0538
          56   -0.0560   -0.0613    0.0261   -0.0813   -0.0599   -0.0602   -0.0850    0.0938
          57    0.0117    0.0496   -0.0321    0.0025    0.0201    0.0490    0.0287   -0.0303
          58   -0.0203   -0.0237   -0.0504    0.0883    0.0682    0.1075   -0.0788    0.0804
          59   -0.0037    0.0173   -0.0108   -0.0004   -0.0327   -0.0077   -0.0126    0.0014
          60   -0.0320   -0.0065   -0.0438    0.0603    0.0185    0.0224   -0.0275    0.0535
          61   -0.0240    0.0294   -0.0175   -0.0518    0.0029    0.0486   -0.0187   -0.0518
          62    0.0177    0.0126   -0.0145    0.0379    0.0129    0.0133    0.0186    0.0187
          63    0.0569   -0.0775    0.0413    0.0729    0.0629   -0.0760    0.0908    0.1000
          64   -0.0172    0.0093   -0.0146   -0.0146   -0.0485   -0.0242   -0.0204   -0.0162
          65   -0.0158   -0.0167    0.0032   -0.0017   -0.0041   -0.0311    0.0280    0.0081
          66    0.0189   -0.0087    0.0991   -0.0632    0.0985    0.0475    0.0648    0.0933


   Root No.      17        18        19        20        21        22        23        24

                17 A      18 A      19 A      20 A      21 A      22 A      23 A      24 A   

                 821.0     826.2     842.4     968.8     976.7     983.0     985.2     999.6
  
           1   -0.0026    0.0054   -0.0098   -0.0051    0.0004    0.0084   -0.0034   -0.0033
           2    0.0019    0.0001   -0.0161   -0.0038    0.0048    0.0002   -0.0069    0.0219
           3   -0.0119    0.0043    0.0278   -0.0006   -0.0224    0.0031    0.0132   -0.0051
           4    0.0038    0.0055    0.0099    0.0047    0.0011   -0.0091   -0.0018   -0.0033
           5    0.0091    0.0029   -0.0162    0.0033   -0.0167   -0.0024    0.0084    0.0062
           6   -0.0072   -0.0011    0.0279    0.0021    0.0151   -0.0002   -0.0129    0.0213
           7   -0.0166   -0.0140   -0.0047   -0.0082    0.0146    0.0304    0.0131   -0.0065
           8   -0.0056   -0.0056    0.0085    0.0009    0.0090    0.0060    0.0048   -0.0162
           9    0.0028    0.0072   -0.0095   -0.0030    0.0080   -0.0089   -0.0007   -0.0047
          10    0.0142   -0.0146    0.0045    0.0099    0.0171   -0.0243    0.0187   -0.0060
          11   -0.0006    0.0034    0.0039    0.0023    0.0111    0.0064    0.0003   -0.0123
          12    0.0058   -0.0089   -0.0120   -0.0019    0.0047   -0.0077    0.0068   -0.0114
          13   -0.0183   -0.0202   -0.0096    0.0066   -0.0172   -0.0302   -0.0064    0.0131
          14    0.0005    0.0017    0.0213    0.0003   -0.0093   -0.0064    0.0026   -0.0208
          15    0.0085    0.0090   -0.0054   -0.0058    0.0102    0.0068   -0.0003   -0.0011
          16    0.0151   -0.0207    0.0093   -0.0072   -0.0197    0.0258   -0.0125    0.0126
          17   -0.0064    0.0089   -0.0058    0.0049    0.0047   -0.0022    0.0012   -0.0112
          18    0.0043   -0.0036   -0.0211   -0.0033   -0.0137    0.0075    0.0007   -0.0175
          19    0.0260    0.0092    0.0127    0.0037    0.0015    0.0094   -0.0128   -0.0024
          20   -0.0018    0.0176   -0.0049   -0.0205   -0.0011   -0.0047    0.0154    0.0150
          21    0.0076   -0.0079    0.0059    0.0154   -0.0021    0.0059   -0.0123   -0.0005
          22    0.0132   -0.0042    0.0071   -0.0131   -0.0011    0.0037    0.0106    0.0041
          23   -0.0129    0.0039   -0.0093    0.0185    0.0019    0.0058   -0.0217   -0.0083
          24   -0.0061   -0.0295    0.0025   -0.0065   -0.0091    0.0002    0.0136    0.0111
          25   -0.0125   -0.0034   -0.0069    0.0147   -0.0010   -0.0005    0.0095    0.0037
          26    0.0105   -0.0244    0.0026   -0.0032   -0.0068   -0.0032    0.0018    0.0056
          27    0.0071    0.0174    0.0089   -0.0231    0.0069   -0.0122   -0.0213   -0.0120
          28   -0.0242    0.0107   -0.0124   -0.0056    0.0023   -0.0129   -0.0097   -0.0020
          29   -0.0048    0.0022   -0.0025   -0.0036   -0.0023   -0.0037   -0.0020    0.0071
          30    0.0041    0.0189    0.0064    0.0283   -0.0009    0.0128    0.0142    0.0124
          31    0.0376    0.0120   -0.1014   -0.0161   -0.0023   -0.0173    0.0120   -0.0911
          32    0.0310   -0.0260   -0.0680    0.0030    0.0886    0.0060   -0.0592    0.1052
          33    0.0241   -0.0090   -0.0456   -0.0016    0.0279   -0.0046   -0.0120    0.0078
          34   -0.0201    0.0191    0.0602    0.0096   -0.0373    0.0094   -0.0131    0.0393
          35   -0.0393    0.0116    0.0449   -0.0137   -0.0441    0.0106    0.0382   -0.0257
          36    0.0243   -0.0096   -0.0449   -0.0007    0.0283   -0.0050   -0.0121    0.0068
          37    0.0230    0.0170   -0.0595   -0.0105   -0.0360   -0.0164   -0.0087    0.0395
          38   -0.0024   -0.0023    0.0164    0.0082    0.0026    0.0015    0.0074   -0.0071
          39    0.0446    0.0114   -0.0624    0.0150   -0.0517   -0.0069    0.0398   -0.0264
          40   -0.0354    0.0155    0.1015    0.0155   -0.0039    0.0186    0.0052   -0.0906
          41   -0.0360   -0.0174    0.0740   -0.0028    0.0681   -0.0016   -0.0390    0.0585
          42   -0.0148   -0.0164    0.0370   -0.0062    0.0637   -0.0116   -0.0419    0.0868
          43    0.1145    0.1070    0.0078    0.0224   -0.0709   -0.1264   -0.0511    0.0277
          44    0.0243    0.0289    0.0294    0.0256   -0.0540   -0.0585   -0.0085    0.0065
          45   -0.0066   -0.0046   -0.0200   -0.0149    0.0372    0.0172    0.0034   -0.0142
          46   -0.1004    0.1116   -0.0073   -0.0290   -0.0806    0.0999   -0.0754    0.0256
          47   -0.0063    0.0103    0.0026    0.0000    0.0046    0.0138   -0.0046   -0.0094
          48   -0.0206    0.0280   -0.0355   -0.0321   -0.0709    0.0482   -0.0193    0.0120
          49    0.0099    0.0504    0.0027   -0.0551    0.0093    0.0186    0.0336    0.0117
          50    0.0694   -0.1009    0.0333    0.1162   -0.0012    0.0238   -0.0963   -0.0467
          51   -0.0411    0.0317   -0.0161    0.0007   -0.0250   -0.0598    0.0022    0.0422
          52    0.0631    0.0654   -0.0263   -0.0410    0.0930    0.1333    0.0253    0.0012
          53    0.0317    0.0327    0.0173   -0.0141    0.0317    0.0548    0.0128   -0.0306
          54   -0.0105    0.0170   -0.0280   -0.0498    0.0005   -0.0076    0.0263    0.0613
          55    0.0024    0.0171   -0.0082   -0.0404    0.0191   -0.0041   -0.0336   -0.0464
          56    0.0475   -0.0425    0.0666   -0.1175   -0.0202   -0.0204    0.1051    0.0380
          57   -0.0309   -0.0119   -0.0284    0.0533   -0.0016    0.0115   -0.0371   -0.0043
          58   -0.0515    0.0678    0.0273    0.0451    0.1037   -0.1116    0.0505    0.0026
          59   -0.0054    0.0315    0.0151    0.0549    0.0175   -0.0099    0.0273    0.0365
          60   -0.0256    0.0206   -0.0278   -0.0136    0.0319   -0.0478    0.0116   -0.0550
          61   -0.0089    0.0173    0.0060    0.0356    0.0195   -0.0062   -0.0380   -0.0477
          62    0.0042   -0.0314   -0.0075    0.0148   -0.0118    0.0051    0.0173    0.0145
          63   -0.0452   -0.0276   -0.0686    0.1437   -0.0201    0.0536    0.0853    0.0307
          64   -0.0096    0.0503   -0.0039    0.0594    0.0100   -0.0073    0.0301    0.0102
          65    0.0017   -0.0216   -0.0017   -0.0636   -0.0252    0.0239   -0.0459    0.0150
          66   -0.0746   -0.0978   -0.0329   -0.1133    0.0171   -0.0735   -0.0593   -0.0572


   Root No.      25        26        27        28        29        30        31        32

                25 A      26 A      27 A      28 A      29 A      30 A      31 A      32 A   

                1030.7    1041.5    1057.0    1057.2    1071.8    1088.1    1116.6    1122.7
  
           1   -0.0065   -0.0064    0.0112   -0.0017   -0.0229    0.0158    0.0533    0.0015
           2    0.0019   -0.0111    0.0134    0.0073    0.0035    0.0215    0.0077    0.0085
           3    0.0271    0.0000    0.0028    0.0131   -0.0133    0.0108    0.0049   -0.0082
           4   -0.0064    0.0064   -0.0105   -0.0042    0.0230   -0.0157   -0.0534    0.0002
           5    0.0247    0.0053   -0.0123    0.0125    0.0095   -0.0201   -0.0081   -0.0031
           6   -0.0117    0.0099   -0.0101   -0.0026   -0.0099   -0.0133   -0.0050    0.0114
           7    0.0173    0.0050   -0.0003    0.0013   -0.0040   -0.0083   -0.0055   -0.0014
           8   -0.0087    0.0094   -0.0091   -0.0080    0.0026   -0.0174    0.0050   -0.0047
           9   -0.0206    0.0123   -0.0110   -0.0027    0.0089   -0.0126    0.0090   -0.0093
          10    0.0171   -0.0049   -0.0000    0.0014    0.0040    0.0085    0.0056   -0.0012
          11   -0.0224   -0.0153    0.0152   -0.0030   -0.0086    0.0195   -0.0095   -0.0107
          12    0.0024   -0.0021    0.0037   -0.0048    0.0023    0.0090    0.0001    0.0005
          13   -0.0147   -0.0111   -0.0082    0.0005    0.0058    0.0079    0.0015   -0.0021
          14   -0.0091    0.0276   -0.0166    0.0172   -0.0090    0.0086    0.0034   -0.0062
          15   -0.0014    0.0147   -0.0032    0.0098    0.0053    0.0020    0.0026   -0.0027
          16   -0.0142    0.0110    0.0078    0.0021   -0.0058   -0.0082   -0.0014   -0.0021
          17   -0.0057   -0.0263    0.0067    0.0188   -0.0002   -0.0063   -0.0036   -0.0053
          18   -0.0071   -0.0168    0.0102    0.0126    0.0105   -0.0067   -0.0015   -0.0040
          19    0.0163   -0.0240    0.0021   -0.0087   -0.0029    0.0001   -0.0036    0.0028
          20   -0.0025   -0.0248    0.0080   -0.0186    0.0013   -0.0176    0.0030   -0.0051
          21    0.0149   -0.0145    0.0051   -0.0066   -0.0030    0.0019   -0.0021    0.0029
          22   -0.0064   -0.0130   -0.0064   -0.0000    0.0007    0.0000   -0.0004    0.0017
          23    0.0114   -0.0167   -0.0219   -0.0062    0.0013    0.0123    0.0021   -0.0001
          24   -0.0080   -0.0347   -0.0134   -0.0078    0.0005    0.0016   -0.0001   -0.0012
          25   -0.0061    0.0131    0.0063    0.0012   -0.0006   -0.0001    0.0004    0.0017
          26   -0.0011    0.0383    0.0243   -0.0053   -0.0010   -0.0074   -0.0009   -0.0012
          27    0.0135   -0.0028    0.0123    0.0009   -0.0010   -0.0096   -0.0020    0.0006
          28    0.0161    0.0239   -0.0001   -0.0091    0.0028    0.0004    0.0033    0.0028
          29    0.0116    0.0247   -0.0048   -0.0162    0.0020    0.0074    0.0003   -0.0001
          30   -0.0092    0.0144   -0.0012   -0.0132   -0.0024    0.0163   -0.0032   -0.0061
          31   -0.0824    0.0166   -0.0194   -0.0513   -0.2033   -0.0091    0.0177    0.0613
          32   -0.0288   -0.0190    0.0247    0.0092    0.1595    0.0164    0.0257   -0.0010
          33   -0.0242    0.0069   -0.0051   -0.0065    0.0005   -0.0043    0.0002    0.0100
          34    0.0517   -0.0111    0.0115    0.0415    0.0435    0.0092    0.2026   -0.0916
          35    0.0359   -0.0284    0.0387    0.0054   -0.0626    0.0713   -0.0754    0.0692
          36   -0.0230    0.0142   -0.0144   -0.0055    0.0001   -0.0188   -0.0091   -0.0040
          37    0.0505    0.0104   -0.0210    0.0374   -0.0446   -0.0106   -0.1974   -0.0968
          38   -0.0014    0.0019   -0.0060   -0.0034    0.0310   -0.0187    0.0434    0.0320
          39    0.0441    0.0313   -0.0409   -0.0019    0.0545   -0.0700    0.0569    0.0636
          40   -0.0813   -0.0166    0.0312   -0.0444    0.2050    0.0102   -0.0205    0.0615
          41   -0.0358    0.0045   -0.0078   -0.0035   -0.0798   -0.0050   -0.0130    0.0080
          42   -0.0137    0.0209   -0.0265    0.0045   -0.1391   -0.0172   -0.0217   -0.0064
          43   -0.0588    0.0104   -0.0099    0.0239    0.0020    0.0336    0.0340   -0.0151
          44    0.0059   -0.0825    0.0337   -0.0585   -0.0259   -0.0080   -0.0157    0.0479
          45   -0.0321    0.0610   -0.0339    0.0254    0.0254   -0.0152    0.0222   -0.0373
          46   -0.0579   -0.0113    0.0044    0.0256   -0.0027   -0.0345   -0.0335   -0.0165
          47   -0.0250   -0.0121    0.0140   -0.0039   -0.0088    0.0170   -0.0108   -0.0090
          48    0.0217    0.1015   -0.0303   -0.0716    0.0360    0.0014    0.0218    0.0612
          49   -0.0043   -0.0676   -0.0491   -0.0119    0.0045    0.0070   -0.0059   -0.0312
          50    0.0445    0.0317    0.0209    0.0116   -0.0123    0.0160   -0.0041    0.0256
          51    0.0122    0.0317    0.1360   -0.0386   -0.0059   -0.0634    0.0152    0.0621
          52    0.0525   -0.0054    0.0400   -0.0033    0.0069    0.0015   -0.0080    0.0237
          53    0.0146    0.0279   -0.0016    0.0084   -0.0109   -0.0047    0.0056   -0.0045
          54    0.0104    0.0487    0.0312    0.1127    0.0289    0.1503   -0.0736    0.1050
          55   -0.0338    0.0376   -0.1026    0.0916    0.0255    0.0551    0.0452    0.0341
          56   -0.0531    0.0006   -0.0013    0.0226    0.0044   -0.0065    0.0081    0.0078
          57    0.0217   -0.0473   -0.0147   -0.0277   -0.0027    0.0052   -0.0060   -0.0066
          58    0.0512    0.0063   -0.0378   -0.0122   -0.0070   -0.0004    0.0065    0.0236
          59    0.0178   -0.0543   -0.0490    0.0917   -0.0214   -0.1294    0.0559    0.0917
          60    0.0058   -0.0009    0.0278   -0.0425    0.0249    0.0795   -0.0381   -0.0578
          61   -0.0325   -0.0373    0.0788    0.1096   -0.0263   -0.0577   -0.0456    0.0339
          62   -0.0069    0.0409    0.0163   -0.0101    0.0003   -0.0013    0.0013   -0.0020
          63   -0.0541   -0.0225   -0.0130    0.0308   -0.0049    0.0066   -0.0096    0.0100
          64   -0.0033    0.0677    0.0510   -0.0020   -0.0041   -0.0073    0.0072   -0.0313
          65    0.0312   -0.0437   -0.1195   -0.0521    0.0107    0.0490   -0.0140    0.0664
          66    0.0310   -0.0124    0.0403    0.0372    0.0072   -0.0448    0.0109   -0.0080


   Root No.      33        34        35        36        37        38        39        40

                33 A      34 A      35 A      36 A      37 A      38 A      39 A      40 A   

                1129.4    1142.2    1173.8    1180.9    1211.9    1267.6    1278.7    1378.1
  
           1    0.0001    0.0048    0.0040    0.0017   -0.0104   -0.0160   -0.0253    0.0488
           2   -0.0063    0.0019    0.0135   -0.0157    0.0012    0.0067    0.0262   -0.0268
           3    0.0032    0.0020    0.0104   -0.0086   -0.0035    0.0049   -0.0054   -0.0067
           4    0.0004   -0.0048   -0.0038    0.0020   -0.0103    0.0159   -0.0253   -0.0477
           5   -0.0003   -0.0028   -0.0163   -0.0146   -0.0027   -0.0075    0.0083    0.0192
           6   -0.0070   -0.0008   -0.0071   -0.0091    0.0026   -0.0031    0.0254    0.0199
           7    0.0032   -0.0030   -0.0010   -0.0018   -0.0008   -0.0042    0.0063   -0.0092
           8    0.0029    0.0033   -0.0160    0.0087    0.0173    0.0217   -0.0053    0.0137
           9    0.0027    0.0053   -0.0077    0.0087    0.0033   -0.0036   -0.0138    0.0112
          10    0.0032    0.0031    0.0010   -0.0017   -0.0007    0.0042    0.0063    0.0086
          11    0.0039   -0.0061    0.0151    0.0113    0.0116   -0.0078   -0.0144   -0.0161
          12    0.0012   -0.0002    0.0100    0.0027    0.0134   -0.0207    0.0024   -0.0052
          13   -0.0091    0.0063   -0.0003    0.0025   -0.0034   -0.0024    0.0044   -0.0035
          14   -0.0047    0.0073   -0.0002    0.0020   -0.0022   -0.0116   -0.0153    0.0064
          15    0.0018   -0.0011   -0.0015    0.0057   -0.0088   -0.0217   -0.0030   -0.0092
          16   -0.0091   -0.0064    0.0004    0.0025   -0.0035    0.0025    0.0043    0.0036
          17   -0.0008   -0.0026    0.0019    0.0060   -0.0086    0.0246   -0.0104    0.0032
          18   -0.0049   -0.0070   -0.0006   -0.0010    0.0024   -0.0007   -0.0118   -0.0102
          19   -0.0041   -0.0036    0.0011   -0.0006    0.0008    0.0120    0.0060    0.0065
          20    0.0059   -0.0019    0.0054   -0.0003   -0.0072    0.0006    0.0131   -0.0059
          21   -0.0007   -0.0080   -0.0005    0.0059   -0.0107   -0.0040    0.0212   -0.0166
          22    0.0047   -0.0008    0.0011   -0.0057    0.0103    0.0118   -0.0164    0.0176
          23   -0.0084   -0.0158    0.0016   -0.0034    0.0064    0.0112   -0.0070    0.0110
          24    0.0004   -0.0031    0.0035   -0.0018   -0.0001    0.0145    0.0030    0.0117
          25    0.0047    0.0008   -0.0015   -0.0057    0.0102   -0.0120   -0.0162   -0.0185
          26   -0.0039    0.0105   -0.0041   -0.0032    0.0030   -0.0182   -0.0006   -0.0154
          27   -0.0075    0.0120    0.0001   -0.0021    0.0057   -0.0026   -0.0076   -0.0042
          28   -0.0040    0.0034   -0.0012   -0.0006    0.0007   -0.0120    0.0061   -0.0059
          29    0.0022    0.0081   -0.0019    0.0050   -0.0129    0.0034    0.0248    0.0185
          30    0.0054   -0.0022   -0.0050   -0.0029   -0.0011   -0.0024    0.0010   -0.0030
          31   -0.0310   -0.0004   -0.0294   -0.0134    0.0505    0.0274    0.1133   -0.0887
          32    0.0003    0.0028    0.0209    0.0004   -0.0471   -0.0543   -0.0438   -0.0006
          33   -0.0056    0.0007    0.0008   -0.0060   -0.0053   -0.0109    0.0107   -0.0413
          34    0.0389    0.0284   -0.0549    0.0609    0.0740    0.0440    0.0617   -0.1315
          35   -0.0310   -0.0131    0.0829   -0.0769   -0.0758   -0.0475   -0.0274   -0.0059
          36    0.0008    0.0013   -0.0074    0.0020    0.0066    0.0124   -0.0092    0.0524
          37    0.0403   -0.0273    0.0576    0.0589    0.0743   -0.0440    0.0621    0.1271
          38   -0.0150    0.0049   -0.0362   -0.0350   -0.0321    0.0129   -0.0217   -0.0406
          39   -0.0277    0.0110   -0.0781   -0.0644   -0.0693    0.0476   -0.0198    0.0253
          40   -0.0312   -0.0004    0.0273   -0.0152    0.0506   -0.0267    0.1135    0.0843
          41   -0.0047   -0.0018   -0.0111   -0.0044   -0.0283    0.0367   -0.0130    0.0298
          42    0.0032   -0.0018   -0.0171    0.0045   -0.0385    0.0417   -0.0439   -0.0219
          43   -0.0092    0.0234    0.0681   -0.0700    0.0061    0.0336    0.0041    0.0069
          44    0.0054   -0.0435   -0.1414    0.1610   -0.0255   -0.0826   -0.0311    0.0117
          45    0.0007    0.0313    0.0589   -0.0720    0.0262    0.0518   -0.0024    0.0141
          46   -0.0088   -0.0243   -0.0719   -0.0674    0.0053   -0.0334    0.0044   -0.0055
          47    0.0034   -0.0054    0.0197    0.0165    0.0103   -0.0043   -0.0174   -0.0177
          48    0.0034    0.0544    0.1600    0.1680   -0.0330    0.0963   -0.0265   -0.0059
          49   -0.0643    0.0467   -0.0029    0.0236   -0.0337   -0.0161    0.0392   -0.0199
          50    0.0263   -0.0337   -0.0006   -0.0097    0.0156    0.0181   -0.0087    0.0114
          51    0.1504   -0.1175    0.0201   -0.0520    0.0589    0.0590   -0.0436    0.0399
          52    0.0059   -0.0104   -0.0145    0.0038    0.0139    0.0189    0.0031    0.0062
          53    0.0062   -0.0007    0.0014    0.0002   -0.0021   -0.0116   -0.0161    0.0084
          54   -0.0720    0.0235   -0.1133    0.0542    0.0816    0.0778   -0.0214    0.0338
          55    0.1207   -0.1981    0.0073    0.0415   -0.0679   -0.0110    0.0755   -0.0277
          56    0.0434   -0.0305    0.0018    0.0106   -0.0185    0.0017    0.0206   -0.0000
          57   -0.0295    0.0165    0.0033   -0.0115    0.0165    0.0217   -0.0150    0.0208
          58    0.0057    0.0103    0.0142    0.0029    0.0140   -0.0191    0.0034   -0.0054
          59   -0.0602   -0.0215    0.0985    0.0425    0.0705   -0.0627   -0.0260   -0.0318
          60    0.0417    0.0131   -0.0577   -0.0238   -0.0426    0.0490   -0.0038    0.0076
          61    0.1182    0.2004   -0.0042    0.0408   -0.0675    0.0118    0.0751    0.0301
          62   -0.0043    0.0006   -0.0041   -0.0048    0.0051   -0.0198   -0.0027   -0.0179
          63    0.0512    0.0356    0.0013    0.0146   -0.0238    0.0094    0.0250    0.0111
          64   -0.0640   -0.0472    0.0045    0.0238   -0.0339    0.0165    0.0391    0.0215
          65    0.1427    0.1199   -0.0206   -0.0502    0.0588   -0.0608   -0.0416   -0.0411
          66   -0.0507   -0.0294    0.0115    0.0168   -0.0151    0.0135    0.0135    0.0103


   Root No.      41        42        43        44        45        46        47        48

                41 A      42 A      43 A      44 A      45 A      46 A      47 A      48 A   

                1379.1    1405.6    1426.9    1465.5    1840.3    1875.9    1914.8    1941.2
  
           1   -0.0171    0.0072   -0.0022   -0.0144    0.0049   -0.0047    0.0051   -0.0017
           2    0.0006    0.0292    0.0342    0.0292   -0.0101    0.0128   -0.0118    0.0063
           3   -0.0018    0.0023   -0.0046    0.0017    0.0027   -0.0033    0.0035   -0.0018
           4   -0.0192   -0.0072   -0.0021    0.0144    0.0049    0.0047    0.0051    0.0017
           5   -0.0004   -0.0165    0.0129   -0.0160   -0.0026   -0.0035   -0.0028   -0.0016
           6    0.0023   -0.0242    0.0320   -0.0245   -0.0101   -0.0128   -0.0120   -0.0063
           7    0.0097   -0.0011    0.0104    0.0127   -0.0224    0.0315   -0.0284    0.0162
           8   -0.0200   -0.0036   -0.0243   -0.0287    0.0392   -0.0564    0.0519   -0.0306
           9    0.0038   -0.0078   -0.0013    0.0051   -0.0452    0.0674   -0.0626    0.0376
          10    0.0100    0.0011    0.0104   -0.0126   -0.0224   -0.0315   -0.0285   -0.0161
          11   -0.0074    0.0085   -0.0131    0.0098   -0.0198   -0.0306   -0.0287   -0.0174
          12   -0.0195   -0.0007   -0.0205    0.0274    0.0564    0.0825    0.0763    0.0449
          13   -0.0014    0.0036    0.0007   -0.0026    0.0186   -0.0255    0.0207   -0.0107
          14    0.0123   -0.0068    0.0089    0.0167   -0.0264    0.0337   -0.0252    0.0118
          15    0.0218    0.0007    0.0244    0.0290    0.0398   -0.0789    0.0928   -0.0654
          16   -0.0011   -0.0036    0.0007    0.0026    0.0186    0.0255    0.0208    0.0107
          17    0.0252    0.0028    0.0257   -0.0335    0.0214    0.0517    0.0682    0.0507
          18   -0.0005    0.0062   -0.0044   -0.0002   -0.0427   -0.0684   -0.0680   -0.0424
          19   -0.0081   -0.0043   -0.0078    0.0015   -0.0630    0.0349    0.0398   -0.0646
          20   -0.0092    0.0061   -0.0073   -0.0146    0.0039    0.0006   -0.0082    0.0097
          21   -0.0162    0.0169   -0.0124   -0.0375    0.0590   -0.0189   -0.0623    0.0808
          22    0.0135   -0.0175    0.0111    0.0362    0.0653   -0.0581   -0.0412    0.1014
          23    0.0035   -0.0096    0.0022    0.0161    0.0049   -0.0079   -0.0038    0.0139
          24   -0.0050   -0.0090   -0.0050    0.0111   -0.0476    0.0215    0.0313   -0.0417
          25    0.0127    0.0175    0.0111   -0.0361    0.0652    0.0582   -0.0416   -0.1012
          26   -0.0033    0.0125   -0.0033   -0.0176   -0.0390   -0.0148    0.0255    0.0293
          27    0.0054    0.0039    0.0045   -0.0086    0.0277    0.0176   -0.0189   -0.0326
          28   -0.0084    0.0043   -0.0079   -0.0016   -0.0630   -0.0350    0.0400    0.0644
          29   -0.0178   -0.0178   -0.0144    0.0399    0.0532    0.0163   -0.0584   -0.0748
          30   -0.0002    0.0030   -0.0002   -0.0058   -0.0257   -0.0099    0.0237    0.0315
          31    0.0712   -0.0697   -0.0174   -0.0081    0.0003   -0.0068    0.0018   -0.0041
          32    0.0701   -0.1113   -0.0883   -0.0385   -0.0082    0.0139   -0.0121    0.0079
          33    0.0671   -0.0994   -0.0723   -0.0322    0.0000   -0.0023   -0.0004   -0.0011
          34    0.0739   -0.0509   -0.0583    0.0230   -0.0022    0.0104   -0.0018    0.0041
          35    0.0593   -0.1057   -0.0811   -0.0476    0.0087   -0.0144    0.0095   -0.0069
          36   -0.0705    0.0992    0.0831    0.0294   -0.0068    0.0063   -0.0076    0.0029
          37    0.0797    0.0511   -0.0585   -0.0232   -0.0021   -0.0104   -0.0018   -0.0041
          38   -0.0336   -0.0338    0.0320   -0.0019   -0.0017    0.0017   -0.0019    0.0009
          39    0.0875    0.1410   -0.1116    0.0558    0.0109    0.0157    0.0121    0.0075
          40    0.0748    0.0697   -0.0173    0.0081    0.0003    0.0068    0.0018    0.0040
          41    0.0944    0.1417   -0.1066    0.0470   -0.0041   -0.0048   -0.0064   -0.0029
          42    0.0267    0.0474   -0.0409    0.0174   -0.0071   -0.0132   -0.0104   -0.0074
          43   -0.0217    0.0033   -0.0173   -0.0192    0.0054   -0.0087    0.0096   -0.0068
          44    0.0353   -0.0054    0.0341    0.0378   -0.0313    0.0400   -0.0306    0.0154
          45   -0.0256   -0.0079   -0.0330   -0.0296   -0.0191    0.0335   -0.0350    0.0229
          46   -0.0219   -0.0033   -0.0173    0.0191    0.0053    0.0085    0.0096    0.0067
          47   -0.0055    0.0095   -0.0118    0.0070   -0.0321   -0.0489   -0.0456   -0.0273
          48    0.0428    0.0007    0.0459   -0.0474   -0.0177   -0.0182   -0.0092   -0.0020
          49   -0.0228    0.0189   -0.0167   -0.0364   -0.0309    0.0233    0.0171   -0.0365
          50   -0.0027   -0.0079   -0.0040    0.0071   -0.0315    0.0173    0.0102   -0.0148
          51    0.0143   -0.0339    0.0056    0.0453   -0.0333    0.0154    0.0175   -0.0250
          52   -0.0132    0.0015   -0.0105   -0.0125    0.0056   -0.0108    0.0139   -0.0104
          53    0.0128   -0.0076    0.0095    0.0186   -0.0362    0.0470   -0.0361    0.0176
          54   -0.0394   -0.0106   -0.0415   -0.0370   -0.0151    0.0227   -0.0184    0.0086
          55   -0.0363    0.0264   -0.0247   -0.0491   -0.0191    0.0172    0.0077   -0.0190
          56   -0.0120    0.0011   -0.0090   -0.0041   -0.0310    0.0119    0.0142   -0.0113
          57    0.0043   -0.0174    0.0013    0.0263   -0.0405    0.0173    0.0296   -0.0410
          58   -0.0135   -0.0015   -0.0106    0.0126    0.0056    0.0108    0.0140    0.0105
          59   -0.0294    0.0130   -0.0314    0.0229   -0.0311   -0.0431   -0.0339   -0.0161
          60    0.0311    0.0014    0.0288   -0.0345   -0.0239   -0.0296   -0.0222   -0.0109
          61   -0.0350   -0.0264   -0.0247    0.0491   -0.0192   -0.0172    0.0078    0.0189
          62   -0.0030    0.0146   -0.0033   -0.0209   -0.0506   -0.0210    0.0329    0.0409
          63   -0.0121   -0.0096   -0.0085    0.0167   -0.0071   -0.0018   -0.0024   -0.0106
          64   -0.0219   -0.0190   -0.0168    0.0365   -0.0309   -0.0233    0.0172    0.0364
          65    0.0092    0.0334    0.0030   -0.0429   -0.0445   -0.0220    0.0204    0.0290
          66   -0.0088   -0.0099   -0.0062    0.0161   -0.0111   -0.0075    0.0004    0.0006


   Root No.      49        50        51        52        53        54        55        56

                49 A      50 A      51 A      52 A      53 A      54 A      55 A      56 A   

                2946.0    2951.7    3023.5    3024.8    3027.1    3027.1    3030.6    3031.0
  
           1   -0.0006    0.0016    0.0004    0.0005    0.0006   -0.0007    0.0123   -0.0101
           2   -0.0013    0.0027    0.0006    0.0007    0.0012   -0.0012    0.0183   -0.0140
           3   -0.0303    0.0287   -0.0002   -0.0000    0.0008   -0.0001   -0.0043    0.0009
           4   -0.0005   -0.0016   -0.0003    0.0005   -0.0002    0.0009   -0.0089   -0.0134
           5   -0.0257   -0.0275   -0.0001    0.0003    0.0002    0.0014   -0.0034   -0.0075
           6    0.0134    0.0126   -0.0005    0.0006   -0.0004    0.0010   -0.0136   -0.0175
           7   -0.0003   -0.0003    0.0000   -0.0000   -0.0011    0.0004   -0.0000   -0.0001
           8    0.0008   -0.0006    0.0002    0.0007    0.0091   -0.0032    0.0002   -0.0002
           9    0.0014   -0.0016    0.0001    0.0010    0.0159   -0.0055    0.0006   -0.0004
          10   -0.0004    0.0003   -0.0000   -0.0000   -0.0003   -0.0011    0.0001   -0.0001
          11    0.0016    0.0017   -0.0000    0.0009    0.0060    0.0182   -0.0005   -0.0007
          12    0.0000   -0.0003   -0.0001    0.0001    0.0000    0.0001    0.0001    0.0001
          13    0.0001   -0.0000   -0.0001    0.0006    0.0114   -0.0039   -0.0009    0.0002
          14   -0.0001    0.0001    0.0004   -0.0017   -0.0306    0.0104    0.0025   -0.0005
          15    0.0000    0.0001    0.0001    0.0001   -0.0013    0.0004    0.0000    0.0000
          16    0.0001    0.0001    0.0002    0.0004    0.0039    0.0115    0.0008    0.0004
          17   -0.0000   -0.0001   -0.0004   -0.0005   -0.0056   -0.0165   -0.0011   -0.0006
          18   -0.0001   -0.0000   -0.0005   -0.0010   -0.0089   -0.0262   -0.0019   -0.0010
          19   -0.0001    0.0001    0.0165    0.0150   -0.0018   -0.0006   -0.0003    0.0004
          20   -0.0001    0.0001    0.0077    0.0068   -0.0009   -0.0002   -0.0001    0.0001
          21    0.0000   -0.0000    0.0057    0.0049   -0.0007   -0.0001   -0.0002    0.0002
          22    0.0000   -0.0000   -0.0012   -0.0013    0.0000    0.0001    0.0000   -0.0000
          23   -0.0000   -0.0000   -0.0073   -0.0062    0.0002    0.0003    0.0004   -0.0004
          24   -0.0000   -0.0000   -0.0174   -0.0145    0.0007    0.0006    0.0010   -0.0009
          25    0.0000    0.0000    0.0011   -0.0014    0.0001   -0.0001   -0.0000   -0.0000
          26   -0.0000    0.0000    0.0173   -0.0170    0.0011   -0.0005   -0.0008   -0.0012
          27    0.0000    0.0000   -0.0020    0.0019   -0.0002   -0.0001    0.0001    0.0002
          28   -0.0001   -0.0001   -0.0152    0.0162   -0.0017   -0.0006    0.0002    0.0004
          29   -0.0000    0.0000   -0.0081    0.0083   -0.0009   -0.0004    0.0002    0.0003
          30   -0.0001   -0.0001   -0.0036    0.0038   -0.0004   -0.0001    0.0000    0.0000
          31   -0.0757    0.0685   -0.0030   -0.0028   -0.0022    0.0046   -0.0884    0.0601
          32   -0.1080    0.0922   -0.0042   -0.0038   -0.0009    0.0057   -0.1218    0.0840
          33    0.1742   -0.1467    0.0078    0.0075    0.0059   -0.0122    0.2313   -0.1626
          34    0.0866   -0.0891   -0.0020   -0.0028   -0.0066    0.0052   -0.0676    0.0607
          35    0.1225   -0.1275   -0.0031   -0.0041   -0.0104    0.0082   -0.0983    0.0843
          36    0.1869   -0.1956   -0.0056   -0.0072   -0.0164    0.0138   -0.1799    0.1512
          37    0.0824    0.0926    0.0015   -0.0029    0.0002   -0.0081    0.0471    0.0785
          38    0.2122    0.2427    0.0050   -0.0084    0.0012   -0.0244    0.1463    0.2278
          39    0.0131    0.0143   -0.0001    0.0000   -0.0003   -0.0008   -0.0032   -0.0029
          40   -0.0726   -0.0719    0.0025   -0.0030    0.0024   -0.0043    0.0671    0.0840
          41    0.0941    0.0862   -0.0039    0.0049   -0.0035    0.0081   -0.1053   -0.1372
          42   -0.1734   -0.1611    0.0063   -0.0076    0.0067   -0.0091    0.1663    0.2131
          43   -0.0004    0.0001    0.0003    0.0009    0.0099   -0.0034    0.0004   -0.0006
          44   -0.0066    0.0073   -0.0012   -0.0071   -0.1051    0.0363   -0.0017    0.0018
          45   -0.0176    0.0185   -0.0026   -0.0138   -0.2002    0.0693   -0.0049    0.0040
          46   -0.0004   -0.0001   -0.0002    0.0007    0.0032    0.0097   -0.0002   -0.0008
          47   -0.0176   -0.0204    0.0007   -0.0116   -0.0748   -0.2254    0.0041    0.0064
          48    0.0029    0.0030   -0.0002    0.0006    0.0026    0.0078   -0.0008   -0.0007
          49    0.0006   -0.0006   -0.1986   -0.1779    0.0228    0.0064    0.0037   -0.0044
          50    0.0002   -0.0001   -0.0919   -0.0828    0.0096    0.0033    0.0019   -0.0021
          51    0.0002   -0.0002   -0.0684   -0.0610    0.0077    0.0022    0.0013   -0.0015
[...]
 TRAVEL      0.0909         C  1 -- C  2          +7.6% ( 38.6%)      0.0%
 RED. MASS   0.5384         C  2 -- H 13          +7.2% ( 37.5%)      0.0%
 EFF. MASS   6.3789

 VIBRATION   40   40A         ATOM PAIR      ENERGY CONTRIBUTION    RADIAL
 FREQ.      1378.05         C  1 -- C  2         +16.7% ( 58.4%)     76.8%
 T-DIPOLE    0.0294         C  1 -- H 12         +12.1% ( 49.7%)      0.0%
 TRAVEL      0.0803         C  2 -- H 13         +11.5% ( 48.5%)      0.0%
 RED. MASS   1.1645         C  1 -- H 11          +9.1% ( 43.1%)      1.2%
 EFF. MASS   7.5876

 VIBRATION   41   41A         ATOM PAIR      ENERGY CONTRIBUTION    RADIAL
 FREQ.      1379.11         C  5 -- C  7          +7.9% ( 34.4%)     96.1%
 T-DIPOLE    0.0191         C  6 -- C 10          +7.7% ( 34.1%)     95.8%
 TRAVEL      0.0963         C  2 -- H 13          +7.5% ( 33.5%)      2.2%
 RED. MASS   0.2886         C  2 -- H 14          +7.3% ( 33.2%)      1.4%
 EFF. MASS   5.2775

 VIBRATION   42   42A         ATOM PAIR      ENERGY CONTRIBUTION    RADIAL
 FREQ.      1405.60         C  2 -- H 14         +13.7% ( 41.8%)      3.6%
 T-DIPOLE    0.0317         C  1 -- H 11         +13.6% ( 41.8%)      3.6%
 TRAVEL      0.1090         C  2 -- H 13         +12.2% ( 39.5%)      6.2%
 RED. MASS   0.2890         C  1 -- H 12         +12.2% ( 39.4%)      6.2%
 EFF. MASS   4.0342

 VIBRATION   43   43A         ATOM PAIR      ENERGY CONTRIBUTION    RADIAL
 FREQ.      1426.93         C  1 -- C  3          +9.1% ( 39.2%)     97.4%
 T-DIPOLE    0.0998         C  2 -- C  4          +9.1% ( 39.2%)     97.3%
 TRAVEL      0.0865         C  2 -- H 13          +9.0% ( 38.9%)      3.1%
 RED. MASS   0.4609         C  1 -- H 12          +9.0% ( 38.9%)      3.1%
 EFF. MASS   6.3100

 VIBRATION   44   44A         ATOM PAIR      ENERGY CONTRIBUTION    RADIAL
 FREQ.      1465.52         C  8 -- C  9         +10.7% ( 49.1%)    100.0%
 T-DIPOLE    0.0132         C  6 -- C 10          +8.7% ( 44.2%)     99.4%
 TRAVEL      0.0683         C  5 -- C  7          +8.7% ( 44.1%)     99.5%
 RED. MASS   0.8460         C  9 -- C 10          +5.9% ( 36.3%)      0.1%
 EFF. MASS   9.8649

 VIBRATION   45   45A         ATOM PAIR      ENERGY CONTRIBUTION    RADIAL
 FREQ.      1840.33         C  7 -- C  8         +15.8% ( 59.2%)     99.9%
 T-DIPOLE    0.1979         C  9 -- C 10         +15.8% ( 59.2%)     99.9%
 TRAVEL      0.0556         C  8 -- C  9          +7.7% ( 41.3%)      0.0%
 RED. MASS   1.5691         C  3 -- C  5          +7.4% ( 40.5%)     98.4%
 EFF. MASS  11.8534

 VIBRATION   46   46A         ATOM PAIR      ENERGY CONTRIBUTION    RADIAL
 FREQ.      1875.94         C  4 -- C  6         +17.1% ( 61.0%)    100.0%
 T-DIPOLE    0.0610         C  3 -- C  5         +17.0% ( 61.0%)    100.0%
 TRAVEL      0.0551         C  8 -- C  9          +5.8% ( 35.7%)     73.1%
 RED. MASS   1.7792         C  2 -- C  4          +5.7% ( 35.2%)     54.3%
 EFF. MASS  11.8604

 VIBRATION   47   47A         ATOM PAIR      ENERGY CONTRIBUTION    RADIAL
 FREQ.      1914.81         C  4 -- C  6         +14.7% ( 56.4%)     99.3%
 T-DIPOLE    0.0459         C  3 -- C  5         +14.7% ( 56.3%)     99.3%
 TRAVEL      0.0544         C  6 -- C 10          +9.7% ( 45.8%)     75.9%
 RED. MASS   1.6533         C  5 -- C  7          +9.6% ( 45.6%)     75.8%
 EFF. MASS  11.9180

 VIBRATION   48   48A         ATOM PAIR      ENERGY CONTRIBUTION    RADIAL
 FREQ.      1941.17         C  7 -- C  8         +16.3% ( 59.3%)     99.9%
 T-DIPOLE    0.0506         C  9 -- C 10         +16.2% ( 59.1%)     99.9%
 TRAVEL      0.0539         C  8 -- C  9         +13.0% ( 52.8%)     71.3%
 RED. MASS   1.8717         C  5 -- C  7          +8.0% ( 41.6%)     74.3%
 EFF. MASS  11.9354

 VIBRATION   49   49A         ATOM PAIR      ENERGY CONTRIBUTION    RADIAL
 FREQ.      2945.99         C  1 -- H 12         +27.5% ( 54.6%)     97.0%
 T-DIPOLE    0.0688         C  2 -- H 13         +24.9% ( 51.9%)     96.9%
 TRAVEL      0.1212         C  1 -- H 11         +23.3% ( 50.3%)     95.7%
 RED. MASS   0.2604         C  2 -- H 14         +21.6% ( 48.3%)     95.7%
 EFF. MASS   1.5572

 VIBRATION   50   50A         ATOM PAIR      ENERGY CONTRIBUTION    RADIAL
 FREQ.      2951.67         C  2 -- H 13         +31.9% ( 58.5%)     97.7%
 T-DIPOLE    0.0349         C  1 -- H 12         +29.4% ( 56.2%)     97.8%
 TRAVEL      0.1217         C  2 -- H 14         +19.0% ( 45.2%)     94.6%
 RED. MASS   0.2738         C  1 -- H 11         +17.1% ( 42.9%)     94.5%
 EFF. MASS   1.5429

 VIBRATION   51   51A         ATOM PAIR      ENERGY CONTRIBUTION    RADIAL
 FREQ.      3023.55         C  7 -- H 17         +26.6% ( 52.3%)    100.0%
 T-DIPOLE    0.2087         C  8 -- H 19         +26.1% ( 51.8%)    100.0%
 TRAVEL      0.1240         C 10 -- H 22         +22.7% ( 48.4%)    100.0%
 RED. MASS   0.2332         C  9 -- H 21         +22.2% ( 47.8%)    100.0%
 EFF. MASS   1.4504

 VIBRATION   52   52A         ATOM PAIR      ENERGY CONTRIBUTION    RADIAL
 FREQ.      3024.77         C 10 -- H 22         +28.0% ( 53.7%)    100.0%
 T-DIPOLE    0.3447         C  9 -- H 21         +24.4% ( 50.0%)    100.0%
 TRAVEL      0.1242         C  7 -- H 17         +23.9% ( 49.6%)    100.0%
 RED. MASS   0.2315         C  8 -- H 19         +20.7% ( 46.2%)    100.0%
 EFF. MASS   1.4461

 VIBRATION   53   53A         ATOM PAIR      ENERGY CONTRIBUTION    RADIAL
 FREQ.      3027.07         C  5 -- H 18         +64.6% ( 81.5%)    100.0%
 T-DIPOLE    0.2084         C  3 -- H 15         +22.3% ( 47.9%)     99.9%
 TRAVEL      0.1236         C  6 -- H 20          +7.6% ( 27.9%)    100.0%
 RED. MASS   0.4615         C  4 -- H 16          +2.4% ( 15.8%)     99.9%
 EFF. MASS   1.4571

 VIBRATION   54   54A         ATOM PAIR      ENERGY CONTRIBUTION    RADIAL
 FREQ.      3027.11         C  6 -- H 20         +65.1% ( 81.8%)    100.0%
 T-DIPOLE    0.2990         C  4 -- H 16         +21.9% ( 47.5%)     99.9%
 TRAVEL      0.1236         C  5 -- H 18          +7.4% ( 27.5%)    100.0%
 RED. MASS   0.4667         C  3 -- H 15          +2.6% ( 16.5%)     99.9%
 EFF. MASS   1.4571

 VIBRATION   55   55A         ATOM PAIR      ENERGY CONTRIBUTION    RADIAL
 FREQ.      3030.58         C  1 -- H 11         +39.5% ( 62.0%)     98.8%
 T-DIPOLE    0.0278         C  1 -- H 12         +23.6% ( 47.9%)     95.8%
 TRAVEL      0.1317         C  2 -- H 14         +22.5% ( 46.8%)     99.0%
 RED. MASS   0.2729         C  2 -- H 13         +11.9% ( 34.0%)     95.3%
 EFF. MASS   1.2823

 VIBRATION   56   56A         ATOM PAIR      ENERGY CONTRIBUTION    RADIAL
 FREQ.      3030.98         C  2 -- H 14         +35.4% ( 58.5%)     98.3%
 T-DIPOLE    0.0969         C  2 -- H 13         +28.3% ( 52.4%)     96.8%
 TRAVEL      0.1321         C  1 -- H 11         +18.4% ( 42.2%)     98.1%
 RED. MASS   0.2631         C  1 -- H 12         +16.4% ( 39.9%)     97.1%
 EFF. MASS   1.2743

 VIBRATION   57   57A         ATOM PAIR      ENERGY CONTRIBUTION    RADIAL
 FREQ.      3043.89         C  8 -- H 19         +44.5% ( 67.7%)     99.9%
 T-DIPOLE    0.2666         C  7 -- H 17         +41.8% ( 65.6%)     99.9%
 TRAVEL      0.1184         C 10 -- H 22          +4.8% ( 22.3%)     99.9%
 RED. MASS   0.3774         C  9 -- H 21          +4.3% ( 21.1%)     99.9%
 EFF. MASS   1.5791

 VIBRATION   58   58A         ATOM PAIR      ENERGY CONTRIBUTION    RADIAL
 FREQ.      3044.00         C  9 -- H 21         +45.7% ( 68.6%)     99.9%
 T-DIPOLE    0.3684         C 10 -- H 22         +40.8% ( 64.7%)     99.9%
 TRAVEL      0.1188         C  8 -- H 19          +5.2% ( 23.2%)     99.9%
 RED. MASS   0.3794         C  7 -- H 17          +4.0% ( 20.2%)     99.9%
 EFF. MASS   1.5708

 VIBRATION   59   59A         ATOM PAIR      ENERGY CONTRIBUTION    RADIAL
 FREQ.      3050.03         C  3 -- H 15         +57.8% ( 77.1%)     99.9%
 T-DIPOLE    0.3315         C  5 -- H 18         +19.9% ( 45.2%)     99.8%
 TRAVEL      0.1187         C  4 -- H 16         +13.3% ( 37.0%)     99.9%
 RED. MASS   0.3913         C  6 -- H 20          +4.4% ( 21.3%)     99.8%
 EFF. MASS   1.5678

 VIBRATION   60   60A         ATOM PAIR      ENERGY CONTRIBUTION    RADIAL
 FREQ.      3050.31         C  4 -- H 16         +58.2% ( 77.4%)     99.9%
 T-DIPOLE    0.1532         C  6 -- H 20         +19.3% ( 44.6%)     99.8%
 TRAVEL      0.1187         C  3 -- H 15         +13.1% ( 36.6%)     99.9%
 RED. MASS   0.3934         C  5 -- H 18          +4.5% ( 21.5%)     99.8%
 EFF. MASS   1.5677

      SYMMETRY NUMBER FOR POINT-GROUP C1  =  1


          SYSTEM IS A GROUND STATE



 InChI=1S/C10H12/c1-2-4-6-8-10-9-7-5-3-1/h1-8H,9-10H2


          MOLECULE IS NOT LINEAR

          THERE ARE 60 GENUINE VIBRATIONS IN THIS SYSTEM
          THIS THERMODYNAMICS CALCULATION IS LIMITED TO
          MOLECULES WHICH HAVE NO INTERNAL ROTATIONS




                    CALCULATED THERMODYNAMIC PROPERTIES
                                          *
   TEMP. (K)   PARTITION FUNCTION   H.O.F.    ENTHALPY  HEAT CAPACITY ENTROPY
                                   KCAL/MOL   CAL/MOLE    CAL/K/MOL  CAL/K/MOL


 298.00  VIB.     0.6677D+02                  3820.6227    30.0789    21.1697
         ROT.     0.5592D+06                   888.2813     2.9808    29.2801
         INT.     0.3734D+08                  4708.9040    33.0597    50.4498
         TRA.     0.1470D+28                  1480.4688     4.9680    40.5480
         TOT.                       57.987    6189.3728    38.0277    90.9978

 200.00  VIB.     0.9142D+01                  1493.0918    17.6760    11.8630
         ROT.     0.3075D+06                   596.1620     2.9808    28.0915
         INT.     0.2811D+07                  2089.2538    20.6568    39.9545
         TRA.     0.8080D+27                   993.6033     4.9680    38.5668
         TOT.                       54.880    3082.8570    25.6248    78.5213

 210.00  VIB.     0.1105D+02                  1675.7138    18.8531    12.7538
         ROT.     0.3308D+06                   625.9700     2.9808    28.2369
         INT.     0.3656D+07                  2301.6838    21.8339    40.9907
         TRA.     0.8694D+27                  1043.2834     4.9680    38.8092
         TOT.                       55.142    3344.9672    26.8020    79.7999

 220.00  VIB.     0.1340D+02                  1870.2471    20.0580    13.6585
         ROT.     0.3547D+06                   655.7781     2.9808    28.3756
         INT.     0.4754D+07                  2526.0252    23.0388    42.0341
         TRA.     0.9322D+27                  1092.9636     4.9680    39.0403
         TOT.                       55.416    3618.9888    28.0068    81.0744

 230.00  VIB.     0.1630D+02                  2076.9587    21.2884    14.5772
         ROT.     0.3792D+06                   685.5862     2.9808    28.5081
         INT.     0.6182D+07                  2762.5450    24.2692    43.0853
         TRA.     0.9965D+27                  1142.6437     4.9680    39.2612
         TOT.                       55.702    3905.1887    29.2372    82.3464

 240.00  VIB.     0.1989D+02                  2296.0903    22.5415    15.5096
         ROT.     0.4042D+06                   715.3943     2.9808    28.6349
         INT.     0.8041D+07                  3011.4846    25.5223    44.1445
         TRA.     0.1062D+28                  1192.3239     4.9680    39.4726
         TOT.                       56.001    4203.8085    30.4903    83.6172

 250.00  VIB.     0.2435D+02                  2527.8527    23.8140    16.4555
         ROT.     0.4297D+06                   745.2024     2.9808    28.7566
         INT.     0.1046D+08                  3273.0551    26.7948    45.2122
         TRA.     0.1129D+28                  1242.0041     4.9680    39.6754
         TOT.                       56.312    4515.0592    31.7628    84.8876

 260.00  VIB.     0.2989D+02                  2772.4227    25.1024    17.4146
         ROT.     0.4558D+06                   775.0105     2.9808    28.8735
         INT.     0.1362D+08                  3547.4332    28.0832    46.2881
         TRA.     0.1198D+28                  1291.6842     4.9680    39.8703
         TOT.                       56.636    4839.1175    33.0512    86.1584

 270.00  VIB.     0.3679D+02                  3029.9410    26.4030    18.3863
         ROT.     0.4823D+06                   804.8186     2.9808    28.9860
         INT.     0.1774D+08                  3834.7596    29.3838    47.3723
         TRA.     0.1267D+28                  1341.3644     4.9680    40.0578
         TOT.                       56.973    5176.1240    34.3518    87.4301

 280.00  VIB.     0.4541D+02                  3300.5115    27.7122    19.3702
         ROT.     0.5093D+06                   834.6267     2.9808    29.0944
         INT.     0.2313D+08                  4135.1382    30.6930    48.4646
         TRA.     0.1338D+28                  1391.0445     4.9680    40.2384
         TOT.                       57.323    5526.1828    35.6610    88.7030

 290.00  VIB.     0.5620D+02                  3584.2016    29.0264    20.3655
         ROT.     0.5369D+06                   864.4348     2.9808    29.1990
         INT.     0.3017D+08                  4448.6365    32.0072    49.5646
         TRA.     0.1411D+28                  1440.7247     4.9680    40.4128
         TOT.                       57.687    5889.3612    36.9752    89.9773

 300.00  VIB.     0.6973D+02                  3881.0436    30.3420    21.3718
         ROT.     0.5649D+06                   894.2429     2.9808    29.3001
         INT.     0.3939D+08                  4775.2865    33.3228    50.6718
         TRA.     0.1484D+28                  1490.4049     4.9680    40.5812
         TOT.                       58.063    6265.6914    38.2908    91.2530

 310.00  VIB.     0.8674D+02                  4191.0364    31.6560    22.3881
         ROT.     0.5934D+06                   924.0510     2.9808    29.3978
         INT.     0.5146D+08                  5115.0874    34.6368    51.7859
         TRA.     0.1559D+28                  1540.0850     4.9680    40.7441
         TOT.                       58.452    6655.1724    39.6048    92.5300

 320.00  VIB.     0.1082D+03                  4514.1477    32.9653    23.4138
         ROT.     0.6223D+06                   953.8591     2.9808    29.4925
         INT.     0.6730D+08                  5468.0068    35.9461    52.9063
         TRA.     0.1635D+28                  1589.7652     4.9680    40.9018
         TOT.                       58.855    7057.7720    40.9141    93.8081

 330.00  VIB.     0.1352D+03                  4850.3171    34.2672    24.4482
         ROT.     0.6517D+06                   983.6672     2.9808    29.5842
         INT.     0.8809D+08                  5833.9843    37.2480    54.0324
         TRA.     0.1713D+28                  1639.4454     4.9680    41.0547
         TOT.                       59.271    7473.4297    42.2160    95.0871

 340.00  VIB.     0.1693D+03                  5199.4583    35.5592    25.4904
         ROT.     0.6815D+06                  1013.4753     2.9808    29.6732
         INT.     0.1154D+09                  6212.9336    38.5400    55.1635
         TRA.     0.1791D+28                  1689.1255     4.9680    41.2030
         TOT.                       59.699    7902.0591    43.5081    96.3666

 350.00  VIB.     0.2125D+03                  5561.4620    36.8393    26.5396
         ROT.     0.7118D+06                  1043.2834     2.9808    29.7596
         INT.     0.1513D+09                  6604.7454    39.8202    56.2992
         TRA.     0.1871D+28                  1738.8057     4.9680    41.3470
         TOT.                       60.141    8343.5511    44.7882    97.6462

 360.00  VIB.     0.2674D+03                  5936.1990    38.1056    27.5952
         ROT.     0.7425D+06                  1073.0915     2.9808    29.8435
         INT.     0.1985D+09                  7009.2905    41.0864    57.4388
         TRA.     0.1951D+28                  1788.4859     4.9680    41.4870
         TOT.                       60.595    8797.7763    46.0544    98.9257

 370.00  VIB.     0.3370D+03                  6323.5226    39.3564    28.6564
         ROT.     0.7737D+06                  1102.8996     2.9808    29.9252
         INT.     0.2607D+09                  7426.4222    42.3372    58.5816
         TRA.     0.2033D+28                  1838.1660     4.9680    41.6231
         TOT.                       61.062    9264.5882    47.3053   100.2047

 380.00  VIB.     0.4256D+03                  6723.2715    40.5904    29.7224
         ROT.     0.8053D+06                  1132.7077     2.9808    30.0047
         INT.     0.3427D+09                  7855.9792    43.5712    59.7271
         TRA.     0.2116D+28                  1887.8462     4.9680    41.7556
         TOT.                       61.541    9743.8253    48.5393   101.4827

 390.00  VIB.     0.5384D+03                  7135.2716    41.8065    30.7925
         ROT.     0.8373D+06                  1162.5158     2.9808    30.0821
         INT.     0.4508D+09                  8297.7874    44.7873    60.8746
         TRA.     0.2200D+28                  1937.5263     4.9680    41.8846
         TOT.                       62.033   10235.3138    49.7554   102.7593

 400.00  VIB.     0.6824D+03                  7559.3392    43.0038    31.8661
         ROT.     0.8697D+06                  1192.3239     2.9808    30.1576
         INT.     0.5935D+09                  8751.6631    45.9846    62.0237
         TRA.     0.2285D+28                  1987.2065     4.9680    42.0104
         TOT.                       62.536   10738.8696    50.9526   104.0341

   *: NOTE: HEATS OF FORMATION ARE RELATIVE TO THE
            ELEMENTS IN THEIR STANDARD STATE AT 298K
              (=  Standard Enthalpy of Formation).

            Hvib:  Zero-point energy is not included.
                   frequencies of less than zero cm-1 are not included.
            Hrot = (3/2)RT
            Htra = (3/2)RT + pV = (5/2)RT

            Heat capacity is Cp, not Cv

          For more information, see: HTTP://OpenMOPAC.net/Manual/thermochemistry.html


           FORCE CONSTANT IN CARTESIAN COORDINATES (Millidynes/A)

    ATOM   CHEMICAL       X               Y               Z
   NUMBER   SYMBOL  FORCE CONSTANT  FORCE CONSTANT  FORCE CONSTANT

      1       C        7.688924        8.909488        8.437098
      2       C        7.688575        8.529613        8.815614
      3       C        4.190889        9.807650       13.148683
      4       C        4.186585       10.518919       12.453535
      5       C        4.049554        9.716222       13.946015
      6       C        4.043329       11.320708       12.342215
      7       C       12.214583        3.974164       11.511700
      8       C       13.168109        4.026310       10.503663
      9       C       13.161866       10.672585        3.856897
     10       C       12.209539       11.572239        3.902389
     11       H        1.173374        1.610107        3.568329
     12       H        1.261326        1.725729        3.410766
     13       H        1.261313        4.432080        0.706429
     14       H        1.173578        1.679579        3.500176
     15       H        0.405816        1.625258        4.179815
     16       H        0.405412        5.077595        0.726674
     17       H        3.960378        1.112313        1.040024
     18       H        0.905585        4.476153        0.729125
     19       H        0.706326        1.069781        4.339836
     20       H        0.905256        1.891396        3.314378
     21       H        0.706525        4.977023        0.428549
     22       H        3.962474        1.597247        0.550910

 **********************
 *                    *
 * JOB ENDED NORMALLY *
 *                    *
 **********************



 TOTAL JOB TIME:             8.18 SECONDS

 == MOPAC DONE ==
