 *******************************************************************************
 ** Site#: 14399        For non-commercial use only    Version 18.184L 64BITS **
 *******************************************************************************
 ** Cite this program as: MOPAC2016, Version: 18.184L, James J. P. Stewart,   **
 ** Stewart Computational Chemistry, web: HTTP://OpenMOPAC.net. Days left:  20**
 *******************************************************************************
 **                                                                           **
 **                                MOPAC2016                                  **
 **                                                                           **
 *******************************************************************************

                              PM3 CALCULATION RESULTS

 *******************************************************************************
 *  CALCULATION DONE:                                Thu Jun 13 16:09:29 2019  *
 *  PM3        - The PM3 Hamiltonian to be used
 *  PRECISE    - CRITERIA TO BE INCREASED BY 100 TIMES
 *  NOSYM      - POINT-GROUP SYMMETRY SET TO C1
 *  THREADS=1  - MULTI-THREADING NOT USED
 *  T=         - A TIME OF 172800.0 SECONDS REQUESTED
 *  DUMP=N     - RESTART FILE WRITTEN EVERY  7200.000 SECONDS
 *******************************************************************************
pm3  precise nosym THREADS=1
 InChI=1S/C7H10/c1-2-6-4-5-7(6)3-1/h6-7H,1-4H2/lp5

   ATOM   CHEMICAL          X               Y               Z
  NUMBER   SYMBOL      (ANGSTROMS)     (ANGSTROMS)     (ANGSTROMS)
 
     1       C          0.82740000  *   0.11760000  *  -0.65430000  *
     2       C          0.21600000  *  -1.19950000  *  -0.21520000  *
     3       C         -0.25780000  *   1.18620000  *  -0.51990000  *
     4       C         -1.22390000  *  -0.91940000  *   0.20760000  *
     5       C         -1.33140000  *   0.59020000  *   0.38080000  *
     6       C          1.80560000  *   0.04840000  *   0.51780000  *
     7       C          1.18820000  *  -1.26950000  *   0.95660000  *
     8       H          1.32080000  *   0.07690000  *  -1.65060000  *
     9       H          0.34400000  *  -2.03050000  *  -0.94250000  *
    10       H         -2.34310000  *   0.95970000  *   0.10610000  *
    11       H         -1.11920000  *   0.85880000  *   1.43920000  *
    12       H         -0.69160000  *   1.38630000  *  -1.52390000  *
    13       H          0.14210000  *   2.13760000  *  -0.10690000  *
    14       H         -1.90820000  *  -1.24580000  *  -0.60560000  *
    15       H         -1.49310000  *  -1.45710000  *   1.14280000  *
    16       H          1.66650000  *   0.84370000  *   1.28180000  *
    17       H          2.85760000  *  -0.08350000  *   0.18610000  *
 


          CARTESIAN COORDINATES 

    NO.       ATOM           X           Y           Z

     1         C          0.8274      0.1176     -0.6543
     2         C          0.2160     -1.1995     -0.2152
     3         C         -0.2578      1.1862     -0.5199
     4         C         -1.2239     -0.9194      0.2076
     5         C         -1.3314      0.5902      0.3808
     6         C          1.8056      0.0484      0.5178
     7         C          1.1882     -1.2695      0.9566
     8         H          1.3208      0.0769     -1.6506
     9         H          0.3440     -2.0305     -0.9425
    10         H         -2.3431      0.9597      0.1061
    11         H         -1.1192      0.8588      1.4392
    12         H         -0.6916      1.3863     -1.5239
    13         H          0.1421      2.1376     -0.1069
    14         H         -1.9082     -1.2458     -0.6056
    15         H         -1.4931     -1.4571      1.1428
    16         H          1.6665      0.8437      1.2818
    17         H          2.8576     -0.0835      0.1861

  H: (PM3): J. J. P. STEWART, J. COMP. CHEM. 10, 209 (1989).
  C: (PM3): J. J. P. STEWART, J. COMP. CHEM. 10, 209 (1989).

           Empirical Formula: C7 H10  =    17 atoms



      MOLECULAR POINT GROUP   :   C1  


      RHF CALCULATION, NO. OF DOUBLY OCCUPIED LEVELS = 19


          Geometry optimization using EF

          DIAGONAL MATRIX USED AS START HESSIAN

 CYCLE:     1 TIME:   0.016 TIME LEFT:  2.00D  GRAD.:    64.032 HEAT:  88.19994
 CYCLE:     2 TIME:   0.039 TIME LEFT:  2.00D  GRAD.:    33.885 HEAT:  86.83788
 CYCLE:     3 TIME:   0.020 TIME LEFT:  2.00D  GRAD.:    56.182 HEAT:  86.69759
 CYCLE:     4 TIME:   0.023 TIME LEFT:  2.00D  GRAD.:    35.394 HEAT:  85.77494
 CYCLE:     5 TIME:   0.027 TIME LEFT:  2.00D  GRAD.:    32.569 HEAT:  85.54449
 CYCLE:     6 TIME:   0.023 TIME LEFT:  2.00D  GRAD.:    14.149 HEAT:  85.24322
 CYCLE:     7 TIME:   0.020 TIME LEFT:  2.00D  GRAD.:     9.184 HEAT:  85.16644
 CYCLE:     8 TIME:   0.020 TIME LEFT:  2.00D  GRAD.:     8.009 HEAT:  85.11203
 CYCLE:     9 TIME:   0.023 TIME LEFT:  2.00D  GRAD.:    11.880 HEAT:  85.08817
 CYCLE:    10 TIME:   0.023 TIME LEFT:  2.00D  GRAD.:    13.478 HEAT:  85.08625
 CYCLE:    11 TIME:   0.027 TIME LEFT:  2.00D  GRAD.:     6.175 HEAT:  85.04200
 CYCLE:    12 TIME:   0.023 TIME LEFT:  2.00D  GRAD.:     4.773 HEAT:  85.03271
 CYCLE:    13 TIME:   0.023 TIME LEFT:  2.00D  GRAD.:     3.178 HEAT:  85.02335
 CYCLE:    14 TIME:   0.023 TIME LEFT:  2.00D  GRAD.:     4.240 HEAT:  85.01951
 CYCLE:    15 TIME:   0.020 TIME LEFT:  2.00D  GRAD.:     5.061 HEAT:  85.01591
 CYCLE:    16 TIME:   0.023 TIME LEFT:  2.00D  GRAD.:     3.790 HEAT:  85.00818
 CYCLE:    17 TIME:   0.023 TIME LEFT:  2.00D  GRAD.:     3.779 HEAT:  85.00348
 CYCLE:    18 TIME:   0.023 TIME LEFT:  2.00D  GRAD.:     2.989 HEAT:  84.99588
 CYCLE:    19 TIME:   0.023 TIME LEFT:  2.00D  GRAD.:     5.955 HEAT:  84.99335
 CYCLE:    20 TIME:   0.023 TIME LEFT:  2.00D  GRAD.:     4.491 HEAT:  84.97717
 CYCLE:    21 TIME:   0.023 TIME LEFT:  2.00D  GRAD.:     6.324 HEAT:  84.96841
 CYCLE:    22 TIME:   0.020 TIME LEFT:  2.00D  GRAD.:     3.391 HEAT:  84.95025
 CYCLE:    23 TIME:   0.023 TIME LEFT:  2.00D  GRAD.:     3.334 HEAT:  84.93768
 CYCLE:    24 TIME:   0.023 TIME LEFT:  2.00D  GRAD.:     3.702 HEAT:  84.92467
 CYCLE:    25 TIME:   0.023 TIME LEFT:  2.00D  GRAD.:     2.773 HEAT:  84.90654
 CYCLE:    26 TIME:   0.023 TIME LEFT:  2.00D  GRAD.:     2.250 HEAT:  84.89044
 CYCLE:    27 TIME:   0.023 TIME LEFT:  2.00D  GRAD.:     1.848 HEAT:  84.88318
 CYCLE:    28 TIME:   0.020 TIME LEFT:  2.00D  GRAD.:     1.473 HEAT:  84.87854
 CYCLE:    29 TIME:   0.023 TIME LEFT:  2.00D  GRAD.:     1.285 HEAT:  84.87497
 CYCLE:    30 TIME:   0.023 TIME LEFT:  2.00D  GRAD.:     1.096 HEAT:  84.87155
 CYCLE:    31 TIME:   0.023 TIME LEFT:  2.00D  GRAD.:     0.946 HEAT:  84.86929
 CYCLE:    32 TIME:   0.023 TIME LEFT:  2.00D  GRAD.:     0.958 HEAT:  84.86697
 CYCLE:    33 TIME:   0.023 TIME LEFT:  2.00D  GRAD.:     0.834 HEAT:  84.86526
 CYCLE:    34 TIME:   0.023 TIME LEFT:  2.00D  GRAD.:     0.794 HEAT:  84.86379
 CYCLE:    35 TIME:   0.020 TIME LEFT:  2.00D  GRAD.:     0.839 HEAT:  84.86254
 CYCLE:    36 TIME:   0.023 TIME LEFT:  2.00D  GRAD.:     0.747 HEAT:  84.86148
 CYCLE:    37 TIME:   0.023 TIME LEFT:  2.00D  GRAD.:     0.499 HEAT:  84.86056
 CYCLE:    38 TIME:   0.023 TIME LEFT:  2.00D  GRAD.:     0.296 HEAT:  84.86011
 CYCLE:    39 TIME:   0.023 TIME LEFT:  2.00D  GRAD.:     0.246 HEAT:  84.85993
 CYCLE:    40 TIME:   0.023 TIME LEFT:  2.00D  GRAD.:     0.258 HEAT:  84.85976
 CYCLE:    41 TIME:   0.023 TIME LEFT:  2.00D  GRAD.:     0.244 HEAT:  84.85965
 CYCLE:    42 TIME:   0.020 TIME LEFT:  2.00D  GRAD.:     0.261 HEAT:  84.85949
 CYCLE:    43 TIME:   0.023 TIME LEFT:  2.00D  GRAD.:     0.270 HEAT:  84.85935
 CYCLE:    44 TIME:   0.023 TIME LEFT:  2.00D  GRAD.:     0.311 HEAT:  84.85918
 CYCLE:    45 TIME:   0.023 TIME LEFT:  2.00D  GRAD.:     0.321 HEAT:  84.85899
 CYCLE:    46 TIME:   0.023 TIME LEFT:  2.00D  GRAD.:     0.285 HEAT:  84.85872
 CYCLE:    47 TIME:   0.023 TIME LEFT:  2.00D  GRAD.:     0.243 HEAT:  84.85860
 CYCLE:    48 TIME:   0.023 TIME LEFT:  2.00D  GRAD.:     0.226 HEAT:  84.85851
 CYCLE:    49 TIME:   0.020 TIME LEFT:  2.00D  GRAD.:     0.164 HEAT:  84.85841
 CYCLE:    50 TIME:   0.059 TIME LEFT:  2.00D  GRAD.:     0.122 HEAT:  84.85838
 CYCLE:    51 TIME:   0.027 TIME LEFT:  2.00D  GRAD.:     0.097 HEAT:  84.85833
 CYCLE:    52 TIME:   0.023 TIME LEFT:  2.00D  GRAD.:     0.129 HEAT:  84.85839
 CYCLE:    53 TIME:   0.023 TIME LEFT:  2.00D  GRAD.:     0.067 HEAT:  84.85829
 CYCLE:    54 TIME:   0.023 TIME LEFT:  2.00D  GRAD.:     0.055 HEAT:  84.85828
 CYCLE:    55 TIME:   0.023 TIME LEFT:  2.00D  GRAD.:     0.038 HEAT:  84.85828

     GRADIENT =  0.03796  IS LESS THAN CUTOFF =  0.05000



 -------------------------------------------------------------------------------
 pm3  precise nosym THREADS=1
 InChI=1S/C7H10/c1-2-6-4-5-7(6)3-1/h6-7H,1-4H2/lp5



     GEOMETRY OPTIMISED USING EIGENVECTOR FOLLOWING (EF).     
     SCF FIELD WAS ACHIEVED                                   


                              PM3 CALCULATION
                                                       MOPAC2016 (Version: 18.184L)
                                                       Thu Jun 13 16:09:30 2019
                                                       No. of days remaining =  20




          FINAL HEAT OF FORMATION =         84.85828 KCAL/MOL =     355.04704 KJ/MOL


          TOTAL ENERGY            =       -980.12989 EV
          ELECTRONIC ENERGY       =      -4700.33512 EV  POINT GROUP:     C1  
          CORE-CORE REPULSION     =       3720.20523 EV
          COSMO AREA              =        139.43 SQUARE ANGSTROMS
          COSMO VOLUME            =        136.29 CUBIC ANGSTROMS

          GRADIENT NORM           =          0.03796 = 0.00921 PER ATOM
          IONIZATION POTENTIAL    =          9.149528 EV
          HOMO LUMO ENERGIES (EV) =         -9.150 -0.545
          NO. OF FILLED LEVELS    =         19
          MOLECULAR WEIGHT        =         94.1560

          MOLECULAR DIMENSIONS (Angstroms)

            Atom       Atom       Distance
            H    17    H    10     5.34913
            H     9    H    13     4.18193
            H    15    H     8     3.35465


          SCF CALCULATIONS        =         63
 
          WALL-CLOCK TIME         =          1.363 SECONDS
          COMPUTATION TIME        =          0.366 SECONDS




   ATOM   CHEMICAL          X               Y               Z
  NUMBER   SYMBOL      (ANGSTROMS)     (ANGSTROMS)     (ANGSTROMS)
 
     1       C          0.82456215  *   0.14956505  *  -0.67008995  *
     2       C          0.20903052  *  -1.20551650  *  -0.20047434  *
     3       C         -0.24772247  *   1.21034079  *  -0.50809808  *
     4       C         -1.21882704  *  -0.93521272  *   0.23952249  *
     5       C         -1.36546898  *   0.58546594  *   0.32948226  *
     6       C          1.82823764  *   0.01007127  *   0.50537034  *
     7       C          1.20145244  *  -1.27951503  *   0.93694399  *
     8       H          1.29152615  *   0.16239785  *  -1.67148385  *
     9       H          0.29815930  *  -2.05790439  *  -0.90066468  *
    10       H         -2.36164354  *   0.91551538  *  -0.01565200  *
    11       H         -1.29040449  *   0.91854257  *   1.38213457  *
    12       H         -0.62949282  *   1.52275707  *  -1.49798481  *
    13       H          0.15423077  *   2.12633948  *  -0.03722455  *
    14       H         -1.93175730  *  -1.35791265  *  -0.49214762  *
    15       H         -1.44152571  *  -1.42919930  *   1.20323515  *
    16       H          1.77422265  *   0.79590916  *   1.27785369  *
    17       H          2.88775337  *  -0.08544195  *   0.21908319  *

                             CARTESIAN COORDINATES

   1    C        0.824562152     0.149565048    -0.670089946
   2    C        0.209030524    -1.205516501    -0.200474337
   3    C       -0.247722475     1.210340790    -0.508098079
   4    C       -1.218827036    -0.935212717     0.239522489
   5    C       -1.365468978     0.585465942     0.329482256
   6    C        1.828237640     0.010071274     0.505370337
   7    C        1.201452442    -1.279515027     0.936943991
   8    H        1.291526150     0.162397850    -1.671483851
   9    H        0.298159300    -2.057904392    -0.900664676
  10    H       -2.361643542     0.915515379    -0.015652001
  11    H       -1.290404488     0.918542565     1.382134571
  12    H       -0.629492825     1.522757070    -1.497984809
  13    H        0.154230768     2.126339479    -0.037224554
  14    H       -1.931757302    -1.357912646    -0.492147617
  15    H       -1.441525715    -1.429199301     1.203235151
  16    H        1.774222647     0.795909160     1.277853692
  17    H        2.887753374    -0.085441949     0.219083188


           Empirical Formula: C7 H10  =    17 atoms



      MOLECULAR POINT GROUP   :   C1  


                  EIGENVALUES  
 -42.09136 -32.49272 -29.17869 -24.74171 -21.37235 -19.80807 -17.84249 -16.97430
 -16.36483 -14.88697 -14.29781 -13.70791 -13.19206 -13.01378 -12.76576 -12.39941
 -11.60646 -11.33010  -9.14953  -0.54481   2.90343   3.07738   3.37013   3.40799
   3.55848   3.60258   3.71552   3.93956   3.96751   4.07137   4.10779   4.21654
   4.43118   4.69446   4.91781   4.97111   5.00744   5.22354


              NET ATOMIC CHARGES AND DIPOLE CONTRIBUTIONS

  ATOM NO.   TYPE          CHARGE      No. of ELECS.   s-Pop       p-Pop       
    1          C          -0.101138        4.1011     1.20258     2.89856
    2          C          -0.249499        4.2495     1.21900     3.03049
    3          C          -0.089202        4.0892     1.16100     2.92821
    4          C          -0.051588        4.0516     1.15417     2.89741
    5          C          -0.103008        4.1030     1.16618     2.93683
    6          C          -0.271953        4.2720     1.19952     3.07244
    7          C           0.130666        3.8693     1.73241     2.13692
    8          H           0.078666        0.9213     0.92133
    9          H           0.112575        0.8874     0.88743
   10          H           0.053599        0.9464     0.94640
   11          H           0.050100        0.9499     0.94990
   12          H           0.052527        0.9475     0.94747
   13          H           0.056563        0.9434     0.94344
   14          H           0.049931        0.9501     0.95007
   15          H           0.064535        0.9355     0.93546
   16          H           0.110880        0.8891     0.88912
   17          H           0.106346        0.8937     0.89365
 DIPOLE           X         Y         Z       TOTAL
 POINT-CHG.    -0.078    -0.042     0.358     0.369
 HYBRID        -0.258     1.412    -1.617     2.162
 SUM           -0.335     1.370    -1.259     1.891


          ATOMIC ORBITAL ELECTRON POPULATIONS

     Atom    s        px        py        pz   
    1  C   1.20258   0.96021   0.95578   0.98256
    2  C   1.21900   1.00139   0.98200   1.04711
    3  C   1.16100   0.95632   0.96954   1.00235
    4  C   1.15417   0.92734   0.95303   1.01704
    5  C   1.16618   0.98366   0.95286   1.00031
    6  C   1.19952   1.00713   1.06525   1.00006
    7  C   1.73241   0.57433   0.79160   0.77099
    8  H   0.92133
    9  H   0.88743
   10  H   0.94640
   11  H   0.94990
   12  H   0.94747
   13  H   0.94344
   14  H   0.95007
   15  H   0.93546
   16  H   0.88912
   17  H   0.89365
 *******************************************************************************
 ** Site#: 14399        For non-commercial use only    Version 18.184L 64BITS **
 *******************************************************************************
 ** Cite this program as: MOPAC2016, Version: 18.184L, James J. P. Stewart,   **
 ** Stewart Computational Chemistry, web: HTTP://OpenMOPAC.net. Days left:  20**
 *******************************************************************************
 **                                                                           **
 **                                MOPAC2016                                  **
 **                                                                           **
 *******************************************************************************

                              PM3 CALCULATION RESULTS

 *******************************************************************************
 *  CALCULATION DONE:                                Thu Jun 13 16:09:30 2019  *
 *  PM3        - The PM3 Hamiltonian to be used
 *  OLDGEO     - PREVIOUS GEOMETRY TO BE USED
 *  PRECISE    - CRITERIA TO BE INCREASED BY 100 TIMES
 *  NOSYM      - POINT-GROUP SYMMETRY SET TO C1
 *  THREADS=1  - MULTI-THREADING NOT USED
 *  T=         - A TIME OF 172800.0 SECONDS REQUESTED
 *  DUMP=N     - RESTART FILE WRITTEN EVERY  7200.000 SECONDS
 *  THERMO     - THERMODYNAMIC QUANTITIES TO BE CALCULATED
 *******************************************************************************
oldgeo thermo nosym precise THREADS=1  pm3
 InChI=1S/C7H10/c1-2-6-4-5-7(6)3-1/h6-7H,1-4H2/lp5

   ATOM   CHEMICAL          X               Y               Z
  NUMBER   SYMBOL      (ANGSTROMS)     (ANGSTROMS)     (ANGSTROMS)
 
     1       C          0.82456215  *   0.14956505  *  -0.67008995  *
     2       C          0.20903052  *  -1.20551650  *  -0.20047434  *
     3       C         -0.24772247  *   1.21034079  *  -0.50809808  *
     4       C         -1.21882704  *  -0.93521272  *   0.23952249  *
     5       C         -1.36546898  *   0.58546594  *   0.32948226  *
     6       C          1.82823764  *   0.01007127  *   0.50537034  *
     7       C          1.20145244  *  -1.27951503  *   0.93694399  *
     8       H          1.29152615  *   0.16239785  *  -1.67148385  *
     9       H          0.29815930  *  -2.05790439  *  -0.90066468  *
    10       H         -2.36164354  *   0.91551538  *  -0.01565200  *
    11       H         -1.29040449  *   0.91854257  *   1.38213457  *
    12       H         -0.62949282  *   1.52275707  *  -1.49798481  *
    13       H          0.15423077  *   2.12633948  *  -0.03722455  *
    14       H         -1.93175730  *  -1.35791265  *  -0.49214762  *
    15       H         -1.44152571  *  -1.42919930  *   1.20323515  *
    16       H          1.77422265  *   0.79590916  *   1.27785369  *
    17       H          2.88775337  *  -0.08544195  *   0.21908319  *
 


          CARTESIAN COORDINATES 

    NO.       ATOM           X           Y           Z

     1         C          0.8246      0.1496     -0.6701
     2         C          0.2090     -1.2055     -0.2005
     3         C         -0.2477      1.2103     -0.5081
     4         C         -1.2188     -0.9352      0.2395
     5         C         -1.3655      0.5855      0.3295
     6         C          1.8282      0.0101      0.5054
     7         C          1.2015     -1.2795      0.9369
     8         H          1.2915      0.1624     -1.6715
     9         H          0.2982     -2.0579     -0.9007
    10         H         -2.3616      0.9155     -0.0157
    11         H         -1.2904      0.9185      1.3821
    12         H         -0.6295      1.5228     -1.4980
    13         H          0.1542      2.1263     -0.0372
    14         H         -1.9318     -1.3579     -0.4921
    15         H         -1.4415     -1.4292      1.2032
    16         H          1.7742      0.7959      1.2779
    17         H          2.8878     -0.0854      0.2191

  H: (PM3): J. J. P. STEWART, J. COMP. CHEM. 10, 209 (1989).
  C: (PM3): J. J. P. STEWART, J. COMP. CHEM. 10, 209 (1989).

           Empirical Formula: C7 H10  =    17 atoms



      MOLECULAR POINT GROUP   :   C1  


      RHF CALCULATION, NO. OF DOUBLY OCCUPIED LEVELS = 19



          HEAT OF FORMATION =      84.858280 KCALS/MOLE


          CARTESIAN COORDINATE DERIVATIVES

   NUMBER  ATOM         X            Y            Z

     1       C      0.002349    -0.001097     0.004051
     2       C      0.003154     0.004276    -0.001324
     3       C      0.001509    -0.004414     0.002106
     4       C     -0.000753    -0.001791     0.005544
     5       C     -0.000168     0.000155     0.000008
     6       C      0.006950     0.011929     0.000001
     7       C      0.007696     0.002083     0.007068
     8       H     -0.006051     0.000568    -0.002675
     9       H      0.000685    -0.014216    -0.003497
    10       H      0.003239     0.007800    -0.000932
    11       H     -0.002770    -0.007281    -0.005802
    12       H     -0.002277     0.005581     0.000411
    13       H     -0.002337    -0.014110    -0.005399
    14       H      0.001263    -0.001681     0.000620
    15       H     -0.007848    -0.003224    -0.004974
    16       H     -0.006476     0.002096    -0.000190
    17       H      0.001835     0.013326     0.004983
 


          GRADIENT NORM =   0.03831


          TIME FOR SCF CALCULATION =    0.02

          TIME FOR DERIVATIVES     =    0.01

          MOLECULAR WEIGHT =   94.16



          ROTATIONAL CONSTANTS IN CM(-1)

          A =    0.14878858   B =    0.10078450   C =    0.07564017



           PRINCIPAL MOMENTS OF INERTIA IN UNITS OF 10**(-40)*GRAM-CM**2

          A =      188.1379   B =      277.7488   C =      370.0782


          ORIENTATION OF MOLECULE IN FORCE CALCULATION

    NO.       ATOM         X         Y         Z

     1          C      -0.7708   -0.5918    0.4206
     2          C       0.7899   -0.5918    0.4206
     3          C      -1.2202    0.8571    0.4206
     4          C       1.2507    0.8549    0.4158
     5          C       0.0153    1.7037    0.1069
     6          C      -0.6918   -1.2808   -0.9677
     7          C       0.8050   -1.2486   -0.9404
     8          H      -1.2674   -1.1940    1.2028
     9          H       1.2841   -1.2068    1.1967
    10          H       0.0177    2.6447    0.6856
    11          H       0.0132    2.0090   -0.9568
    12          H      -1.6387    1.1279    1.4079
    13          H      -2.0324    1.0310   -0.3091
    14          H       1.6787    1.1240    1.3989
    15          H       2.0575    1.0160   -0.3229
    16          H      -1.1204   -0.7120   -1.8104
    17          H      -1.1129   -2.2974   -1.0203


    FIRST DERIVATIVES WILL BE USED IN THE CALCULATION OF SECOND DERIVATIVES

          ESTIMATED TIME TO COMPLETE CALCULATION =        5.58 SECONDS

    FOR POINT-GROUP C1   THERE ARE   1 UNIQUE SYMMETRY FUNCTIONS.

 STEP:   1 TIME =     0.04 SECS, INTEGRAL =      0.04 TIME LEFT: 172799.94
 STEP:   2 TIME =     0.03 SECS, INTEGRAL =      0.07 TIME LEFT: 172799.91
 STEP:   3 TIME =     0.03 SECS, INTEGRAL =      0.10 TIME LEFT: 172799.88
 STEP:   4 TIME =     0.03 SECS, INTEGRAL =      0.13 TIME LEFT: 172799.84
 STEP:   5 TIME =     0.03 SECS, INTEGRAL =      0.16 TIME LEFT: 172799.81
 STEP:   6 TIME =     0.04 SECS, INTEGRAL =      0.20 TIME LEFT: 172799.78
 STEP:   7 TIME =     0.03 SECS, INTEGRAL =      0.23 TIME LEFT: 172799.75
 STEP:   8 TIME =     0.03 SECS, INTEGRAL =      0.26 TIME LEFT: 172799.71
 STEP:   9 TIME =     0.03 SECS, INTEGRAL =      0.29 TIME LEFT: 172799.68
 STEP:  10 TIME =     0.03 SECS, INTEGRAL =      0.32 TIME LEFT: 172799.65
 STEP:  11 TIME =     0.03 SECS, INTEGRAL =      0.35 TIME LEFT: 172799.62
 STEP:  12 TIME =     0.03 SECS, INTEGRAL =      0.38 TIME LEFT: 172799.59
 STEP:  13 TIME =     0.03 SECS, INTEGRAL =      0.41 TIME LEFT: 172799.56
 STEP:  14 TIME =     0.03 SECS, INTEGRAL =      0.44 TIME LEFT: 172799.53
 STEP:  15 TIME =     0.03 SECS, INTEGRAL =      0.47 TIME LEFT: 172799.50
 STEP:  16 TIME =     0.03 SECS, INTEGRAL =      0.50 TIME LEFT: 172799.47
 STEP:  17 TIME =     0.03 SECS, INTEGRAL =      0.54 TIME LEFT: 172799.44
 STEP:  18 TIME =     0.03 SECS, INTEGRAL =      0.57 TIME LEFT: 172799.41
 STEP:  19 TIME =     0.04 SECS, INTEGRAL =      0.60 TIME LEFT: 172799.37
 STEP:  20 TIME =     0.03 SECS, INTEGRAL =      0.63 TIME LEFT: 172799.34
 STEP:  21 TIME =     0.03 SECS, INTEGRAL =      0.66 TIME LEFT: 172799.31
 STEP:  22 TIME =     0.03 SECS, INTEGRAL =      0.70 TIME LEFT: 172799.28
 STEP:  23 TIME =     0.03 SECS, INTEGRAL =      0.73 TIME LEFT: 172799.25
 STEP:  24 TIME =     0.03 SECS, INTEGRAL =      0.76 TIME LEFT: 172799.21
 STEP:  25 TIME =     0.03 SECS, INTEGRAL =      0.79 TIME LEFT: 172799.18
 STEP:  26 TIME =     0.03 SECS, INTEGRAL =      0.82 TIME LEFT: 172799.15
 STEP:  27 TIME =     0.04 SECS, INTEGRAL =      0.86 TIME LEFT: 172799.12
 STEP:  28 TIME =     0.03 SECS, INTEGRAL =      0.89 TIME LEFT: 172799.09
 STEP:  29 TIME =     0.03 SECS, INTEGRAL =      0.92 TIME LEFT: 172799.05
 STEP:  30 TIME =     0.03 SECS, INTEGRAL =      0.95 TIME LEFT: 172799.02
 STEP:  31 TIME =     0.04 SECS, INTEGRAL =      0.98 TIME LEFT: 172798.99
 STEP:  32 TIME =     0.03 SECS, INTEGRAL =      1.02 TIME LEFT: 172798.96
 STEP:  33 TIME =     0.03 SECS, INTEGRAL =      1.05 TIME LEFT: 172798.93
 STEP:  34 TIME =     0.03 SECS, INTEGRAL =      1.08 TIME LEFT: 172798.89
 STEP:  35 TIME =     0.03 SECS, INTEGRAL =      1.11 TIME LEFT: 172798.86
 STEP:  36 TIME =     0.03 SECS, INTEGRAL =      1.14 TIME LEFT: 172798.84
 STEP:  37 TIME =     0.03 SECS, INTEGRAL =      1.17 TIME LEFT: 172798.80
 STEP:  38 TIME =     0.03 SECS, INTEGRAL =      1.20 TIME LEFT: 172798.77
 STEP:  39 TIME =     0.03 SECS, INTEGRAL =      1.23 TIME LEFT: 172798.74
 STEP:  40 TIME =     0.03 SECS, INTEGRAL =      1.26 TIME LEFT: 172798.71
 STEP:  41 TIME =     0.03 SECS, INTEGRAL =      1.29 TIME LEFT: 172798.68
 STEP:  42 TIME =     0.03 SECS, INTEGRAL =      1.32 TIME LEFT: 172798.65
 STEP:  43 TIME =     0.03 SECS, INTEGRAL =      1.36 TIME LEFT: 172798.62
 STEP:  44 TIME =     0.04 SECS, INTEGRAL =      1.39 TIME LEFT: 172798.58
 STEP:  45 TIME =     0.03 SECS, INTEGRAL =      1.42 TIME LEFT: 172798.55
 STEP:  46 TIME =     0.03 SECS, INTEGRAL =      1.45 TIME LEFT: 172798.52
 STEP:  47 TIME =     0.03 SECS, INTEGRAL =      1.48 TIME LEFT: 172798.49
 STEP:  48 TIME =     0.03 SECS, INTEGRAL =      1.52 TIME LEFT: 172798.46
 STEP:  49 TIME =     0.03 SECS, INTEGRAL =      1.55 TIME LEFT: 172798.43
 STEP:  50 TIME =     0.03 SECS, INTEGRAL =      1.58 TIME LEFT: 172798.39
 STEP:  51 TIME =     0.03 SECS, INTEGRAL =      1.61 TIME LEFT: 172798.36

(To convert to Hartree/Bohr^2, multiply by (10^(-21) x N x a0^2)/(4.184 x 627.51) =  0.0642)


           FORCE MATRIX IN MILLIDYNES/ANGSTROM


                  C  1       C  2       C  3       C  4       C  5       C  6
 ------------------------------------------------------------------------------
     C    1  14.509887
     C    2   3.032137  14.239455
     C    3   4.230272   0.690983  14.466130
     C    4   0.678867   4.108517   0.709690  14.338522
     C    5   0.771438   0.776044   3.902225   3.893382  14.284375
     C    6   3.316759   2.061710   0.516329   0.060831   0.034070  14.066430
     C    7   2.011248   4.188823   0.059201   0.498934   0.040996   4.562001
     H    8   4.595986   0.411748   0.425920   0.029820   0.038281   0.419994
     H    9   0.416608   4.542757   0.029926   0.440162   0.035117   0.049294
     H   10   0.039649   0.040781   0.437968   0.434112   4.571453   0.003725
     H   11   0.013944   0.013855   0.441333   0.442618   4.511905   0.002246
     H   12   0.440768   0.009384   4.532666   0.013937   0.441099   0.041106
     H   13   0.444636   0.038611   4.533785   0.039789   0.439195   0.021724
     H   14   0.010991   0.461305   0.013495   4.542980   0.440830   0.012357
     H   15   0.038933   0.444340   0.038237   4.547941   0.437485   0.005080
     H   16   0.443360   0.048111   0.020117   0.013778   0.003736   4.596344
     H   17   0.434866   0.051299   0.034965   0.008307   0.001285   4.653338


                  C  7       H  8       H  9       H 10       H 11       H 12
 ------------------------------------------------------------------------------
     C    7   8.744575
     H    8   0.045231   5.094995
     H    9   0.319095   0.016718   5.037012
     H   10   0.007243   0.004295   0.003400   5.180572
     H   11   0.004729   0.001456   0.001117   0.584285   5.114163
     H   12   0.006482   0.034284   0.001164   0.031476   0.038296   5.125772
     H   13   0.006619   0.015079   0.003927   0.017035   0.031426   0.576389
     H   14   0.029479   0.000850   0.031307   0.031745   0.038025   0.001132
     H   15   0.036528   0.003998   0.015617   0.017211   0.031348   0.001405
     H   16   0.335593   0.028422   0.006121   0.001024   0.002981   0.003232
     H   17   0.334037   0.024965   0.011650   0.000494   0.000315   0.004332


                  H 13       H 14       H 15       H 16       H 17
 ------------------------------------------------------------------
     H   13   5.149624
     H   14   0.001574   5.131297
     H   15   0.003987   0.569980   5.151382
     H   16   0.026543   0.002197   0.001170   5.227025
     H   17   0.003297   0.001759   0.000665   0.561424   5.275647


          HEAT OF FORMATION =      84.858280 KCALS/MOLE

          ZERO POINT ENERGY      93.167 KCAL/MOL


           NORMAL COORDINATE ANALYSIS (Total motion = 1 Angstrom)


   Root No.       1         2         3         4         5         6         7         8

                 1 A       2 A       3 A       4 A       5 A       6 A       7 A       8 A   

                 118.7     158.4     343.8     379.0     615.3     638.2     726.4     784.4
  
           1    0.0004    0.0064   -0.0217    0.0243    0.0226    0.0145   -0.0215   -0.0097
           2    0.0062   -0.0011   -0.0141   -0.0101    0.0511   -0.0274   -0.0036    0.0105
           3   -0.0069    0.0095    0.0182    0.0410    0.0058    0.0188    0.0235   -0.0063
           4   -0.0012    0.0066   -0.0211    0.0253    0.0249   -0.0072   -0.0204    0.0067
           5    0.0060    0.0049   -0.0179   -0.0081   -0.0469   -0.0389    0.0061    0.0116
           6   -0.0067   -0.0208    0.0496    0.0049   -0.0101    0.0180   -0.0259   -0.0048
           7   -0.0068    0.0056   -0.0027   -0.0111   -0.0416    0.0547   -0.0130   -0.0212
           8    0.0034    0.0007   -0.0086   -0.0241    0.0424   -0.0013    0.0221   -0.0082
           9   -0.0293   -0.0320   -0.0121   -0.0389    0.0110   -0.0110    0.0090   -0.0164
          10    0.0071    0.0042    0.0114    0.0025   -0.0327   -0.0631   -0.0085    0.0216
          11    0.0022    0.0032   -0.0305   -0.0015   -0.0450   -0.0111   -0.0155   -0.0070
          12   -0.0275    0.0437   -0.0356    0.0009   -0.0081   -0.0109   -0.0082   -0.0152
          13    0.0010    0.0146    0.0107   -0.0083   -0.0258   -0.0023    0.0059   -0.0001
          14    0.0240    0.0012   -0.0237   -0.0165   -0.0077    0.0643    0.0028   -0.0293
          15    0.0557    0.0005   -0.0084   -0.0058    0.0024   -0.0253    0.0007   -0.0207
          16   -0.0002   -0.0195    0.0112   -0.0145    0.0302    0.0022    0.0273   -0.0000
          17   -0.0241   -0.0359    0.0132    0.0529    0.0278    0.0008   -0.0504    0.0080
          18    0.0080    0.0262    0.0046    0.0123    0.0156    0.0009    0.0288    0.0157
          19   -0.0003   -0.0195    0.0082   -0.0145    0.0310    0.0027    0.0215    0.0028
          20   -0.0219    0.0397    0.0983   -0.0052   -0.0150    0.0029    0.0264    0.0083
          21    0.0067   -0.0384   -0.0021    0.0002   -0.0251   -0.0069   -0.0178    0.0106
          22    0.0033    0.0207   -0.0526    0.0447    0.0199   -0.0237   -0.0038    0.0025
          23    0.0190    0.0250   -0.0106   -0.0106    0.0637   -0.0064    0.0213    0.0150
          24    0.0052    0.0383   -0.0000    0.0514    0.0141    0.0098    0.0520    0.0058
          25   -0.0048    0.0200   -0.0299    0.0543    0.0174    0.0299   -0.0064   -0.0084
          26    0.0163   -0.0304   -0.0156   -0.0076   -0.0628   -0.0141   -0.0426    0.0112
          27    0.0043   -0.0562    0.0529   -0.0135   -0.0180    0.0129   -0.0717    0.0049
          28    0.0011   -0.0040    0.0250   -0.0273    0.0357    0.0045    0.0436   -0.0022
          29   -0.0339    0.0048   -0.0340   -0.0255   -0.0032    0.0113    0.0068   -0.1211
          30    0.1510   -0.0053    0.0081    0.0089   -0.0057    0.0683   -0.0063    0.1344
          31    0.0025    0.0483    0.0035    0.0074   -0.0314   -0.0009    0.0025    0.0019
          32    0.1349   -0.0058   -0.0040    0.0004   -0.0182    0.1852   -0.0044    0.1387
          33    0.0878   -0.0015   -0.0029   -0.0010   -0.0007    0.0114   -0.0016    0.0326
          34   -0.0784   -0.0348   -0.0196   -0.1021   -0.0714    0.1068   -0.0198    0.0928
          35   -0.0046    0.0180    0.0154    0.0220    0.0568    0.0016    0.0510   -0.0223
          36   -0.0575   -0.0540   -0.0262   -0.0916   -0.0055    0.0110   -0.0020    0.0392
          37    0.0399    0.0338    0.0130    0.0399   -0.0328    0.0157    0.0001   -0.0970
          38   -0.0013   -0.0130   -0.0127   -0.0838    0.0142   -0.0303    0.0315    0.0251
          39   -0.0830   -0.0671   -0.0313   -0.1133   -0.0071    0.0285   -0.0030    0.0799
          40    0.0774   -0.0549    0.0989   -0.0067   -0.0531   -0.1253   -0.0102   -0.0849
          41   -0.0071   -0.0232    0.0147    0.0074   -0.0605   -0.0132   -0.0432   -0.0156
          42   -0.0556    0.0770   -0.0877    0.0026    0.0048    0.0175   -0.0001    0.0369
          43   -0.0390    0.0451   -0.0396    0.0034   -0.0302   -0.0201   -0.0011    0.0954
          44   -0.0031    0.0279   -0.0958    0.0105   -0.0123   -0.0322   -0.0195    0.0212
          45   -0.0797    0.0945   -0.1094    0.0047    0.0029    0.0348   -0.0016    0.0751
          46   -0.0023   -0.0936   -0.0618    0.0326   -0.0396   -0.0173    0.2355    0.0093
          47   -0.0452   -0.0924   -0.0275    0.1481   -0.0554    0.0263    0.1097    0.0092
          48   -0.0050    0.0265    0.0162    0.0484    0.0001    0.0281    0.0214    0.0115
          49    0.0017    0.0378    0.1087   -0.0894    0.0825    0.0119   -0.1370   -0.0098
          50   -0.0262   -0.0632   -0.0289    0.0905   -0.0019   -0.0014    0.0342    0.0122
          51    0.0320    0.0828    0.0125   -0.0699    0.1152   -0.0278   -0.1076    0.0222


   Root No.       9        10        11        12        13        14        15        16

                 9 A      10 A      11 A      12 A      13 A      14 A      15 A      16 A   

                 811.4     887.8     927.3     945.3     954.5     988.5    1011.1    1023.1
  
           1   -0.0271   -0.0205   -0.0215    0.0295   -0.0113    0.0130   -0.0023    0.0040
           2   -0.0180   -0.0126   -0.0076    0.0091    0.0080    0.0028   -0.0009    0.0148
           3    0.0297    0.0156    0.0056    0.0164    0.0113   -0.0109   -0.0091    0.0128
           4   -0.0233   -0.0113    0.0476   -0.0148   -0.0164   -0.0134    0.0044   -0.0029
           5    0.0177    0.0085   -0.0191    0.0121    0.0078    0.0193   -0.0157   -0.0136
           6   -0.0262   -0.0209    0.0120    0.0044   -0.0131   -0.0153    0.0055   -0.0006
           7    0.0013   -0.0040   -0.0089   -0.0251    0.0161    0.0054   -0.0211    0.0169
           8    0.0001    0.0001    0.0228    0.0093   -0.0192   -0.0110   -0.0097   -0.0033
           9    0.0250   -0.0254   -0.0038    0.0087    0.0080   -0.0197   -0.0011   -0.0107
          10    0.0049   -0.0021    0.0009    0.0082    0.0029   -0.0243    0.0436    0.0118
          11    0.0026    0.0042    0.0080   -0.0094    0.0022   -0.0227   -0.0032    0.0004
          12   -0.0258    0.0216   -0.0001    0.0206    0.0119   -0.0159   -0.0101   -0.0114
          13    0.0155    0.0010   -0.0039    0.0006   -0.0025    0.0055   -0.0101   -0.0134
          14   -0.0006    0.0018   -0.0051    0.0107    0.0010    0.0022    0.0511   -0.0013
          15   -0.0013    0.0015    0.0005   -0.0184   -0.0119    0.0158   -0.0027    0.0111
          16    0.0141    0.0154   -0.0022   -0.0022    0.0096   -0.0129   -0.0012    0.0034
          17    0.0165    0.0178   -0.0122   -0.0170    0.0228    0.0083   -0.0016   -0.0023
          18   -0.0114    0.0180   -0.0170   -0.0385    0.0008   -0.0053    0.0131   -0.0063
          19    0.0084    0.0142   -0.0347   -0.0139   -0.0012    0.0102    0.0029   -0.0190
          20   -0.0153   -0.0233    0.0070   -0.0024   -0.0013    0.0216    0.0021    0.0041
          21    0.0115   -0.0107    0.0291    0.0083    0.0043    0.0539    0.0104    0.0017
          22   -0.0151   -0.0276   -0.0832    0.1509   -0.0542    0.1224   -0.0486   -0.0015
          23   -0.0443    0.0108   -0.0029   -0.0087   -0.0115    0.0022   -0.0118    0.0762
          24    0.0156    0.0287   -0.0350    0.0794   -0.0296    0.0591   -0.0454    0.0557
          25    0.0042   -0.0007    0.2187   -0.0151    0.0191    0.0747   -0.0382   -0.0983
          26    0.0380   -0.0322   -0.0652   -0.0269   -0.0876   -0.0234   -0.1378   -0.0172
          27   -0.0262   -0.0595   -0.1346   -0.0228   -0.1106   -0.1008   -0.0616    0.0579
          28    0.0589   -0.0574    0.0114    0.0141   -0.0562    0.0391   -0.0245   -0.0800
          29   -0.0045    0.0071   -0.0090   -0.0171   -0.0172    0.0325    0.0816    0.0144
          30    0.0055   -0.0069    0.0094    0.0278    0.0185   -0.0382   -0.0545   -0.0153
          31   -0.0262    0.0718    0.0001    0.0299    0.0093    0.0249   -0.0664   -0.0110
          32    0.0073   -0.0070    0.0110    0.0645    0.0357   -0.0686    0.0072   -0.0348
          33    0.0013   -0.0016    0.0046   -0.0004   -0.0008   -0.0062   -0.0153    0.0007
          34   -0.0862    0.0933    0.0141   -0.0043    0.0127    0.0358   -0.0526    0.0572
          35    0.0617   -0.0034    0.0500    0.0693    0.0307   -0.0985   -0.0978    0.0302
          36   -0.0317    0.0191   -0.0003    0.0017   -0.0076    0.0166    0.0096   -0.0014
          37    0.0680   -0.0582   -0.0106   -0.0640    0.0097   -0.0083   -0.0444   -0.0187
          38   -0.0285    0.0473    0.0647   -0.0888   -0.1128    0.0436   -0.0485   -0.0601
          39   -0.0590    0.0493    0.0080    0.0300   -0.0070    0.0112    0.0133    0.0161
          40   -0.0893    0.0967    0.0009    0.0532    0.0434   -0.0180    0.0088    0.0085
          41   -0.0517   -0.0034    0.0327    0.0228    0.0050   -0.1446   -0.0419   -0.1048
          42    0.0332   -0.0217   -0.0066   -0.0087   -0.0083    0.0137    0.0151    0.0184
          43    0.0773   -0.0637   -0.0211    0.0019   -0.0170   -0.0265    0.0976   -0.0072
          44    0.0335   -0.0134    0.0633   -0.1112   -0.0402    0.0129   -0.0447    0.1454
          45    0.0632   -0.0532   -0.0130   -0.0101   -0.0202   -0.0105    0.0409    0.0016
          46   -0.0555   -0.0670    0.0531   -0.0110    0.1012   -0.0248   -0.0334    0.0687
          47   -0.0110    0.0527   -0.0252   -0.0126   -0.0895   -0.0124    0.0333   -0.0080
          48    0.0100    0.0850   -0.0539   -0.0300   -0.1180   -0.0113    0.0524   -0.0431
          49    0.1379    0.1012    0.0866    0.0557   -0.0342   -0.0232    0.0088    0.0727
          50   -0.0359   -0.0154   -0.0463   -0.0381    0.0323    0.0113   -0.0037   -0.0273
          51   -0.0303   -0.0369   -0.0913   -0.0869    0.1489    0.0342   -0.0247   -0.0501


   Root No.      17        18        19        20        21        22        23        24

                17 A      18 A      19 A      20 A      21 A      22 A      23 A      24 A   

                1040.1    1051.9    1084.0    1093.9    1112.6    1142.5    1156.0    1169.3
  
           1   -0.0060   -0.0053    0.0067   -0.0133    0.0112    0.0115   -0.0113    0.0562
           2   -0.0096   -0.0141    0.0071   -0.0200    0.0165    0.0099   -0.0113    0.0046
           3    0.0085    0.0023   -0.0129    0.0026   -0.0243   -0.0039   -0.0282    0.0346
           4    0.0081    0.0075    0.0016    0.0091    0.0099   -0.0050    0.0205   -0.0401
           5    0.0031   -0.0066    0.0157   -0.0157    0.0144   -0.0041    0.0063    0.0189
           6    0.0029    0.0003   -0.0022    0.0035   -0.0082    0.0056   -0.0118    0.0254
           7   -0.0256   -0.0189    0.0037   -0.0126    0.0056   -0.0121    0.0121   -0.0016
           8   -0.0085    0.0052   -0.0111    0.0033    0.0003   -0.0080    0.0081    0.0199
           9   -0.0123   -0.0001   -0.0097    0.0063    0.0277    0.0021   -0.0103   -0.0218
          10   -0.0022    0.0041   -0.0132    0.0025   -0.0125   -0.0200   -0.0016    0.0042
          11   -0.0097    0.0014    0.0009    0.0116   -0.0143    0.0170   -0.0115    0.0053
          12   -0.0057    0.0022    0.0190    0.0065    0.0053   -0.0296   -0.0046   -0.0112
          13    0.0149    0.0074    0.0079    0.0078   -0.0004    0.0261   -0.0138   -0.0094
          14    0.0243    0.0109   -0.0051    0.0082   -0.0036   -0.0076   -0.0002   -0.0145
          15    0.0100   -0.0019   -0.0055   -0.0229   -0.0248    0.0241    0.0228    0.0086
          16    0.0108   -0.0087    0.0034   -0.0024   -0.0024    0.0017   -0.0101    0.0242
          17    0.0139   -0.0066    0.0049    0.0101   -0.0047   -0.0019    0.0081   -0.0098
          18    0.0133   -0.0103    0.0188    0.0045    0.0251    0.0044    0.0265   -0.0096
          19   -0.0281    0.0217   -0.0168   -0.0003   -0.0142   -0.0049   -0.0019   -0.0242
          20   -0.0046    0.0050   -0.0033   -0.0002    0.0058   -0.0004    0.0057   -0.0088
          21   -0.0207    0.0046   -0.0012   -0.0004    0.0110    0.0030    0.0118   -0.0148
          22    0.0183   -0.0399   -0.0357    0.1368   -0.0281   -0.0109    0.1049   -0.0514
          23   -0.0629   -0.0518    0.0101   -0.1140   -0.0548   -0.0063   -0.1355   -0.1849
          24   -0.0154   -0.0490   -0.0376    0.0296   -0.1051   -0.0301   -0.0496   -0.1787
          25    0.0526    0.0276   -0.0450   -0.1079   -0.0108   -0.0797   -0.0608   -0.0034
          26    0.1374    0.0431   -0.0297   -0.0970    0.0212   -0.1277   -0.0298   -0.0506
          27    0.0784    0.0272   -0.0086    0.0156    0.0107   -0.0444    0.0123   -0.0514
          28    0.0325    0.0527    0.2581    0.0332   -0.0860    0.0416   -0.0410   -0.0151
          29    0.0535    0.0154   -0.0159   -0.0078   -0.0351    0.0141    0.0263   -0.0170
          30   -0.0395   -0.0086    0.0101    0.0056    0.0249   -0.0103   -0.0173    0.0108
          31    0.0806    0.0563   -0.1443    0.0235    0.1179    0.2192   -0.0704   -0.0502
          32   -0.0267    0.0111    0.0075    0.0628    0.0472   -0.0530   -0.0380   -0.0349
          33   -0.0050   -0.0019   -0.0014   -0.0090   -0.0103    0.0111    0.0123    0.0031
          34    0.0110    0.0263    0.0126   -0.0380   -0.0727    0.0056    0.0903    0.0474
          35   -0.0621    0.1157   -0.0371   -0.0341   -0.0278   -0.0087    0.1976    0.0159
          36    0.0177   -0.0112   -0.0010    0.0044    0.0012    0.0097   -0.0308   -0.0002
          37   -0.0613   -0.0688   -0.0290    0.0371    0.0482   -0.0439   -0.0014   -0.0047
          38   -0.0049   -0.1093   -0.0936    0.1265   -0.0401   -0.0926   -0.0277    0.1124
          39    0.0308    0.0283    0.0068   -0.0192   -0.0301    0.0201   -0.0047    0.0048
          40   -0.0047    0.0490    0.0315    0.0339    0.0358   -0.1179   -0.0398   -0.0087
          41   -0.0402   -0.0919    0.0008   -0.0030   -0.1043    0.1605    0.0359   -0.0708
          42    0.0052    0.0089    0.0004   -0.0038    0.0072   -0.0268   -0.0021    0.0155
          43    0.0294   -0.0290   -0.0660   -0.0470   -0.0421    0.0034    0.0240    0.0178
          44   -0.0572    0.1070    0.0452    0.1253    0.0041    0.0494   -0.0865    0.0311
          45    0.0173   -0.0124   -0.0287   -0.0235   -0.0237    0.0021    0.0080    0.0115
          46    0.1191   -0.0702    0.0336    0.0379    0.0134   -0.0023    0.0292   -0.0174
          47   -0.0380   -0.0082    0.0229   -0.0333    0.0425    0.0133    0.0078    0.0036
          48   -0.0757    0.0192    0.0151   -0.0437    0.0479    0.0166    0.0063    0.0226
          49    0.0573   -0.0966    0.0650    0.0020    0.0583    0.0162    0.0386   -0.0254
          50   -0.0071    0.0262   -0.0175    0.0053   -0.0248   -0.0065   -0.0109    0.0079
          51    0.0345    0.0347   -0.0303    0.0415   -0.0615   -0.0156   -0.0091    0.0302


   Root No.      25        26        27        28        29        30        31        32

                25 A      26 A      27 A      28 A      29 A      30 A      31 A      32 A   

                1237.5    1266.6    1299.9    1306.8    1320.3    1342.8    1354.5    1396.4
  
           1   -0.0125    0.0082   -0.0406    0.0150   -0.0247   -0.0006   -0.0178    0.0082
           2    0.0122   -0.0167    0.0210    0.0068    0.0046   -0.0149    0.0687   -0.0044
           3   -0.0342   -0.0322    0.0079    0.0071    0.0049   -0.0002    0.0174   -0.0073
           4   -0.0454   -0.0011    0.0397    0.0031    0.0118    0.0055   -0.0070   -0.0066
           5   -0.0211    0.0095    0.0276   -0.0188   -0.0033   -0.0255   -0.0466   -0.0105
           6    0.0302    0.0335    0.0109   -0.0080    0.0164   -0.0246   -0.0218   -0.0169
           7    0.0050   -0.0128    0.0010   -0.0216    0.0181    0.0099   -0.0114    0.0079
           8    0.0078   -0.0293   -0.0128   -0.0111    0.0310    0.0262   -0.0529   -0.0093
           9    0.0033    0.0143   -0.0002   -0.0021   -0.0063   -0.0045    0.0012   -0.0002
          10    0.0106   -0.0086   -0.0133   -0.0260   -0.0108   -0.0065   -0.0045   -0.0210
          11    0.0032    0.0303   -0.0190    0.0409    0.0370    0.0270    0.0291   -0.0093
          12   -0.0014   -0.0117   -0.0012   -0.0017   -0.0086    0.0016    0.0039   -0.0010
          13    0.0201   -0.0027    0.0341    0.0742   -0.0156   -0.0014   -0.0068    0.0049
          14   -0.0029    0.0004    0.0043   -0.0056   -0.0125   -0.0056    0.0016    0.0153
          15   -0.0007   -0.0012    0.0016   -0.0001    0.0014   -0.0010    0.0009   -0.0053
          16    0.0093    0.0146    0.0618   -0.0268    0.0014    0.0070    0.0073    0.0254
          17    0.0013    0.0046   -0.0128    0.0017    0.0020   -0.0123   -0.0147    0.0066
          18    0.0181    0.0037   -0.0244    0.0071    0.0066   -0.0275   -0.0070    0.0125
          19   -0.0015   -0.0172   -0.0411    0.0191    0.0084   -0.0190    0.0005   -0.0178
          20   -0.0080   -0.0086   -0.0025    0.0026   -0.0067    0.0109    0.0083    0.0066
          21   -0.0193   -0.0155   -0.0037    0.0039   -0.0141    0.0220    0.0112    0.0136
          22    0.1380   -0.0007    0.0444   -0.0344    0.0521    0.0049    0.0458   -0.0006
          23   -0.0378    0.1127   -0.0224    0.0012   -0.0488   -0.0116   -0.0769    0.0133
          24    0.0248    0.0601    0.0278   -0.0286    0.0141    0.0048   -0.0534   -0.0004
          25    0.1593    0.0129   -0.0414   -0.0226   -0.0023   -0.0305    0.0354   -0.0092
          26    0.0388   -0.0611   -0.0368   -0.0154   -0.0382    0.0151    0.0453    0.0157
          27   -0.0555   -0.0311    0.0116    0.0115   -0.0023    0.0298    0.0217    0.0041
          28   -0.0676    0.0485   -0.0823   -0.1248    0.0368    0.0050    0.0694   -0.0085
          29   -0.0066   -0.0000    0.0147   -0.0196   -0.0527   -0.0385    0.0212   -0.0444
          30    0.0057   -0.0007   -0.0141    0.0212    0.0587    0.0469   -0.0274    0.0785
          31   -0.0613    0.0484   -0.0758   -0.1449    0.0330    0.0010    0.0228   -0.0115
          32   -0.0006    0.0041    0.0057   -0.0208   -0.0676   -0.0461    0.0285   -0.0861
          33    0.0004   -0.0003    0.0015   -0.0026   -0.0103   -0.0095    0.0064   -0.0270
          34   -0.0182    0.0147   -0.0000   -0.0430    0.0036   -0.0513    0.1258   -0.0682
          35   -0.0083    0.1387   -0.0210    0.0231   -0.0900   -0.0349    0.0260    0.0421
          36   -0.0029   -0.0194    0.0015   -0.0166    0.0187   -0.0107    0.0296   -0.0396
          37   -0.0184    0.0311   -0.0082   -0.0624   -0.0029   -0.0429    0.0942   -0.0455
          38   -0.0921    0.0745   -0.0365    0.0246   -0.0900   -0.0353    0.0421    0.0414
          39    0.0042   -0.0103    0.0038    0.0475   -0.0098    0.0345   -0.0844    0.0623
          40   -0.0009    0.0282   -0.0651   -0.0209    0.0389    0.0358    0.0634    0.1318
          41    0.0354   -0.1339   -0.0226   -0.0719   -0.0995   -0.0125    0.0016    0.0604
          42   -0.0035    0.0176    0.0183    0.0233    0.0084   -0.0050   -0.0148   -0.0737
          43   -0.0060    0.0361   -0.0603   -0.0376    0.0471    0.0247    0.0405    0.0868
          44    0.1112   -0.0572   -0.0062   -0.0708   -0.0831   -0.0533   -0.0363    0.0511
          45    0.0044    0.0175   -0.0452   -0.0351    0.0267    0.0161    0.0353    0.1137
          46    0.0163    0.0076   -0.1089    0.0254   -0.0349    0.0588   -0.0207   -0.0430
          47    0.0529    0.0329    0.0077   -0.0310   -0.0691    0.1800    0.0310   -0.0666
          48    0.0503    0.0264    0.0709   -0.0417   -0.0297    0.0920    0.0392   -0.0086
          49    0.0303    0.0075   -0.0992    0.0238   -0.0358    0.0555   -0.0032   -0.0449
          50   -0.0053    0.0063    0.0480   -0.0168    0.0161   -0.0313   -0.0071    0.0336
          51    0.0202    0.0474    0.0311   -0.0529   -0.0780    0.2109   -0.0215   -0.0543


   Root No.      33        34        35        36        37        38        39        40

                33 A      34 A      35 A      36 A      37 A      38 A      39 A      40 A   

                1411.1    1415.8    1426.6    2967.8    2977.2    2986.9    2995.5    3007.6
  
           1    0.0104    0.0130   -0.0136    0.0007   -0.0017   -0.0008   -0.0051    0.0165
           2   -0.0105   -0.0230    0.0202    0.0009   -0.0019   -0.0010   -0.0056    0.0196
           3   -0.0111   -0.0076    0.0091   -0.0010    0.0024    0.0013    0.0070   -0.0257
           4   -0.0194   -0.0007    0.0084   -0.0008   -0.0026    0.0036   -0.0181   -0.0036
           5   -0.0315   -0.0018    0.0121    0.0009    0.0029   -0.0042    0.0215    0.0047
           6   -0.0257   -0.0083    0.0130   -0.0011   -0.0039    0.0054   -0.0279   -0.0064
           7    0.0122   -0.0208    0.0305    0.0038   -0.0048   -0.0030    0.0003   -0.0022
           8    0.0065    0.0288   -0.0123    0.0013   -0.0016   -0.0009   -0.0002    0.0002
           9   -0.0021    0.0033   -0.0076    0.0190   -0.0242   -0.0145    0.0000   -0.0054
          10    0.0232   -0.0210   -0.0161   -0.0027   -0.0045    0.0031    0.0037    0.0007
          11    0.0261    0.0035   -0.0020    0.0011    0.0018   -0.0013   -0.0003    0.0000
          12    0.0068   -0.0041   -0.0055    0.0144    0.0242   -0.0168   -0.0136   -0.0020
          13   -0.0128    0.0155   -0.0053   -0.0001   -0.0000   -0.0001    0.0001   -0.0001
          14   -0.0170   -0.0268   -0.0234   -0.0072   -0.0013   -0.0061   -0.0017   -0.0008
          15    0.0042    0.0082    0.0099   -0.0244   -0.0044   -0.0207   -0.0054   -0.0023
          16    0.0331    0.0115   -0.0144    0.0001   -0.0001   -0.0002    0.0001    0.0008
          17    0.0090    0.0053   -0.0060   -0.0002    0.0005    0.0004    0.0015   -0.0131
          18    0.0172    0.0048   -0.0076    0.0001   -0.0002   -0.0002   -0.0005    0.0068
          19   -0.0226   -0.0113    0.0123   -0.0001   -0.0001    0.0002   -0.0003   -0.0005
          20    0.0095    0.0035   -0.0050   -0.0001   -0.0001    0.0001    0.0003    0.0002
          21    0.0186    0.0085   -0.0105   -0.0000   -0.0002    0.0001   -0.0006    0.0003
          22    0.0097   -0.0171    0.0168   -0.0082    0.0194    0.0107    0.0543   -0.1996
          23    0.0104    0.0302   -0.0335   -0.0081    0.0216    0.0112    0.0671   -0.2364
          24    0.0037    0.0133   -0.0125    0.0124   -0.0306   -0.0159   -0.0883    0.3087
          25    0.0050   -0.0202    0.0028    0.0087    0.0306   -0.0429    0.2162    0.0500
          26    0.0408   -0.0035   -0.0188   -0.0093   -0.0356    0.0508   -0.2645   -0.0581
          27    0.0133    0.0024   -0.0075    0.0133    0.0480   -0.0669    0.3397    0.0747
          28    0.0344   -0.0415    0.0140    0.0001    0.0023    0.0002   -0.0002    0.0000
          29    0.0369    0.0645    0.0717    0.1441    0.0261    0.1261    0.0310    0.0109
          30   -0.0703   -0.1190   -0.1248    0.0845    0.0151    0.0717    0.0173    0.0058
          31    0.0296   -0.0370    0.0127    0.0007   -0.0032    0.0005    0.0011   -0.0002
          32    0.0824    0.1323    0.1278   -0.0597   -0.0110   -0.0529   -0.0144   -0.0065
          33    0.0257    0.0424    0.0414    0.2089    0.0374    0.1757    0.0475    0.0218
          34   -0.0712    0.0894   -0.1254    0.0587   -0.0763   -0.0466   -0.0001   -0.0141
          35    0.0142   -0.0489    0.0141   -0.0395    0.0479    0.0277   -0.0012    0.0109
          36   -0.0329    0.0606   -0.0675   -0.1380    0.1741    0.1037   -0.0002    0.0277
          37   -0.0496    0.0552   -0.0893   -0.1028    0.1352    0.0813   -0.0003    0.0420
          38    0.0149   -0.0661    0.0341    0.0237   -0.0295   -0.0170    0.0001   -0.0091
          39    0.0602   -0.0895    0.1196   -0.0901    0.1164    0.0689   -0.0004    0.0371
          40   -0.0864    0.0962    0.0624   -0.0450   -0.0772    0.0552    0.0403    0.0047
          41   -0.0175    0.0096   -0.0127   -0.0299   -0.0477    0.0317    0.0263    0.0029
          42    0.0561   -0.0474   -0.0303   -0.1042   -0.1735    0.1207    0.0853    0.0085
          43   -0.0610    0.0678    0.0497    0.0762    0.1321   -0.0923   -0.0854   -0.0167
          44   -0.0556    0.0123    0.0051    0.0169    0.0275   -0.0183   -0.0175   -0.0035
          45   -0.0895    0.0831    0.0602   -0.0684   -0.1163    0.0799    0.0753    0.0151
          46   -0.0472   -0.0124    0.0161   -0.0005    0.0020    0.0014    0.0069   -0.0490
          47   -0.0741   -0.0191    0.0256    0.0007   -0.0026   -0.0013   -0.0094    0.0614
          48   -0.0051   -0.0016    0.0011   -0.0014    0.0044    0.0027    0.0129   -0.0914
          49   -0.0514   -0.0159    0.0193    0.0003   -0.0006   -0.0014   -0.0024    0.0438
          50    0.0416    0.0151   -0.0187    0.0004   -0.0010   -0.0028   -0.0043    0.0973
          51   -0.0562   -0.0016    0.0099   -0.0001    0.0002    0.0000   -0.0000    0.0052


   Root No.      41        42        43        44        45

                41 A      42 A      43 A      44 A      45 A   

                3021.8    3056.4    3056.9    3064.3    3095.0
  
           1    0.0064    0.0007   -0.0004    0.0007   -0.0006
           2    0.0079    0.0005   -0.0001    0.0007   -0.0007
           3   -0.0103   -0.0009    0.0006   -0.0007   -0.0003
           4   -0.0007   -0.0005   -0.0004   -0.0006    0.0012
           5    0.0013    0.0003    0.0000    0.0006    0.0000
           6   -0.0016   -0.0006   -0.0006   -0.0006    0.0014
           7   -0.0018    0.0161   -0.0172    0.0082    0.0007
           8    0.0003   -0.0056    0.0062   -0.0033   -0.0002
           9   -0.0013   -0.0025    0.0027   -0.0011    0.0003
          10    0.0002   -0.0132   -0.0206   -0.0082    0.0001
          11    0.0000   -0.0043   -0.0071   -0.0031    0.0000
          12   -0.0003   -0.0019   -0.0029   -0.0010    0.0001
          13   -0.0000    0.0001   -0.0005   -0.0000    0.0000
          14   -0.0001    0.0112    0.0012   -0.0242   -0.0000
          15   -0.0003   -0.0026   -0.0003    0.0046    0.0001
          16   -0.0023    0.0001   -0.0002    0.0001   -0.0273
          17    0.0386    0.0008   -0.0009    0.0005   -0.0197
          18   -0.0223   -0.0002    0.0001   -0.0001   -0.0256
          19   -0.0003   -0.0001   -0.0000   -0.0000   -0.0006
          20    0.0007    0.0000   -0.0001    0.0000   -0.0004
          21   -0.0003    0.0000    0.0000   -0.0000   -0.0006
          22   -0.0786   -0.0061    0.0045   -0.0052    0.0029
          23   -0.0911   -0.0086    0.0066   -0.0066    0.0034
          24    0.1247    0.0106   -0.0079    0.0085   -0.0056
          25    0.0120    0.0039    0.0038    0.0040   -0.0043
          26   -0.0137   -0.0059   -0.0062   -0.0053    0.0054
          27    0.0175    0.0069    0.0070    0.0067   -0.0067
          28   -0.0001   -0.0002   -0.0019    0.0007   -0.0000
          29   -0.0000   -0.1100   -0.0113    0.2457    0.0006
          30   -0.0003   -0.0778   -0.0080    0.1719    0.0004
          31   -0.0001    0.0003   -0.0008   -0.0005   -0.0000
          32   -0.0014   -0.0224   -0.0023    0.0467    0.0003
          33    0.0045    0.1087    0.0113   -0.2284   -0.0016
          34    0.0014   -0.0567    0.0629   -0.0302   -0.0012
          35   -0.0006    0.0410   -0.0450    0.0209    0.0011
          36   -0.0071    0.1646   -0.1821    0.0867    0.0041
          37    0.0210   -0.1332    0.1480   -0.0720   -0.0075
          38   -0.0049    0.0272   -0.0294    0.0135    0.0011
          39    0.0189   -0.1355    0.1498   -0.0723   -0.0080
          40    0.0002    0.0474    0.0768    0.0309   -0.0006
          41    0.0002    0.0332    0.0531    0.0206   -0.0004
          42   -0.0001    0.1331    0.2146    0.0855   -0.0014
          43   -0.0042    0.1074    0.1737    0.0708   -0.0009
          44   -0.0009    0.0206    0.0325    0.0124   -0.0002
          45    0.0039   -0.1111   -0.1789   -0.0723    0.0010
          46    0.1538    0.0021   -0.0014    0.0012    0.1468
          47   -0.1913   -0.0023    0.0014   -0.0014   -0.2317
          48    0.2944    0.0033   -0.0020    0.0020    0.3066
          49   -0.1240   -0.0029    0.0039   -0.0021    0.1812
          50   -0.2788   -0.0069    0.0093   -0.0050    0.4704
          51   -0.0232   -0.0005    0.0005   -0.0004    0.0041


           MASS-WEIGHTED COORDINATE ANALYSIS (NORMAL COORDINATES)


   Root No.       1         2         3         4         5         6         7         8

                 1 A       2 A       3 A       4 A       5 A       6 A       7 A       8 A   

                 118.7     158.4     343.8     379.0     615.3     638.2     726.4     784.4
  
           1    0.0030    0.0512   -0.1420    0.1850    0.1530    0.0984   -0.1564   -0.0867
           2    0.0523   -0.0088   -0.0921   -0.0772    0.3455   -0.1854   -0.0263    0.0937
           3   -0.0577    0.0763    0.1187    0.3121    0.0392    0.1270    0.1715   -0.0559
           4   -0.0101    0.0529   -0.1376    0.1925    0.1682   -0.0487   -0.1489    0.0595
           5    0.0499    0.0389   -0.1169   -0.0621   -0.3170   -0.2635    0.0446    0.1028
           6   -0.0563   -0.1669    0.3243    0.0370   -0.0683    0.1222   -0.1891   -0.0425
           7   -0.0566    0.0445   -0.0175   -0.0847   -0.2810    0.3706   -0.0947   -0.1885
           8    0.0282    0.0060   -0.0562   -0.1835    0.2867   -0.0087    0.1613   -0.0732
           9   -0.2453   -0.2561   -0.0791   -0.2963    0.0746   -0.0744    0.0657   -0.1463
          10    0.0595    0.0335    0.0748    0.0191   -0.2213   -0.4276   -0.0623    0.1919
          11    0.0187    0.0257   -0.1996   -0.0116   -0.3044   -0.0752   -0.1131   -0.0620
          12   -0.2307    0.3499   -0.2326    0.0071   -0.0546   -0.0738   -0.0598   -0.1352
          13    0.0084    0.1173    0.0702   -0.0630   -0.1744   -0.0154    0.0433   -0.0006
          14    0.2015    0.0094   -0.1548   -0.1258   -0.0519    0.4358    0.0201   -0.2611
          15    0.4668    0.0044   -0.0552   -0.0442    0.0162   -0.1712    0.0051   -0.1842
          16   -0.0021   -0.1558    0.0734   -0.1107    0.2044    0.0152    0.1990   -0.0001
          17   -0.2017   -0.2871    0.0865    0.4028    0.1879    0.0054   -0.3677    0.0714
          18    0.0671    0.2093    0.0299    0.0941    0.1055    0.0062    0.2103    0.1395
          19   -0.0029   -0.1558    0.0537   -0.1105    0.2096    0.0181    0.1567    0.0248
          20   -0.1832    0.3182    0.6423   -0.0394   -0.1015    0.0197    0.1925    0.0735
          21    0.0563   -0.3076   -0.0140    0.0012   -0.1694   -0.0467   -0.1299    0.0944
          22    0.0080    0.0481   -0.0996    0.0986    0.0390   -0.0464   -0.0081    0.0063
          23    0.0461    0.0579   -0.0200   -0.0234    0.1248   -0.0126    0.0449    0.0387
          24    0.0127    0.0888   -0.0001    0.1134    0.0276    0.0191    0.1097    0.0148
          25   -0.0118    0.0463   -0.0567    0.1198    0.0340    0.0586   -0.0135   -0.0215
          26    0.0395   -0.0705   -0.0296   -0.0169   -0.1230   -0.0277   -0.0899    0.0288
          27    0.0104   -0.1304    0.1002   -0.0298   -0.0353    0.0254   -0.1515    0.0126
          28    0.0026   -0.0094    0.0474   -0.0604    0.0698    0.0089    0.0921   -0.0056
          29   -0.0823    0.0111   -0.0644   -0.0564   -0.0064    0.0221    0.0143   -0.3122
          30    0.3666   -0.0123    0.0154    0.0196   -0.0112    0.1340   -0.0133    0.3464
          31    0.0060    0.1120    0.0066    0.0163   -0.0615   -0.0018    0.0052    0.0048
          32    0.3274   -0.0135   -0.0076    0.0010   -0.0356    0.3634   -0.0093    0.3574
          33    0.2132   -0.0035   -0.0055   -0.0023   -0.0014    0.0223   -0.0035    0.0840
          34   -0.1903   -0.0807   -0.0371   -0.2255   -0.1397    0.2095   -0.0419    0.2392
          35   -0.0113    0.0418    0.0292    0.0487    0.1113    0.0031    0.1078   -0.0575
          36   -0.1395   -0.1253   -0.0496   -0.2022   -0.0107    0.0216   -0.0043    0.1011
          37    0.0968    0.0785    0.0246    0.0880   -0.0643    0.0308    0.0002   -0.2501
          38   -0.0032   -0.0302   -0.0241   -0.1850    0.0277   -0.0595    0.0666    0.0648
          39   -0.2014   -0.1557   -0.0593   -0.2501   -0.0140    0.0558   -0.0064    0.2059
          40    0.1878   -0.1274    0.1873   -0.0147   -0.1039   -0.2458   -0.0216   -0.2188
          41   -0.0172   -0.0537    0.0279    0.0163   -0.1185   -0.0260   -0.0911   -0.0402
          42   -0.1350    0.1786   -0.1660    0.0057    0.0095    0.0344   -0.0002    0.0951
          43   -0.0946    0.1045   -0.0751    0.0075   -0.0591   -0.0395   -0.0023    0.2459
          44   -0.0074    0.0647   -0.1814    0.0231   -0.0241   -0.0632   -0.0413    0.0546
          45   -0.1935    0.2192   -0.2072    0.0103    0.0057    0.0683   -0.0034    0.1935
          46   -0.0055   -0.2171   -0.1171    0.0720   -0.0776   -0.0339    0.4973    0.0241
          47   -0.1097   -0.2143   -0.0522    0.3269   -0.1085    0.0516    0.2316    0.0238
          48   -0.0122    0.0614    0.0306    0.1068    0.0002    0.0551    0.0452    0.0296
          49    0.0041    0.0878    0.2059   -0.1973    0.1615    0.0233   -0.2892   -0.0253
          50   -0.0637   -0.1466   -0.0547    0.1998   -0.0038   -0.0027    0.0722    0.0315
          51    0.0777    0.1920    0.0236   -0.1544    0.2256   -0.0545   -0.2272    0.0571


   Root No.       9        10        11        12        13        14        15        16

                 9 A      10 A      11 A      12 A      13 A      14 A      15 A      16 A   

                 811.4     887.8     927.3     945.3     954.5     988.5    1011.1    1023.1
  
           1   -0.2416   -0.1988   -0.1679    0.2633   -0.1066    0.1098   -0.0204    0.0414
           2   -0.1606   -0.1222   -0.0598    0.0811    0.0754    0.0238   -0.0077    0.1537
           3    0.2652    0.1510    0.0435    0.1470    0.1065   -0.0922   -0.0808    0.1327
           4   -0.2074   -0.1092    0.3729   -0.1323   -0.1548   -0.1137    0.0386   -0.0299
           5    0.1577    0.0822   -0.1495    0.1081    0.0741    0.1634   -0.1389   -0.1414
           6   -0.2335   -0.2025    0.0940    0.0394   -0.1240   -0.1295    0.0483   -0.0066
           7    0.0120   -0.0391   -0.0694   -0.2245    0.1522    0.0455   -0.1863    0.1756
           8    0.0006    0.0012    0.1788    0.0834   -0.1813   -0.0932   -0.0857   -0.0341
           9    0.2232   -0.2456   -0.0300    0.0782    0.0757   -0.1667   -0.0099   -0.1108
          10    0.0435   -0.0207    0.0067    0.0734    0.0270   -0.2054    0.3855    0.1228
          11    0.0228    0.0407    0.0628   -0.0842    0.0209   -0.1927   -0.0280    0.0038
          12   -0.2303    0.2093   -0.0006    0.1842    0.1121   -0.1347   -0.0895   -0.1179
          13    0.1378    0.0096   -0.0308    0.0058   -0.0237    0.0468   -0.0890   -0.1390
          14   -0.0050    0.0173   -0.0400    0.0952    0.0098    0.0189    0.4518   -0.0135
          15   -0.0114    0.0145    0.0037   -0.1644   -0.1123    0.1337   -0.0235    0.1153
          16    0.1255    0.1487   -0.0169   -0.0200    0.0910   -0.1090   -0.0107    0.0351
          17    0.1473    0.1719   -0.0955   -0.1524    0.2154    0.0706   -0.0145   -0.0238
          18   -0.1015    0.1747   -0.1330   -0.3439    0.0080   -0.0447    0.1158   -0.0657
          19    0.0749    0.1377   -0.2718   -0.1242   -0.0117    0.0865    0.0252   -0.1977
          20   -0.1363   -0.2259    0.0552   -0.0211   -0.0122    0.1831    0.0188    0.0431
          21    0.1021   -0.1032    0.2278    0.0745    0.0408    0.4569    0.0917    0.0177
          22   -0.0391   -0.0775   -0.1886    0.3909   -0.1484    0.3002   -0.1245   -0.0045
          23   -0.1145    0.0303   -0.0066   -0.0226   -0.0314    0.0053   -0.0302    0.2292
          24    0.0402    0.0805   -0.0794    0.2056   -0.0810    0.1451   -0.1163    0.1674
          25    0.0107   -0.0020    0.4959   -0.0391    0.0523    0.1833   -0.0977   -0.2957
          26    0.0983   -0.0902   -0.1479   -0.0696   -0.2397   -0.0574   -0.3528   -0.0517
          27   -0.0678   -0.1668   -0.3051   -0.0591   -0.3028   -0.2472   -0.1577    0.1742
          28    0.1522   -0.1610    0.0258    0.0366   -0.1540    0.0958   -0.0628   -0.2406
          29   -0.0117    0.0198   -0.0203   -0.0443   -0.0470    0.0798    0.2089    0.0432
          30    0.0142   -0.0195    0.0213    0.0721    0.0506   -0.0936   -0.1394   -0.0461
          31   -0.0677    0.2014    0.0003    0.0776    0.0253    0.0612   -0.1699   -0.0330
          32    0.0187   -0.0197    0.0249    0.1671    0.0979   -0.1682    0.0184   -0.1048
          33    0.0034   -0.0044    0.0103   -0.0010   -0.0023   -0.0152   -0.0392    0.0021
          34   -0.2225    0.2616    0.0319   -0.0111    0.0349    0.0879   -0.1346    0.1720
          35    0.1593   -0.0096    0.1134    0.1796    0.0842   -0.2417   -0.2503    0.0909
          36   -0.0818    0.0537   -0.0007    0.0043   -0.0207    0.0408    0.0245   -0.0041
          37    0.1755   -0.1631   -0.0241   -0.1657    0.0265   -0.0203   -0.1136   -0.0561
          38   -0.0737    0.1327    0.1467   -0.2299   -0.3088    0.1071   -0.1242   -0.1806
          39   -0.1525    0.1383    0.0181    0.0778   -0.0191    0.0274    0.0341    0.0485
          40   -0.2307    0.2712    0.0020    0.1377    0.1187   -0.0441    0.0226    0.0256
          41   -0.1335   -0.0095    0.0742    0.0591    0.0136   -0.3547   -0.1074   -0.3151
          42    0.0857   -0.0609   -0.0150   -0.0226   -0.0228    0.0337    0.0385    0.0553
          43    0.1995   -0.1787   -0.0479    0.0049   -0.0465   -0.0650    0.2497   -0.0218
          44    0.0865   -0.0377    0.1435   -0.2881   -0.1101    0.0317   -0.1145    0.4371
          45    0.1631   -0.1492   -0.0294   -0.0261   -0.0552   -0.0258    0.1048    0.0049
          46   -0.1435   -0.1880    0.1203   -0.0285    0.2771   -0.0609   -0.0855    0.2066
          47   -0.0283    0.1477   -0.0571   -0.0326   -0.2451   -0.0304    0.0853   -0.0242
          48    0.0259    0.2384   -0.1223   -0.0778   -0.3229   -0.0278    0.1341   -0.1295
          49    0.3563    0.2839    0.1964    0.1442   -0.0938   -0.0569    0.0224    0.2186
          50   -0.0927   -0.0432   -0.1049   -0.0988    0.0884    0.0278   -0.0094   -0.0820
          51   -0.0782   -0.1034   -0.2069   -0.2250    0.4076    0.0839   -0.0632   -0.1506


   Root No.      17        18        19        20        21        22        23        24

                17 A      18 A      19 A      20 A      21 A      22 A      23 A      24 A   

                1040.1    1051.9    1084.0    1093.9    1112.6    1142.5    1156.0    1169.3
  
           1   -0.0566   -0.0562    0.0604   -0.1271    0.1081    0.0953   -0.0995    0.4113
           2   -0.0907   -0.1486    0.0639   -0.1911    0.1589    0.0818   -0.0995    0.0338
           3    0.0803    0.0238   -0.1169    0.0252   -0.2343   -0.0321   -0.2474    0.2527
           4    0.0770    0.0785    0.0148    0.0866    0.0951   -0.0410    0.1801   -0.2936
           5    0.0297   -0.0698    0.1422   -0.1501    0.1391   -0.0342    0.0553    0.1385
           6    0.0275    0.0029   -0.0198    0.0333   -0.0792    0.0459   -0.1033    0.1859
           7   -0.2424   -0.1982    0.0334   -0.1205    0.0538   -0.0996    0.1061   -0.0114
           8   -0.0802    0.0549   -0.1007    0.0317    0.0030   -0.0660    0.0709    0.1457
           9   -0.1166   -0.0010   -0.0879    0.0599    0.2663    0.0175   -0.0908   -0.1597
          10   -0.0206    0.0433   -0.1194    0.0235   -0.1205   -0.1652   -0.0141    0.0311
          11   -0.0915    0.0147    0.0080    0.1109   -0.1376    0.1400   -0.1013    0.0386
          12   -0.0543    0.0231    0.1724    0.0621    0.0513   -0.2442   -0.0404   -0.0820
          13    0.1407    0.0774    0.0715    0.0742   -0.0041    0.2153   -0.1213   -0.0690
          14    0.2303    0.1150   -0.0462    0.0786   -0.0349   -0.0627   -0.0019   -0.1060
          15    0.0947   -0.0198   -0.0501   -0.2182   -0.2391    0.1986    0.2004    0.0626
          16    0.1024   -0.0911    0.0307   -0.0227   -0.0231    0.0141   -0.0886    0.1772
          17    0.1317   -0.0696    0.0442    0.0968   -0.0453   -0.0157    0.0713   -0.0715
          18    0.1256   -0.1085    0.1705    0.0433    0.2416    0.0366    0.2327   -0.0705
          19   -0.2666    0.2279   -0.1526   -0.0032   -0.1366   -0.0404   -0.0168   -0.1772
          20   -0.0433    0.0529   -0.0298   -0.0014    0.0556   -0.0033    0.0500   -0.0640
          21   -0.1956    0.0484   -0.0111   -0.0037    0.1057    0.0246    0.1038   -0.1081
          22    0.0501   -0.1216   -0.0936    0.3781   -0.0784   -0.0261    0.2668   -0.1089
          23   -0.1727   -0.1576    0.0264   -0.3151   -0.1530   -0.0150   -0.3445   -0.3917
          24   -0.0422   -0.1493   -0.0986    0.0819   -0.2933   -0.0720   -0.1260   -0.3786
          25    0.1442    0.0840   -0.1182   -0.2983   -0.0301   -0.1905   -0.1546   -0.0072
          26    0.3770    0.1311   -0.0779   -0.2680    0.0593   -0.3052   -0.0759   -0.1073
          27    0.2150    0.0829   -0.0226    0.0430    0.0298   -0.1062    0.0313   -0.1090
          28    0.0891    0.1606    0.6773    0.0917   -0.2399    0.0994   -0.1042   -0.0321
          29    0.1468    0.0469   -0.0418   -0.0216   -0.0979    0.0337    0.0668   -0.0360
          30   -0.1083   -0.0261    0.0265    0.0154    0.0694   -0.0245   -0.0441    0.0229
          31    0.2211    0.1715   -0.3786    0.0648    0.3290    0.5238   -0.1791   -0.1064
          32   -0.0734    0.0338    0.0196    0.1737    0.1316   -0.1268   -0.0965   -0.0739
          33   -0.0138   -0.0058   -0.0036   -0.0248   -0.0289    0.0265    0.0313    0.0066
          34    0.0302    0.0800    0.0330   -0.1050   -0.2029    0.0133    0.2295    0.1004
          35   -0.1703    0.3524   -0.0974   -0.0944   -0.0777   -0.0208    0.5024    0.0338
          36    0.0486   -0.0342   -0.0026    0.0122    0.0035    0.0232   -0.0784   -0.0004
          37   -0.1682   -0.2094   -0.0762    0.1025    0.1343   -0.1049   -0.0036   -0.0100
          38   -0.0136   -0.3329   -0.2456    0.3495   -0.1117   -0.2214   -0.0705    0.2381
          39    0.0846    0.0860    0.0178   -0.0531   -0.0840    0.0480   -0.0120    0.0103
          40   -0.0129    0.1491    0.0826    0.0936    0.0997   -0.2817   -0.1012   -0.0185
          41   -0.1102   -0.2798    0.0022   -0.0084   -0.2911    0.3835    0.0914   -0.1501
          42    0.0142    0.0271    0.0010   -0.0105    0.0201   -0.0640   -0.0054    0.0329
          43    0.0805   -0.0882   -0.1733   -0.1299   -0.1173    0.0082    0.0610    0.0377
          44   -0.1569    0.3258    0.1185    0.3464    0.0113    0.1180   -0.2200    0.0660
          45    0.0476   -0.0378   -0.0754   -0.0649   -0.0662    0.0050    0.0204    0.0244
          46    0.3268   -0.2138    0.0881    0.1047    0.0373   -0.0054    0.0741   -0.0370
          47   -0.1042   -0.0251    0.0600   -0.0920    0.1186    0.0317    0.0199    0.0075
          48   -0.2075    0.0585    0.0397   -0.1207    0.1335    0.0397    0.0161    0.0479
          49    0.1571   -0.2942    0.1705    0.0056    0.1626    0.0386    0.0981   -0.0539
          50   -0.0193    0.0797   -0.0460    0.0147   -0.0692   -0.0156   -0.0276    0.0167
          51    0.0946    0.1058   -0.0796    0.1148   -0.1716   -0.0373   -0.0232    0.0639


   Root No.      25        26        27        28        29        30        31        32

                25 A      26 A      27 A      28 A      29 A      30 A      31 A      32 A   

                1237.5    1266.6    1299.9    1306.8    1320.3    1342.8    1354.5    1396.4
  
           1   -0.1062    0.0733   -0.3023    0.1175   -0.2372   -0.0052   -0.1322    0.0789
           2    0.1035   -0.1489    0.1565    0.0534    0.0445   -0.1234    0.5094   -0.0421
           3   -0.2901   -0.2870    0.0590    0.0556    0.0471   -0.0019    0.1290   -0.0701
           4   -0.3855   -0.0100    0.2960    0.0242    0.1139    0.0458   -0.0519   -0.0628
           5   -0.1791    0.0850    0.2057   -0.1467   -0.0315   -0.2108   -0.3452   -0.1010
           6    0.2561    0.2984    0.0813   -0.0623    0.1578   -0.2036   -0.1618   -0.1621
           7    0.0428   -0.1146    0.0072   -0.1693    0.1744    0.0819   -0.0843    0.0755
           8    0.0664   -0.2614   -0.0953   -0.0865    0.2980    0.2163   -0.3917   -0.0894
           9    0.0280    0.1277   -0.0018   -0.0168   -0.0609   -0.0374    0.0091   -0.0019
          10    0.0901   -0.0770   -0.0988   -0.2031   -0.1038   -0.0538   -0.0331   -0.2014
          11    0.0276    0.2704   -0.1415    0.3198    0.3557    0.2231    0.2160   -0.0892
          12   -0.0122   -0.1044   -0.0088   -0.0133   -0.0824    0.0130    0.0288   -0.0095
          13    0.1705   -0.0240    0.2541    0.5806   -0.1503   -0.0118   -0.0502    0.0466
          14   -0.0243    0.0032    0.0318   -0.0437   -0.1197   -0.0460    0.0116    0.1471
          15   -0.0056   -0.0106    0.0120   -0.0006    0.0131   -0.0085    0.0066   -0.0508
          16    0.0787    0.1300    0.4610   -0.2093    0.0130    0.0579    0.0540    0.2439
          17    0.0112    0.0410   -0.0953    0.0133    0.0197   -0.1014   -0.1087    0.0630
          18    0.1534    0.0334   -0.1817    0.0554    0.0638   -0.2276   -0.0517    0.1201
          19   -0.0125   -0.1530   -0.3062    0.1493    0.0806   -0.1573    0.0034   -0.1704
          20   -0.0678   -0.0767   -0.0184    0.0200   -0.0644    0.0898    0.0616    0.0630
          21   -0.1640   -0.1379   -0.0273    0.0306   -0.1358    0.1819    0.0832    0.1301
          22    0.3393   -0.0018    0.0959   -0.0779    0.1451    0.0117    0.0983   -0.0017
          23   -0.0930    0.2913   -0.0485    0.0027   -0.1360   -0.0278   -0.1651    0.0370
          24    0.0611    0.1554    0.0600   -0.0648    0.0392    0.0116   -0.1147   -0.0010
          25    0.3919    0.0333   -0.0893   -0.0511   -0.0064   -0.0730    0.0760   -0.0255
          26    0.0955   -0.1580   -0.0795   -0.0348   -0.1064    0.0361    0.0972    0.0436
          27   -0.1364   -0.0802    0.0251    0.0261   -0.0063    0.0714    0.0465    0.0113
          28   -0.1663    0.1253   -0.1778   -0.2830    0.1024    0.0120    0.1489   -0.0235
          29   -0.0163   -0.0001    0.0316   -0.0445   -0.1467   -0.0921    0.0455   -0.1235
          30    0.0140   -0.0017   -0.0304    0.0480    0.1635    0.1122   -0.0588    0.2180
          31   -0.1508    0.1252   -0.1637   -0.3283    0.0918    0.0025    0.0491   -0.0318
          32   -0.0014    0.0105    0.0123   -0.0472   -0.1882   -0.1104    0.0612   -0.2391
          33    0.0010   -0.0009    0.0031   -0.0060   -0.0288   -0.0226    0.0138   -0.0751
          34   -0.0447    0.0379   -0.0001   -0.0974    0.0100   -0.1227    0.2700   -0.1895
          35   -0.0205    0.3585   -0.0453    0.0523   -0.2505   -0.0834    0.0558    0.1169
          36   -0.0070   -0.0502    0.0033   -0.0376    0.0521   -0.0255    0.0636   -0.1099
          37   -0.0453    0.0804   -0.0178   -0.1415   -0.0082   -0.1027    0.2022   -0.1264
          38   -0.2265    0.1925   -0.0789    0.0558   -0.2505   -0.0846    0.0905    0.1150
          39    0.0104   -0.0265    0.0083    0.1077   -0.0272    0.0826   -0.1812    0.1731
          40   -0.0023    0.0728   -0.1406   -0.0474    0.1084    0.0857    0.1360    0.3660
          41    0.0870   -0.3460   -0.0487   -0.1629   -0.2771   -0.0300    0.0035    0.1678
          42   -0.0085    0.0454    0.0395    0.0528    0.0234   -0.0120   -0.0318   -0.2048
          43   -0.0147    0.0932   -0.1303   -0.0853    0.1313    0.0591    0.0870    0.2410
          44    0.2734   -0.1478   -0.0134   -0.1604   -0.2313   -0.1275   -0.0780    0.1420
          45    0.0109    0.0452   -0.0976   -0.0796    0.0744    0.0385    0.0759    0.3159
          46    0.0401    0.0197   -0.2352    0.0576   -0.0972    0.1408   -0.0444   -0.1194
          47    0.1301    0.0850    0.0166   -0.0703   -0.1924    0.4307    0.0665   -0.1850
          48    0.1238    0.0683    0.1532   -0.0945   -0.0826    0.2202    0.0841   -0.0238
          49    0.0744    0.0194   -0.2143    0.0539   -0.0997    0.1329   -0.0069   -0.1246
          50   -0.0130    0.0162    0.1037   -0.0381    0.0449   -0.0750   -0.0152    0.0933
          51    0.0496    0.1226    0.0672   -0.1200   -0.2171    0.5047   -0.0462   -0.1508


   Root No.      33        34        35        36        37        38        39        40

                33 A      34 A      35 A      36 A      37 A      38 A      39 A      40 A   

                1411.1    1415.8    1426.6    2967.8    2977.2    2986.9    2995.5    3007.6
  
           1    0.0926    0.1185   -0.1241    0.0065   -0.0146   -0.0076   -0.0325    0.1132
           2   -0.0927   -0.2097    0.1845    0.0076   -0.0158   -0.0095   -0.0353    0.1346
           3   -0.0982   -0.0688    0.0834   -0.0086    0.0207    0.0117    0.0443   -0.1763
           4   -0.1721   -0.0061    0.0766   -0.0068   -0.0221    0.0335   -0.1147   -0.0248
           5   -0.2790   -0.0165    0.1107    0.0078    0.0248   -0.0391    0.1363    0.0321
           6   -0.2280   -0.0753    0.1188   -0.0094   -0.0331    0.0509   -0.1767   -0.0437
           7    0.1085   -0.1894    0.2789    0.0327   -0.0405   -0.0277    0.0016   -0.0149
           8    0.0573    0.2622   -0.1120    0.0113   -0.0140   -0.0089   -0.0010    0.0017
           9   -0.0187    0.0296   -0.0693    0.1652   -0.2059   -0.1356    0.0001   -0.0369
          10    0.2056   -0.1912   -0.1473   -0.0234   -0.0378    0.0292    0.0235    0.0051
          11    0.2315    0.0322   -0.0187    0.0095    0.0157   -0.0123   -0.0020    0.0002
          12    0.0607   -0.0369   -0.0502    0.1248    0.2051   -0.1571   -0.0862   -0.0140
          13   -0.1134    0.1407   -0.0485   -0.0005   -0.0003   -0.0006    0.0005   -0.0004
          14   -0.1508   -0.2440   -0.2136   -0.0625   -0.0110   -0.0567   -0.0107   -0.0054
          15    0.0372    0.0745    0.0906   -0.2118   -0.0372   -0.1941   -0.0343   -0.0156
          16    0.2931    0.1048   -0.1315    0.0009   -0.0008   -0.0015    0.0007    0.0054
          17    0.0794    0.0479   -0.0549   -0.0018    0.0045    0.0037    0.0097   -0.0895
          18    0.1527    0.0435   -0.0693    0.0005   -0.0018   -0.0020   -0.0035    0.0466
          19   -0.2000   -0.1030    0.1121   -0.0007   -0.0010    0.0015   -0.0017   -0.0036
          20    0.0844    0.0314   -0.0454   -0.0006   -0.0012    0.0007    0.0022    0.0013
[...]
 EFF. MASS   4.2812

 VIBRATION   24   24A         ATOM PAIR      ENERGY CONTRIBUTION    RADIAL
 FREQ.      1169.35         C  1 -- H  8         +21.5% ( 70.1%)      0.0%
 T-DIPOLE    0.3909         C  1 -- C  2         +13.2% ( 54.8%)     97.0%
 TRAVEL      0.0925         C  1 -- C  3          +8.9% ( 45.0%)     14.9%
 RED. MASS   1.0746         C  1 -- C  6          +7.8% ( 42.1%)     61.6%
 EFF. MASS   6.7339

 VIBRATION   25   25A         ATOM PAIR      ENERGY CONTRIBUTION    RADIAL
 FREQ.      1237.49         C  2 -- H  9         +18.1% ( 59.3%)      0.8%
 T-DIPOLE    0.1940         C  1 -- C  2         +11.0% ( 46.2%)     17.1%
 TRAVEL      0.1005         C  2 -- C  7          +9.7% ( 43.4%)     33.9%
 RED. MASS   0.9594         C  2 -- C  6          +9.4% ( 42.7%)     37.9%
 EFF. MASS   5.3947

 VIBRATION   26   26A         ATOM PAIR      ENERGY CONTRIBUTION    RADIAL
 FREQ.      1266.56         C  3 -- H 12         +10.1% ( 44.8%)      1.0%
 T-DIPOLE    0.3463         C  1 -- H  8          +9.7% ( 43.9%)      2.9%
 TRAVEL      0.0991         C  4 -- H 14          +9.7% ( 43.9%)      0.4%
 RED. MASS   0.5522         C  1 -- C  2          +8.3% ( 40.7%)      1.7%
 EFF. MASS   5.4212

 VIBRATION   27   27A         ATOM PAIR      ENERGY CONTRIBUTION    RADIAL
 FREQ.      1299.88         C  6 -- C  7         +11.8% ( 55.1%)     94.0%
 T-DIPOLE    0.9473         C  1 -- C  6         +10.2% ( 51.0%)     19.0%
 TRAVEL      0.0785         C  6 -- H 16          +9.3% ( 48.9%)      0.9%
 RED. MASS   1.3591         C  2 -- C  6          +8.9% ( 47.7%)     12.5%
 EFF. MASS   8.4122

 VIBRATION   28   28A         ATOM PAIR      ENERGY CONTRIBUTION    RADIAL
 FREQ.      1306.82         C  4 -- C  5         +17.6% ( 62.1%)     93.8%
 T-DIPOLE    0.3204         C  5 -- H 11         +15.9% ( 59.1%)      0.0%
 TRAVEL      0.0822         C  5 -- H 10         +14.7% ( 56.7%)      0.1%
 RED. MASS   1.7145         C  3 -- C  5         +12.8% ( 52.9%)     69.4%
 EFF. MASS   7.6418

 VIBRATION   29   29A         ATOM PAIR      ENERGY CONTRIBUTION    RADIAL
 FREQ.      1320.27         C  4 -- H 14         +10.8% ( 43.1%)      0.1%
 T-DIPOLE    0.2163         C  4 -- H 15         +10.0% ( 41.6%)      0.1%
 TRAVEL      0.0984         C  3 -- H 12          +8.4% ( 38.1%)      0.2%
 RED. MASS   0.5560         C  3 -- H 13          +8.2% ( 37.8%)      0.2%
 EFF. MASS   5.2736

 VIBRATION   30   30A         ATOM PAIR      ENERGY CONTRIBUTION    RADIAL
 FREQ.      1342.80         C  6 -- H 17         +16.3% ( 48.8%)      1.4%
 T-DIPOLE    0.5558         C  6 -- H 16         +15.0% ( 46.8%)      2.0%
 TRAVEL      0.1063         C  2 -- C  7          +8.9% ( 36.0%)     82.2%
 RED. MASS   0.4144         C  2 -- C  4          +7.6% ( 33.3%)     59.7%
 EFF. MASS   4.4450

 VIBRATION   31   31A         ATOM PAIR      ENERGY CONTRIBUTION    RADIAL
 FREQ.      1354.54         C  1 -- C  3         +15.9% ( 63.4%)     92.4%
 T-DIPOLE    0.4503         C  1 -- C  2         +12.6% ( 56.5%)      0.8%
 TRAVEL      0.0780         C  1 -- H  8         +10.5% ( 51.5%)      1.5%
 RED. MASS   1.6601         C  1 -- C  6          +9.0% ( 47.8%)     44.2%
 EFF. MASS   8.1911

 VIBRATION   32   32A         ATOM PAIR      ENERGY CONTRIBUTION    RADIAL
 FREQ.      1396.37         C  4 -- H 14         +13.3% ( 42.1%)      2.8%
 T-DIPOLE    0.3336         C  4 -- H 15         +11.6% ( 39.3%)      5.5%
 TRAVEL      0.1135         C  6 -- C  7          +8.0% ( 32.5%)     99.8%
 RED. MASS   0.2575         C  2 -- C  6          +7.3% ( 31.1%)     99.8%
 EFF. MASS   3.7505

 VIBRATION   33   33A         ATOM PAIR      ENERGY CONTRIBUTION    RADIAL
 FREQ.      1411.07         C  2 -- C  6         +10.8% ( 46.7%)     95.3%
 T-DIPOLE    0.5113         C  2 -- C  4         +10.7% ( 46.6%)     74.0%
 TRAVEL      0.0842         C  2 -- C  7          +8.5% ( 41.6%)     91.3%
 RED. MASS   0.7079         C  6 -- C  7          +7.5% ( 39.0%)     99.7%
 EFF. MASS   6.7418

 VIBRATION   34   34A         ATOM PAIR      ENERGY CONTRIBUTION    RADIAL
 FREQ.      1415.77         C  5 -- H 11         +11.0% ( 39.9%)      4.0%
 T-DIPOLE    0.1187         C  5 -- H 10         +10.5% ( 39.0%)      5.8%
 TRAVEL      0.1038         C  3 -- H 13         +10.2% ( 38.5%)      5.2%
 RED. MASS   0.3675         C  1 -- C  3         +10.0% ( 38.1%)     89.8%
 EFF. MASS   4.4210

 VIBRATION   35   35A         ATOM PAIR      ENERGY CONTRIBUTION    RADIAL
 FREQ.      1426.58         C  3 -- H 13         +12.7% ( 42.4%)      5.3%
 T-DIPOLE    0.1674         C  3 -- H 12         +11.3% ( 39.9%)      7.1%
 TRAVEL      0.1051         C  5 -- H 10          +9.8% ( 37.2%)      4.4%
 RED. MASS   0.3085         C  5 -- H 11          +8.7% ( 35.1%)      5.7%
 EFF. MASS   4.2787

 VIBRATION   36   36A         ATOM PAIR      ENERGY CONTRIBUTION    RADIAL
 FREQ.      2967.82         C  5 -- H 11         +31.5% ( 58.5%)     97.4%
 T-DIPOLE    0.0204         C  5 -- H 10         +19.5% ( 46.0%)     94.6%
 TRAVEL      0.1206         C  3 -- H 12         +16.2% ( 42.0%)     96.8%
 RED. MASS   0.2126         C  3 -- H 13         +13.2% ( 37.9%)     95.8%
 EFF. MASS   1.5633

 VIBRATION   37   37A         ATOM PAIR      ENERGY CONTRIBUTION    RADIAL
 FREQ.      2977.20         C  3 -- H 12         +24.9% ( 51.8%)     97.0%
 T-DIPOLE    0.0914         C  4 -- H 14         +24.9% ( 51.8%)     97.0%
 TRAVEL      0.1212         C  3 -- H 13         +21.5% ( 48.1%)     96.1%
 RED. MASS   0.2329         C  4 -- H 15         +20.9% ( 47.5%)     96.0%
 EFF. MASS   1.5413

 VIBRATION   38   38A         ATOM PAIR      ENERGY CONTRIBUTION    RADIAL
 FREQ.      2986.90         C  5 -- H 11         +26.4% ( 53.1%)     97.7%
 T-DIPOLE    0.0747         C  5 -- H 10         +17.1% ( 42.8%)     95.2%
 TRAVEL      0.1218         C  4 -- H 14         +14.7% ( 39.7%)     97.1%
 RED. MASS   0.1727         C  4 -- H 15         +12.3% ( 36.2%)     96.2%
 EFF. MASS   1.5211         C  3 -- H 12         +10.8% ( 34.0%)     97.0%

 VIBRATION   39   39A         ATOM PAIR      ENERGY CONTRIBUTION    RADIAL
 FREQ.      2995.49         C  2 -- H  9         +80.7% ( 91.9%)    100.0%
 T-DIPOLE    0.3456         C  1 -- H  8          +5.4% ( 23.7%)    100.0%
 TRAVEL      0.1246         C  4 -- H 15          +4.9% ( 22.6%)     97.5%
 RED. MASS   0.6698         C  4 -- H 14          +3.6% ( 19.3%)     95.8%
 EFF. MASS   1.4510

 VIBRATION   40   40A         ATOM PAIR      ENERGY CONTRIBUTION    RADIAL
 FREQ.      3007.60         C  1 -- H  8         +77.5% ( 90.3%)    100.0%
 T-DIPOLE    0.1216         C  6 -- H 16          +6.3% ( 25.7%)     97.3%
 TRAVEL      0.1237         C  6 -- H 17          +5.0% ( 23.0%)     95.9%
 RED. MASS   0.6262         C  2 -- H  9          +4.6% ( 22.0%)    100.0%
 EFF. MASS   1.4644

 VIBRATION   41   41A         ATOM PAIR      ENERGY CONTRIBUTION    RADIAL
 FREQ.      3021.82         C  6 -- H 16         +52.0% ( 74.7%)     98.0%
 T-DIPOLE    0.3692         C  6 -- H 17         +34.3% ( 60.7%)     95.7%
 TRAVEL      0.1218         C  1 -- H  8         +10.1% ( 32.9%)    100.0%
 RED. MASS   0.4304         C  1 -- C  6          +0.9% (  9.9%)      1.0%
 EFF. MASS   1.5048

 VIBRATION   42   42A         ATOM PAIR      ENERGY CONTRIBUTION    RADIAL
 FREQ.      3056.36         C  3 -- H 13         +25.1% ( 49.4%)     97.9%
 T-DIPOLE    0.0193         C  3 -- H 12         +21.6% ( 45.9%)     97.1%
 TRAVEL      0.1308         C  4 -- H 15         +16.6% ( 40.2%)     97.9%
 RED. MASS   0.1793         C  4 -- H 14         +14.3% ( 37.2%)     97.0%
 EFF. MASS   1.2896         C  5 -- H 10         +12.5% ( 34.9%)     98.6%

 VIBRATION   43   43A         ATOM PAIR      ENERGY CONTRIBUTION    RADIAL
 FREQ.      3056.91         C  4 -- H 15         +30.9% ( 54.8%)     98.0%
 T-DIPOLE    0.1155         C  4 -- H 14         +26.5% ( 50.8%)     97.2%
 TRAVEL      0.1317         C  3 -- H 13         +22.0% ( 46.3%)     98.0%
 RED. MASS   0.2483         C  3 -- H 12         +18.9% ( 42.9%)     97.3%
 EFF. MASS   1.2726

 VIBRATION   44   44A         ATOM PAIR      ENERGY CONTRIBUTION    RADIAL
 FREQ.      3064.26         C  5 -- H 10         +49.0% ( 69.0%)     98.8%
 T-DIPOLE    0.0559         C  5 -- H 11         +28.8% ( 52.8%)     95.7%
 TRAVEL      0.1309         C  3 -- H 13          +5.7% ( 23.5%)     98.1%
 RED. MASS   0.3289         C  4 -- H 15          +5.6% ( 23.3%)     98.1%
 EFF. MASS   1.2851

 VIBRATION   45   45A         ATOM PAIR      ENERGY CONTRIBUTION    RADIAL
 FREQ.      3094.99         C  6 -- H 17         +59.2% ( 76.3%)     98.3%
 T-DIPOLE    0.4388         C  6 -- H 16         +38.6% ( 61.6%)     95.5%
 TRAVEL      0.1300         C  2 -- C  6          +0.7% (  8.5%)     98.1%
 RED. MASS   0.5020         C  1 -- C  6          +0.7% (  8.4%)     51.4%
 EFF. MASS   1.2886

      SYMMETRY NUMBER FOR POINT-GROUP C1  =  1


          SYSTEM IS A GROUND STATE



 InChI=1S/C7H10/c1-2-6-4-5-7(6)3-1/h6-7H,1-4H2/lp5


          MOLECULE IS NOT LINEAR

          THERE ARE 45 GENUINE VIBRATIONS IN THIS SYSTEM
          THIS THERMODYNAMICS CALCULATION IS LIMITED TO
          MOLECULES WHICH HAVE NO INTERNAL ROTATIONS




                    CALCULATED THERMODYNAMIC PROPERTIES
                                          *
   TEMP. (K)   PARTITION FUNCTION   H.O.F.    ENTHALPY  HEAT CAPACITY ENTROPY
                                   KCAL/MOL   CAL/MOLE    CAL/K/MOL  CAL/K/MOL


 298.00  VIB.     0.8505D+01                  1996.1388    17.5662    10.9523
         ROT.     0.1569D+06                   888.2813     2.9808    26.7542
         INT.     0.1334D+07                  2884.4201    20.5470    37.7065
         TRA.     0.8833D+27                  1480.4688     4.9680    39.5363
         TOT.                       84.858    4364.8889    25.5150    77.2427

 200.00  VIB.     0.3130D+01                   728.8489     8.7881     5.9118
         ROT.     0.8625D+05                   596.1620     2.9808    25.5655
         INT.     0.2700D+06                  1325.0108    11.7689    31.4773
         TRA.     0.4856D+27                   993.6033     4.9680    37.5551
         TOT.                       82.812    2318.6141    16.7369    69.0324

 210.00  VIB.     0.3434D+01                   820.3915     9.5279     6.3583
         ROT.     0.9280D+05                   625.9700     2.9808    25.7109
         INT.     0.3187D+06                  1446.3616    12.5087    32.0692
         TRA.     0.5225D+27                  1043.2834     4.9680    37.7975
         TOT.                       82.983    2489.6450    17.4768    69.8667

 220.00  VIB.     0.3775D+01                   919.5539    10.3117     6.8195
         ROT.     0.9951D+05                   655.7781     2.9808    25.8496
         INT.     0.3756D+06                  1575.3320    13.2925    32.6690
         TRA.     0.5603D+27                  1092.9636     4.9680    38.0286
         TOT.                       83.162    2668.2956    18.2605    70.6977

 230.00  VIB.     0.4158D+01                  1026.7634    11.1369     7.2959
         ROT.     0.1064D+06                   685.5862     2.9808    25.9821
         INT.     0.4423D+06                  1712.3497    14.1177    33.2780
         TRA.     0.5989D+27                  1142.6437     4.9680    38.2495
         TOT.                       83.348    2854.9934    19.0857    71.5275

 240.00  VIB.     0.4589D+01                  1142.4200    12.0005     7.7880
         ROT.     0.1134D+06                   715.3943     2.9808    26.1089
         INT.     0.5203D+06                  1857.8143    14.9813    33.8969
         TRA.     0.6384D+27                  1192.3239     4.9680    38.4609
         TOT.                       83.544    3050.1382    19.9493    72.3579

 250.00  VIB.     0.5076D+01                  1266.8898    12.8989     8.2960
         ROT.     0.1205D+06                   745.2024     2.9808    26.2306
         INT.     0.6119D+06                  2012.0922    15.8797    34.5266
         TRA.     0.6787D+27                  1242.0041     4.9680    38.6637
         TOT.                       83.747    3254.0963    20.8477    73.1903

 260.00  VIB.     0.5628D+01                  1400.5008    13.8281     8.8199
         ROT.     0.1278D+06                   775.0105     2.9808    26.3475
         INT.     0.7195D+06                  2175.5114    16.8089    35.1674
         TRA.     0.7198D+27                  1291.6842     4.9680    38.8586
         TOT.                       83.961    3467.1956    21.7769    74.0260

 270.00  VIB.     0.6253D+01                  1543.5406    14.7839     9.3596
         ROT.     0.1353D+06                   804.8186     2.9808    26.4600
         INT.     0.8460D+06                  2348.3592    17.7647    35.8197
         TRA.     0.7618D+27                  1341.3644     4.9680    39.0461
         TOT.                       84.183    3689.7236    22.7328    74.8657

 280.00  VIB.     0.6965D+01                  1696.2542    15.7622     9.9149
         ROT.     0.1429D+06                   834.6267     2.9808    26.5684
         INT.     0.9951D+06                  2530.8810    18.7430    36.4833
         TRA.     0.8045D+27                  1391.0445     4.9680    39.2267
         TOT.                       84.415    3921.9255    23.7110    75.7101

 290.00  VIB.     0.7775D+01                  1858.8448    16.7586    10.4853
         ROT.     0.1506D+06                   864.4348     2.9808    26.6730
         INT.     0.1171D+07                  2723.2797    19.7394    37.1584
         TRA.     0.8479D+27                  1440.7247     4.9680    39.4011
         TOT.                       84.657    4164.0044    24.7075    76.5595

 300.00  VIB.     0.8700D+01                  2031.4741    17.7692    11.0705
         ROT.     0.1585D+06                   894.2429     2.9808    26.7741
         INT.     0.1379D+07                  2925.7170    20.7500    37.8446
         TRA.     0.8922D+27                  1490.4049     4.9680    39.5695
         TOT.                       84.910    4416.1219    25.7181    77.4141

 310.00  VIB.     0.9758D+01                  2214.2638    18.7901    11.6698
         ROT.     0.1664D+06                   924.0510     2.9808    26.8718
         INT.     0.1624D+07                  3138.3148    21.7709    38.5416
         TRA.     0.9372D+27                  1540.0850     4.9680    39.7324
         TOT.                       85.172    4678.3999    26.7389    78.2740

 320.00  VIB.     0.1097D+02                  2407.2980    19.8176    12.2825
         ROT.     0.1746D+06                   953.8591     2.9808    26.9665
         INT.     0.1915D+07                  3361.1572    22.7984    39.2490
         TRA.     0.9829D+27                  1589.7652     4.9680    39.8901
         TOT.                       85.444    4950.9224    27.7664    79.1391

 330.00  VIB.     0.1236D+02                  2610.6258    20.8483    12.9081
         ROT.     0.1828D+06                   983.6672     2.9808    27.0582
         INT.     0.2260D+07                  3594.2930    23.8291    39.9663
         TRA.     0.1029D+28                  1639.4454     4.9680    40.0430
         TOT.                       85.727    5233.7384    28.7971    80.0093

 340.00  VIB.     0.1396D+02                  2824.2636    21.8791    13.5458
         ROT.     0.1912D+06                  1013.4753     2.9808    27.1472
         INT.     0.2670D+07                  3837.7389    24.8599    40.6930
         TRA.     0.1076D+28                  1689.1255     4.9680    40.1913
         TOT.                       86.020    5526.8644    29.8279    80.8843

 350.00  VIB.     0.1581D+02                  3048.1986    22.9073    14.1949
         ROT.     0.1997D+06                  1043.2834     2.9808    27.2336
         INT.     0.3157D+07                  4091.4820    25.8881    41.4285
         TRA.     0.1124D+28                  1738.8057     4.9680    40.3353
         TOT.                       86.324    5830.2877    30.8561    81.7638

 360.00  VIB.     0.1794D+02                  3282.3915    23.9303    14.8546
         ROT.     0.2083D+06                  1073.0915     2.9808    27.3176
         INT.     0.3736D+07                  4355.4830    26.9111    42.1721
         TRA.     0.1173D+28                  1788.4859     4.9680    40.4753
         TOT.                       86.637    6143.9688    31.8791    82.6474

 370.00  VIB.     0.2040D+02                  3526.7794    24.9459    15.5241
         ROT.     0.2170D+06                  1102.8996     2.9808    27.3992
         INT.     0.4427D+07                  4629.6790    27.9267    42.9233
         TRA.     0.1222D+28                  1838.1660     4.9680    40.6114
         TOT.                       86.961    6467.8450    32.8947    83.5347

 380.00  VIB.     0.2325D+02                  3781.2789    25.9523    16.2027
         ROT.     0.2259D+06                  1132.7077     2.9808    27.4787
         INT.     0.5251D+07                  4913.9866    28.9331    43.6815
         TRA.     0.1272D+28                  1887.8462     4.9680    40.7439
         TOT.                       87.295    6801.8328    33.9011    84.4253

 390.00  VIB.     0.2655D+02                  4045.7887    26.9477    16.8898
         ROT.     0.2349D+06                  1162.5158     2.9808    27.5562
         INT.     0.6235D+07                  5208.3045    29.9285    44.4459
         TRA.     0.1322D+28                  1937.5263     4.9680    40.8729
         TOT.                       87.639    7145.8308    34.8965    85.3188

 400.00  VIB.     0.3038D+02                  4320.1920    27.9308    17.5844
         ROT.     0.2440D+06                  1192.3239     2.9808    27.6316
         INT.     0.7412D+07                  5512.5159    30.9116    45.2160
         TRA.     0.1374D+28                  1987.2065     4.9680    40.9987
         TOT.                       87.993    7499.7224    35.8796    86.2148

   *: NOTE: HEATS OF FORMATION ARE RELATIVE TO THE
            ELEMENTS IN THEIR STANDARD STATE AT 298K
              (=  Standard Enthalpy of Formation).

            Hvib:  Zero-point energy is not included.
                   frequencies of less than zero cm-1 are not included.
            Hrot = (3/2)RT
            Htra = (3/2)RT + pV = (5/2)RT

            Heat capacity is Cp, not Cv

          For more information, see: HTTP://OpenMOPAC.net/Manual/thermochemistry.html


           FORCE CONSTANT IN CARTESIAN COORDINATES (Millidynes/A)

    ATOM   CHEMICAL       X               Y               Z
   NUMBER   SYMBOL  FORCE CONSTANT  FORCE CONSTANT  FORCE CONSTANT

      1       C        7.685694        8.894440        8.034567
      2       C        7.545730        8.345358        8.359038
      3       C        8.813053        7.803938        8.356565
      4       C        8.798813        7.690254        8.261494
      5       C        7.324795        9.073080        8.250444
      6       C        8.392775        7.731321        7.762892
      7       C        6.240513        1.840588        4.905778
      8       H        1.556541        1.989279        2.845030
      9       H        1.516736        1.943373        2.734682
     10       H        0.704827        3.785231        2.007244
     11       H        0.730639        0.962786        4.737707
     12       H        1.245059        0.967423        4.223825
     13       H        2.971407        0.793543        2.697647
     14       H        1.274205        0.968349        4.201779
     15       H        2.941235        0.773713        2.735801
     16       H        1.194989        1.901650        3.252215
     17       H        1.185374        4.535463        0.674085

 **********************
 *                    *
 * JOB ENDED NORMALLY *
 *                    *
 **********************



 TOTAL JOB TIME:             4.88 SECONDS

 == MOPAC DONE ==
