 *******************************************************************************
 ** Site#: 14399        For non-commercial use only    Version 18.184L 64BITS **
 *******************************************************************************
 ** Cite this program as: MOPAC2016, Version: 18.184L, James J. P. Stewart,   **
 ** Stewart Computational Chemistry, web: HTTP://OpenMOPAC.net. Days left:  20**
 *******************************************************************************
 **                                                                           **
 **                                MOPAC2016                                  **
 **                                                                           **
 *******************************************************************************

                              PM3 CALCULATION RESULTS

 *******************************************************************************
 *  CALCULATION DONE:                                Thu Jun 13 15:55:48 2019  *
 *  PM3        - The PM3 Hamiltonian to be used
 *  PRECISE    - CRITERIA TO BE INCREASED BY 100 TIMES
 *  NOSYM      - POINT-GROUP SYMMETRY SET TO C1
 *  THREADS=1  - MULTI-THREADING NOT USED
 *  T=         - A TIME OF 172800.0 SECONDS REQUESTED
 *  DUMP=N     - RESTART FILE WRITTEN EVERY  7200.000 SECONDS
 *******************************************************************************
pm3  precise nosym THREADS=1
 InChI=1S/C9H10/c1-2-5-9-7-3-6-8(9)4-1/h1,3-6,8H,2,7H2

   ATOM   CHEMICAL          X               Y               Z
  NUMBER   SYMBOL      (ANGSTROMS)     (ANGSTROMS)     (ANGSTROMS)
 
     1       C         -0.24290000  *  -0.65370000  *  -0.73340000  *
     2       C         -1.75440000  *   0.91500000  *   0.43500000  *
     3       C          2.07470000  *   0.87700000  *  -0.02160000  *
     4       C         -0.38080000  *   0.70150000  *  -0.10770000  *
     5       C          0.69270000  *   1.43040000  *   0.23980000  *
     6       C         -1.51970000  *  -1.30400000  *  -0.32000000  *
     7       C          0.98840000  *  -1.35510000  *  -0.21130000  *
     8       C         -2.34870000  *  -0.44650000  *   0.27600000  *
     9       C          2.08270000  *  -0.63480000  *   0.10130000  *
    10       H         -0.19340000  *  -0.57050000  *  -1.84010000  *
    11       H         -1.72540000  *   1.19390000  *   1.51010000  *
    12       H         -2.30960000  *   1.66590000  *  -0.16520000  *
    13       H          2.39020000  *   1.15740000  *  -1.04860000  *
    14       H          2.79370000  *   1.31400000  *   0.70290000  *
    15       H         -3.34390000  *  -0.71650000  *   0.61330000  *
    16       H          1.01710000  *  -2.43900000  *  -0.15040000  *
    17       H         -1.77910000  *  -2.33570000  *  -0.53490000  *
    18       H          2.98350000  *  -1.14030000  *   0.43520000  *
    19       H          0.57500000  *   2.34110000  *   0.81960000  *
 


          CARTESIAN COORDINATES 

    NO.       ATOM           X           Y           Z

     1         C         -0.2429     -0.6537     -0.7334
     2         C         -1.7544      0.9150      0.4350
     3         C          2.0747      0.8770     -0.0216
     4         C         -0.3808      0.7015     -0.1077
     5         C          0.6927      1.4304      0.2398
     6         C         -1.5197     -1.3040     -0.3200
     7         C          0.9884     -1.3551     -0.2113
     8         C         -2.3487     -0.4465      0.2760
     9         C          2.0827     -0.6348      0.1013
    10         H         -0.1934     -0.5705     -1.8401
    11         H         -1.7254      1.1939      1.5101
    12         H         -2.3096      1.6659     -0.1652
    13         H          2.3902      1.1574     -1.0486
    14         H          2.7937      1.3140      0.7029
    15         H         -3.3439     -0.7165      0.6133
    16         H          1.0171     -2.4390     -0.1504
    17         H         -1.7791     -2.3357     -0.5349
    18         H          2.9835     -1.1403      0.4352
    19         H          0.5750      2.3411      0.8196

  H: (PM3): J. J. P. STEWART, J. COMP. CHEM. 10, 209 (1989).
  C: (PM3): J. J. P. STEWART, J. COMP. CHEM. 10, 209 (1989).

           Empirical Formula: C9 H10  =    19 atoms



      MOLECULAR POINT GROUP   :   C1  


      RHF CALCULATION, NO. OF DOUBLY OCCUPIED LEVELS = 23


          Geometry optimization using EF

          DIAGONAL MATRIX USED AS START HESSIAN

 CYCLE:     1 TIME:   0.023 TIME LEFT:  2.00D  GRAD.:    76.165 HEAT:  44.57326
 CYCLE:     2 TIME:   0.043 TIME LEFT:  2.00D  GRAD.:    70.137 HEAT:  43.51828
 CYCLE:     3 TIME:   0.027 TIME LEFT:  2.00D  GRAD.:    45.187 HEAT:  42.55148
 CYCLE:     4 TIME:   0.023 TIME LEFT:  2.00D  GRAD.:    60.908 HEAT:  42.48085
 CYCLE:     5 TIME:   0.031 TIME LEFT:  2.00D  GRAD.:    36.057 HEAT:  41.71495
 CYCLE:     6 TIME:   0.027 TIME LEFT:  2.00D  GRAD.:    24.541 HEAT:  41.47050
 CYCLE:     7 TIME:   0.023 TIME LEFT:  2.00D  GRAD.:    24.594 HEAT:  41.35524
 CYCLE:     8 TIME:   0.023 TIME LEFT:  2.00D  GRAD.:    18.595 HEAT:  41.19070
 CYCLE:     9 TIME:   0.020 TIME LEFT:  2.00D  GRAD.:    22.003 HEAT:  41.07691
 CYCLE:    10 TIME:   0.023 TIME LEFT:  2.00D  GRAD.:    21.953 HEAT:  40.96364
 CYCLE:    11 TIME:   0.031 TIME LEFT:  2.00D  GRAD.:    23.202 HEAT:  40.92812
 CYCLE:    12 TIME:   0.020 TIME LEFT:  2.00D  GRAD.:    13.142 HEAT:  40.80794
 CYCLE:    13 TIME:   0.023 TIME LEFT:  2.00D  GRAD.:    14.934 HEAT:  40.75365
 CYCLE:    14 TIME:   0.023 TIME LEFT:  2.00D  GRAD.:    18.795 HEAT:  40.75110
 CYCLE:    15 TIME:   0.023 TIME LEFT:  2.00D  GRAD.:    15.046 HEAT:  40.67773
 CYCLE:    16 TIME:   0.023 TIME LEFT:  2.00D  GRAD.:    17.196 HEAT:  40.65486
 CYCLE:    17 TIME:   0.023 TIME LEFT:  2.00D  GRAD.:    20.657 HEAT:  40.64841
 CYCLE:    18 TIME:   0.023 TIME LEFT:  2.00D  GRAD.:    16.304 HEAT:  40.59725
 CYCLE:    19 TIME:   0.020 TIME LEFT:  2.00D  GRAD.:     7.810 HEAT:  40.51141
 CYCLE:    20 TIME:   0.023 TIME LEFT:  2.00D  GRAD.:     4.402 HEAT:  40.47545
 CYCLE:    21 TIME:   0.023 TIME LEFT:  2.00D  GRAD.:     7.481 HEAT:  40.45916
 CYCLE:    22 TIME:   0.023 TIME LEFT:  2.00D  GRAD.:     5.635 HEAT:  40.43463
 CYCLE:    23 TIME:   0.027 TIME LEFT:  2.00D  GRAD.:     3.757 HEAT:  40.42077
 CYCLE:    24 TIME:   0.023 TIME LEFT:  2.00D  GRAD.:     3.218 HEAT:  40.41058
 CYCLE:    25 TIME:   0.023 TIME LEFT:  2.00D  GRAD.:     3.797 HEAT:  40.39669
 CYCLE:    26 TIME:   0.023 TIME LEFT:  2.00D  GRAD.:     5.285 HEAT:  40.38590
 CYCLE:    27 TIME:   0.023 TIME LEFT:  2.00D  GRAD.:     3.086 HEAT:  40.37247
 CYCLE:    28 TIME:   0.020 TIME LEFT:  2.00D  GRAD.:     4.968 HEAT:  40.36710
 CYCLE:    29 TIME:   0.023 TIME LEFT:  2.00D  GRAD.:     2.960 HEAT:  40.35378
 CYCLE:    30 TIME:   0.023 TIME LEFT:  2.00D  GRAD.:     2.653 HEAT:  40.34446
 CYCLE:    31 TIME:   0.023 TIME LEFT:  2.00D  GRAD.:     2.946 HEAT:  40.33931
 CYCLE:    32 TIME:   0.023 TIME LEFT:  2.00D  GRAD.:     1.654 HEAT:  40.33394
 CYCLE:    33 TIME:   0.023 TIME LEFT:  2.00D  GRAD.:     1.412 HEAT:  40.33013
 CYCLE:    34 TIME:   0.020 TIME LEFT:  2.00D  GRAD.:     1.399 HEAT:  40.32729
 CYCLE:    35 TIME:   0.023 TIME LEFT:  2.00D  GRAD.:     0.890 HEAT:  40.32528
 CYCLE:    36 TIME:   0.023 TIME LEFT:  2.00D  GRAD.:     0.964 HEAT:  40.32337
 CYCLE:    37 TIME:   0.023 TIME LEFT:  2.00D  GRAD.:     1.065 HEAT:  40.32109
 CYCLE:    38 TIME:   0.023 TIME LEFT:  2.00D  GRAD.:     1.183 HEAT:  40.31898
 CYCLE:    39 TIME:   0.023 TIME LEFT:  2.00D  GRAD.:     1.032 HEAT:  40.31627
 CYCLE:    40 TIME:   0.023 TIME LEFT:  2.00D  GRAD.:     1.126 HEAT:  40.31287
 CYCLE:    41 TIME:   0.020 TIME LEFT:  2.00D  GRAD.:     1.196 HEAT:  40.30976
 CYCLE:    42 TIME:   0.023 TIME LEFT:  2.00D  GRAD.:     0.931 HEAT:  40.30743
 CYCLE:    43 TIME:   0.023 TIME LEFT:  2.00D  GRAD.:     0.673 HEAT:  40.30603
 CYCLE:    44 TIME:   0.023 TIME LEFT:  2.00D  GRAD.:     0.606 HEAT:  40.30509
 CYCLE:    45 TIME:   0.023 TIME LEFT:  2.00D  GRAD.:     0.528 HEAT:  40.30447
 CYCLE:    46 TIME:   0.023 TIME LEFT:  2.00D  GRAD.:     0.376 HEAT:  40.30405
 CYCLE:    47 TIME:   0.016 TIME LEFT:  2.00D  GRAD.:     0.235 HEAT:  40.30383
 CYCLE:    48 TIME:   0.020 TIME LEFT:  2.00D  GRAD.:     0.200 HEAT:  40.30370
 CYCLE:    49 TIME:   0.020 TIME LEFT:  2.00D  GRAD.:     0.195 HEAT:  40.30361
 CYCLE:    50 TIME:   0.023 TIME LEFT:  2.00D  GRAD.:     0.168 HEAT:  40.30354
 CYCLE:    51 TIME:   0.023 TIME LEFT:  2.00D  GRAD.:     0.139 HEAT:  40.30348
 CYCLE:    52 TIME:   0.023 TIME LEFT:  2.00D  GRAD.:     0.114 HEAT:  40.30344
 CYCLE:    53 TIME:   0.023 TIME LEFT:  2.00D  GRAD.:     0.145 HEAT:  40.30341
 CYCLE:    54 TIME:   0.023 TIME LEFT:  2.00D  GRAD.:     0.102 HEAT:  40.30339
 CYCLE:    55 TIME:   0.023 TIME LEFT:  2.00D  GRAD.:     0.085 HEAT:  40.30336
 CYCLE:    56 TIME:   0.020 TIME LEFT:  2.00D  GRAD.:     0.090 HEAT:  40.30334
 CYCLE:    57 TIME:   0.023 TIME LEFT:  2.00D  GRAD.:     0.064 HEAT:  40.30332
 CYCLE:    58 TIME:   0.023 TIME LEFT:  2.00D  GRAD.:     0.052 HEAT:  40.30331
 CYCLE:    59 TIME:   0.023 TIME LEFT:  2.00D  GRAD.:     0.037 HEAT:  40.30331

     GRADIENT =  0.03736  IS LESS THAN CUTOFF =  0.05000



 -------------------------------------------------------------------------------
 pm3  precise nosym THREADS=1
 InChI=1S/C9H10/c1-2-5-9-7-3-6-8(9)4-1/h1,3-6,8H,2,7H2



     GEOMETRY OPTIMISED USING EIGENVECTOR FOLLOWING (EF).     
     SCF FIELD WAS ACHIEVED                                   


                              PM3 CALCULATION
                                                       MOPAC2016 (Version: 18.184L)
                                                       Thu Jun 13 15:55:49 2019
                                                       No. of days remaining =  20




          FINAL HEAT OF FORMATION =         40.30331 KCAL/MOL =     168.62906 KJ/MOL


          TOTAL ENERGY            =      -1219.34281 EV
          ELECTRONIC ENERGY       =      -6262.99488 EV  POINT GROUP:     C1  
          CORE-CORE REPULSION     =       5043.65207 EV
          COSMO AREA              =        159.46 SQUARE ANGSTROMS
          COSMO VOLUME            =        158.15 CUBIC ANGSTROMS

          GRADIENT NORM           =          0.03736 = 0.00857 PER ATOM
          IONIZATION POTENTIAL    =          9.182507 EV
          HOMO LUMO ENERGIES (EV) =         -9.183  0.957
          NO. OF FILLED LEVELS    =         23
          MOLECULAR WEIGHT        =        118.1780

          MOLECULAR DIMENSIONS (Angstroms)

            Atom       Atom       Distance
            H    15    H    14     6.48728
            H    16    H    12     4.86618
            H    10    H    11     3.19778


          SCF CALCULATIONS        =         65
 
          WALL-CLOCK TIME         =          1.438 SECONDS
          COMPUTATION TIME        =          0.499 SECONDS




   ATOM   CHEMICAL          X               Y               Z
  NUMBER   SYMBOL      (ANGSTROMS)     (ANGSTROMS)     (ANGSTROMS)
 
     1       C         -0.24919099  *  -0.66873227  *  -0.66494330  *
     2       C         -1.78797662  *   0.92232325  *   0.36940225  *
     3       C          2.07973414  *   0.86751836  *   0.01446114  *
     4       C         -0.35763483  *   0.69003638  *  -0.01347157  *
     5       C          0.71960538  *   1.41565586  *   0.28751437  *
     6       C         -1.53822634  *  -1.33599176  *  -0.26806083  *
     7       C          1.01439407  *  -1.35061253  *  -0.27235000  *
     8       C         -2.39157009  *  -0.45192386  *   0.26850331  *
     9       C          2.09890102  *  -0.62584751  *   0.01782703  *
    10       H         -0.23685014  *  -0.55425705  *  -1.77856222  *
    11       H         -1.88536777  *   1.34012920  *   1.38794894  *
    12       H         -2.28799899  *   1.63254042  *  -0.31566714  *
    13       H          2.44129518  *   1.23467997  *  -0.96822172  *
    14       H          2.79373943  *   1.25331415  *   0.76785757  *
    15       H         -3.40613520  *  -0.64981007  *   0.61144010  *
    16       H          1.01293986  *  -2.44444611  *  -0.25227186  *
    17       H         -1.70673750  *  -2.39848439  *  -0.43700688  *
    18       H          3.04990022  *  -1.10367976  *   0.27403100  *
    19       H          0.64699983  *   2.39289430  *   0.77348484  *

                             CARTESIAN COORDINATES

   1    C       -0.249190990    -0.668732273    -0.664943296
   2    C       -1.787976617     0.922323255     0.369402249
   3    C        2.079734143     0.867518360     0.014461142
   4    C       -0.357634834     0.690036378    -0.013471569
   5    C        0.719605379     1.415655865     0.287514367
   6    C       -1.538226337    -1.335991760    -0.268060829
   7    C        1.014394074    -1.350612526    -0.272349996
   8    C       -2.391570091    -0.451923857     0.268503314
   9    C        2.098901018    -0.625847505     0.017827034
  10    H       -0.236850140    -0.554257047    -1.778562216
  11    H       -1.885367767     1.340129204     1.387948941
  12    H       -2.287998988     1.632540423    -0.315667143
  13    H        2.441295180     1.234679967    -0.968221718
  14    H        2.793739426     1.253314148     0.767857566
  15    H       -3.406135196    -0.649810072     0.611440098
  16    H        1.012939862    -2.444446112    -0.252271859
  17    H       -1.706737498    -2.398484388    -0.437006876
  18    H        3.049900221    -1.103679762     0.274030997
  19    H        0.646999827     2.392894305     0.773484843


           Empirical Formula: C9 H10  =    19 atoms



      MOLECULAR POINT GROUP   :   C1  


                  EIGENVALUES  
 -41.43374 -35.13190 -30.82625 -27.22740 -26.06525 -21.83999 -20.05930 -19.25982
 -17.31892 -16.45438 -15.97074 -15.73672 -14.72741 -14.38794 -14.21185 -13.63674
 -13.26533 -12.77410 -12.62230 -11.66029 -10.14779  -9.93394  -9.18251   0.95713
   1.04008   1.19370   3.26482   3.30021   3.44393   3.59838   3.60401   3.78294
   3.94969   4.05721   4.17893   4.40634   4.41284   4.52472   4.63494   4.72410
   5.28402   5.39550   5.49267   5.92498   6.08077   6.17164


              NET ATOMIC CHARGES AND DIPOLE CONTRIBUTIONS

  ATOM NO.   TYPE          CHARGE      No. of ELECS.   s-Pop       p-Pop       
    1          C           0.021837        3.9782     1.14440     2.83377
    2          C          -0.013491        4.0135     1.13757     2.87592
    3          C          -0.018195        4.0182     1.13309     2.88511
    4          C          -0.131179        4.1312     1.20735     2.92383
    5          C          -0.143726        4.1437     1.18843     2.95529
    6          C          -0.143987        4.1440     1.20292     2.94107
    7          C          -0.133846        4.1338     1.19264     2.94121
    8          C          -0.153299        4.1533     1.20424     2.94906
    9          C          -0.150266        4.1503     1.19587     2.95439
   10          H           0.083339        0.9167     0.91666
   11          H           0.062515        0.9375     0.93748
   12          H           0.064149        0.9359     0.93585
   13          H           0.063166        0.9368     0.93683
   14          H           0.055598        0.9444     0.94440
   15          H           0.111715        0.8883     0.88829
   16          H           0.105493        0.8945     0.89451
   17          H           0.114156        0.8858     0.88584
   18          H           0.100191        0.8998     0.89981
   19          H           0.105831        0.8942     0.89417
 DIPOLE           X         Y         Z       TOTAL
 POINT-CHG.    -0.039     0.135    -0.130     0.191
 HYBRID         0.002    -0.018     0.020     0.027
 SUM           -0.037     0.117    -0.110     0.165


          ATOMIC ORBITAL ELECTRON POPULATIONS

     Atom    s        px        py        pz   
    1  C   1.14440   0.92261   0.92312   0.98804
    2  C   1.13757   0.92042   0.95309   1.00242
    3  C   1.13309   0.94831   0.93142   1.00539
    4  C   1.20735   0.95604   0.96573   1.00207
    5  C   1.18843   0.94391   0.99278   1.01861
    6  C   1.20292   0.95870   0.98112   1.00124
    7  C   1.19264   0.94827   0.98420   1.00873
    8  C   1.20424   0.98629   0.95790   1.00487
    9  C   1.19587   0.97983   0.96027   1.01430
   10  H   0.91666
   11  H   0.93748
   12  H   0.93585
   13  H   0.93683
   14  H   0.94440
   15  H   0.88829
   16  H   0.89451
   17  H   0.88584
   18  H   0.89981
   19  H   0.89417
 *******************************************************************************
 ** Site#: 14399        For non-commercial use only    Version 18.184L 64BITS **
 *******************************************************************************
 ** Cite this program as: MOPAC2016, Version: 18.184L, James J. P. Stewart,   **
 ** Stewart Computational Chemistry, web: HTTP://OpenMOPAC.net. Days left:  20**
 *******************************************************************************
 **                                                                           **
 **                                MOPAC2016                                  **
 **                                                                           **
 *******************************************************************************

                              PM3 CALCULATION RESULTS

 *******************************************************************************
 *  CALCULATION DONE:                                Thu Jun 13 15:55:49 2019  *
 *  PM3        - The PM3 Hamiltonian to be used
 *  OLDGEO     - PREVIOUS GEOMETRY TO BE USED
 *  PRECISE    - CRITERIA TO BE INCREASED BY 100 TIMES
 *  NOSYM      - POINT-GROUP SYMMETRY SET TO C1
 *  THREADS=1  - MULTI-THREADING NOT USED
 *  T=         - A TIME OF 172800.0 SECONDS REQUESTED
 *  DUMP=N     - RESTART FILE WRITTEN EVERY  7200.000 SECONDS
 *  THERMO     - THERMODYNAMIC QUANTITIES TO BE CALCULATED
 *******************************************************************************
oldgeo thermo nosym precise THREADS=1  pm3
 InChI=1S/C9H10/c1-2-5-9-7-3-6-8(9)4-1/h1,3-6,8H,2,7H2

   ATOM   CHEMICAL          X               Y               Z
  NUMBER   SYMBOL      (ANGSTROMS)     (ANGSTROMS)     (ANGSTROMS)
 
     1       C         -0.24919099  *  -0.66873227  *  -0.66494330  *
     2       C         -1.78797662  *   0.92232325  *   0.36940225  *
     3       C          2.07973414  *   0.86751836  *   0.01446114  *
     4       C         -0.35763483  *   0.69003638  *  -0.01347157  *
     5       C          0.71960538  *   1.41565586  *   0.28751437  *
     6       C         -1.53822634  *  -1.33599176  *  -0.26806083  *
     7       C          1.01439407  *  -1.35061253  *  -0.27235000  *
     8       C         -2.39157009  *  -0.45192386  *   0.26850331  *
     9       C          2.09890102  *  -0.62584751  *   0.01782703  *
    10       H         -0.23685014  *  -0.55425705  *  -1.77856222  *
    11       H         -1.88536777  *   1.34012920  *   1.38794894  *
    12       H         -2.28799899  *   1.63254042  *  -0.31566714  *
    13       H          2.44129518  *   1.23467997  *  -0.96822172  *
    14       H          2.79373943  *   1.25331415  *   0.76785757  *
    15       H         -3.40613520  *  -0.64981007  *   0.61144010  *
    16       H          1.01293986  *  -2.44444611  *  -0.25227186  *
    17       H         -1.70673750  *  -2.39848439  *  -0.43700688  *
    18       H          3.04990022  *  -1.10367976  *   0.27403100  *
    19       H          0.64699983  *   2.39289430  *   0.77348484  *
 


          CARTESIAN COORDINATES 

    NO.       ATOM           X           Y           Z

     1         C         -0.2492     -0.6687     -0.6649
     2         C         -1.7880      0.9223      0.3694
     3         C          2.0797      0.8675      0.0145
     4         C         -0.3576      0.6900     -0.0135
     5         C          0.7196      1.4157      0.2875
     6         C         -1.5382     -1.3360     -0.2681
     7         C          1.0144     -1.3506     -0.2723
     8         C         -2.3916     -0.4519      0.2685
     9         C          2.0989     -0.6258      0.0178
    10         H         -0.2369     -0.5543     -1.7786
    11         H         -1.8854      1.3401      1.3879
    12         H         -2.2880      1.6325     -0.3157
    13         H          2.4413      1.2347     -0.9682
    14         H          2.7937      1.2533      0.7679
    15         H         -3.4061     -0.6498      0.6114
    16         H          1.0129     -2.4444     -0.2523
    17         H         -1.7067     -2.3985     -0.4370
    18         H          3.0499     -1.1037      0.2740
    19         H          0.6470      2.3929      0.7735

  H: (PM3): J. J. P. STEWART, J. COMP. CHEM. 10, 209 (1989).
  C: (PM3): J. J. P. STEWART, J. COMP. CHEM. 10, 209 (1989).

           Empirical Formula: C9 H10  =    19 atoms



      MOLECULAR POINT GROUP   :   C1  


      RHF CALCULATION, NO. OF DOUBLY OCCUPIED LEVELS = 23



          HEAT OF FORMATION =      40.303312 KCALS/MOLE


          CARTESIAN COORDINATE DERIVATIVES

   NUMBER  ATOM         X            Y            Z

     1       C      0.005345    -0.000358     0.004772
     2       C     -0.001569     0.000413    -0.001191
     3       C      0.003287    -0.001981    -0.003611
     4       C      0.001234     0.003176     0.007742
     5       C      0.002846     0.002526    -0.009567
     6       C     -0.003150    -0.000951     0.005109
     7       C      0.002170    -0.003476     0.005278
     8       C     -0.006166     0.010270    -0.002525
     9       C     -0.004145     0.000372    -0.009560
    10       H     -0.010782    -0.007624    -0.005509
    11       H      0.003701     0.003453     0.001320
    12       H      0.001980     0.000274     0.000571
    13       H      0.008410    -0.007553     0.004124
    14       H      0.010913     0.000644     0.001672
    15       H     -0.002746    -0.004014    -0.001500
    16       H      0.006442    -0.010725     0.001107
    17       H     -0.000899     0.005434     0.000491
    18       H     -0.010839     0.005773    -0.000923
    19       H     -0.006033     0.004349     0.002201
 


          GRADIENT NORM =   0.03912


          TIME FOR SCF CALCULATION =    0.02

          TIME FOR DERIVATIVES     =    0.01

          MOLECULAR WEIGHT =  118.18



          ROTATIONAL CONSTANTS IN CM(-1)

          A =    0.11406630   B =    0.05204213   C =    0.03765387



           PRINCIPAL MOMENTS OF INERTIA IN UNITS OF 10**(-40)*GRAM-CM**2

          A =      245.4079   B =      537.8868   C =      743.4236


          ORIENTATION OF MOLECULE IN FORCE CALCULATION

    NO.       ATOM         X         Y         Z

     1          C      -0.5415   -0.6890    0.2632
     2          C       1.9017   -0.6890    0.2632
     3          C      -0.7202    2.1769    0.2632
     4          C       0.6875    0.1823    0.3767
     5          C       0.6090    1.5131    0.3956
     6          C       0.0039   -1.9661   -0.3164
     7          C      -1.6152   -0.0016   -0.5052
     8          C       1.3442   -1.9749   -0.2835
     9          C      -1.7034    1.3315   -0.4778
    10          H      -0.9462   -0.9069    1.2841
    11          H       2.6664   -0.2551   -0.4065
    12          H       2.3891   -0.8467    1.2437
    13          H      -1.1249    2.4093    1.2699
    14          H      -0.5997    3.1500   -0.2513
    15          H       1.9995   -2.7832   -0.6048
    16          H      -2.3181   -0.6282   -1.0621
    17          H      -0.6534   -2.7536   -0.6819
    18          H      -2.5051    1.8589   -1.0046
    19          H       1.4968    2.1485    0.4618


    FIRST DERIVATIVES WILL BE USED IN THE CALCULATION OF SECOND DERIVATIVES

          ESTIMATED TIME TO COMPLETE CALCULATION =        7.12 SECONDS

    FOR POINT-GROUP C1   THERE ARE   1 UNIQUE SYMMETRY FUNCTIONS.

 STEP:   1 TIME =     0.04 SECS, INTEGRAL =      0.04 TIME LEFT: 172799.93
 STEP:   2 TIME =     0.04 SECS, INTEGRAL =      0.08 TIME LEFT: 172799.89
 STEP:   3 TIME =     0.04 SECS, INTEGRAL =      0.12 TIME LEFT: 172799.85
 STEP:   4 TIME =     0.04 SECS, INTEGRAL =      0.16 TIME LEFT: 172799.81
 STEP:   5 TIME =     0.04 SECS, INTEGRAL =      0.20 TIME LEFT: 172799.77
 STEP:   6 TIME =     0.04 SECS, INTEGRAL =      0.25 TIME LEFT: 172799.72
 STEP:   7 TIME =     0.04 SECS, INTEGRAL =      0.29 TIME LEFT: 172799.68
 STEP:   8 TIME =     0.04 SECS, INTEGRAL =      0.33 TIME LEFT: 172799.64
 STEP:   9 TIME =     0.04 SECS, INTEGRAL =      0.37 TIME LEFT: 172799.60
 STEP:  10 TIME =     0.04 SECS, INTEGRAL =      0.41 TIME LEFT: 172799.56
 STEP:  11 TIME =     0.04 SECS, INTEGRAL =      0.45 TIME LEFT: 172799.52
 STEP:  12 TIME =     0.04 SECS, INTEGRAL =      0.49 TIME LEFT: 172799.48
 STEP:  13 TIME =     0.04 SECS, INTEGRAL =      0.54 TIME LEFT: 172799.43
 STEP:  14 TIME =     0.04 SECS, INTEGRAL =      0.58 TIME LEFT: 172799.39
 STEP:  15 TIME =     0.04 SECS, INTEGRAL =      0.62 TIME LEFT: 172799.35
 STEP:  16 TIME =     0.04 SECS, INTEGRAL =      0.66 TIME LEFT: 172799.31
 STEP:  17 TIME =     0.04 SECS, INTEGRAL =      0.70 TIME LEFT: 172799.27
 STEP:  18 TIME =     0.04 SECS, INTEGRAL =      0.74 TIME LEFT: 172799.23
 STEP:  19 TIME =     0.04 SECS, INTEGRAL =      0.79 TIME LEFT: 172799.18
 STEP:  20 TIME =     0.04 SECS, INTEGRAL =      0.83 TIME LEFT: 172799.14
 STEP:  21 TIME =     0.04 SECS, INTEGRAL =      0.87 TIME LEFT: 172799.10
 STEP:  22 TIME =     0.04 SECS, INTEGRAL =      0.91 TIME LEFT: 172799.06
 STEP:  23 TIME =     0.04 SECS, INTEGRAL =      0.95 TIME LEFT: 172799.02
 STEP:  24 TIME =     0.04 SECS, INTEGRAL =      0.99 TIME LEFT: 172798.98
 STEP:  25 TIME =     0.04 SECS, INTEGRAL =      1.04 TIME LEFT: 172798.93
 STEP:  26 TIME =     0.04 SECS, INTEGRAL =      1.07 TIME LEFT: 172798.89
 STEP:  27 TIME =     0.04 SECS, INTEGRAL =      1.11 TIME LEFT: 172798.86
 STEP:  28 TIME =     0.04 SECS, INTEGRAL =      1.15 TIME LEFT: 172798.82
 STEP:  29 TIME =     0.04 SECS, INTEGRAL =      1.20 TIME LEFT: 172798.77
 STEP:  30 TIME =     0.04 SECS, INTEGRAL =      1.23 TIME LEFT: 172798.73
 STEP:  31 TIME =     0.04 SECS, INTEGRAL =      1.28 TIME LEFT: 172798.69
 STEP:  32 TIME =     0.04 SECS, INTEGRAL =      1.32 TIME LEFT: 172798.65
 STEP:  33 TIME =     0.04 SECS, INTEGRAL =      1.36 TIME LEFT: 172798.61
 STEP:  34 TIME =     0.04 SECS, INTEGRAL =      1.40 TIME LEFT: 172798.57
 STEP:  35 TIME =     0.04 SECS, INTEGRAL =      1.45 TIME LEFT: 172798.52
 STEP:  36 TIME =     0.04 SECS, INTEGRAL =      1.48 TIME LEFT: 172798.48
 STEP:  37 TIME =     0.14 SECS, INTEGRAL =      1.63 TIME LEFT: 172798.34
 STEP:  38 TIME =     0.04 SECS, INTEGRAL =      1.67 TIME LEFT: 172798.30
 STEP:  39 TIME =     0.04 SECS, INTEGRAL =      1.71 TIME LEFT: 172798.25
 STEP:  40 TIME =     0.04 SECS, INTEGRAL =      1.76 TIME LEFT: 172798.21
 STEP:  41 TIME =     0.04 SECS, INTEGRAL =      1.80 TIME LEFT: 172798.17
 STEP:  42 TIME =     0.04 SECS, INTEGRAL =      1.84 TIME LEFT: 172798.13
 STEP:  43 TIME =     0.04 SECS, INTEGRAL =      1.88 TIME LEFT: 172798.09
 STEP:  44 TIME =     0.04 SECS, INTEGRAL =      1.91 TIME LEFT: 172798.05
 STEP:  45 TIME =     0.04 SECS, INTEGRAL =      1.96 TIME LEFT: 172798.01
 STEP:  46 TIME =     0.04 SECS, INTEGRAL =      2.00 TIME LEFT: 172797.97
 STEP:  47 TIME =     0.04 SECS, INTEGRAL =      2.04 TIME LEFT: 172797.93
 STEP:  48 TIME =     0.04 SECS, INTEGRAL =      2.07 TIME LEFT: 172797.89
 STEP:  49 TIME =     0.04 SECS, INTEGRAL =      2.12 TIME LEFT: 172797.85
 STEP:  50 TIME =     0.04 SECS, INTEGRAL =      2.16 TIME LEFT: 172797.81
 STEP:  51 TIME =     0.04 SECS, INTEGRAL =      2.20 TIME LEFT: 172797.77
 STEP:  52 TIME =     0.04 SECS, INTEGRAL =      2.25 TIME LEFT: 172797.72
 STEP:  53 TIME =     0.04 SECS, INTEGRAL =      2.29 TIME LEFT: 172797.68
 STEP:  54 TIME =     0.04 SECS, INTEGRAL =      2.32 TIME LEFT: 172797.64
 STEP:  55 TIME =     0.04 SECS, INTEGRAL =      2.36 TIME LEFT: 172797.61
 STEP:  56 TIME =     0.04 SECS, INTEGRAL =      2.40 TIME LEFT: 172797.57
 STEP:  57 TIME =     0.04 SECS, INTEGRAL =      2.45 TIME LEFT: 172797.52

(To convert to Hartree/Bohr^2, multiply by (10^(-21) x N x a0^2)/(4.184 x 627.51) =  0.0642)


           FORCE MATRIX IN MILLIDYNES/ANGSTROM


                  C  1       C  2       C  3       C  4       C  5       C  6
 ------------------------------------------------------------------------------
     C    1  15.534578
     C    2   0.755795  14.922016
     C    3   0.196062   0.123195  14.908843
     C    4   4.142191   4.556549   0.931739  19.213887
     C    5   0.788286   0.648974   4.796328  10.580155  18.202745
     C    6   4.395443   1.158530   0.009482   1.014629   0.050446  18.233775
     C    7   4.867391   0.047482   0.856751   0.736192   0.084140   0.591427
     C    8   1.190884   4.445762   0.009991   1.063906   0.050312  10.428577
     C    9   0.922115   0.006523   4.741486   0.102420   0.747376   0.049547
     H   10   4.108039   0.020296   0.018544   0.414155   0.024363   0.402534
     H   11   0.039121   4.522582   0.008970   0.441242   0.016448   0.039951
     H   12   0.022720   4.478549   0.015598   0.428076   0.022622   0.035298
     H   13   0.020118   0.016619   4.366863   0.026772   0.420461   0.002913
     H   14   0.012217   0.012491   4.472809   0.047427   0.425785   0.001358
     H   15   0.113227   0.408281   0.001973   0.044195   0.006171   0.448738
     H   16   0.436238   0.005452   0.115962   0.038755   0.005846   0.016744
     H   17   0.413351   0.114391   0.001246   0.041628   0.006521   5.039683
     H   18   0.114627   0.002019   0.427669   0.006114   0.040567   0.012068
     H   19   0.110562   0.067104   0.429421   0.462579   4.883176   0.010302


                  C  7       C  8       C  9       H 10       H 11       H 12
 ------------------------------------------------------------------------------
     C    7  18.169166
     C    8   0.045140  18.214424
     C    9  10.554092   0.010762  18.045820
     H   10   0.399389   0.035034   0.030589   4.564826
     H   11   0.004475   0.432596   0.001240   0.001571   5.121393
     H   12   0.003363   0.429940   0.001125   0.001789   0.553479   5.081294
     H   13   0.027600   0.001839   0.419703   0.007728   0.001376   0.002394
     H   14   0.046901   0.001671   0.428135   0.002121   0.000859   0.001466
     H   15   0.015498   5.035736   0.002754   0.014742   0.015068   0.010125
     H   16   4.877852   0.002976   0.448012   0.012635   0.000837   0.000485
     H   17   0.011484   0.448786   0.002709   0.010399   0.014281   0.015799
     H   18   0.445788   0.002163   4.858429   0.014515   0.000215   0.000231
     H   19   0.008942   0.003771   0.040262   0.014055   0.008413   0.009485


                  H 13       H 14       H 15       H 16       H 17       H 18
 ------------------------------------------------------------------------------
     H   13   4.961667
     H   14   0.563392   5.047567
     H   15   0.000252   0.000491   5.429723
     H   16   0.015710   0.011236   0.000797   5.256922
     H   17   0.000423   0.000285   0.047754   0.007539   5.435455
     H   18   0.013171   0.036935   0.000797   0.064092   0.000521   5.232142
     H   19   0.012432   0.035825   0.000850   0.001952   0.001631   0.005216


                  H 19
 ------------------
     H   19   5.260614


          HEAT OF FORMATION =      40.303312 KCALS/MOLE

          ZERO POINT ENERGY     101.480 KCAL/MOL


           NORMAL COORDINATE ANALYSIS (Total motion = 1 Angstrom)


   Root No.       1         2         3         4         5         6         7         8

                 1 A       2 A       3 A       4 A       5 A       6 A       7 A       8 A   

                 127.2     210.3     265.3     381.3     393.2     450.5     515.0     539.0
  
           1    0.0003    0.0072   -0.0007    0.0313    0.0010    0.0046    0.0251    0.0036
           2    0.0095    0.0066   -0.0074    0.0339    0.0018    0.0085   -0.0292    0.0116
           3   -0.0044   -0.0419   -0.0282   -0.0039    0.0031    0.0196    0.0200   -0.0033
           4    0.0035    0.0032    0.0021    0.0142    0.0048    0.0084   -0.0209    0.0461
           5    0.0078   -0.0110    0.0101   -0.0307    0.0042   -0.0056   -0.0176   -0.0316
           6   -0.0413    0.0283   -0.0264    0.0036   -0.0098   -0.0060   -0.0055    0.0008
           7   -0.0166   -0.0047    0.0103   -0.0218   -0.0024   -0.0068   -0.0325   -0.0288
           8   -0.0120   -0.0023    0.0172   -0.0113   -0.0106   -0.0059    0.0610    0.0030
           9    0.0424    0.0229   -0.0197   -0.0108    0.0038   -0.0074    0.0091   -0.0116
          10    0.0049    0.0080   -0.0071    0.0422    0.0028    0.0095   -0.0083    0.0244
          11    0.0054    0.0048   -0.0048    0.0216    0.0015   -0.0044    0.0116   -0.0345
          12   -0.0169   -0.0416   -0.0061   -0.0222   -0.0007    0.0536   -0.0127    0.0313
          13   -0.0037    0.0062   -0.0087   -0.0022    0.0025   -0.0006   -0.0445   -0.0383
          14    0.0049    0.0044   -0.0057    0.0197    0.0012   -0.0029    0.0177   -0.0371
          15    0.0088   -0.0445    0.0442    0.0352    0.0063   -0.0171   -0.0103   -0.0076
          16   -0.0084    0.0116    0.0097   -0.0186    0.0010   -0.0110    0.0037    0.0262
          17   -0.0128   -0.0016   -0.0144    0.0193    0.0206    0.0282   -0.0310    0.0004
          18    0.0397   -0.0196   -0.0030   -0.0005   -0.0393   -0.0257   -0.0206    0.0225
          19    0.0193   -0.0116   -0.0078    0.0056   -0.0282    0.0303    0.0530   -0.0128
          20    0.0057    0.0126    0.0065   -0.0127   -0.0040   -0.0025    0.0121    0.0534
          21   -0.0361   -0.0090   -0.0042    0.0011    0.0411   -0.0221    0.0297    0.0155
          22   -0.0082    0.0105    0.0092   -0.0203   -0.0008   -0.0139    0.0014    0.0297
          23   -0.0133   -0.0219   -0.0151   -0.0165   -0.0109   -0.0069   -0.0362   -0.0161
          24    0.0210    0.0458    0.0270   -0.0075    0.0326    0.0174   -0.0028   -0.0156
          25    0.0110   -0.0286   -0.0101   -0.0206    0.0189   -0.0203    0.0221   -0.0467
          26    0.0052    0.0110    0.0063   -0.0169   -0.0000   -0.0091    0.0126    0.0543
          27   -0.0159    0.0397    0.0203   -0.0057   -0.0367    0.0170    0.0029   -0.0326
          28   -0.0142    0.0166   -0.0037    0.0611    0.0363   -0.0316    0.0511   -0.0235
          29    0.0444    0.0057   -0.0144    0.0638   -0.0335   -0.0155   -0.0593    0.0072
          30   -0.0026   -0.0370   -0.0296    0.0153    0.0099   -0.0009    0.0230   -0.0145
          31   -0.0294    0.0377   -0.0405    0.0577   -0.0312   -0.0569   -0.0016    0.0299
          32   -0.0081   -0.0432    0.0053   -0.0680   -0.0136   -0.0058   -0.0371   -0.0098
          33   -0.0897    0.0473   -0.0794    0.0309   -0.0642   -0.0835    0.0056   -0.0040
          34    0.0486   -0.0420    0.0548   -0.0278    0.0529    0.1005   -0.0469    0.0744
          35    0.0430    0.0168    0.0530   -0.0575    0.0492    0.0124   -0.0141   -0.0638
          36   -0.0582    0.0556   -0.0464    0.0207   -0.0277   -0.0509    0.0082   -0.0186
          37   -0.0293    0.0391    0.0017   -0.0439   -0.0321    0.0174   -0.0432   -0.0387
          38   -0.0871   -0.0381    0.1157    0.0151   -0.0746    0.0219    0.0846   -0.0257
          39    0.0547    0.0491   -0.0466   -0.0259    0.0075   -0.0047   -0.0014   -0.0082
          40   -0.0370   -0.0379    0.0565   -0.0173   -0.0096   -0.0151   -0.0290    0.0114
          41    0.0236    0.0150   -0.0288   -0.0253    0.0197   -0.0198    0.0533    0.0212
          42    0.1060    0.0484   -0.0985   -0.0372    0.0615   -0.0364   -0.0067    0.0331
          43   -0.0145    0.0140    0.0150   -0.0447   -0.0042   -0.0285    0.0150    0.0091
          44   -0.0276   -0.0403   -0.0299   -0.0331   -0.0352   -0.0259   -0.0312   -0.0240
          45    0.0439    0.0994    0.0756   -0.0151    0.0865    0.0356    0.0118   -0.0400
          46    0.0455   -0.0169   -0.0238    0.0176   -0.0667    0.0796    0.0783   -0.0354
          47    0.0081    0.0211    0.0168   -0.0415   -0.0136   -0.0143    0.0188    0.0407
          48   -0.0715   -0.0114    0.0043    0.0182    0.1000   -0.0717   -0.0110    0.0578
          49   -0.0142    0.0168    0.0177   -0.0503    0.0021   -0.0233   -0.0069    0.0261
          50   -0.0270    0.0040   -0.0256    0.0450    0.0477    0.0674   -0.0107   -0.0190
          51    0.0806   -0.0404    0.0069    0.0007   -0.0997   -0.0886   -0.0451    0.0643
          52    0.0296   -0.0540   -0.0338   -0.0350    0.0571   -0.0451    0.0350   -0.0480
          53    0.0135    0.0194    0.0068   -0.0295    0.0037   -0.0204   -0.0349    0.0532
          54   -0.0352    0.0870    0.0558    0.0042   -0.0906    0.0437   -0.0646   -0.0316
          55   -0.0100    0.0042   -0.0072   -0.0344   -0.0009   -0.0010   -0.0418   -0.0471
          56    0.0134    0.0087   -0.0138    0.0561    0.0050    0.0058    0.0177   -0.0213
          57    0.0061   -0.0609    0.1098    0.1155    0.0125   -0.0914   -0.0372   -0.0332


   Root No.       9        10        11        12        13        14        15        16

                 9 A      10 A      11 A      12 A      13 A      14 A      15 A      16 A   

                 664.4     746.9     763.6     779.2     803.3     844.5     891.4     933.8
  
           1    0.0206    0.0060    0.0155    0.0022   -0.0077   -0.0174   -0.0242   -0.0051
           2    0.0025   -0.0098   -0.0147   -0.0040    0.0079   -0.0023   -0.0264   -0.0018
           3   -0.0360    0.0101   -0.0090   -0.0300    0.0185    0.0055    0.0157    0.0049
           4   -0.0251   -0.0078    0.0232    0.0364   -0.0047    0.0184    0.0326    0.0034
           5   -0.0075    0.0071    0.0308   -0.0012   -0.0013   -0.0155    0.0020   -0.0099
           6    0.0023    0.0106    0.0006    0.0196   -0.0205    0.0071   -0.0273    0.0173
           7    0.0010    0.0063    0.0003   -0.0106    0.0008    0.0029    0.0002    0.0039
           8    0.0069   -0.0047   -0.0105    0.0255    0.0079    0.0384    0.0115    0.0108
           9   -0.0106   -0.0209   -0.0080    0.0192    0.0042   -0.0176   -0.0144   -0.0104
          10    0.0013   -0.0045    0.0131    0.0175   -0.0131   -0.0051    0.0139   -0.0029
          11    0.0251   -0.0031   -0.0159   -0.0057   -0.0081   -0.0056    0.0113   -0.0001
          12    0.0539   -0.0136   -0.0019    0.0002   -0.0096    0.0024    0.0070   -0.0169
          13    0.0184    0.0022   -0.0139   -0.0245   -0.0153   -0.0129    0.0176    0.0027
          14    0.0355   -0.0040   -0.0242   -0.0058   -0.0115    0.0006    0.0229    0.0006
          15    0.0020   -0.0033   -0.0048   -0.0053    0.0105   -0.0271    0.0182    0.0232
          16    0.0015   -0.0071   -0.0375   -0.0207    0.0120    0.0057   -0.0062    0.0022
          17   -0.0268   -0.0179   -0.0107   -0.0112    0.0311    0.0249   -0.0240    0.0150
          18   -0.0042    0.0064   -0.0286    0.0094    0.0062   -0.0001    0.0063   -0.0185
          19   -0.0016    0.0282    0.0351   -0.0086    0.0155   -0.0130   -0.0181   -0.0128
          20   -0.0040    0.0120    0.0096   -0.0161   -0.0061   -0.0173    0.0002   -0.0043
          21   -0.0027    0.0016    0.0154   -0.0150   -0.0199   -0.0061   -0.0017    0.0098
          22   -0.0018   -0.0066   -0.0365   -0.0204    0.0122    0.0053   -0.0063    0.0010
          23   -0.0157    0.0030    0.0491    0.0194   -0.0098    0.0008    0.0090   -0.0013
          24   -0.0150    0.0117    0.0008    0.0149   -0.0053   -0.0103    0.0102    0.0037
          25    0.0048   -0.0083   -0.0000    0.0362    0.0243    0.0196   -0.0060    0.0051
          26   -0.0038    0.0105    0.0047   -0.0138   -0.0064   -0.0138    0.0036   -0.0013
          27   -0.0071   -0.0102   -0.0048    0.0065   -0.0107    0.0181   -0.0031   -0.0074
          28   -0.0094    0.0084    0.0368   -0.0193   -0.0474   -0.0333   -0.0646    0.0436
          29   -0.0272    0.0159   -0.0462    0.0277    0.0242   -0.0095   -0.0695   -0.0370
          30   -0.0527    0.0165   -0.0064   -0.0314    0.0064   -0.0020   -0.0113    0.0167
          31   -0.0532   -0.0379    0.0621    0.0114    0.0421   -0.0075    0.1245   -0.0217
          32    0.0156   -0.0035    0.0398   -0.0304    0.0057    0.0022   -0.0514   -0.0553
          33   -0.0148   -0.0327    0.0517   -0.0314    0.0412   -0.0121    0.0452   -0.0431
          34    0.0142    0.0263   -0.0146    0.0960   -0.0806    0.0657   -0.0438    0.0404
          35   -0.0502    0.0570   -0.0144    0.0168   -0.0132   -0.0511   -0.0630    0.0675
          36   -0.0247    0.0001    0.0146   -0.0081    0.0170   -0.0230    0.0039    0.0098
          37   -0.0158    0.0019   -0.0022   -0.0304   -0.0493    0.0469   -0.0363   -0.0719
          38   -0.0708   -0.0982   -0.0337    0.0765    0.0012   -0.0627   -0.0404   -0.0378
          39    0.0026    0.0010   -0.0032   -0.0009   -0.0140    0.0267   -0.0161   -0.0287
          40   -0.0503   -0.0126    0.0170   -0.0005    0.0211   -0.0746   -0.0361    0.0116
          41    0.0419    0.0368   -0.0007    0.0074    0.0116    0.0911    0.0363    0.0343
          42    0.0464    0.0577    0.0161   -0.0170    0.0160    0.0661    0.0247    0.0373
          43    0.0169    0.0115   -0.0347   -0.0356   -0.0106   -0.0317   -0.0172   -0.0109
          44   -0.0173    0.0662   -0.0211    0.0615   -0.0565   -0.0522   -0.0065    0.0158
          45    0.0260   -0.1101    0.1841   -0.1212    0.0668    0.0473    0.0241   -0.0637
          46   -0.0781   -0.0037    0.0235   -0.1035   -0.0772   -0.0009    0.0051    0.0614
          47   -0.0119    0.0001   -0.0021    0.0036   -0.0192    0.0072    0.0362    0.0036
          48    0.1025    0.0553    0.0431    0.0822    0.1120   -0.0497   -0.0726   -0.0929
          49   -0.0108   -0.0005   -0.0278   -0.0079   -0.0058    0.0061    0.0514    0.0025
          50   -0.0607    0.0287   -0.0923    0.0044    0.0528   -0.0029   -0.0153   -0.0518
          51    0.0903   -0.1054    0.1292   -0.0486   -0.0076    0.0587   -0.1183    0.1248
          52   -0.0526   -0.0923   -0.0388    0.0245   -0.0852    0.0093   -0.0298   -0.0531
          53   -0.0118   -0.0090   -0.0203   -0.0156   -0.0161   -0.0321    0.0073   -0.0088
          54    0.0721    0.0987    0.0307    0.0222    0.1471    0.0160    0.0348    0.0736
          55    0.0125   -0.0023   -0.0140   -0.0229    0.0067   -0.0220    0.0059    0.0277
          56    0.0485   -0.0103   -0.0268    0.0002   -0.0345   -0.0121    0.0476   -0.0211
          57   -0.0402    0.1109    0.0196   -0.0786   -0.0703    0.2083   -0.0430   -0.1024


   Root No.      17        18        19        20        21        22        23        24

                17 A      18 A      19 A      20 A      21 A      22 A      23 A      24 A   

                 946.6     971.5     995.5    1022.2    1031.0    1039.9    1050.9    1058.8
  
           1   -0.0216   -0.0017    0.0106    0.0029   -0.0033    0.0031    0.0063   -0.0019
           2   -0.0158    0.0003    0.0031    0.0013    0.0054   -0.0126    0.0079    0.0051
           3    0.0282    0.0111   -0.0144    0.0133    0.0118    0.0085   -0.0081   -0.0156
           4    0.0020   -0.0038   -0.0022    0.0028   -0.0086    0.0143    0.0001   -0.0065
           5   -0.0137   -0.0080    0.0130    0.0038   -0.0034    0.0099    0.0028   -0.0078
           6    0.0125    0.0205   -0.0152   -0.0173   -0.0120    0.0165    0.0010    0.0037
           7   -0.0129   -0.0027   -0.0014    0.0021    0.0042    0.0039   -0.0005   -0.0004
           8   -0.0250   -0.0014   -0.0246    0.0208   -0.0105   -0.0015    0.0084   -0.0087
           9    0.0228    0.0087   -0.0007    0.0234   -0.0201   -0.0084    0.0166   -0.0016
          10    0.0043    0.0039    0.0027    0.0002    0.0081    0.0012    0.0076   -0.0027
          11    0.0120    0.0019    0.0014    0.0002   -0.0015    0.0027   -0.0015    0.0001
          12   -0.0120   -0.0078    0.0185    0.0176    0.0155    0.0018    0.0188   -0.0155
          13    0.0143   -0.0012   -0.0200    0.0002   -0.0222   -0.0083    0.0021   -0.0130
          14    0.0189    0.0025   -0.0031   -0.0007   -0.0057    0.0041   -0.0026   -0.0025
          15   -0.0195   -0.0037   -0.0223   -0.0074    0.0047    0.0135   -0.0177    0.0226
          16    0.0046   -0.0011   -0.0007   -0.0013    0.0019   -0.0030   -0.0016    0.0025
          17    0.0060   -0.0229    0.0066   -0.0042   -0.0043   -0.0078   -0.0132    0.0064
          18   -0.0159    0.0052    0.0075   -0.0170   -0.0219    0.0118    0.0039    0.0098
          19    0.0113   -0.0185   -0.0153   -0.0188   -0.0002   -0.0059   -0.0139    0.0026
          20    0.0115   -0.0014    0.0039   -0.0117    0.0026    0.0002   -0.0067    0.0047
          21   -0.0097   -0.0024    0.0179   -0.0206   -0.0072   -0.0200    0.0190    0.0303
          22    0.0021    0.0017   -0.0007   -0.0025    0.0016    0.0012    0.0005    0.0003
          23    0.0034    0.0124   -0.0147   -0.0042    0.0028   -0.0120    0.0026    0.0098
          24   -0.0021   -0.0235    0.0138    0.0219    0.0057   -0.0303   -0.0223    0.0003
          25    0.0067    0.0120    0.0355   -0.0136    0.0136   -0.0039    0.0024    0.0180
          26    0.0080    0.0040    0.0026    0.0015   -0.0004    0.0037   -0.0018    0.0011
          27   -0.0136   -0.0128   -0.0036   -0.0336    0.0189   -0.0015   -0.0174   -0.0240
          28   -0.0681    0.1015    0.0565    0.1396    0.0130    0.0895   -0.1137   -0.0858
          29   -0.0879    0.1084   -0.0725   -0.0168    0.1534   -0.0829    0.0535    0.0040
          30   -0.0071    0.0746   -0.0117    0.0635    0.0494    0.0279   -0.0466   -0.0489
          31   -0.0145   -0.0645    0.0201    0.0426    0.0360    0.0080    0.0356   -0.0246
          32   -0.0686    0.0448    0.0544   -0.0129   -0.1067   -0.0055   -0.1120   -0.0041
          33   -0.0438   -0.0174    0.0397    0.0189   -0.0271   -0.0021   -0.0332   -0.0145
          34    0.0445    0.0839   -0.0499   -0.0362   -0.0556    0.0036   -0.0468    0.0228
          35    0.0152   -0.0671   -0.0141   -0.0378    0.0450    0.1668    0.1550   -0.0569
          36   -0.0051   -0.0339    0.0052   -0.0031    0.0196    0.0466    0.0487   -0.0195
          37   -0.0135   -0.0451   -0.0408    0.1376    0.0484    0.1130   -0.0179    0.2155
          38    0.0743    0.0260   -0.0062    0.0761   -0.0510   -0.0125    0.0435    0.0076
          39   -0.0027   -0.0149   -0.0211    0.0650    0.0079    0.0383    0.0014    0.0811
          40   -0.0038    0.0250    0.0195    0.0250   -0.0381   -0.0467    0.0620   -0.1117
          41   -0.0766   -0.0128   -0.0422    0.0144    0.0006    0.0045    0.0021   -0.0232
          42   -0.0766   -0.0085   -0.0304    0.0136   -0.0085   -0.0096    0.0177   -0.0540
          43   -0.0008    0.0400   -0.0162    0.0228    0.0645   -0.0611    0.0260   -0.0009
          44    0.0013   -0.0183    0.0052    0.0460    0.0537   -0.0876   -0.0068    0.0050
          45   -0.0049    0.1296   -0.0662   -0.0538    0.0027    0.0336    0.0517    0.0106
          46   -0.0576    0.0084    0.0272    0.0128   -0.0460   -0.0569    0.0733    0.0629
          47    0.0317    0.0209    0.0670   -0.0808    0.0521    0.0350   -0.0594   -0.0084
          48    0.0555   -0.0605   -0.1042    0.0137   -0.0025    0.0050   -0.0338   -0.0308
          49    0.0415    0.0271   -0.0488    0.0166    0.0463   -0.0733   -0.0206    0.0299
          50   -0.0656   -0.0039    0.0446   -0.0421   -0.0629    0.0590    0.0149   -0.0010
          51    0.0723   -0.0857    0.0112    0.0329    0.0270   -0.0102   -0.0241   -0.0216
          52   -0.0181   -0.0319   -0.0057   -0.0549    0.0523    0.0208   -0.0423   -0.0609
          53    0.0298    0.0371    0.0525    0.0144    0.0413    0.0469   -0.0205   -0.0555
          54    0.0443    0.0858    0.1090    0.0409    0.0017    0.0017    0.0333    0.0409
          55   -0.0382   -0.0103   -0.0655    0.0263   -0.0629   -0.0274    0.0093   -0.0339
          56    0.0834    0.0166    0.0521   -0.0419    0.0523    0.0362   -0.0200    0.0346
          57    0.0790   -0.0138    0.0509    0.0425   -0.0163   -0.0339    0.0565   -0.0628


   Root No.      25        26        27        28        29        30        31        32

                25 A      26 A      27 A      28 A      29 A      30 A      31 A      32 A   

                1066.7    1089.9    1095.2    1143.9    1176.5    1201.5    1250.6    1294.7
  
           1   -0.0099   -0.0005   -0.0009    0.0087   -0.0085   -0.0248    0.0174    0.0167
           2   -0.0041    0.0016   -0.0003    0.0101    0.0181   -0.0152   -0.0277    0.0217
           3    0.0121   -0.0167    0.0038    0.0043    0.0024   -0.0203   -0.0017    0.0296
           4    0.0245   -0.0048    0.0047    0.0041   -0.0079    0.0102   -0.0207   -0.0190
           5    0.0185   -0.0044    0.0001   -0.0005   -0.0140    0.0031   -0.0043    0.0349
           6    0.0025   -0.0059   -0.0030    0.0013   -0.0062   -0.0015   -0.0042    0.0116
           7   -0.0073   -0.0130   -0.0153   -0.0027    0.0025    0.0116   -0.0046    0.0197
           8    0.0032   -0.0032    0.0045   -0.0006    0.0129   -0.0002    0.0170    0.0012
           9    0.0061    0.0052    0.0034   -0.0068    0.0009    0.0046    0.0022    0.0056
          10    0.0011   -0.0107    0.0017   -0.0065    0.0265   -0.0324    0.0193    0.0267
          11   -0.0040   -0.0057   -0.0094   -0.0024   -0.0186   -0.0120   -0.0176   -0.0005
          12    0.0003    0.0153    0.0002   -0.0045   -0.0012    0.0064   -0.0021   -0.0065
          13    0.0169    0.0158    0.0199   -0.0045    0.0125    0.0163    0.0233   -0.0134
          14    0.0061   -0.0038   -0.0061   -0.0006   -0.0181   -0.0014   -0.0173   -0.0167
          15    0.0015   -0.0055    0.0022    0.0022    0.0010   -0.0015    0.0022   -0.0009
          16   -0.0063    0.0043   -0.0042   -0.0017   -0.0097    0.0063    0.0108    0.0140
          17   -0.0157    0.0100   -0.0048   -0.0072    0.0062   -0.0003    0.0075   -0.0317
          18   -0.0330    0.0121   -0.0031   -0.0013    0.0074    0.0008   -0.0002   -0.0151
          19   -0.0027    0.0075   -0.0029   -0.0051   -0.0076    0.0044    0.0020   -0.0302
          20    0.0027    0.0085    0.0064    0.0010    0.0032    0.0106   -0.0143    0.0111
          21    0.0084    0.0064   -0.0014   -0.0025   -0.0089    0.0006    0.0049   -0.0218
          22    0.0015   -0.0014    0.0039   -0.0023   -0.0069    0.0099    0.0051    0.0094
          23   -0.0368    0.0119   -0.0013    0.0011   -0.0035    0.0064    0.0280    0.0063
          24    0.0043   -0.0018    0.0005   -0.0006   -0.0033    0.0024    0.0129    0.0041
          25    0.0026    0.0070    0.0054    0.0064    0.0060    0.0038   -0.0182    0.0106
          26    0.0012    0.0013    0.0010    0.0063    0.0026    0.0109   -0.0055    0.0139
          27   -0.0079   -0.0015   -0.0033    0.0053    0.0058    0.0056   -0.0147    0.0098
          28   -0.0876    0.0999    0.0108   -0.0327    0.0277    0.0815   -0.0326   -0.0390
          29    0.1813    0.0246   -0.0151   -0.0298   -0.0825    0.0602    0.0474   -0.0440
          30    0.0201    0.0290    0.0054   -0.0209   -0.0050    0.0396   -0.0059   -0.0090
          31    0.0004    0.0107    0.0235    0.0057   -0.0506    0.0487   -0.0687   -0.0370
          32    0.1887   -0.0504   -0.0284   -0.0015    0.1033   -0.0678    0.0069   -0.0600
          33    0.0838   -0.0163   -0.0018    0.0020    0.0216   -0.0046   -0.0451   -0.0642
          34    0.0134   -0.0374    0.0043    0.0096   -0.0461    0.0228   -0.0747   -0.0369
          35    0.0642    0.0419   -0.0057   -0.0014    0.0865   -0.0276   -0.0228   -0.0882
          36    0.0169    0.0172   -0.0027   -0.0015    0.0286   -0.0115    0.0156   -0.0034
          37   -0.0038   -0.0401   -0.0289   -0.0468   -0.0361   -0.0453   -0.0084   -0.0395
          38    0.0235    0.0130    0.0178   -0.0113    0.0159    0.0004    0.0720   -0.0350
          39    0.0027   -0.0101   -0.0054   -0.0214   -0.0141   -0.0184   -0.0080   -0.0116
          40   -0.0724   -0.1091   -0.1597   -0.1733   -0.0637   -0.0358   -0.0493   -0.0582
          41   -0.0086   -0.0236   -0.0114   -0.0075    0.0235   -0.0039    0.0511   -0.0181
          42   -0.0321   -0.0538   -0.0596   -0.0626    0.0016   -0.0149    0.0447   -0.0445
          43   -0.0636   -0.1073    0.1629   -0.0070    0.0744   -0.0196   -0.0758   -0.0999
          44   -0.0619   -0.0659    0.1085   -0.0031    0.0514   -0.0139   -0.0244   -0.0676
          45   -0.0676   -0.0189    0.0450    0.0002    0.0244   -0.0076   -0.0122   -0.0308
          46    0.0043   -0.0182   -0.0496    0.1045    0.0209    0.0815   -0.0337   -0.0008
          47    0.0130    0.0552    0.0819   -0.1796   -0.0538   -0.1260    0.0536   -0.0414
          48   -0.0117   -0.0117   -0.0266    0.0625    0.0176    0.0550   -0.0271   -0.0021
          49   -0.0198    0.1133   -0.1546    0.0209    0.0796   -0.0870   -0.0484   -0.0436
          50   -0.0412   -0.0544    0.0973   -0.0209   -0.0505    0.0653    0.0467    0.0064
          51    0.0401   -0.0412    0.0445   -0.0130   -0.0292    0.0244    0.0253    0.0048
          52   -0.0271   -0.0270   -0.0246    0.1142   -0.0193   -0.0209    0.0231   -0.0417
          53   -0.0277   -0.0584   -0.0454    0.2479   -0.0587   -0.0546    0.1001   -0.1135
          54    0.0075   -0.0102   -0.0065    0.0795   -0.0161   -0.0206    0.0233   -0.0374
          55    0.0129    0.0642    0.0713    0.0480   -0.0691   -0.0878   -0.0412   -0.0151
          56    0.0120   -0.0770   -0.0815   -0.0775    0.0972    0.1462    0.0750   -0.0171
          57    0.0075    0.0266    0.0168    0.0070   -0.0039   -0.0076   -0.0019    0.0020


   Root No.      33        34        35        36        37        38        39        40

                33 A      34 A      35 A      36 A      37 A      38 A      39 A      40 A   

                1338.2    1368.2    1377.1    1394.2    1399.9    1461.8    1810.9    1857.5
  
           1    0.0162   -0.0369   -0.0281    0.0146    0.0187    0.1055    0.0204   -0.0185
           2    0.0239   -0.0634    0.0208    0.0227   -0.0476   -0.0546   -0.0086    0.0208
           3    0.0039   -0.0242   -0.0005    0.0026   -0.0009    0.0245    0.0004   -0.0097
           4   -0.0119   -0.0030    0.0126    0.0670   -0.0023    0.0136   -0.0182    0.0029
           5    0.0424    0.0693   -0.0028    0.0045   -0.0272   -0.0027   -0.0027   -0.0037
           6    0.0118    0.0249    0.0008    0.0108   -0.0077    0.0006   -0.0020   -0.0009
           7    0.0134   -0.0118   -0.0295    0.0299    0.0794   -0.0552    0.0038   -0.0143
           8   -0.0037    0.0015   -0.0433    0.0027   -0.0337   -0.0161    0.0008   -0.0200
           9    0.0011   -0.0035   -0.0299    0.0128    0.0141   -0.0242    0.0015   -0.0099
          10   -0.0197    0.0617    0.0048   -0.0498    0.0080   -0.0505    0.0034   -0.0031
          11   -0.0122    0.0064    0.0052   -0.0016    0.0266   -0.0120   -0.0209    0.0348
          12   -0.0044    0.0025    0.0007   -0.0008    0.0030   -0.0053    0.0009    0.0030
          13    0.0108   -0.0011    0.0029   -0.0052   -0.0504    0.0322   -0.0053    0.0061
          14   -0.0185   -0.0017    0.0064    0.0070    0.0218   -0.0010    0.0231   -0.0275
          15    0.0006    0.0005    0.0023   -0.0016   -0.0059    0.0047   -0.0003    0.0005
          16   -0.0072   -0.0128    0.0049   -0.0118   -0.0022   -0.0122   -0.2059   -0.0290
          17    0.0058    0.0474   -0.0201   -0.0032    0.0210    0.0339    0.0210    0.0003
          18    0.0030    0.0188   -0.0068   -0.0007    0.0066    0.0099    0.0037   -0.0025
          19    0.0072    0.0029    0.0029    0.0087   -0.0113   -0.0553   -0.0059    0.0393
          20   -0.0087    0.0050    0.0133   -0.0084    0.0041    0.0210    0.0227   -0.2048
          21    0.0051    0.0024    0.0006    0.0055   -0.0070   -0.0340   -0.0041    0.0141
          22   -0.0079   -0.0117    0.0090   -0.0078   -0.0070   -0.0225    0.2068    0.0284
          23   -0.0291   -0.0540    0.0058   -0.0136    0.0053   -0.0050    0.0183    0.0008
          24   -0.0120   -0.0213    0.0021   -0.0065    0.0025   -0.0014    0.0131    0.0012
          25   -0.0111    0.0032    0.0226   -0.0151   -0.0157    0.0340   -0.0014    0.0107
          26   -0.0101    0.0080    0.0008   -0.0094    0.0136    0.0402   -0.0247    0.2081
          27   -0.0080    0.0022    0.0160   -0.0102   -0.0070    0.0241   -0.0024    0.0208
          28   -0.0110    0.0286    0.0216   -0.0038   -0.0170   -0.0643   -0.0068   -0.0099
          29   -0.0240    0.0489   -0.0199   -0.0124    0.0424    0.0418   -0.0173   -0.0121
          30   -0.0165    0.0262    0.0103   -0.0109    0.0035   -0.0231   -0.0067   -0.0065
          31    0.0965   -0.0638   -0.0463   -0.1324    0.0032    0.0016   -0.0049    0.0004
          32   -0.0834   -0.0506    0.0100    0.0117    0.0420   -0.0001   -0.0384   -0.0007
          33    0.0449   -0.1092   -0.0511   -0.1833    0.0396   -0.0073   -0.0160   -0.0032
          34    0.1037   -0.0806   -0.0596   -0.1889    0.0210   -0.0054   -0.0006    0.0006
          35   -0.0334   -0.1019   -0.0189   -0.0865    0.0448   -0.0060   -0.0272   -0.0022
          36   -0.0516    0.0262    0.0290    0.1031   -0.0051    0.0072   -0.0092    0.0005
          37   -0.0189    0.0066    0.0481   -0.0270   -0.0641    0.0446    0.0026   -0.0122
          38    0.1092   -0.0104    0.2057   -0.0061    0.1248    0.0204    0.0002    0.0009
          39   -0.0291    0.0057   -0.0367   -0.0088   -0.0665    0.0098    0.0011   -0.0084
          40   -0.0679    0.0085   -0.0087   -0.0284   -0.1453    0.0537    0.0077   -0.0329
          41    0.0583   -0.0044    0.0940   -0.0068    0.0382    0.0035    0.0011   -0.0205
          42    0.0814   -0.0083    0.2008   -0.0176    0.0751    0.0353    0.0028   -0.0194
          43    0.0266    0.0780   -0.0193    0.0454    0.0174    0.0323    0.0456    0.0088
          44   -0.0053    0.0075   -0.0149    0.0206    0.0226    0.0348   -0.1348   -0.0204
          45   -0.0037    0.0029   -0.0073    0.0103    0.0123    0.0196   -0.0570   -0.0082
          46   -0.0305    0.0396    0.0266   -0.0236    0.0026    0.0081    0.0089   -0.1006
          47    0.0587   -0.0615   -0.0297    0.0489   -0.0165   -0.0775    0.0025   -0.0319
          48   -0.0212    0.0276    0.0215   -0.0164   -0.0045   -0.0069    0.0054   -0.0708
          49    0.0622    0.0595   -0.0375    0.0267    0.0117    0.0644   -0.0483   -0.0099
          50   -0.0413   -0.0057    0.0098   -0.0304    0.0095   -0.0211   -0.1334   -0.0218
          51   -0.0189    0.0018    0.0008   -0.0142    0.0092   -0.0007   -0.0585   -0.0098
          52    0.0050    0.0020    0.0118   -0.0032   -0.0407   -0.0172    0.0111   -0.1019
          53    0.0266    0.0091   -0.0265    0.0146   -0.0575   -0.0784   -0.0033    0.0164
          54    0.0036    0.0039    0.0105   -0.0049   -0.0415   -0.0193    0.0076   -0.0703
          55   -0.0434    0.0353    0.0375   -0.0269    0.0047    0.0053    0.0133   -0.0105
          56    0.0563   -0.0506   -0.0428    0.0371   -0.0581    0.0381    0.0034   -0.0139
          57   -0.0029   -0.0037   -0.0017    0.0001    0.0043   -0.0006    0.0010   -0.0036


   Root No.      41        42        43        44        45        46        47        48

                41 A      42 A      43 A      44 A      45 A      46 A      47 A      48 A   

                1930.8    2846.3    2939.7    2973.5    3020.2    3046.4    3059.8    3076.1
  
           1   -0.0068    0.0270   -0.0002   -0.0001   -0.0001    0.0005    0.0002    0.0001
           2   -0.0237    0.0140   -0.0002    0.0000   -0.0001   -0.0001   -0.0002    0.0004
           3    0.0001   -0.0662    0.0005   -0.0002    0.0002   -0.0000    0.0002   -0.0000
           4    0.0220   -0.0002   -0.0000    0.0065   -0.0000   -0.0409   -0.0000    0.0001
           5   -0.0252   -0.0001   -0.0000    0.0197   -0.0000   -0.0105   -0.0000   -0.0003
           6   -0.0032    0.0000    0.0000   -0.0572   -0.0000   -0.0054   -0.0000   -0.0002
           7   -0.0120    0.0002    0.0188    0.0000    0.0058   -0.0000   -0.0003   -0.0001
           8    0.0186    0.0001    0.0196    0.0000   -0.0392    0.0001    0.0024   -0.0030
           9   -0.0001   -0.0004   -0.0529   -0.0002   -0.0070    0.0000   -0.0004    0.0005
          10   -0.0264    0.0008    0.0002   -0.0001   -0.0003   -0.0005   -0.0002   -0.0007
          11    0.2492    0.0011    0.0003    0.0004    0.0004    0.0004    0.0002    0.0054
          12    0.0113   -0.0001   -0.0002   -0.0001   -0.0000    0.0000   -0.0001    0.0002
          13    0.0414    0.0002   -0.0006    0.0003    0.0029    0.0001   -0.0016   -0.0469
          14   -0.2081   -0.0006   -0.0012   -0.0002    0.0016   -0.0001   -0.0015   -0.0387
          15   -0.0014   -0.0002   -0.0001   -0.0001    0.0002   -0.0000   -0.0000   -0.0037
          16   -0.0214    0.0009   -0.0000    0.0001   -0.0000    0.0001    0.0002   -0.0000
          17   -0.0042   -0.0008    0.0000    0.0000   -0.0000   -0.0003    0.0001   -0.0000
          18   -0.0012   -0.0006   -0.0000   -0.0003   -0.0000   -0.0001    0.0001   -0.0000
          19   -0.0054   -0.0006   -0.0000    0.0000   -0.0000   -0.0001    0.0184   -0.0065
          20    0.0363    0.0011    0.0002   -0.0000    0.0001   -0.0000    0.0150   -0.0069
          21   -0.0024   -0.0006   -0.0003    0.0000   -0.0000   -0.0001    0.0144   -0.0052
          22    0.0203   -0.0007    0.0000   -0.0003    0.0000    0.0002   -0.0000   -0.0000
          23   -0.0051    0.0002    0.0000    0.0001   -0.0000   -0.0014   -0.0000    0.0000
          24   -0.0009   -0.0003    0.0000   -0.0001   -0.0000   -0.0006   -0.0000    0.0000
          25   -0.0005    0.0000    0.0006    0.0000   -0.0032    0.0000   -0.0312   -0.0024
          26   -0.0363   -0.0007   -0.0011    0.0000    0.0017   -0.0000    0.0215    0.0029
          27   -0.0035   -0.0003    0.0003    0.0000   -0.0021    0.0000   -0.0204   -0.0016
          28   -0.0108   -0.3277    0.0018   -0.0005    0.0009   -0.0002    0.0008   -0.0003
          29    0.0077   -0.1743    0.0004    0.0000    0.0002   -0.0001    0.0004   -0.0001
          30   -0.0013    0.8155   -0.0043    0.0010   -0.0021    0.0005   -0.0006    0.0008
          31   -0.0041    0.0001    0.0006   -0.3016    0.0006    0.3251    0.0004    0.0000
          32    0.0255    0.0000    0.0003   -0.1672    0.0004    0.1961    0.0002   -0.0005
          33   -0.0004   -0.0001   -0.0005    0.2500   -0.0005   -0.3219   -0.0004   -0.0000
          34    0.0081   -0.0007   -0.0004    0.2263    0.0002    0.1626    0.0002    0.0012
          35    0.0066    0.0007    0.0002   -0.0689   -0.0001   -0.0709   -0.0001   -0.0004
          36    0.0039   -0.0017   -0.0007    0.4433    0.0005    0.3872    0.0005    0.0021
          37   -0.0100   -0.0027   -0.1906   -0.0003   -0.1339    0.0003    0.0041   -0.0046
          38   -0.0020    0.0022    0.1108    0.0002    0.0476   -0.0001   -0.0009   -0.0000
          39   -0.0023    0.0066    0.4742    0.0009    0.3392   -0.0006   -0.0127    0.0107
          40   -0.0296    0.0000   -0.0374   -0.0001    0.0639   -0.0001   -0.0069   -0.0000
          41    0.0175   -0.0014   -0.3390   -0.0006    0.4204   -0.0008   -0.0298    0.0333
          42    0.0012    0.0002    0.1667    0.0003   -0.2527    0.0005    0.0148   -0.0192
          43    0.0148   -0.0023    0.0000    0.0023   -0.0001   -0.0099    0.0001    0.0011
          44   -0.0198    0.0029   -0.0000   -0.0014    0.0001    0.0097   -0.0000   -0.0013
          45   -0.0075    0.0001   -0.0000   -0.0019    0.0000    0.0037   -0.0000   -0.0005
          46    0.0219    0.0016    0.0008   -0.0000    0.0022    0.0008   -0.2195    0.0786
          47   -0.0012   -0.0000    0.0001   -0.0000    0.0025    0.0007   -0.1903    0.0695
          48    0.0182   -0.0018   -0.0003   -0.0001    0.0017    0.0007   -0.1736    0.0623
          49   -0.0121    0.0017   -0.0000   -0.0001    0.0000    0.0069   -0.0005   -0.0003
          50   -0.0210    0.0016    0.0000    0.0003    0.0000    0.0078   -0.0011   -0.0002
          51   -0.0092   -0.0011    0.0000   -0.0007    0.0000    0.0036   -0.0003   -0.0002
          52    0.0207    0.0023   -0.0076    0.0000    0.0326   -0.0001    0.3720    0.0329
          53    0.0040   -0.0011    0.0081   -0.0000   -0.0240    0.0001   -0.2398   -0.0221
          54    0.0176    0.0003   -0.0066   -0.0000    0.0206   -0.0000    0.2447    0.0216
          55   -0.1328   -0.0014    0.0096   -0.0015   -0.0277   -0.0016    0.0234    0.5630
          56   -0.0358   -0.0011    0.0097   -0.0014   -0.0227   -0.0005    0.0166    0.3993
          57   -0.0052   -0.0012   -0.0006    0.0002   -0.0026    0.0002    0.0018    0.0428


   Root No.      49        50        51

                49 A      50 A      51 A   

                3081.2    3120.8    3139.4
  
           1   -0.0000   -0.0003   -0.0009
           2   -0.0006    0.0003    0.0003
           3    0.0001    0.0002    0.0003
           4    0.0000    0.0001    0.0019
           5    0.0001   -0.0001    0.0006
           6    0.0000   -0.0002    0.0002
           7   -0.0001    0.0000    0.0000
           8    0.0027    0.0000    0.0000
           9   -0.0001   -0.0000   -0.0000
          10    0.0005   -0.0002   -0.0000
          11   -0.0009    0.0001    0.0014
          12    0.0001    0.0000    0.0003
          13    0.0070   -0.0001   -0.0001
          14    0.0057   -0.0000   -0.0003
          15    0.0006   -0.0000   -0.0000
          16   -0.0003    0.0215   -0.0305
          17    0.0000    0.0263   -0.0289
          18   -0.0001    0.0122   -0.0136
          19   -0.0246   -0.0001    0.0001
          20   -0.0274   -0.0001   -0.0001
          21   -0.0198   -0.0001    0.0001
          22   -0.0000    0.0247    0.0281
          23    0.0001   -0.0301   -0.0267
          24    0.0000   -0.0119   -0.0104
          25   -0.0195   -0.0000   -0.0000
          26    0.0179    0.0000    0.0000
          27   -0.0124   -0.0000   -0.0000
          28   -0.0000    0.0004    0.0002
          29   -0.0006    0.0008   -0.0001
          30   -0.0008   -0.0002   -0.0020
          31   -0.0005   -0.0027   -0.0090
          32   -0.0002   -0.0033   -0.0066
          33    0.0005    0.0020    0.0082
          34   -0.0004   -0.0000   -0.0032
          35    0.0002   -0.0007    0.0010
          36   -0.0009   -0.0012   -0.0087
          37    0.0045    0.0000    0.0000
          38   -0.0007   -0.0000   -0.0000
          39   -0.0120   -0.0000   -0.0001
          40   -0.0046   -0.0000   -0.0000
          41   -0.0267   -0.0001   -0.0000
          42    0.0139    0.0000    0.0000
          43    0.0006   -0.2863   -0.2509
          44   -0.0008    0.3578    0.3099
          45   -0.0003    0.1422    0.1231
          46    0.2950    0.0014   -0.0004
          47    0.2620    0.0018   -0.0011
          48    0.2339    0.0013   -0.0005
          49    0.0007   -0.2578    0.2802
          50    0.0017   -0.3138    0.3370
          51    0.0005   -0.1455    0.1565
          52    0.2255    0.0004    0.0004
          53   -0.1492   -0.0003   -0.0002
          54    0.1480    0.0003    0.0003
          55   -0.0808    0.0004    0.0010
          56   -0.0574    0.0002    0.0007
          57   -0.0061    0.0001    0.0000


           MASS-WEIGHTED COORDINATE ANALYSIS (NORMAL COORDINATES)


   Root No.       1         2         3         4         5         6         7         8

                 1 A       2 A       3 A       4 A       5 A       6 A       7 A       8 A   

                 127.2     210.3     265.3     381.3     393.2     450.5     515.0     539.0
  
           1    0.0024    0.0546   -0.0061    0.2511    0.0087    0.0387    0.1726    0.0226
           2    0.0786    0.0499   -0.0658    0.2716    0.0157    0.0722   -0.2006    0.0733
           3   -0.0363   -0.3162   -0.2505   -0.0314    0.0268    0.1659    0.1379   -0.0205
           4    0.0291    0.0244    0.0185    0.1138    0.0412    0.0712   -0.1435    0.2905
           5    0.0648   -0.0832    0.0902   -0.2460    0.0357   -0.0469   -0.1212   -0.1988
           6   -0.3432    0.2138   -0.2345    0.0290   -0.0839   -0.0506   -0.0376    0.0053
           7   -0.1379   -0.0356    0.0918   -0.1748   -0.0201   -0.0573   -0.2237   -0.1813
           8   -0.0999   -0.0175    0.1532   -0.0907   -0.0907   -0.0498    0.4193    0.0186
           9    0.3518    0.1725   -0.1748   -0.0868    0.0321   -0.0624    0.0623   -0.0730
          10    0.0408    0.0600   -0.0633    0.3387    0.0238    0.0807   -0.0574    0.1537
          11    0.0448    0.0363   -0.0424    0.1733    0.0132   -0.0370    0.0799   -0.2172
          12   -0.1407   -0.3141   -0.0540   -0.1779   -0.0058    0.4529   -0.0873    0.1973
          13   -0.0309    0.0471   -0.0771   -0.0178    0.0216   -0.0047   -0.3059   -0.2408
          14    0.0407    0.0333   -0.0504    0.1580    0.0102   -0.0245    0.1219   -0.2332
          15    0.0733   -0.3361    0.3930    0.2828    0.0534   -0.1448   -0.0707   -0.0476
          16   -0.0701    0.0877    0.0858   -0.1490    0.0087   -0.0927    0.0256    0.1650
          17   -0.1065   -0.0120   -0.1281    0.1545    0.1757    0.2386   -0.2132    0.0027
          18    0.3296   -0.1478   -0.0263   -0.0040   -0.3352   -0.2174   -0.1418    0.1415
          19    0.1601   -0.0875   -0.0696    0.0447   -0.2410    0.2562    0.3647   -0.0807
          20    0.0472    0.0948    0.0574   -0.1016   -0.0340   -0.0213    0.0834    0.3360
          21   -0.3000   -0.0676   -0.0371    0.0092    0.3509   -0.1870    0.2044    0.0975
          22   -0.0679    0.0791    0.0822   -0.1628   -0.0066   -0.1177    0.0098    0.1871
          23   -0.1103   -0.1649   -0.1339   -0.1327   -0.0934   -0.0584   -0.2487   -0.1013
          24    0.1741    0.3457    0.2401   -0.0605    0.2778    0.1474   -0.0190   -0.0982
          25    0.0917   -0.2156   -0.0896   -0.1651    0.1611   -0.1715    0.1520   -0.2941
          26    0.0432    0.0829    0.0563   -0.1360   -0.0001   -0.0770    0.0866    0.3417
          27   -0.1324    0.2997    0.1802   -0.0461   -0.3131    0.1433    0.0197   -0.2051
          28   -0.0341    0.0362   -0.0095    0.1420    0.0896   -0.0774    0.1018   -0.0429
          29    0.1069    0.0125   -0.0370    0.1482   -0.0828   -0.0381   -0.1181    0.0132
          30   -0.0063   -0.0810   -0.0763    0.0355    0.0244   -0.0022    0.0458   -0.0264
          31   -0.0708    0.0824   -0.1042    0.1341   -0.0770   -0.1394   -0.0031    0.0544
          32   -0.0195   -0.0944    0.0136   -0.1579   -0.0335   -0.0141   -0.0740   -0.0179
          33   -0.2157    0.1034   -0.2045    0.0719   -0.1587   -0.2044    0.0112   -0.0073
          34    0.1169   -0.0917    0.1412   -0.0646    0.1307    0.2461   -0.0935    0.1356
          35    0.1034    0.0366    0.1364   -0.1336    0.1216    0.0304   -0.0280   -0.1164
          36   -0.1401    0.1215   -0.1196    0.0482   -0.0683   -0.1246    0.0164   -0.0338
          37   -0.0704    0.0855    0.0043   -0.1020   -0.0794    0.0427   -0.0860   -0.0705
          38   -0.2095   -0.0832    0.2981    0.0351   -0.1845    0.0536    0.1686   -0.0469
          39    0.1317    0.1073   -0.1200   -0.0602    0.0186   -0.0114   -0.0028   -0.0149
          40   -0.0890   -0.0828    0.1454   -0.0401   -0.0238   -0.0369   -0.0578    0.0208
          41    0.0567    0.0328   -0.0741   -0.0588    0.0486   -0.0484    0.1062    0.0387
          42    0.2550    0.1059   -0.2538   -0.0865    0.1520   -0.0890   -0.0133    0.0604
          43   -0.0348    0.0305    0.0387   -0.1039   -0.0104   -0.0698    0.0298    0.0166
          44   -0.0664   -0.0881   -0.0769   -0.0769   -0.0870   -0.0634   -0.0621   -0.0438
          45    0.1057    0.2172    0.1946   -0.0350    0.2137    0.0872    0.0236   -0.0728
          46    0.1096   -0.0370   -0.0613    0.0410   -0.1647    0.1950    0.1561   -0.0645
          47    0.0196    0.0462    0.0434   -0.0964   -0.0335   -0.0350    0.0375    0.0742
          48   -0.1719   -0.0249    0.0110    0.0423    0.2472   -0.1756   -0.0219    0.1054
          49   -0.0342    0.0366    0.0457   -0.1169    0.0053   -0.0572   -0.0137    0.0476
          50   -0.0650    0.0087   -0.0660    0.1045    0.1180    0.1651   -0.0214   -0.0347
          51    0.1938   -0.0884    0.0177    0.0016   -0.2464   -0.2170   -0.0898    0.1173
          52    0.0712   -0.1181   -0.0871   -0.0814    0.1412   -0.1104    0.0697   -0.0876
          53    0.0325    0.0425    0.0175   -0.0685    0.0090   -0.0500   -0.0695    0.0970
          54   -0.0847    0.1902    0.1437    0.0098   -0.2238    0.1071   -0.1287   -0.0576
          55   -0.0241    0.0092   -0.0185   -0.0800   -0.0023   -0.0025   -0.0833   -0.0858
          56    0.0322    0.0189   -0.0356    0.1304    0.0124    0.0141    0.0353   -0.0388
          57    0.0148   -0.1330    0.2828    0.2684    0.0309   -0.2237   -0.0742   -0.0605


   Root No.       9        10        11        12        13        14        15        16

                 9 A      10 A      11 A      12 A      13 A      14 A      15 A      16 A   

                 664.4     746.9     763.6     779.2     803.3     844.5     891.4     933.8
  
           1    0.1714    0.0603    0.1155    0.0182   -0.0716   -0.1495   -0.2164   -0.0535
           2    0.0205   -0.0981   -0.1096   -0.0332    0.0733   -0.0199   -0.2359   -0.0189
           3   -0.2999    0.1005   -0.0674   -0.2512    0.1731    0.0471    0.1399    0.0505
           4   -0.2091   -0.0775    0.1731    0.3048   -0.0440    0.1579    0.2905    0.0353
           5   -0.0624    0.0711    0.2298   -0.0102   -0.0118   -0.1326    0.0179   -0.1033
           6    0.0195    0.1058    0.0048    0.1641   -0.1910    0.0609   -0.2435    0.1797
           7    0.0085    0.0628    0.0020   -0.0887    0.0073    0.0246    0.0019    0.0401
           8    0.0575   -0.0471   -0.0781    0.2138    0.0737    0.3295    0.1024    0.1128
           9   -0.0885   -0.2087   -0.0597    0.1608    0.0392   -0.1511   -0.1287   -0.1078
          10    0.0107   -0.0444    0.0975    0.1461   -0.1221   -0.0434    0.1242   -0.0299
          11    0.2090   -0.0313   -0.1184   -0.0478   -0.0754   -0.0479    0.1008   -0.0009
          12    0.4486   -0.1358   -0.0141    0.0019   -0.0892    0.0205    0.0622   -0.1755
          13    0.1529    0.0218   -0.1034   -0.2051   -0.1424   -0.1106    0.1573    0.0285
          14    0.2954   -0.0402   -0.1802   -0.0483   -0.1076    0.0048    0.2041    0.0059
          15    0.0167   -0.0329   -0.0357   -0.0445    0.0977   -0.2325    0.1622    0.2410
          16    0.0122   -0.0703   -0.2792   -0.1736    0.1120    0.0487   -0.0554    0.0226
          17   -0.2234   -0.1785   -0.0797   -0.0934    0.2899    0.2138   -0.2146    0.1561
          18   -0.0350    0.0641   -0.2129    0.0789    0.0582   -0.0012    0.0561   -0.1927
          19   -0.0131    0.2805    0.2620   -0.0716    0.1449   -0.1116   -0.1619   -0.1330
          20   -0.0336    0.1199    0.0716   -0.1346   -0.0571   -0.1485    0.0022   -0.0448
          21   -0.0223    0.0155    0.1146   -0.1254   -0.1855   -0.0524   -0.0153    0.1023
          22   -0.0149   -0.0653   -0.2719   -0.1708    0.1136    0.0456   -0.0566    0.0107
          23   -0.1310    0.0297    0.3657    0.1628   -0.0911    0.0072    0.0800   -0.0140
          24   -0.1251    0.1161    0.0060    0.1249   -0.0491   -0.0885    0.0908    0.0389
          25    0.0397   -0.0831   -0.0002    0.3026    0.2265    0.1685   -0.0531    0.0533
          26   -0.0314    0.1045    0.0352   -0.1158   -0.0596   -0.1184    0.0320   -0.0139
          27   -0.0591   -0.1016   -0.0354    0.0540   -0.1000    0.1553   -0.0274   -0.0766
          28   -0.0226    0.0241    0.0794   -0.0468   -0.1282   -0.0827   -0.1670    0.1315
          29   -0.0657    0.0459   -0.0998    0.0672    0.0654   -0.0237   -0.1798   -0.1114
          30   -0.1270    0.0475   -0.0139   -0.0761    0.0174   -0.0050   -0.0292    0.0505
          31   -0.1283   -0.1093    0.1341    0.0277    0.1139   -0.0186    0.3219   -0.0654
          32    0.0375   -0.0100    0.0860   -0.0737    0.0155    0.0055   -0.1328   -0.1665
          33   -0.0358   -0.0944    0.1116   -0.0760    0.1113   -0.0302    0.1168   -0.1298
          34    0.0342    0.0760   -0.0315    0.2328   -0.2179    0.1633   -0.1133    0.1218
          35   -0.1211    0.1644   -0.0311    0.0406   -0.0356   -0.1269   -0.1628    0.2033
          36   -0.0596    0.0004    0.0316   -0.0197    0.0459   -0.0573    0.0101    0.0294
          37   -0.0381    0.0054   -0.0048   -0.0737   -0.1333    0.1166   -0.0939   -0.2166
          38   -0.1707   -0.2833   -0.0727    0.1854    0.0032   -0.1560   -0.1043   -0.1140
          39    0.0062    0.0030   -0.0069   -0.0021   -0.0377    0.0663   -0.0417   -0.0866
          40   -0.1214   -0.0364    0.0366   -0.0013    0.0569   -0.1853   -0.0934    0.0349
          41    0.1010    0.1061   -0.0016    0.0179    0.0313    0.2264    0.0937    0.1033
          42    0.1119    0.1667    0.0347   -0.0413    0.0432    0.1642    0.0638    0.1123
          43    0.0407    0.0331   -0.0750   -0.0863   -0.0288   -0.0788   -0.0444   -0.0327
          44   -0.0416    0.1910   -0.0457    0.1490   -0.1528   -0.1298   -0.0167    0.0475
          45    0.0628   -0.3178    0.3976   -0.2939    0.1806    0.1175    0.0622   -0.1920
          46   -0.1884   -0.0107    0.0508   -0.2508   -0.2087   -0.0022    0.0132    0.1851
          47   -0.0287    0.0003   -0.0046    0.0087   -0.0518    0.0178    0.0936    0.0108
          48    0.2471    0.1595    0.0932    0.1993    0.3029   -0.1235   -0.1876   -0.2799
          49   -0.0261   -0.0015   -0.0600   -0.0192   -0.0158    0.0152    0.1330    0.0076
          50   -0.1464    0.0829   -0.1993    0.0108    0.1429   -0.0072   -0.0395   -0.1561
          51    0.2178   -0.3042    0.2789   -0.1179   -0.0205    0.1460   -0.3057    0.3762
          52   -0.1269   -0.2664   -0.0837    0.0594   -0.2304    0.0231   -0.0770   -0.1599
          53   -0.0284   -0.0260   -0.0437   -0.0379   -0.0434   -0.0797    0.0189   -0.0266
          54    0.1740    0.2850    0.0662    0.0538    0.3977    0.0397    0.0901    0.2218
          55    0.0301   -0.0067   -0.0303   -0.0555    0.0180   -0.0547    0.0154    0.0834
          56    0.1170   -0.0297   -0.0579    0.0004   -0.0931   -0.0301    0.1231   -0.0636
          57   -0.0969    0.3201    0.0423   -0.1905   -0.1901    0.5178   -0.1112   -0.3085


   Root No.      17        18        19        20        21        22        23        24

                17 A      18 A      19 A      20 A      21 A      22 A      23 A      24 A   

                 946.6     971.5     995.5    1022.2    1031.0    1039.9    1050.9    1058.8
  
           1   -0.1995   -0.0163    0.1018    0.0268   -0.0331    0.0299    0.0618   -0.0173
           2   -0.1462    0.0024    0.0292    0.0123    0.0542   -0.1211    0.0773    0.0462
           3    0.2606    0.1085   -0.1380    0.1215    0.1196    0.0816   -0.0792   -0.1404
           4    0.0185   -0.0370   -0.0207    0.0255   -0.0868    0.1378    0.0006   -0.0589
           5   -0.1265   -0.0785    0.1244    0.0349   -0.0345    0.0952    0.0272   -0.0706
           6    0.1158    0.2003   -0.1456   -0.1581   -0.1213    0.1581    0.0100    0.0335
[...]
 T-DIPOLE    0.0400         C  1 -- H 10         +12.4% ( 43.1%)      0.6%
 TRAVEL      0.1240         C  7 -- H 16         +12.1% ( 42.7%)      1.7%
 RED. MASS   0.3962         C  4 -- C  5          +8.1% ( 34.8%)      2.2%
 EFF. MASS   3.6511

 VIBRATION   31   31A         ATOM PAIR      ENERGY CONTRIBUTION    RADIAL
 FREQ.      1250.56         C  1 -- C  4          +8.1% ( 39.5%)     50.7%
 T-DIPOLE    0.0512         C  5 -- H 19          +7.7% ( 38.6%)      1.4%
 TRAVEL      0.0907         C  2 -- C  4          +7.4% ( 37.8%)     89.7%
 RED. MASS   0.4505         C  2 -- C  8          +7.4% ( 37.7%)     94.0%
 EFF. MASS   6.5493

 VIBRATION   32   32A         ATOM PAIR      ENERGY CONTRIBUTION    RADIAL
 FREQ.      1294.73         C  1 -- C  7         +10.6% ( 45.9%)     62.1%
 T-DIPOLE    0.0935         C  1 -- C  6         +10.3% ( 45.3%)     78.0%
 TRAVEL      0.0842         C  2 -- C  4          +8.0% ( 39.9%)     94.8%
 RED. MASS   0.7021         C  2 -- H 12          +6.8% ( 36.8%)      0.0%
 EFF. MASS   7.3421

 VIBRATION   33   33A         ATOM PAIR      ENERGY CONTRIBUTION    RADIAL
 FREQ.      1338.17         C  2 -- C  8         +14.1% ( 48.2%)     81.9%
 T-DIPOLE    0.0980         C  2 -- H 11         +13.2% ( 46.6%)      0.0%
 TRAVEL      0.0944         C  2 -- H 12         +11.6% ( 43.7%)      0.1%
 RED. MASS   0.5844         C  2 -- C  4          +8.1% ( 36.5%)     21.4%
 EFF. MASS   5.6525

 VIBRATION   34   34A         ATOM PAIR      ENERGY CONTRIBUTION    RADIAL
 FREQ.      1368.22         C  2 -- C  8         +13.5% ( 55.7%)     90.3%
 T-DIPOLE    0.0415         C  1 -- C  4         +13.4% ( 55.4%)     98.0%
 TRAVEL      0.0705         C  1 -- C  6         +12.1% ( 52.6%)     70.5%
 RED. MASS   1.6729         C  2 -- C  4         +10.9% ( 49.9%)     95.1%
 EFF. MASS   9.9025

 VIBRATION   35   35A         ATOM PAIR      ENERGY CONTRIBUTION    RADIAL
 FREQ.      1377.12         C  3 -- H 14         +21.3% ( 58.1%)      4.3%
 T-DIPOLE    0.0708         C  3 -- H 13         +20.4% ( 57.0%)      4.2%
 TRAVEL      0.0959         C  3 -- C  9         +14.8% ( 48.6%)     99.5%
 RED. MASS   0.8348         C  3 -- C  5          +9.8% ( 39.5%)      2.0%
 EFF. MASS   5.3189

 VIBRATION   36   36A         ATOM PAIR      ENERGY CONTRIBUTION    RADIAL
 FREQ.      1394.23         C  2 -- H 12         +18.7% ( 57.2%)      6.6%
 T-DIPOLE    0.0598         C  2 -- C  4         +18.3% ( 56.5%)     58.9%
 TRAVEL      0.0867         C  2 -- H 11         +17.9% ( 55.9%)      7.9%
 RED. MASS   0.9985         C  2 -- C  8         +11.1% ( 44.0%)     39.4%
 EFF. MASS   6.4267

 VIBRATION   37   37A         ATOM PAIR      ENERGY CONTRIBUTION    RADIAL
 FREQ.      1399.89         C  3 -- C  5         +20.5% ( 68.4%)     99.4%
 T-DIPOLE    0.0620         C  3 -- H 14         +14.1% ( 56.8%)      3.0%
 TRAVEL      0.0737         C  3 -- H 13         +13.4% ( 55.3%)      2.6%
 RED. MASS   1.8842         C  3 -- C  9         +11.4% ( 51.1%)     18.3%
 EFF. MASS   8.8689

 VIBRATION   38   38A         ATOM PAIR      ENERGY CONTRIBUTION    RADIAL
 FREQ.      1461.81         C  1 -- C  7         +19.8% ( 71.3%)     93.7%
 T-DIPOLE    0.0563         C  1 -- C  4         +14.8% ( 61.7%)     40.4%
 TRAVEL      0.0646         C  1 -- C  6         +13.8% ( 59.6%)     57.4%
 RED. MASS   2.6349         C  1 -- H 10         +12.2% ( 56.1%)      0.1%
 EFF. MASS  11.0692

 VIBRATION   39   39A         ATOM PAIR      ENERGY CONTRIBUTION    RADIAL
 FREQ.      1810.86         C  6 -- C  8         +44.6% ( 99.1%)    100.0%
 T-DIPOLE    0.0593         C  2 -- C  8         +13.6% ( 54.7%)     22.2%
 TRAVEL      0.0560         C  1 -- C  6         +13.6% ( 54.7%)     22.5%
 RED. MASS   5.1081         C  8 -- H 15         +12.6% ( 52.7%)     10.2%
 EFF. MASS  11.8909         C  6 -- H 17         +12.5% ( 52.4%)     10.6%

 VIBRATION   40   40A         ATOM PAIR      ENERGY CONTRIBUTION    RADIAL
 FREQ.      1857.49         C  7 -- C  9         +42.9% ( 96.7%)    100.0%
 T-DIPOLE    0.0894         C  1 -- C  7         +13.6% ( 54.5%)     45.6%
 TRAVEL      0.0553         C  3 -- C  9         +13.5% ( 54.4%)     48.3%
 RED. MASS   5.0204         C  9 -- H 18         +12.6% ( 52.4%)      5.3%
 EFF. MASS  11.8844         C  7 -- H 16         +12.5% ( 52.3%)      5.8%

 VIBRATION   41   41A         ATOM PAIR      ENERGY CONTRIBUTION    RADIAL
 FREQ.      1930.76         C  4 -- C  5         +42.4% ( 96.4%)     99.2%
 T-DIPOLE    0.1286         C  2 -- C  4         +16.8% ( 60.7%)     51.3%
 TRAVEL      0.0541         C  1 -- C  4         +16.4% ( 59.9%)     27.0%
 RED. MASS   5.3679         C  3 -- C  5         +10.6% ( 48.1%)     40.6%
 EFF. MASS  11.9178

 VIBRATION   42   42A         ATOM PAIR      ENERGY CONTRIBUTION    RADIAL
 FREQ.      2846.35         C  1 -- H 10         +97.1% (100.0%)    100.0%
 T-DIPOLE    0.1112         C  1 -- C  7          +1.0% (  9.9%)      7.6%
 TRAVEL      0.1288         C  1 -- C  4          +1.0% (  9.9%)     10.8%
 RED. MASS   0.9297         C  1 -- C  6          +1.0% (  9.9%)      9.4%
 EFF. MASS   1.4280

 VIBRATION   43   43A         ATOM PAIR      ENERGY CONTRIBUTION    RADIAL
 FREQ.      2939.68         C  3 -- H 13         +62.8% ( 82.1%)     97.8%
 T-DIPOLE    0.0392         C  3 -- H 14         +35.0% ( 61.3%)     94.6%
 TRAVEL      0.1223         C  3 -- C  5          +1.1% ( 10.8%)      0.3%
 RED. MASS   0.5556         C  3 -- C  9          +1.1% ( 10.8%)      0.2%
 EFF. MASS   1.5326

 VIBRATION   44   44A         ATOM PAIR      ENERGY CONTRIBUTION    RADIAL
 FREQ.      2973.55         C  2 -- H 12         +56.3% ( 77.7%)     97.4%
 T-DIPOLE    0.0530         C  2 -- H 11         +41.5% ( 66.8%)     95.8%
 TRAVEL      0.1215         C  2 -- C  8          +1.1% ( 10.8%)      0.1%
 RED. MASS   0.5286         C  2 -- C  4          +1.1% ( 10.8%)      0.1%
 EFF. MASS   1.5349

 VIBRATION   45   45A         ATOM PAIR      ENERGY CONTRIBUTION    RADIAL
 FREQ.      3020.19         C  3 -- H 14         +63.7% ( 78.8%)     99.0%
 T-DIPOLE    0.0891         C  3 -- H 13         +33.9% ( 57.5%)     95.1%
 TRAVEL      0.1315         C  3 -- C  9          +0.7% (  8.2%)     21.7%
 RED. MASS   0.5128         C  3 -- C  5          +0.7% (  8.2%)     23.4%
 EFF. MASS   1.2902

 VIBRATION   46   46A         ATOM PAIR      ENERGY CONTRIBUTION    RADIAL
 FREQ.      3046.41         C  2 -- H 11         +57.3% ( 74.8%)     98.3%
 T-DIPOLE    0.1192         C  2 -- H 12         +41.2% ( 63.4%)     96.2%
 TRAVEL      0.1311         C  2 -- C  4          +0.7% (  8.4%)     38.1%
 RED. MASS   0.4945         C  2 -- C  8          +0.7% (  8.4%)     34.0%
 EFF. MASS   1.2873

 VIBRATION   47   47A         ATOM PAIR      ENERGY CONTRIBUTION    RADIAL
 FREQ.      3059.81         C  9 -- H 18         +67.0% ( 83.1%)    100.0%
 T-DIPOLE    0.2972         C  7 -- H 16         +30.0% ( 55.6%)    100.0%
 TRAVEL      0.1228         C  7 -- C  9          +1.1% ( 10.7%)      2.2%
 RED. MASS   0.5275         C  3 -- C  9          +0.9% (  9.8%)     22.0%
 EFF. MASS   1.4614

 VIBRATION   48   48A         ATOM PAIR      ENERGY CONTRIBUTION    RADIAL
 FREQ.      3076.07         C  5 -- H 19         +93.3% ( 98.1%)    100.0%
 T-DIPOLE    0.3579         C  7 -- H 16          +2.9% ( 17.3%)    100.0%
 TRAVEL      0.1197         C  4 -- C  5          +1.6% ( 12.7%)     41.8%
 RED. MASS   0.8621         C  3 -- C  5          +1.4% ( 12.1%)     19.7%
 EFF. MASS   1.5295

 VIBRATION   49   49A         ATOM PAIR      ENERGY CONTRIBUTION    RADIAL
 FREQ.      3081.18         C  7 -- H 16         +64.1% ( 81.3%)     99.9%
 T-DIPOLE    0.2728         C  9 -- H 18         +29.0% ( 54.6%)     99.8%
 TRAVEL      0.1172         C  5 -- H 19          +3.0% ( 17.6%)    100.0%
 RED. MASS   0.4965         C  7 -- C  9          +2.0% ( 14.3%)     95.0%
 EFF. MASS   1.5927

 VIBRATION   50   50A         ATOM PAIR      ENERGY CONTRIBUTION    RADIAL
 FREQ.      3120.79         C  8 -- H 15         +53.9% ( 74.6%)    100.0%
 T-DIPOLE    0.3802         C  6 -- H 17         +43.5% ( 67.0%)    100.0%
 TRAVEL      0.1215         C  6 -- C  8          +1.1% ( 10.8%)      0.2%
 RED. MASS   0.4702         C  2 -- C  8          +0.8% (  9.2%)     26.4%
 EFF. MASS   1.4646

 VIBRATION   51   51A         ATOM PAIR      ENERGY CONTRIBUTION    RADIAL
 FREQ.      3139.43         C  6 -- H 17         +52.9% ( 74.1%)     99.9%
 T-DIPOLE    0.3738         C  8 -- H 15         +42.6% ( 66.5%)     99.9%
 TRAVEL      0.1141         C  6 -- C  8          +2.5% ( 16.0%)     99.7%
 RED. MASS   0.4723         C  1 -- C  6          +1.0% ( 10.3%)     19.6%
 EFF. MASS   1.6503

      SYMMETRY NUMBER FOR POINT-GROUP C1  =  1


          SYSTEM IS A GROUND STATE



 InChI=1S/C9H10/c1-2-5-9-7-3-6-8(9)4-1/h1,3-6,8H,2,7H2


          MOLECULE IS NOT LINEAR

          THERE ARE 51 GENUINE VIBRATIONS IN THIS SYSTEM
          THIS THERMODYNAMICS CALCULATION IS LIMITED TO
          MOLECULES WHICH HAVE NO INTERNAL ROTATIONS




                    CALCULATED THERMODYNAMIC PROPERTIES
                                          *
   TEMP. (K)   PARTITION FUNCTION   H.O.F.    ENTHALPY  HEAT CAPACITY ENTROPY
                                   KCAL/MOL   CAL/MOLE    CAL/K/MOL  CAL/K/MOL


 298.00  VIB.     0.1163D+02                  2599.7118    22.9441    13.5996
         ROT.     0.3534D+06                   888.2813     2.9808    28.3680
         INT.     0.4110D+07                  3487.9931    25.9249    41.9676
         TRA.     0.1242D+28                  1480.4688     4.9680    40.2136
         TOT.                       40.303    4968.4619    30.8929    82.1813

 200.00  VIB.     0.3226D+01                   900.1241    12.0512     6.8282
         ROT.     0.1943D+06                   596.1620     2.9808    27.1793
         INT.     0.6268D+06                  1496.2861    15.0320    34.0075
         TRA.     0.6829D+27                   993.6033     4.9680    38.2325
         TOT.                       37.825    2489.8893    20.0000    72.2400

 210.00  VIB.     0.3620D+01                  1025.6359    13.0568     7.4404
         ROT.     0.2091D+06                   625.9700     2.9808    27.3248
         INT.     0.7567D+06                  1651.6059    16.0376    34.7651
         TRA.     0.7347D+27                  1043.2834     4.9680    38.4749
         TOT.                       38.030    2694.8894    21.0057    73.2400

 220.00  VIB.     0.4077D+01                  1161.3707    14.0954     8.0716
         ROT.     0.2242D+06                   655.7781     2.9808    27.4634
         INT.     0.9139D+06                  1817.1489    17.0762    35.5350
         TRA.     0.7878D+27                  1092.9636     4.9680    38.7060
         TOT.                       38.245    2910.1124    22.0442    74.2410

 230.00  VIB.     0.4608D+01                  1307.6442    15.1640     8.7217
         ROT.     0.2396D+06                   685.5862     2.9808    27.5959
         INT.     0.1104D+07                  1993.2304    18.1448    36.3176
         TRA.     0.8422D+27                  1142.6437     4.9680    38.9268
         TOT.                       38.471    3135.8741    23.1129    75.2444

 240.00  VIB.     0.5228D+01                  1464.7402    16.2593     9.3901
         ROT.     0.2554D+06                   715.3943     2.9808    27.7228
         INT.     0.1335D+07                  2180.1345    19.2401    37.1129
         TRA.     0.8977D+27                  1192.3239     4.9680    39.1383
         TOT.                       38.707    3372.4584    24.2082    76.2511

 250.00  VIB.     0.5952D+01                  1632.9074    17.3776    10.0764
         ROT.     0.2715D+06                   745.2024     2.9808    27.8445
         INT.     0.1616D+07                  2378.1099    20.3584    37.9209
         TRA.     0.9544D+27                  1242.0041     4.9680    39.3411
         TOT.                       38.955    3620.1139    25.3265    77.2620

 260.00  VIB.     0.6801D+01                  1812.3567    18.5151    10.7801
         ROT.     0.2880D+06                   775.0105     2.9808    27.9614
         INT.     0.1959D+07                  2587.3672    21.4959    38.7415
         TRA.     0.1012D+28                  1291.6842     4.9680    39.5359
         TOT.                       39.214    3879.0514    26.4639    78.2774

 270.00  VIB.     0.7796D+01                  2003.2598    19.6678    11.5004
         ROT.     0.3048D+06                   804.8186     2.9808    28.0739
         INT.     0.2376D+07                  2808.0784    22.6486    39.5743
         TRA.     0.1071D+28                  1341.3644     4.9680    39.7234
         TOT.                       39.484    4149.4428    27.6166    79.2977

 280.00  VIB.     0.8967D+01                  2205.7499    20.8318    12.2367
         ROT.     0.3219D+06                   834.6267     2.9808    28.1823
         INT.     0.2886D+07                  3040.3767    23.8126    40.4190
         TRA.     0.1131D+28                  1391.0445     4.9680    39.9041
         TOT.                       39.766    4431.4212    28.7807    80.3231

 290.00  VIB.     0.1035D+02                  2419.9221    22.0036    12.9881
         ROT.     0.3393D+06                   864.4348     2.9808    28.2869
         INT.     0.3510D+07                  3284.3570    24.9844    41.2750
         TRA.     0.1192D+28                  1440.7247     4.9680    40.0784
         TOT.                       40.060    4725.0817    29.9524    81.3535

 300.00  VIB.     0.1198D+02                  2645.8353    23.1795    13.7539
         ROT.     0.3569D+06                   894.2429     2.9808    28.3879
         INT.     0.4276D+07                  3540.0783    26.1603    42.1418
         TRA.     0.1255D+28                  1490.4049     4.9680    40.2469
         TOT.                       40.365    5030.4831    31.1283    82.3887

 310.00  VIB.     0.1391D+02                  2883.5142    24.3562    14.5331
         ROT.     0.3749D+06                   924.0510     2.9808    28.4857
         INT.     0.5215D+07                  3807.5652    27.3370    43.0188
         TRA.     0.1318D+28                  1540.0850     4.9680    40.4098
         TOT.                       40.682    5347.6503    32.3050    83.4286

 320.00  VIB.     0.1620D+02                  3132.9518    25.5307    15.3250
         ROT.     0.3932D+06                   953.8591     2.9808    28.5803
         INT.     0.6371D+07                  4086.8109    28.5115    43.9053
         TRA.     0.1382D+28                  1589.7652     4.9680    40.5675
         TOT.                       41.011    5676.5761    33.4796    84.4728

 330.00  VIB.     0.1892D+02                  3394.1122    26.7003    16.1285
         ROT.     0.4118D+06                   983.6672     2.9808    28.6720
         INT.     0.7793D+07                  4377.7794    29.6811    44.8006
         TRA.     0.1447D+28                  1639.4454     4.9680    40.7204
         TOT.                       41.352    6017.2248    34.6491    85.5209

 340.00  VIB.     0.2217D+02                  3666.9335    27.8625    16.9429
         ROT.     0.4307D+06                  1013.4753     2.9808    28.7610
         INT.     0.9548D+07                  4680.4088    30.8433    45.7039
         TRA.     0.1514D+28                  1689.1255     4.9680    40.8687
         TOT.                       41.704    6369.5343    35.8113    86.5726

 350.00  VIB.     0.2604D+02                  3951.3303    29.0151    17.7672
         ROT.     0.4498D+06                  1043.2834     2.9808    28.8474
         INT.     0.1171D+08                  4994.6138    31.9959    46.6146
         TRA.     0.1581D+28                  1738.8057     4.9680    41.0127
         TOT.                       42.068    6733.4194    36.9639    87.6273

 360.00  VIB.     0.3067D+02                  4247.1970    30.1562    18.6006
         ROT.     0.4692D+06                  1073.0915     2.9808    28.9314
         INT.     0.1439D+08                  5320.2885    33.1370    47.5320
         TRA.     0.1649D+28                  1788.4859     4.9680    41.1526
         TOT.                       42.444    7108.7744    38.1050    88.6847

 370.00  VIB.     0.3622D+02                  4554.4099    31.2841    19.4423
         ROT.     0.4889D+06                  1102.8996     2.9808    29.0131
         INT.     0.1771D+08                  5657.3095    34.2649    48.4553
         TRA.     0.1718D+28                  1838.1660     4.9680    41.2888
         TOT.                       42.830    7495.4755    39.2329    89.7441

 380.00  VIB.     0.4287D+02                  4872.8302    32.3974    20.2914
         ROT.     0.5089D+06                  1132.7077     2.9808    29.0926
         INT.     0.2181D+08                  6005.5379    35.3783    49.3839
         TRA.     0.1788D+28                  1887.8462     4.9680    41.4213
         TOT.                       43.228    7893.3841    40.3463    90.8052

 390.00  VIB.     0.5086D+02                  5202.3063    33.4951    21.1471
         ROT.     0.5291D+06                  1162.5158     2.9808    29.1700
         INT.     0.2691D+08                  6364.8221    36.4759    50.3171
         TRA.     0.1860D+28                  1937.5263     4.9680    41.5503
         TOT.                       43.637    8302.3484    41.4439    91.8674

 400.00  VIB.     0.6048D+02                  5542.6757    34.5760    22.0088
         ROT.     0.5496D+06                  1192.3239     2.9808    29.2455
         INT.     0.3324D+08                  6734.9996    37.5568    51.2543
         TRA.     0.1932D+28                  1987.2065     4.9680    41.6761
         TOT.                       44.057    8722.2061    42.5248    92.9304

   *: NOTE: HEATS OF FORMATION ARE RELATIVE TO THE
            ELEMENTS IN THEIR STANDARD STATE AT 298K
              (=  Standard Enthalpy of Formation).

            Hvib:  Zero-point energy is not included.
                   frequencies of less than zero cm-1 are not included.
            Hrot = (3/2)RT
            Htra = (3/2)RT + pV = (5/2)RT

            Heat capacity is Cp, not Cv

          For more information, see: HTTP://OpenMOPAC.net/Manual/thermochemistry.html


           FORCE CONSTANT IN CARTESIAN COORDINATES (Millidynes/A)

    ATOM   CHEMICAL       X               Y               Z
   NUMBER   SYMBOL  FORCE CONSTANT  FORCE CONSTANT  FORCE CONSTANT

      1       C        9.844331        9.137643        7.659893
      2       C        9.717036        8.089462        7.891884
      3       C        8.763309        9.156373        7.836097
      4       C        8.710194       16.764797        2.922552
      5       C        9.545833       15.269342        2.464672
      6       C       14.961268        8.667311        3.629702
      7       C        7.241918       15.138118        4.939960
      8       C       14.954943        8.818029        3.446392
      9       C        7.357443       15.040676        4.695855
     10       H        1.127342        0.758996        3.814381
     11       H        2.673618        1.341837        2.337379
     12       H        1.427586        0.725016        4.122587
     13       H        1.183348        0.780508        4.170216
     14       H        0.770920        3.882687        1.661674
     15       H        2.380040        3.240572        0.812140
     16       H        2.458270        2.178770        1.649222
     17       H        2.385812        3.104300        0.939904
     18       H        3.005429        1.766449        1.508252
     19       H        3.690284        2.224149        0.363589

 **********************
 *                    *
 * JOB ENDED NORMALLY *
 *                    *
 **********************



 TOTAL JOB TIME:             6.03 SECONDS

 == MOPAC DONE ==
