 *******************************************************************************
 ** Site#: 14399        For non-commercial use only    Version 18.184L 64BITS **
 *******************************************************************************
 ** Cite this program as: MOPAC2016, Version: 18.184L, James J. P. Stewart,   **
 ** Stewart Computational Chemistry, web: HTTP://OpenMOPAC.net. Days left:  20**
 *******************************************************************************
 **                                                                           **
 **                                MOPAC2016                                  **
 **                                                                           **
 *******************************************************************************

                              PM3 CALCULATION RESULTS

 *******************************************************************************
 *  CALCULATION DONE:                                Thu Jun 13 20:00:06 2019  *
 *  PM3        - The PM3 Hamiltonian to be used
 *  PRECISE    - CRITERIA TO BE INCREASED BY 100 TIMES
 *  NOSYM      - POINT-GROUP SYMMETRY SET TO C1
 *  THREADS=1  - MULTI-THREADING NOT USED
 *  T=         - A TIME OF 172800.0 SECONDS REQUESTED
 *  DUMP=N     - RESTART FILE WRITTEN EVERY  7200.000 SECONDS
 *******************************************************************************
pm3  precise nosym THREADS=1
 InChI=1S/C7H10/c1-7-4-2-6(7)3-5-7/h2,4,6H,3,5H2,1H3

   ATOM   CHEMICAL          X               Y               Z
  NUMBER   SYMBOL      (ANGSTROMS)     (ANGSTROMS)     (ANGSTROMS)
 
     1       C         -0.27360000  *   0.27780000  *   0.26530000  *
     2       C         -0.00710000  *  -0.62200000  *  -0.82170000  *
     3       C          1.21530000  *   0.38740000  *   0.60640000  *
     4       C          1.49740000  *  -0.57350000  *  -0.53680000  *
     5       C         -1.03180000  *   1.56170000  *  -0.08670000  *
     6       C         -1.05130000  *  -0.80410000  *   0.95500000  *
     7       C         -0.77980000  *  -1.68780000  *  -0.09430000  *
     8       H         -0.36980000  *  -0.31370000  *  -1.82800000  *
     9       H          1.91450000  *  -1.54750000  *  -0.19790000  *
    10       H          1.46860000  *  -0.03580000  *   1.60340000  *
    11       H          1.63600000  *   1.40030000  *   0.42170000  *
    12       H          2.06540000  *  -0.09530000  *  -1.36420000  *
    13       H         -2.02750000  *   1.32100000  *  -0.51730000  *
    14       H         -1.17600000  *   2.16770000  *   0.83190000  *
    15       H         -0.45800000  *   2.16100000  *  -0.82560000  *
    16       H         -1.59340000  *  -0.87470000  *   1.89160000  *
    17       H         -1.02890000  *  -2.72240000  *  -0.30270000  *
 


          CARTESIAN COORDINATES 

    NO.       ATOM           X           Y           Z

     1         C         -0.2736      0.2778      0.2653
     2         C         -0.0071     -0.6220     -0.8217
     3         C          1.2153      0.3874      0.6064
     4         C          1.4974     -0.5735     -0.5368
     5         C         -1.0318      1.5617     -0.0867
     6         C         -1.0513     -0.8041      0.9550
     7         C         -0.7798     -1.6878     -0.0943
     8         H         -0.3698     -0.3137     -1.8280
     9         H          1.9145     -1.5475     -0.1979
    10         H          1.4686     -0.0358      1.6034
    11         H          1.6360      1.4003      0.4217
    12         H          2.0654     -0.0953     -1.3642
    13         H         -2.0275      1.3210     -0.5173
    14         H         -1.1760      2.1677      0.8319
    15         H         -0.4580      2.1610     -0.8256
    16         H         -1.5934     -0.8747      1.8916
    17         H         -1.0289     -2.7224     -0.3027

  H: (PM3): J. J. P. STEWART, J. COMP. CHEM. 10, 209 (1989).
  C: (PM3): J. J. P. STEWART, J. COMP. CHEM. 10, 209 (1989).

           Empirical Formula: C7 H10  =    17 atoms



      MOLECULAR POINT GROUP   :   C1  


      RHF CALCULATION, NO. OF DOUBLY OCCUPIED LEVELS = 19


          Geometry optimization using EF

          DIAGONAL MATRIX USED AS START HESSIAN

 CYCLE:     1 TIME:   0.031 TIME LEFT:  2.00D  GRAD.:   248.410 HEAT:  65.00580
 CYCLE:     2 TIME:   0.031 TIME LEFT:  2.00D  GRAD.:   214.864 HEAT:  61.27423
 CYCLE:     3 TIME:   0.031 TIME LEFT:  2.00D  GRAD.:   144.042 HEAT:  55.97724
 CYCLE:     4 TIME:   0.023 TIME LEFT:  2.00D  GRAD.:   134.725 HEAT:  54.02509
 CYCLE:     5 TIME:   0.023 TIME LEFT:  2.00D  GRAD.:    76.003 HEAT:  51.61917
 CYCLE:     6 TIME:   0.023 TIME LEFT:  2.00D  GRAD.:    45.039 HEAT:  49.94625
 CYCLE:     7 TIME:   0.039 TIME LEFT:  2.00D  GRAD.:    25.603 HEAT:  49.38298
 CYCLE:     8 TIME:   0.016 TIME LEFT:  2.00D  GRAD.:    38.589 HEAT:  49.03638
 CYCLE:     9 TIME:   0.023 TIME LEFT:  2.00D  GRAD.:    46.627 HEAT:  48.82559
 CYCLE:    10 TIME:   0.031 TIME LEFT:  2.00D  GRAD.:    27.551 HEAT:  48.33754
 CYCLE:    11 TIME:   0.031 TIME LEFT:  2.00D  GRAD.:    19.149 HEAT:  48.16226
 CYCLE:    12 TIME:   0.023 TIME LEFT:  2.00D  GRAD.:    19.772 HEAT:  48.05265
 CYCLE:    13 TIME:   0.016 TIME LEFT:  2.00D  GRAD.:    15.566 HEAT:  47.92445
 CYCLE:    14 TIME:   0.023 TIME LEFT:  2.00D  GRAD.:    19.813 HEAT:  47.81918
 CYCLE:    15 TIME:   0.023 TIME LEFT:  2.00D  GRAD.:    20.902 HEAT:  47.70101
 CYCLE:    16 TIME:   0.023 TIME LEFT:  2.00D  GRAD.:    22.679 HEAT:  47.60945
 CYCLE:    17 TIME:   0.023 TIME LEFT:  2.00D  GRAD.:    16.410 HEAT:  47.50775
 CYCLE:    18 TIME:   0.023 TIME LEFT:  2.00D  GRAD.:    18.358 HEAT:  47.46050
 CYCLE:    19 TIME:   0.023 TIME LEFT:  2.00D  GRAD.:     6.987 HEAT:  47.34771
 CYCLE:    20 TIME:   0.023 TIME LEFT:  2.00D  GRAD.:     8.894 HEAT:  47.29934
 CYCLE:    21 TIME:   0.023 TIME LEFT:  2.00D  GRAD.:     8.625 HEAT:  47.25305
 CYCLE:    22 TIME:   0.023 TIME LEFT:  2.00D  GRAD.:     5.603 HEAT:  47.22832
 CYCLE:    23 TIME:   0.023 TIME LEFT:  2.00D  GRAD.:     4.580 HEAT:  47.22013
 CYCLE:    24 TIME:   0.016 TIME LEFT:  2.00D  GRAD.:     3.784 HEAT:  47.21085
 CYCLE:    25 TIME:   0.023 TIME LEFT:  2.00D  GRAD.:     2.103 HEAT:  47.20362
 CYCLE:    26 TIME:   0.023 TIME LEFT:  2.00D  GRAD.:     2.658 HEAT:  47.19615
 CYCLE:    27 TIME:   0.023 TIME LEFT:  2.00D  GRAD.:     1.693 HEAT:  47.19038
 CYCLE:    28 TIME:   0.031 TIME LEFT:  2.00D  GRAD.:     1.222 HEAT:  47.18774
 CYCLE:    29 TIME:   0.016 TIME LEFT:  2.00D  GRAD.:     1.503 HEAT:  47.18517
 CYCLE:    30 TIME:   0.023 TIME LEFT:  2.00D  GRAD.:     1.642 HEAT:  47.18162
 CYCLE:    31 TIME:   0.023 TIME LEFT:  2.00D  GRAD.:     0.972 HEAT:  47.17775
 CYCLE:    32 TIME:   0.023 TIME LEFT:  2.00D  GRAD.:     0.669 HEAT:  47.17692
 CYCLE:    33 TIME:   0.023 TIME LEFT:  2.00D  GRAD.:     0.398 HEAT:  47.17643
 CYCLE:    34 TIME:   0.023 TIME LEFT:  2.00D  GRAD.:     0.322 HEAT:  47.17615
 CYCLE:    35 TIME:   0.023 TIME LEFT:  2.00D  GRAD.:     0.265 HEAT:  47.17593
 CYCLE:    36 TIME:   0.023 TIME LEFT:  2.00D  GRAD.:     0.228 HEAT:  47.17580
 CYCLE:    37 TIME:   0.023 TIME LEFT:  2.00D  GRAD.:     0.229 HEAT:  47.17568
 CYCLE:    38 TIME:   0.016 TIME LEFT:  2.00D  GRAD.:     0.201 HEAT:  47.17559
 CYCLE:    39 TIME:   0.023 TIME LEFT:  2.00D  GRAD.:     0.192 HEAT:  47.17551
 CYCLE:    40 TIME:   0.023 TIME LEFT:  2.00D  GRAD.:     0.207 HEAT:  47.17542
 CYCLE:    41 TIME:   0.023 TIME LEFT:  2.00D  GRAD.:     0.214 HEAT:  47.17533
 CYCLE:    42 TIME:   0.023 TIME LEFT:  2.00D  GRAD.:     0.196 HEAT:  47.17523
 CYCLE:    43 TIME:   0.023 TIME LEFT:  2.00D  GRAD.:     0.183 HEAT:  47.17514
 CYCLE:    44 TIME:   0.023 TIME LEFT:  2.00D  GRAD.:     0.172 HEAT:  47.17506
 CYCLE:    45 TIME:   0.023 TIME LEFT:  2.00D  GRAD.:     0.128 HEAT:  47.17501
 CYCLE:    46 TIME:   0.023 TIME LEFT:  2.00D  GRAD.:     0.080 HEAT:  47.17498
 CYCLE:    47 TIME:   0.023 TIME LEFT:  2.00D  GRAD.:     0.075 HEAT:  47.17497
 CYCLE:    48 TIME:   0.023 TIME LEFT:  2.00D  GRAD.:     0.064 HEAT:  47.17495
 CYCLE:    49 TIME:   0.023 TIME LEFT:  2.00D  GRAD.:     0.067 HEAT:  47.17494
 CYCLE:    50 TIME:   0.023 TIME LEFT:  2.00D  GRAD.:     0.060 HEAT:  47.17494
 CYCLE:    51 TIME:   0.023 TIME LEFT:  2.00D  GRAD.:     0.176 HEAT:  47.17494
 CYCLE:    52 TIME:   0.023 TIME LEFT:  2.00D  GRAD.:     0.079 HEAT:  47.17491
 CYCLE:    53 TIME:   0.023 TIME LEFT:  2.00D  GRAD.:     0.050 HEAT:  47.17490

     GRADIENT =  0.04999  IS LESS THAN CUTOFF =  0.05000



 -------------------------------------------------------------------------------
 pm3  precise nosym THREADS=1
 InChI=1S/C7H10/c1-7-4-2-6(7)3-5-7/h2,4,6H,3,5H2,1H3



     GEOMETRY OPTIMISED USING EIGENVECTOR FOLLOWING (EF).     
     SCF FIELD WAS ACHIEVED                                   


                              PM3 CALCULATION
                                                       MOPAC2016 (Version: 18.184L)
                                                       Thu Jun 13 20:00:08 2019
                                                       No. of days remaining =  20




          FINAL HEAT OF FORMATION =         47.17490 KCAL/MOL =     197.37978 KJ/MOL


          TOTAL ENERGY            =       -981.76400 EV
          ELECTRONIC ENERGY       =      -4678.46991 EV  POINT GROUP:     C1  
          CORE-CORE REPULSION     =       3696.70591 EV
          COSMO AREA              =        141.36 SQUARE ANGSTROMS
          COSMO VOLUME            =        136.86 CUBIC ANGSTROMS

          GRADIENT NORM           =          0.04999 = 0.01212 PER ATOM
          IONIZATION POTENTIAL    =          9.870724 EV
          HOMO LUMO ENERGIES (EV) =         -9.871  0.993
          NO. OF FILLED LEVELS    =         19
          MOLECULAR WEIGHT        =         94.1560

          MOLECULAR DIMENSIONS (Angstroms)

            Atom       Atom       Distance
            H    17    H    15     5.06799
            H    12    H    16     4.79863
            H     8    H    10     3.82589


          SCF CALCULATIONS        =         59
 
          WALL-CLOCK TIME         =          1.328 SECONDS
          COMPUTATION TIME        =          0.512 SECONDS




   ATOM   CHEMICAL          X               Y               Z
  NUMBER   SYMBOL      (ANGSTROMS)     (ANGSTROMS)     (ANGSTROMS)
 
     1       C         -0.31794739  *   0.34627495  *   0.23811117  *
     2       C          0.01932073  *  -0.71431040  *  -0.91132590  *
     3       C          1.18844712  *   0.40793956  *   0.57919310  *
     4       C          1.50974570  *  -0.61366141  *  -0.53859137  *
     5       C         -1.04965776  *   1.62187166  *   0.00636056  *
     6       C         -1.06053531  *  -0.80613894  *   0.90454806  *
     7       C         -0.77065596  *  -1.69867197  *  -0.06660571  *
     8       H         -0.27260580  *  -0.57562390  *  -1.95898216  *
     9       H          1.96604671  *  -1.55315304  *  -0.19351623  *
    10       H          1.44407820  *   0.08065404  *   1.59753303  *
    11       H          1.63542020  *   1.40243907  *   0.42829787  *
    12       H          2.14312999  *  -0.21642612  *  -1.34560602  *
    13       H         -2.04098422  *   1.44129529  *  -0.42823414  *
    14       H         -1.19104049  *   2.16418166  *   0.95018020  *
    15       H         -0.49863299  *   2.27932562  *  -0.67865228  *
    16       H         -1.60400297  *  -0.82853272  *   1.83936632  *
    17       H         -0.97658294  *  -2.74668971  *  -0.23681968  *

                             CARTESIAN COORDINATES

   1    C       -0.317947386     0.346274946     0.238111172
   2    C        0.019320726    -0.714310402    -0.911325901
   3    C        1.188447118     0.407939563     0.579193098
   4    C        1.509745704    -0.613661414    -0.538591374
   5    C       -1.049657757     1.621871665     0.006360559
   6    C       -1.060535310    -0.806138943     0.904548058
   7    C       -0.770655963    -1.698671968    -0.066605708
   8    H       -0.272605797    -0.575623900    -1.958982160
   9    H        1.966046711    -1.553153044    -0.193516230
  10    H        1.444078195     0.080654042     1.597533028
  11    H        1.635420204     1.402439073     0.428297873
  12    H        2.143129994    -0.216426116    -1.345606025
  13    H       -2.040984219     1.441295294    -0.428234144
  14    H       -1.191040490     2.164181659     0.950180199
  15    H       -0.498632993     2.279325619    -0.678652283
  16    H       -1.604002968    -0.828532717     1.839366324
  17    H       -0.976582940    -2.746689710    -0.236819684


           Empirical Formula: C7 H10  =    17 atoms



      MOLECULAR POINT GROUP   :   C1  


                  EIGENVALUES  
 -42.10318 -30.56915 -30.25623 -24.69768 -21.66830 -20.36367 -17.38864 -16.52324
 -16.17966 -15.86470 -14.31223 -13.89278 -13.18731 -12.86754 -12.81074 -11.74702
 -11.20955 -10.84536  -9.87072   0.99281   2.90235   3.09106   3.36160   3.47503
   3.74503   3.91728   4.09422   4.17036   4.26674   4.36112   4.57128   4.64105
   4.71807   4.82403   4.87391   5.38409   5.57568   6.21628


              NET ATOMIC CHARGES AND DIPOLE CONTRIBUTIONS

  ATOM NO.   TYPE          CHARGE      No. of ELECS.   s-Pop       p-Pop       
    1          C          -0.072661        4.0727     1.21101     2.86166
    2          C          -0.089545        4.0895     1.20531     2.88424
    3          C          -0.090572        4.0906     1.17189     2.91868
    4          C          -0.094016        4.0940     1.16933     2.92468
    5          C          -0.072561        4.0726     1.12578     2.94679
    6          C          -0.140253        4.1403     1.21830     2.92195
    7          C          -0.145291        4.1453     1.21675     2.92854
    8          H           0.094662        0.9053     0.90534
    9          H           0.059193        0.9408     0.94081
   10          H           0.059102        0.9409     0.94090
   11          H           0.058541        0.9415     0.94146
   12          H           0.055811        0.9442     0.94419
   13          H           0.043912        0.9561     0.95609
   14          H           0.042686        0.9573     0.95731
   15          H           0.041885        0.9581     0.95812
   16          H           0.124713        0.8753     0.87529
   17          H           0.124393        0.8756     0.87561
 DIPOLE           X         Y         Z       TOTAL
 POINT-CHG.     0.082     0.174    -0.069     0.204
 HYBRID         0.004    -0.064     0.061     0.089
 SUM            0.086     0.110    -0.008     0.140


          ATOMIC ORBITAL ELECTRON POPULATIONS

     Atom    s        px        py        pz   
    1  C   1.21101   0.94899   0.94075   0.97192
    2  C   1.20531   0.95447   0.95844   0.97133
    3  C   1.17189   0.94260   0.99095   0.98513
    4  C   1.16933   0.94888   0.99285   0.98295
    5  C   1.12578   0.99213   0.94896   1.00570
    6  C   1.21830   0.98866   0.95636   0.97693
    7  C   1.21675   0.98399   0.97275   0.97181
    8  H   0.90534
    9  H   0.94081
   10  H   0.94090
   11  H   0.94146
   12  H   0.94419
   13  H   0.95609
   14  H   0.95731
   15  H   0.95812
   16  H   0.87529
   17  H   0.87561
 *******************************************************************************
 ** Site#: 14399        For non-commercial use only    Version 18.184L 64BITS **
 *******************************************************************************
 ** Cite this program as: MOPAC2016, Version: 18.184L, James J. P. Stewart,   **
 ** Stewart Computational Chemistry, web: HTTP://OpenMOPAC.net. Days left:  20**
 *******************************************************************************
 **                                                                           **
 **                                MOPAC2016                                  **
 **                                                                           **
 *******************************************************************************

                              PM3 CALCULATION RESULTS

 *******************************************************************************
 *  CALCULATION DONE:                                Thu Jun 13 20:00:08 2019  *
 *  PM3        - The PM3 Hamiltonian to be used
 *  OLDGEO     - PREVIOUS GEOMETRY TO BE USED
 *  PRECISE    - CRITERIA TO BE INCREASED BY 100 TIMES
 *  NOSYM      - POINT-GROUP SYMMETRY SET TO C1
 *  THREADS=1  - MULTI-THREADING NOT USED
 *  T=         - A TIME OF 172800.0 SECONDS REQUESTED
 *  DUMP=N     - RESTART FILE WRITTEN EVERY  7200.000 SECONDS
 *  THERMO     - THERMODYNAMIC QUANTITIES TO BE CALCULATED
 *******************************************************************************
oldgeo thermo nosym precise THREADS=1  pm3
 InChI=1S/C7H10/c1-7-4-2-6(7)3-5-7/h2,4,6H,3,5H2,1H3

   ATOM   CHEMICAL          X               Y               Z
  NUMBER   SYMBOL      (ANGSTROMS)     (ANGSTROMS)     (ANGSTROMS)
 
     1       C         -0.31794739  *   0.34627495  *   0.23811117  *
     2       C          0.01932073  *  -0.71431040  *  -0.91132590  *
     3       C          1.18844712  *   0.40793956  *   0.57919310  *
     4       C          1.50974570  *  -0.61366141  *  -0.53859137  *
     5       C         -1.04965776  *   1.62187166  *   0.00636056  *
     6       C         -1.06053531  *  -0.80613894  *   0.90454806  *
     7       C         -0.77065596  *  -1.69867197  *  -0.06660571  *
     8       H         -0.27260580  *  -0.57562390  *  -1.95898216  *
     9       H          1.96604671  *  -1.55315304  *  -0.19351623  *
    10       H          1.44407820  *   0.08065404  *   1.59753303  *
    11       H          1.63542020  *   1.40243907  *   0.42829787  *
    12       H          2.14312999  *  -0.21642612  *  -1.34560602  *
    13       H         -2.04098422  *   1.44129529  *  -0.42823414  *
    14       H         -1.19104049  *   2.16418166  *   0.95018020  *
    15       H         -0.49863299  *   2.27932562  *  -0.67865228  *
    16       H         -1.60400297  *  -0.82853272  *   1.83936632  *
    17       H         -0.97658294  *  -2.74668971  *  -0.23681968  *
 


          CARTESIAN COORDINATES 

    NO.       ATOM           X           Y           Z

     1         C         -0.3179      0.3463      0.2381
     2         C          0.0193     -0.7143     -0.9113
     3         C          1.1884      0.4079      0.5792
     4         C          1.5097     -0.6137     -0.5386
     5         C         -1.0497      1.6219      0.0064
     6         C         -1.0605     -0.8061      0.9045
     7         C         -0.7707     -1.6987     -0.0666
     8         H         -0.2726     -0.5756     -1.9590
     9         H          1.9660     -1.5532     -0.1935
    10         H          1.4441      0.0807      1.5975
    11         H          1.6354      1.4024      0.4283
    12         H          2.1431     -0.2164     -1.3456
    13         H         -2.0410      1.4413     -0.4282
    14         H         -1.1910      2.1642      0.9502
    15         H         -0.4986      2.2793     -0.6787
    16         H         -1.6040     -0.8285      1.8394
    17         H         -0.9766     -2.7467     -0.2368

  H: (PM3): J. J. P. STEWART, J. COMP. CHEM. 10, 209 (1989).
  C: (PM3): J. J. P. STEWART, J. COMP. CHEM. 10, 209 (1989).

           Empirical Formula: C7 H10  =    17 atoms



      MOLECULAR POINT GROUP   :   C1  


      RHF CALCULATION, NO. OF DOUBLY OCCUPIED LEVELS = 19



          HEAT OF FORMATION =      47.174899 KCALS/MOLE


          CARTESIAN COORDINATE DERIVATIVES

   NUMBER  ATOM         X            Y            Z

     1       C      0.004348     0.009957     0.002383
     2       C     -0.001087     0.001555    -0.000789
     3       C      0.000119     0.005478     0.001563
     4       C     -0.000932     0.002327    -0.003895
     5       C      0.005206     0.011308     0.005294
     6       C      0.002061    -0.007656    -0.008880
     7       C      0.003895    -0.010465     0.003316
     8       H      0.003741    -0.008506     0.004655
     9       H     -0.007772    -0.016226     0.003150
    10       H     -0.006887     0.000210    -0.002805
    11       H     -0.002332     0.006754    -0.000820
    12       H     -0.007327     0.016230    -0.006593
    13       H     -0.013082    -0.013407    -0.001741
    14       H      0.006560     0.013649     0.002855
    15       H      0.010251    -0.016622     0.007321
    16       H      0.001327     0.003111    -0.005241
    17       H      0.001912     0.002302     0.000227
 


          GRADIENT NORM =   0.05124


          TIME FOR SCF CALCULATION =    0.02

          TIME FOR DERIVATIVES     =    0.02

          MOLECULAR WEIGHT =   94.16



          ROTATIONAL CONSTANTS IN CM(-1)

          A =    0.12318451   B =    0.10961768   C =    0.07752222



           PRINCIPAL MOMENTS OF INERTIA IN UNITS OF 10**(-40)*GRAM-CM**2

          A =      227.2427   B =      255.3673   C =      361.0936


          ORIENTATION OF MOLECULE IN FORCE CALCULATION

    NO.       ATOM         X         Y         Z

     1          C      -0.5498   -0.1779   -0.2165
     2          C       1.0502   -0.1779   -0.2165
     3          C      -0.5181    1.3676   -0.2165
     4          C       1.0299    1.3616   -0.2230
     5          C      -1.3831   -0.8743   -1.2347
     6          C      -0.4212   -0.8032    1.1677
     7          C       0.9293   -0.7983    1.1645
     8          H       1.6494   -0.7004   -0.9715
     9          H       1.5009    1.8354    0.6508
    10          H      -0.9789    1.8379    0.6644
    11          H      -0.9748    1.8190   -1.1105
    12          H       1.4798    1.8075   -1.1224
    13          H      -1.1601   -1.9483   -1.2677
    14          H      -2.4505   -0.7603   -1.0053
    15          H      -1.2106   -0.4657   -2.2389
    16          H      -1.1925   -1.1118    1.8603
    17          H       1.7029   -1.0942    1.8600


    FIRST DERIVATIVES WILL BE USED IN THE CALCULATION OF SECOND DERIVATIVES

          ESTIMATED TIME TO COMPLETE CALCULATION =        7.97 SECONDS

    FOR POINT-GROUP C1   THERE ARE   1 UNIQUE SYMMETRY FUNCTIONS.

 STEP:   1 TIME =     0.05 SECS, INTEGRAL =      0.05 TIME LEFT: 172799.91
 STEP:   2 TIME =     0.03 SECS, INTEGRAL =      0.08 TIME LEFT: 172799.88
 STEP:   3 TIME =     0.03 SECS, INTEGRAL =      0.11 TIME LEFT: 172799.85
 STEP:   4 TIME =     0.04 SECS, INTEGRAL =      0.15 TIME LEFT: 172799.81
 STEP:   5 TIME =     0.04 SECS, INTEGRAL =      0.19 TIME LEFT: 172799.77
 STEP:   6 TIME =     0.03 SECS, INTEGRAL =      0.22 TIME LEFT: 172799.74
 STEP:   7 TIME =     0.05 SECS, INTEGRAL =      0.27 TIME LEFT: 172799.70
 STEP:   8 TIME =     0.04 SECS, INTEGRAL =      0.30 TIME LEFT: 172799.66
 STEP:   9 TIME =     0.03 SECS, INTEGRAL =      0.34 TIME LEFT: 172799.62
 STEP:  10 TIME =     0.03 SECS, INTEGRAL =      0.37 TIME LEFT: 172799.59
 STEP:  11 TIME =     0.03 SECS, INTEGRAL =      0.40 TIME LEFT: 172799.56
 STEP:  12 TIME =     0.03 SECS, INTEGRAL =      0.43 TIME LEFT: 172799.53
 STEP:  13 TIME =     0.03 SECS, INTEGRAL =      0.46 TIME LEFT: 172799.50
 STEP:  14 TIME =     0.03 SECS, INTEGRAL =      0.49 TIME LEFT: 172799.47
 STEP:  15 TIME =     0.02 SECS, INTEGRAL =      0.52 TIME LEFT: 172799.45
 STEP:  16 TIME =     0.02 SECS, INTEGRAL =      0.54 TIME LEFT: 172799.42
 STEP:  17 TIME =     0.03 SECS, INTEGRAL =      0.57 TIME LEFT: 172799.39
 STEP:  18 TIME =     0.03 SECS, INTEGRAL =      0.60 TIME LEFT: 172799.36
 STEP:  19 TIME =     0.05 SECS, INTEGRAL =      0.66 TIME LEFT: 172799.30
 STEP:  20 TIME =     0.04 SECS, INTEGRAL =      0.70 TIME LEFT: 172799.27
 STEP:  21 TIME =     0.04 SECS, INTEGRAL =      0.73 TIME LEFT: 172799.23
 STEP:  22 TIME =     0.03 SECS, INTEGRAL =      0.77 TIME LEFT: 172799.20
 STEP:  23 TIME =     0.03 SECS, INTEGRAL =      0.80 TIME LEFT: 172799.16
 STEP:  24 TIME =     0.03 SECS, INTEGRAL =      0.83 TIME LEFT: 172799.13
 STEP:  25 TIME =     0.02 SECS, INTEGRAL =      0.85 TIME LEFT: 172799.11
 STEP:  26 TIME =     0.03 SECS, INTEGRAL =      0.88 TIME LEFT: 172799.08
 STEP:  27 TIME =     0.03 SECS, INTEGRAL =      0.91 TIME LEFT: 172799.05
 STEP:  28 TIME =     0.02 SECS, INTEGRAL =      0.94 TIME LEFT: 172799.02
 STEP:  29 TIME =     0.03 SECS, INTEGRAL =      0.97 TIME LEFT: 172798.99
 STEP:  30 TIME =     0.02 SECS, INTEGRAL =      0.99 TIME LEFT: 172798.97
 STEP:  31 TIME =     0.03 SECS, INTEGRAL =      1.02 TIME LEFT: 172798.94
 STEP:  32 TIME =     0.03 SECS, INTEGRAL =      1.05 TIME LEFT: 172798.91
 STEP:  33 TIME =     0.03 SECS, INTEGRAL =      1.09 TIME LEFT: 172798.88
 STEP:  34 TIME =     0.04 SECS, INTEGRAL =      1.12 TIME LEFT: 172798.84
 STEP:  35 TIME =     0.04 SECS, INTEGRAL =      1.16 TIME LEFT: 172798.80
 STEP:  36 TIME =     0.03 SECS, INTEGRAL =      1.20 TIME LEFT: 172798.77
 STEP:  37 TIME =     0.03 SECS, INTEGRAL =      1.23 TIME LEFT: 172798.73
 STEP:  38 TIME =     0.03 SECS, INTEGRAL =      1.26 TIME LEFT: 172798.70
 STEP:  39 TIME =     0.03 SECS, INTEGRAL =      1.29 TIME LEFT: 172798.67
 STEP:  40 TIME =     0.03 SECS, INTEGRAL =      1.32 TIME LEFT: 172798.64
 STEP:  41 TIME =     0.04 SECS, INTEGRAL =      1.36 TIME LEFT: 172798.60
 STEP:  42 TIME =     0.05 SECS, INTEGRAL =      1.41 TIME LEFT: 172798.55
 STEP:  43 TIME =     0.03 SECS, INTEGRAL =      1.44 TIME LEFT: 172798.52
 STEP:  44 TIME =     0.03 SECS, INTEGRAL =      1.47 TIME LEFT: 172798.49
 STEP:  45 TIME =     0.03 SECS, INTEGRAL =      1.50 TIME LEFT: 172798.46
 STEP:  46 TIME =     0.02 SECS, INTEGRAL =      1.52 TIME LEFT: 172798.44
 STEP:  47 TIME =     0.03 SECS, INTEGRAL =      1.55 TIME LEFT: 172798.41
 STEP:  48 TIME =     0.03 SECS, INTEGRAL =      1.59 TIME LEFT: 172798.38
 STEP:  49 TIME =     0.03 SECS, INTEGRAL =      1.62 TIME LEFT: 172798.34
 STEP:  50 TIME =     0.02 SECS, INTEGRAL =      1.64 TIME LEFT: 172798.32
 STEP:  51 TIME =     0.03 SECS, INTEGRAL =      1.67 TIME LEFT: 172798.29

(To convert to Hartree/Bohr^2, multiply by (10^(-21) x N x a0^2)/(4.184 x 627.51) =  0.0642)


           FORCE MATRIX IN MILLIDYNES/ANGSTROM


                  C  1       C  2       C  3       C  4       C  5       C  6
 ------------------------------------------------------------------------------
     C    1  14.869276
     C    2   2.222385  14.380346
     C    3   3.410691   1.756581  14.306785
     C    4   1.748030   3.625869   3.504057  14.393207
     C    5   5.076425   0.397415   0.501309   0.037649  14.760871
     C    6   3.862099   2.202506   0.516667   0.103412   0.515589  18.222185
     C    7   2.196662   4.071381   0.104288   0.546986   0.053040  10.198420
     H    8   0.363836   4.825173   0.030571   0.417136   0.010884   0.044226
     H    9   0.034026   0.449412   0.438445   4.704362   0.003913   0.005099
     H   10   0.448298   0.033294   4.711947   0.438559   0.025738   0.016586
     H   11   0.459910   0.027931   4.679619   0.445775   0.020691   0.038354
     H   12   0.027712   0.451762   0.446432   4.700034   0.002429   0.005962
     H   13   0.461484   0.008354   0.044165   0.004314   4.754281   0.013161
     H   14   0.457576   0.041583   0.010517   0.002893   4.737067   0.009703
     H   15   0.459472   0.006876   0.019567   0.001191   4.735019   0.044123
     H   16   0.347113   0.113181   0.010142   0.016095   0.009541   5.274757
     H   17   0.113933   0.346849   0.015231   0.010403   0.015559   0.421393


                  C  7       H  8       H  9       H 10       H 11       H 12
 ------------------------------------------------------------------------------
     C    7  18.280211
     H    8   0.411911   5.341923
     H    9   0.017692   0.023430   5.326103
     H   10   0.005327   0.002442   0.021742   5.330090
     H   11   0.005980   0.002219   0.032142   0.544969   5.296153
     H   12   0.040868   0.020733   0.549389   0.032870   0.024299   5.314259
     H   13   0.001989   0.003076   0.000650   0.004391   0.002774   0.000632
     H   14   0.005652   0.001984   0.000825   0.001618   0.003087   0.000353
     H   15   0.006675   0.002373   0.000533   0.001304   0.018237   0.000492
     H   16   0.420235   0.013526   0.001135   0.003405   0.001024   0.002930
     H   17   5.275765   0.005738   0.003411   0.001192   0.002810   0.001163


                  H 13       H 14       H 15       H 16       H 17
 ------------------------------------------------------------------
     H   13   5.464503
     H   14   0.566067   5.447158
     H   15   0.562913   0.565723   5.450162
     H   16   0.002097   0.002925   0.001564   5.661263
     H   17   0.001185   0.001414   0.002080   0.028986   5.662252


          HEAT OF FORMATION =      47.174899 KCALS/MOLE

          ZERO POINT ENERGY      94.026 KCAL/MOL


           NORMAL COORDINATE ANALYSIS (Total motion = 1 Angstrom)


   Root No.       1         2         3         4         5         6         7         8

                 1 A       2 A       3 A       4 A       5 A       6 A       7 A       8 A   

                 137.0     210.0     285.2     357.3     372.5     470.2     698.5     748.5
  
           1    0.0003    0.0024   -0.0195   -0.0089   -0.0007   -0.0296    0.0402   -0.0122
           2   -0.0036    0.0096    0.0268   -0.0143   -0.0192    0.0080    0.0169    0.0352
           3    0.0034   -0.0102    0.0176    0.0249   -0.0303    0.0190    0.0017   -0.0252
           4    0.0002    0.0037   -0.0262   -0.0116    0.0010   -0.0345    0.0036    0.0037
           5    0.0039    0.0076   -0.0052   -0.0170   -0.0205   -0.0026   -0.0315   -0.0285
           6   -0.0023   -0.0080   -0.0175   -0.0033   -0.0327   -0.0186   -0.0318    0.0296
           7   -0.0075    0.0032   -0.0037   -0.0185    0.0036    0.0167   -0.0280   -0.0302
           8   -0.0038    0.0076    0.0248   -0.0167   -0.0196    0.0192   -0.0040    0.0480
           9    0.0050   -0.0391    0.0199   -0.0295    0.0383   -0.0050   -0.0015   -0.0051
          10   -0.0077    0.0035   -0.0011   -0.0196    0.0047    0.0190   -0.0244   -0.0290
          11    0.0041    0.0099   -0.0035   -0.0152   -0.0216   -0.0131   -0.0245   -0.0434
          12    0.0005    0.0506   -0.0050    0.0088    0.0336    0.0100   -0.0055    0.0107
          13    0.0002   -0.0186    0.0516    0.0094   -0.0144    0.0053    0.0454   -0.0131
          14    0.0054   -0.0226   -0.0294    0.0402   -0.0180   -0.0071    0.0339   -0.0018
          15   -0.0022    0.0282   -0.0007   -0.0275   -0.0229   -0.0006    0.0451   -0.0167
          16    0.0078    0.0050   -0.0093    0.0231    0.0033    0.0038   -0.0129    0.0412
          17   -0.0076    0.0127    0.0308    0.0157    0.0494   -0.0418   -0.0010    0.0142
          18    0.0007   -0.0076    0.0190    0.0404   -0.0000   -0.0014   -0.0237   -0.0257
          19    0.0079    0.0047   -0.0086    0.0242    0.0034    0.0041   -0.0126    0.0404
          20   -0.0008   -0.0209   -0.0333   -0.0062    0.0431    0.0433    0.0062   -0.0067
          21   -0.0038   -0.0224   -0.0292    0.0014   -0.0053    0.0004   -0.0009    0.0313
          22    0.0001    0.0061   -0.0593   -0.0284    0.0096   -0.0783   -0.0132    0.0171
          23    0.0093    0.0356   -0.0041   -0.0112   -0.0158   -0.0318   -0.0494   -0.0503
          24   -0.0061   -0.0249   -0.0454   -0.0204   -0.0268   -0.0333   -0.0323    0.0549
          25   -0.0077   -0.0544    0.0223   -0.0506    0.0066    0.0175   -0.0441   -0.0182
          26    0.0050   -0.0313   -0.0182   -0.0282   -0.0761   -0.0650   -0.0798   -0.0222
          27    0.0000    0.1050   -0.0100    0.0331    0.0635    0.0407    0.0355   -0.0081
          28   -0.0080   -0.0546    0.0214   -0.0517    0.0104    0.0173   -0.0429   -0.0189
          29   -0.0066    0.0319    0.0270    0.0253   -0.0740    0.0628   -0.0118    0.0341
          30    0.0061   -0.0829    0.0321   -0.0703    0.0724   -0.0297   -0.0048    0.0100
          31   -0.0132    0.0612   -0.0127    0.0097   -0.0013    0.0490   -0.0461   -0.0088
          32   -0.0080   -0.0180    0.0372   -0.0607    0.0362    0.0016   -0.0217    0.1112
          33    0.0059   -0.0824    0.0314   -0.0678    0.0707   -0.0307   -0.0023    0.0162
          34   -0.0126    0.0622   -0.0088    0.0081    0.0058    0.0539   -0.0172   -0.0163
          35    0.0080    0.0541   -0.0064    0.0011    0.0319    0.0113    0.0263   -0.1058
          36   -0.0000    0.1027   -0.0103    0.0316    0.0620    0.0405    0.0266   -0.0139
          37   -0.2045   -0.0208    0.1109    0.0014   -0.0231    0.0386    0.0371    0.0263
          38   -0.0422   -0.0242   -0.0193    0.0416   -0.0199   -0.0013    0.0324    0.0035
          39    0.1825    0.0613    0.0427   -0.0958   -0.0196    0.0129    0.0650    0.0415
          40   -0.0081   -0.0130    0.0331    0.0032   -0.0128   -0.0065    0.0608   -0.0178
          41    0.2474   -0.0141   -0.0792    0.0370   -0.0094   -0.0383    0.0601   -0.0356
          42   -0.1612    0.0513   -0.0669   -0.0564   -0.0193   -0.0438    0.1025   -0.0214
          43    0.2146   -0.0434    0.0917    0.0454   -0.0159    0.0340    0.0149   -0.0355
          44   -0.1712   -0.0584   -0.0492    0.1064   -0.0227   -0.0091    0.0206   -0.0539
          45   -0.0370    0.0098   -0.0019    0.0038   -0.0249    0.0033    0.0359   -0.0410
          46    0.0123    0.0049   -0.0011    0.0435    0.0044    0.0275   -0.0548    0.0349
          47   -0.0139    0.0277    0.0732    0.0550    0.1216   -0.1358   -0.0040   -0.0472
          48    0.0028   -0.0011    0.0468    0.0805    0.0331   -0.0171   -0.0721   -0.0611
          49    0.0118    0.0053    0.0020    0.0430    0.0060    0.0281   -0.0280    0.0263
          50    0.0006   -0.0518   -0.0915   -0.0061    0.1050    0.1343    0.0733   -0.0362
          51   -0.0075   -0.0361   -0.0658   -0.0192    0.0180    0.0123    0.0434    0.0360


   Root No.       9        10        11        12        13        14        15        16

                 9 A      10 A      11 A      12 A      13 A      14 A      15 A      16 A   

                 795.7     825.2     858.5     921.8     931.4     946.5     963.8     994.1
  
           1   -0.0037   -0.0203   -0.0256    0.0031    0.0089   -0.0001   -0.0070    0.0087
           2    0.0036    0.0077    0.0079   -0.0076   -0.0126    0.0105   -0.0056   -0.0024
           3    0.0010    0.0136    0.0161   -0.0035    0.0066   -0.0058    0.0048   -0.0105
           4    0.0023    0.0338    0.0391    0.0121    0.0089   -0.0036   -0.0128   -0.0040
           5   -0.0017   -0.0002   -0.0005    0.0013   -0.0057    0.0028    0.0162   -0.0124
           6    0.0070   -0.0050    0.0013   -0.0010   -0.0162    0.0027    0.0110   -0.0139
           7    0.0008   -0.0039    0.0006   -0.0030    0.0040   -0.0043   -0.0099    0.0113
           8    0.0157   -0.0197   -0.0062    0.0280    0.0339   -0.0149   -0.0030    0.0066
           9    0.0069    0.0235   -0.0112   -0.0075    0.0236    0.0090   -0.0042   -0.0160
          10   -0.0049    0.0006   -0.0044   -0.0156   -0.0158    0.0082    0.0098   -0.0092
          11    0.0043   -0.0177   -0.0055   -0.0261    0.0066    0.0004   -0.0146    0.0145
          12    0.0097    0.0163   -0.0191    0.0059   -0.0205   -0.0099    0.0065   -0.0040
          13   -0.0015   -0.0072   -0.0147    0.0158   -0.0036   -0.0003    0.0029   -0.0118
          14    0.0011    0.0071    0.0063   -0.0058   -0.0223    0.0258   -0.0101    0.0077
          15   -0.0003    0.0090    0.0107    0.0012   -0.0085   -0.0198    0.0267    0.0149
          16    0.0027   -0.0053   -0.0018   -0.0168    0.0032    0.0000    0.0058    0.0010
          17   -0.0327    0.0168   -0.0032   -0.0216   -0.0062   -0.0280   -0.0246   -0.0173
          18   -0.0181   -0.0151   -0.0101    0.0242   -0.0044    0.0014   -0.0472    0.0108
          19    0.0034   -0.0047   -0.0026   -0.0189    0.0016   -0.0020    0.0089   -0.0029
          20   -0.0337    0.0178   -0.0043    0.0225   -0.0012    0.0204    0.0362    0.0016
          21   -0.0115   -0.0184   -0.0088   -0.0314    0.0233    0.0107    0.0096    0.0156
          22    0.0059    0.0665    0.0816    0.1757    0.0365    0.0064   -0.0518    0.0308
          23    0.0325    0.0112    0.0057    0.0463   -0.0127   -0.0392   -0.0121   -0.0193
          24   -0.0143    0.0141    0.0326    0.0976    0.0123    0.0402   -0.0014    0.0198
          25    0.0380    0.0790   -0.1036   -0.0040    0.0263    0.0072    0.0039    0.0488
          26    0.0534    0.0199   -0.0341   -0.0222   -0.1153   -0.0466    0.0054   -0.0343
          27   -0.0428   -0.0500    0.0551   -0.0024    0.0258    0.0173   -0.0013   -0.0102
          28   -0.0341   -0.0880    0.0964    0.0196    0.0167   -0.0114    0.0010   -0.0891
          29    0.0551    0.0562    0.0031    0.0252    0.1631    0.0158   -0.0180   -0.1305
          30   -0.0346   -0.0654    0.0383    0.0065   -0.0419   -0.0126    0.0097    0.0051
          31    0.0443    0.0864   -0.0809    0.0194    0.0215   -0.0192   -0.0126    0.1027
          32   -0.0117   -0.0891    0.0086    0.0846   -0.0535   -0.0739    0.0123    0.1395
          33   -0.0317   -0.0633    0.0403    0.0104   -0.0335   -0.0144    0.0066    0.0041
          34   -0.0453   -0.0985    0.0686    0.0043   -0.0554    0.0080    0.0564   -0.0885
          35   -0.0477   -0.0407    0.0584   -0.0693    0.1346    0.0472   -0.0802    0.0884
          36   -0.0395   -0.0485    0.0529   -0.0064    0.0247    0.0151   -0.0026   -0.0087
          37    0.0138    0.0454    0.0550   -0.0469   -0.0690    0.0805   -0.0288    0.0520
          38    0.0032    0.0170    0.0195   -0.0166   -0.0334    0.0358   -0.0121    0.0200
          39    0.0198    0.0245    0.0233   -0.0302   -0.0794    0.1307   -0.0665    0.0244
          40   -0.0034   -0.0252   -0.0420    0.0350    0.0021    0.0044   -0.0048   -0.0352
          41   -0.0120   -0.0406   -0.0602    0.0529    0.0191   -0.0303    0.0154   -0.0486
          42   -0.0030   -0.0563   -0.0898    0.0667    0.0018    0.0311   -0.0260   -0.0753
          43   -0.0061    0.0383    0.0565   -0.0178   -0.0003   -0.0923    0.0897    0.0598
          44   -0.0155    0.0106    0.0197    0.0116    0.0206   -0.1126    0.0924    0.0262
          45   -0.0074    0.0176    0.0276    0.0032    0.0083   -0.0892    0.0818    0.0340
          46    0.0060    0.0028    0.0191    0.0514   -0.0200    0.0228   -0.0476    0.0110
          47    0.2250   -0.0513    0.0197   -0.0104    0.0419    0.0940    0.1982    0.0167
          48    0.1007   -0.0362    0.0243    0.1053   -0.0081    0.0813   -0.0084    0.0376
          49   -0.0077   -0.0230   -0.0393    0.0420   -0.0432    0.0185    0.0215   -0.0097
          50    0.2340   -0.0319    0.0260    0.0074   -0.0743   -0.0927   -0.1352   -0.0383
          51    0.1155   -0.0195    0.0457   -0.1061    0.0423   -0.0601   -0.0785    0.0067


   Root No.      17        18        19        20        21        22        23        24

                17 A      18 A      19 A      20 A      21 A      22 A      23 A      24 A   

                1020.9    1028.0    1067.8    1086.4    1100.4    1114.8    1165.7    1202.7
  
           1    0.0172    0.0016    0.0064    0.0397   -0.0088    0.0135    0.0346   -0.0168
           2   -0.0091   -0.0118   -0.0156   -0.0081   -0.0042    0.0069   -0.0124    0.0347
           3   -0.0056    0.0014   -0.0006   -0.0147    0.0128    0.0108   -0.0277   -0.0037
           4   -0.0228    0.0066   -0.0159   -0.0071    0.0126    0.0662    0.0057   -0.0029
           5   -0.0082   -0.0318    0.0207   -0.0156    0.0179   -0.0053    0.0235   -0.0353
           6    0.0012   -0.0133   -0.0128   -0.0285   -0.0022   -0.0034    0.0374   -0.0029
           7    0.0155    0.0498    0.0049   -0.0202   -0.0029   -0.0260    0.0078    0.0073
           8    0.0020    0.0011   -0.0025    0.0257   -0.0007    0.0207    0.0000    0.0003
           9    0.0060    0.0044   -0.0190    0.0178    0.0286   -0.0176    0.0147    0.0052
          10   -0.0130   -0.0475   -0.0102    0.0161   -0.0021    0.0141   -0.0214    0.0178
          11    0.0069    0.0087   -0.0226    0.0147   -0.0156   -0.0095   -0.0175   -0.0013
          12   -0.0006    0.0159    0.0112    0.0026   -0.0377    0.0149   -0.0173   -0.0081
          13   -0.0139    0.0032   -0.0023   -0.0190    0.0024   -0.0126   -0.0115    0.0054
          14    0.0068    0.0062    0.0132    0.0008    0.0007   -0.0057    0.0040   -0.0102
          15    0.0046   -0.0013    0.0006    0.0052   -0.0091   -0.0116    0.0118    0.0014
          16   -0.0013   -0.0031    0.0043   -0.0016    0.0002   -0.0158   -0.0156   -0.0068
          17    0.0029   -0.0072   -0.0020   -0.0070   -0.0023   -0.0226    0.0145   -0.0001
          18    0.0095   -0.0059    0.0077    0.0149    0.0111    0.0324   -0.0165   -0.0188
          19    0.0048   -0.0011    0.0034   -0.0079    0.0029   -0.0107   -0.0137   -0.0063
          20   -0.0106    0.0230    0.0021    0.0053   -0.0033    0.0099   -0.0072   -0.0036
          21    0.0050    0.0033    0.0175    0.0043    0.0047    0.0048    0.0006    0.0367
          22    0.0906   -0.0593    0.0533    0.0405    0.0002   -0.1350   -0.1273    0.0669
          23    0.0152   -0.0080    0.2530    0.0019    0.0834   -0.0188    0.0204    0.1602
          24    0.0762   -0.0818   -0.1181   -0.0052   -0.0581   -0.1582   -0.0675   -0.0808
          25   -0.0209   -0.1712    0.0887   -0.0299   -0.1172    0.0326   -0.0181   -0.0467
          26    0.0072    0.1848   -0.0755    0.0729   -0.0093    0.0196   -0.0957    0.0556
          27    0.0040   -0.0135   -0.0148   -0.0057    0.0227   -0.0120    0.0240   -0.0049
          28    0.0437    0.1067    0.0927   -0.0816   -0.1211   -0.0023    0.0133   -0.0678
          29    0.0479    0.0644    0.0168    0.0308   -0.0351    0.0164    0.0461   -0.0516
          30   -0.0046    0.0023    0.0161   -0.0180   -0.0160   -0.0001   -0.0092   -0.0053
          31   -0.0105    0.0732   -0.0394   -0.0658    0.1645   -0.0777    0.0456   -0.0505
          32   -0.0495    0.0197    0.0044   -0.0671    0.0755    0.0518   -0.0189   -0.0661
          33   -0.0071    0.0011    0.0090   -0.0066   -0.0186    0.0237   -0.0147   -0.0004
          34   -0.0022   -0.0541   -0.0274    0.1355    0.1304   -0.0606    0.0034   -0.0225
          35    0.0009   -0.0392   -0.0561   -0.1154   -0.0317    0.0156   -0.0039    0.0659
          36    0.0023   -0.0129   -0.0164   -0.0020    0.0209   -0.0104    0.0039    0.0044
          37    0.0477    0.0212    0.0466    0.0297   -0.0066   -0.0203    0.0351   -0.0370
          38    0.0176    0.0082    0.0212    0.0095   -0.0021   -0.0086    0.0133   -0.0169
          39    0.0279    0.0319    0.0510   -0.0003    0.0110   -0.0211    0.0144   -0.0420
          40   -0.0338    0.0057   -0.0073   -0.0437    0.0083   -0.0235   -0.0264    0.0107
          41   -0.0503   -0.0033   -0.0205   -0.0573    0.0054   -0.0297   -0.0312    0.0209
          42   -0.0666    0.0133   -0.0102   -0.0872    0.0203   -0.0426   -0.0484    0.0140
          43    0.0299   -0.0124   -0.0034    0.0373   -0.0327   -0.0279    0.0458    0.0024
          44   -0.0016   -0.0196   -0.0201    0.0071   -0.0256   -0.0265    0.0219    0.0174
          45    0.0080   -0.0134   -0.0124    0.0155   -0.0250   -0.0242    0.0285    0.0112
          46   -0.1517    0.0128   -0.0299    0.0376   -0.0797   -0.1010    0.1242    0.0706
          47    0.0390    0.0107    0.0059   -0.0297    0.0256    0.0305   -0.0558   -0.0191
          48   -0.1417    0.0198   -0.0264    0.0481   -0.0640   -0.0347    0.1065    0.0594
          49    0.1695   -0.0349   -0.0614   -0.0602    0.0028    0.0714    0.0728    0.1005
          50    0.0827   -0.0755   -0.0484   -0.0395    0.0029    0.0166    0.0455    0.0174
          51   -0.1380   -0.0015    0.0683    0.0423    0.0086   -0.0816   -0.0745   -0.0715


   Root No.      25        26        27        28        29        30        31        32

                25 A      26 A      27 A      28 A      29 A      30 A      31 A      32 A   

                1226.7    1266.6    1303.0    1328.2    1347.2    1394.4    1398.0    1403.7
  
           1   -0.0088   -0.0201    0.0161    0.0083    0.0269   -0.0005   -0.0025   -0.0003
           2   -0.0024   -0.0199    0.0817    0.0169   -0.0178   -0.0049    0.0010    0.0009
           3    0.0231    0.0105   -0.0175   -0.0303    0.0472    0.0018   -0.0053    0.0059
           4    0.0158    0.0200    0.0026   -0.0147   -0.0177   -0.0005   -0.0007   -0.0040
           5   -0.0131   -0.0310    0.0085   -0.0717   -0.0149    0.0003    0.0011   -0.0024
           6    0.0173   -0.0109   -0.0159    0.0793    0.0130   -0.0000   -0.0010   -0.0002
           7    0.0536   -0.0240    0.0015   -0.0161   -0.0120    0.0023    0.0090    0.0167
           8    0.0330   -0.0161   -0.0458   -0.0144    0.0002    0.0003   -0.0091   -0.0242
           9   -0.0037   -0.0023    0.0030    0.0095   -0.0070    0.0001    0.0010   -0.0001
          10   -0.0454   -0.0172   -0.0295    0.0062    0.0081    0.0004    0.0040    0.0169
          11    0.0214    0.0538    0.0130    0.0231   -0.0005    0.0001    0.0067    0.0232
          12   -0.0021    0.0025    0.0019   -0.0177   -0.0010    0.0000   -0.0003   -0.0010
          13    0.0011    0.0043    0.0040   -0.0054    0.0218    0.0082    0.0250   -0.0073
          14   -0.0016    0.0041   -0.0111   -0.0052    0.0226   -0.0351   -0.0055    0.0017
          15   -0.0062   -0.0030    0.0099    0.0027    0.0184    0.0207   -0.0188    0.0034
          16   -0.0033   -0.0079    0.0064    0.0054   -0.0094   -0.0006    0.0010   -0.0006
          17    0.0007    0.0095   -0.0196   -0.0140    0.0137    0.0011   -0.0008    0.0012
          18   -0.0055   -0.0207    0.0249    0.0248   -0.0325   -0.0026    0.0024   -0.0037
          19    0.0047   -0.0038   -0.0053    0.0179    0.0028   -0.0001   -0.0000    0.0005
          20    0.0098   -0.0061   -0.0007    0.0365    0.0069   -0.0002   -0.0007    0.0003
          21   -0.0176    0.0227    0.0088   -0.0659   -0.0129    0.0002    0.0011    0.0006
          22   -0.0251    0.0121    0.0049   -0.0146    0.0201   -0.0001   -0.0009    0.0076
          23   -0.0045   -0.0017   -0.0206    0.1306    0.0328   -0.0003    0.0001    0.0095
          24   -0.0201   -0.0368    0.0065   -0.0601    0.0112    0.0007   -0.0001    0.0017
          25    0.0698    0.1455    0.0190    0.0451    0.0046    0.0002   -0.0261   -0.0867
          26   -0.1309   -0.0461   -0.0797   -0.0195    0.0190    0.0007   -0.0322   -0.1013
          27    0.0180   -0.0286    0.0222   -0.0133   -0.0090   -0.0001    0.0333    0.1097
          28   -0.1202    0.0598    0.0984    0.0047    0.0090   -0.0128   -0.0404   -0.0919
          29   -0.1706    0.0657   -0.0058    0.0689   -0.0025    0.0094    0.0440    0.1058
          30    0.0146   -0.0009    0.0301   -0.0223    0.0059   -0.0113   -0.0481   -0.1131
          31   -0.1069    0.0639    0.0875    0.0200    0.0256   -0.0111   -0.0428   -0.0879
          32   -0.1313    0.0871   -0.0345    0.0262    0.0634    0.0119    0.0350    0.1172
          33   -0.0042    0.0046   -0.0335    0.0081    0.0078    0.0114    0.0439    0.1122
          34    0.0571    0.1473    0.0297    0.0366   -0.0074    0.0003   -0.0251   -0.0875
          35   -0.0997   -0.0679   -0.1039    0.0956    0.0381    0.0004   -0.0341   -0.1035
          36   -0.0094    0.0213   -0.0229    0.0334    0.0100    0.0000   -0.0314   -0.1036
          37   -0.0207    0.0239   -0.0951    0.0188   -0.1358    0.2039   -0.1684    0.0407
          38   -0.0074    0.0084   -0.0312    0.0021   -0.0204    0.0305   -0.0458    0.0110
          39   -0.0147    0.0401   -0.1154    0.0044   -0.0887    0.0087    0.2413   -0.0682
          40   -0.0001    0.0175   -0.0250   -0.0004   -0.0458   -0.0164   -0.0138    0.0051
          41   -0.0073    0.0203   -0.0278    0.0153   -0.1265    0.3188   -0.1050    0.0217
          42   -0.0014    0.0438   -0.0887    0.0055   -0.1524   -0.2466   -0.0591    0.0251
          43   -0.0294    0.0046   -0.0432    0.0355   -0.1480   -0.2782   -0.1072    0.0352
          44   -0.0257    0.0064   -0.0170    0.0337   -0.1241    0.0870    0.2260   -0.0684
          45   -0.0220    0.0010   -0.0090    0.0264   -0.0813   -0.0015    0.0675   -0.0209
          46   -0.0213    0.0371   -0.0161   -0.0669    0.0356    0.0022   -0.0021    0.0035
          47    0.0104   -0.0166    0.0104    0.0164   -0.0034   -0.0002   -0.0004    0.0003
          48   -0.0210    0.0190    0.0138   -0.0449    0.0076   -0.0002   -0.0008    0.0001
          49   -0.0146    0.0687   -0.0109   -0.0967   -0.0030    0.0012    0.0001    0.0010
          50   -0.0035    0.0114    0.0012   -0.0253    0.0022    0.0003   -0.0003   -0.0001
          51   -0.0020   -0.0491    0.0169    0.0340   -0.0115   -0.0012    0.0015   -0.0003


   Root No.      33        34        35        36        37        38        39        40

                33 A      34 A      35 A      36 A      37 A      38 A      39 A      40 A   

                1427.4    1495.1    1763.3    3032.6    3046.6    3078.6    3081.7    3088.2
  
           1    0.0048    0.0846   -0.0077    0.0000   -0.0000   -0.0002    0.0001    0.0005
           2   -0.0093    0.0505    0.0093    0.0000    0.0000   -0.0002   -0.0002   -0.0002
           3    0.0150    0.1009   -0.0266   -0.0001   -0.0003    0.0001    0.0001   -0.0004
           4    0.0004   -0.0207    0.0010    0.0010   -0.0018    0.0006   -0.0003    0.0326
           5   -0.0161   -0.0006    0.0144   -0.0008    0.0015   -0.0003    0.0001   -0.0275
           6    0.0050   -0.0017   -0.0189   -0.0012    0.0020   -0.0004    0.0001   -0.0406
           7   -0.0306    0.0023    0.0001   -0.0012   -0.0012    0.0006    0.0004    0.0019
           8    0.0225   -0.0226   -0.0030    0.0009    0.0010   -0.0005   -0.0000   -0.0020
           9   -0.0021   -0.0108    0.0021   -0.0316   -0.0280   -0.0004    0.0005   -0.0020
          10    0.0306   -0.0159    0.0003   -0.0001    0.0000    0.0000   -0.0000   -0.0005
          11    0.0264   -0.0169   -0.0033    0.0000   -0.0000   -0.0000   -0.0000   -0.0013
          12   -0.0014    0.0024    0.0018    0.0286   -0.0308   -0.0001    0.0001   -0.0062
          13   -0.0064   -0.0579    0.0034    0.0002    0.0002   -0.0390    0.0230    0.0010
          14   -0.0054   -0.0467    0.0016   -0.0000   -0.0001   -0.0098   -0.0441   -0.0002
          15   -0.0107   -0.0707    0.0082   -0.0001   -0.0001    0.0393    0.0119   -0.0007
          16   -0.0041   -0.0165   -0.2101    0.0000    0.0001   -0.0002   -0.0001   -0.0000
          17    0.0027    0.0065   -0.0028   -0.0002   -0.0002   -0.0000   -0.0000   -0.0002
          18   -0.0068   -0.0304    0.0033    0.0000    0.0000   -0.0002   -0.0002   -0.0001
          19    0.0024    0.0026    0.2110    0.0001   -0.0001    0.0000   -0.0000    0.0003
          20    0.0032    0.0076   -0.0013    0.0001   -0.0002    0.0000    0.0000   -0.0001
          21   -0.0039   -0.0108    0.0022   -0.0000    0.0001   -0.0000   -0.0000   -0.0004
          22    0.0114    0.0271    0.0251   -0.0119    0.0217   -0.0051    0.0021   -0.3898
          23    0.0183    0.0133   -0.0321    0.0085   -0.0168    0.0044   -0.0020    0.3353
          24   -0.0108    0.0283    0.0219    0.0150   -0.0272    0.0064   -0.0026    0.4841
          25   -0.1098    0.0306   -0.0001   -0.0912    0.1020    0.0006   -0.0003    0.0269
          26   -0.0922    0.0274    0.0045   -0.0941    0.1006    0.0005   -0.0002    0.0291
          27    0.1239   -0.0436   -0.0019   -0.1651    0.1766    0.0010   -0.0004    0.0484
          28    0.1075   -0.0058   -0.0000   -0.0940   -0.0852   -0.0052   -0.0002   -0.0236
          29   -0.0888   -0.0160    0.0056    0.0982    0.0847    0.0052    0.0005    0.0238
          30    0.1164   -0.0139   -0.0028    0.1733    0.1490    0.0104    0.0008    0.0474
          31    0.1123    0.0100   -0.0034    0.1071    0.1003   -0.0020   -0.0023   -0.0098
          32   -0.0763    0.0730   -0.0097   -0.1087   -0.0975    0.0025    0.0030    0.0101
          33   -0.1115    0.0329   -0.0003    0.2070    0.1862   -0.0042   -0.0047   -0.0242
          34   -0.1158    0.0225    0.0022    0.0914   -0.1026   -0.0004    0.0005   -0.0132
          35   -0.0888    0.0286   -0.0075    0.0928   -0.0992   -0.0004    0.0005   -0.0171
          36   -0.1172    0.0413    0.0004   -0.1799    0.1929    0.0007   -0.0009    0.0241
          37    0.0206    0.0815   -0.0045   -0.0004   -0.0005   -0.0208   -0.0941   -0.0002
          38    0.0019   -0.0099   -0.0002    0.0025    0.0030   -0.0003    0.4439    0.0040
          39    0.0391    0.0894   -0.0069    0.0001    0.0001    0.0199    0.0111   -0.0003
          40    0.0025   -0.0007   -0.0003   -0.0013   -0.0019    0.4251   -0.2356   -0.0094
          41    0.0152    0.0565   -0.0008    0.0002    0.0002   -0.0594    0.0080    0.0012
          42    0.0143    0.0854   -0.0036    0.0003    0.0004   -0.0864    0.0650    0.0021
          43    0.0020    0.0674    0.0054   -0.0001   -0.0000    0.0622    0.0548   -0.0006
          44    0.0272    0.0815    0.0039   -0.0001   -0.0001    0.1764    0.0738   -0.0029
          45    0.0068    0.0169    0.0094    0.0013    0.0012   -0.4034   -0.2175    0.0063
          46    0.0031    0.0315   -0.1107   -0.0005    0.0000   -0.0004   -0.0000   -0.0110
          47   -0.0012    0.0021   -0.0706   -0.0003   -0.0001   -0.0001   -0.0001   -0.0048
          48   -0.0005    0.0190    0.1577    0.0005    0.0001    0.0001    0.0000    0.0098
          49    0.0007   -0.0082    0.1105    0.0000    0.0003    0.0002   -0.0001    0.0039
          50   -0.0007    0.0076   -0.0710    0.0001   -0.0002   -0.0000    0.0001   -0.0019
          51   -0.0038   -0.0033    0.1577   -0.0001    0.0004    0.0002   -0.0000    0.0031


   Root No.      41        42        43        44        45

                41 A      42 A      43 A      44 A      45 A   

                3102.4    3105.4    3173.7    3193.2    3213.0
  
           1    0.0001    0.0007   -0.0002    0.0003    0.0013
           2   -0.0008    0.0005   -0.0001   -0.0002   -0.0005
           3    0.0001    0.0001   -0.0002    0.0004    0.0013
           4   -0.0024   -0.0016    0.0000    0.0006   -0.0018
           5    0.0022    0.0006    0.0000   -0.0000   -0.0002
           6    0.0023    0.0016    0.0001   -0.0007    0.0020
           7    0.0235    0.0048    0.0002    0.0000    0.0001
           8   -0.0235   -0.0056   -0.0001    0.0001   -0.0002
           9   -0.0035   -0.0008    0.0002   -0.0000    0.0001
          10    0.0058   -0.0242    0.0000    0.0000   -0.0001
          11    0.0051   -0.0244    0.0000   -0.0001   -0.0001
          12   -0.0000   -0.0004    0.0000    0.0000    0.0001
          13    0.0005    0.0001   -0.0135    0.0000   -0.0000
          14    0.0006    0.0002   -0.0125    0.0000   -0.0000
          15   -0.0006   -0.0002   -0.0165    0.0001   -0.0001
          16   -0.0000   -0.0001   -0.0000   -0.0278    0.0347
          17    0.0000    0.0000   -0.0000   -0.0111    0.0113
          18   -0.0000    0.0000    0.0001    0.0247   -0.0251
          19    0.0000    0.0001   -0.0001   -0.0274   -0.0351
          20   -0.0000    0.0000    0.0000    0.0106    0.0110
          21    0.0001   -0.0000   -0.0001   -0.0246   -0.0255
          22    0.0220    0.0144    0.0003   -0.0036    0.0057
          23   -0.0186   -0.0130   -0.0004    0.0027   -0.0051
          24   -0.0272   -0.0184   -0.0006    0.0038   -0.0077
          25   -0.0327    0.1544   -0.0001   -0.0001   -0.0000
          26   -0.0341    0.1552   -0.0001   -0.0001    0.0000
          27   -0.0688    0.3176   -0.0001   -0.0002    0.0001
          28   -0.1544   -0.0357   -0.0004   -0.0002   -0.0000
          29    0.1582    0.0357    0.0004    0.0002    0.0001
          30    0.3253    0.0742    0.0010    0.0003    0.0002
          31   -0.1275   -0.0296   -0.0015    0.0000   -0.0006
          32    0.1266    0.0287    0.0010   -0.0001    0.0007
          33   -0.2823   -0.0646   -0.0032    0.0001   -0.0011
          34   -0.0304    0.1392    0.0000   -0.0000    0.0006
          35   -0.0303    0.1377   -0.0000   -0.0000    0.0008
          36    0.0685   -0.3121    0.0001    0.0001   -0.0012
          37    0.0015    0.0004   -0.0802    0.0002    0.0001
          38   -0.0051   -0.0014    0.3230   -0.0008   -0.0002
          39   -0.0003   -0.0001   -0.0034    0.0000   -0.0000
          40   -0.0066   -0.0012    0.3040   -0.0010   -0.0003
          41    0.0009    0.0002   -0.0434    0.0001    0.0000
          42    0.0013    0.0002   -0.0810    0.0004   -0.0001
          43   -0.0010   -0.0003   -0.0618    0.0002   -0.0001
          44   -0.0029   -0.0008   -0.1291    0.0004   -0.0001
          45    0.0061    0.0017    0.2820   -0.0009    0.0000
          46    0.0010    0.0012    0.0005    0.3264   -0.3160
          47    0.0003    0.0004    0.0003    0.1308   -0.1266
          48   -0.0008   -0.0010   -0.0006   -0.2935    0.2837
          49   -0.0007   -0.0008    0.0007    0.3243    0.3204
          50    0.0003    0.0002   -0.0003   -0.1244   -0.1228
          51   -0.0006   -0.0006    0.0007    0.2917    0.2877


           MASS-WEIGHTED COORDINATE ANALYSIS (NORMAL COORDINATES)


   Root No.       1         2         3         4         5         6         7         8

                 1 A       2 A       3 A       4 A       5 A       6 A       7 A       8 A   

                 137.0     210.0     285.2     357.3     372.5     470.2     698.5     748.5
  
           1    0.0022    0.0203   -0.1531   -0.0739   -0.0052   -0.2505    0.3052   -0.0861
           2   -0.0250    0.0825    0.2101   -0.1186   -0.1475    0.0680    0.1284    0.2492
           3    0.0238   -0.0876    0.1381    0.2061   -0.2324    0.1612    0.0129   -0.1784
           4    0.0015    0.0317   -0.2053   -0.0960    0.0074   -0.2920    0.0271    0.0264
           5    0.0272    0.0652   -0.0410   -0.1411   -0.1572   -0.0216   -0.2389   -0.2018
           6   -0.0159   -0.0689   -0.1376   -0.0274   -0.2508   -0.1576   -0.2415    0.2097
           7   -0.0518    0.0273   -0.0287   -0.1531    0.0278    0.1411   -0.2130   -0.2136
           8   -0.0265    0.0651    0.1949   -0.1382   -0.1506    0.1624   -0.0305    0.3397
           9    0.0345   -0.3347    0.1559   -0.2442    0.2941   -0.0424   -0.0114   -0.0361
          10   -0.0533    0.0299   -0.0088   -0.1627    0.0359    0.1608   -0.1854   -0.2055
          11    0.0282    0.0851   -0.0275   -0.1257   -0.1655   -0.1109   -0.1858   -0.3068
          12    0.0034    0.4328   -0.0394    0.0733    0.2575    0.0843   -0.0415    0.0754
          13    0.0011   -0.1591    0.4047    0.0775   -0.1108    0.0451    0.3445   -0.0927
          14    0.0376   -0.1932   -0.2308    0.3334   -0.1381   -0.0599    0.2577   -0.0130
          15   -0.0155    0.2413   -0.0056   -0.2280   -0.1753   -0.0051    0.3428   -0.1184
          16    0.0543    0.0429   -0.0730    0.1911    0.0254    0.0325   -0.0980    0.2918
          17   -0.0526    0.1087    0.2421    0.1304    0.3789   -0.3538   -0.0075    0.1002
          18    0.0049   -0.0653    0.1489    0.3347   -0.0001   -0.0121   -0.1800   -0.1815
          19    0.0549    0.0404   -0.0673    0.2006    0.0262    0.0343   -0.0954    0.2862
          20   -0.0053   -0.1786   -0.2618   -0.0515    0.3305    0.3665    0.0474   -0.0475
          21   -0.0267   -0.1912   -0.2291    0.0116   -0.0405    0.0036   -0.0071    0.2216
          22    0.0002    0.0151   -0.1348   -0.0681    0.0214   -0.1920   -0.0290    0.0350
          23    0.0188    0.0883   -0.0092   -0.0269   -0.0350   -0.0779   -0.1086   -0.1030
          24   -0.0123   -0.0617   -0.1032   -0.0491   -0.0594   -0.0818   -0.0710    0.1125
          25   -0.0155   -0.1348    0.0507   -0.1214    0.0146    0.0430   -0.0970   -0.0374
          26    0.0100   -0.0775   -0.0414   -0.0678   -0.1690   -0.1594   -0.1756   -0.0454
          27    0.0000    0.2601   -0.0228    0.0795    0.1411    0.0998    0.0780   -0.0167
          28   -0.0161   -0.1354    0.0487   -0.1241    0.0232    0.0423   -0.0943   -0.0387
          29   -0.0132    0.0790    0.0614    0.0607   -0.1645    0.1539   -0.0260    0.0699
          30    0.0123   -0.2055    0.0729   -0.1688    0.1608   -0.0727   -0.0105    0.0205
          31   -0.0265    0.1516   -0.0288    0.0233   -0.0030    0.1202   -0.1013   -0.0181
          32   -0.0161   -0.0447    0.0845   -0.1458    0.0804    0.0040   -0.0478    0.2279
          33    0.0118   -0.2041    0.0714   -0.1629    0.1571   -0.0754   -0.0050    0.0332
          34   -0.0254    0.1542   -0.0201    0.0196    0.0130    0.1322   -0.0379   -0.0334
          35    0.0160    0.1341   -0.0146    0.0025    0.0709    0.0277    0.0578   -0.2169
          36   -0.0001    0.2543   -0.0234    0.0758    0.1376    0.0994    0.0585   -0.0285
          37   -0.4110   -0.0515    0.2521    0.0033   -0.0512    0.0947    0.0816    0.0538
          38   -0.0848   -0.0600   -0.0438    0.0999   -0.0442   -0.0033    0.0712    0.0071
          39    0.3667    0.1518    0.0970   -0.2301   -0.0435    0.0317    0.1431    0.0850
          40   -0.0163   -0.0321    0.0753    0.0077   -0.0283   -0.0159    0.1337   -0.0365
          41    0.4971   -0.0350   -0.1801    0.0889   -0.0208   -0.0938    0.1322   -0.0729
          42   -0.3239    0.1270   -0.1520   -0.1355   -0.0429   -0.1074    0.2254   -0.0439
          43    0.4313   -0.1076    0.2086    0.1091   -0.0354    0.0834    0.0327   -0.0728
          44   -0.3440   -0.1447   -0.1118    0.2555   -0.0503   -0.0224    0.0454   -0.1105
          45   -0.0744    0.0243   -0.0043    0.0091   -0.0553    0.0081    0.0790   -0.0841
          46    0.0248    0.0122   -0.0024    0.1044    0.0098    0.0673   -0.1205    0.0715
          47   -0.0280    0.0685    0.1665    0.1320    0.2702   -0.3330   -0.0089   -0.0967
          48    0.0057   -0.0028    0.1064    0.1932    0.0735   -0.0420   -0.1587   -0.1252
          49    0.0236    0.0131    0.0046    0.1033    0.0133    0.0690   -0.0617    0.0539
          50    0.0012   -0.1283   -0.2080   -0.0146    0.2333    0.3293    0.1613   -0.0741
          51   -0.0152   -0.0894   -0.1496   -0.0461    0.0400    0.0301    0.0955    0.0739


   Root No.       9        10        11        12        13        14        15        16

                 9 A      10 A      11 A      12 A      13 A      14 A      15 A      16 A   

                 795.7     825.2     858.5     921.8     931.4     946.5     963.8     994.1
  
           1   -0.0296   -0.1908   -0.2510    0.0263    0.0800   -0.0008   -0.0563    0.0843
           2    0.0288    0.0720    0.0779   -0.0655   -0.1139    0.0986   -0.0451   -0.0235
           3    0.0076    0.1275    0.1579   -0.0299    0.0599   -0.0543    0.0389   -0.1024
           4    0.0185    0.3172    0.3836    0.1042    0.0799   -0.0335   -0.1025   -0.0389
           5   -0.0136   -0.0022   -0.0049    0.0113   -0.0511    0.0265    0.1299   -0.1204
           6    0.0558   -0.0472    0.0127   -0.0085   -0.1458    0.0257    0.0887   -0.1346
           7    0.0067   -0.0366    0.0062   -0.0256    0.0357   -0.0408   -0.0795    0.1096
           8    0.1242   -0.1854   -0.0609    0.2405    0.3057   -0.1396   -0.0238    0.0640
           9    0.0549    0.2206   -0.1095   -0.0647    0.2123    0.0842   -0.0335   -0.1557
          10   -0.0385    0.0058   -0.0429   -0.1343   -0.1426    0.0768    0.0786   -0.0892
          11    0.0344   -0.1666   -0.0544   -0.2239    0.0591    0.0038   -0.1177    0.1409
          12    0.0768    0.1530   -0.1872    0.0505   -0.1845   -0.0927    0.0524   -0.0391
          13   -0.0122   -0.0674   -0.1444    0.1354   -0.0324   -0.0026    0.0231   -0.1142
          14    0.0089    0.0670    0.0614   -0.0498   -0.2012    0.2417   -0.0809    0.0751
          15   -0.0026    0.0844    0.1054    0.0105   -0.0763   -0.1861    0.2148    0.1449
          16    0.0210   -0.0499   -0.0174   -0.1443    0.0288    0.0003    0.0465    0.0093
          17   -0.2586    0.1577   -0.0319   -0.1852   -0.0557   -0.2629   -0.1977   -0.1677
          18   -0.1431   -0.1421   -0.0994    0.2077   -0.0398    0.0133   -0.3797    0.1048
          19    0.0266   -0.0444   -0.0259   -0.1626    0.0147   -0.0190    0.0719   -0.0282
          20   -0.2672    0.1668   -0.0420    0.1937   -0.0110    0.1914    0.2908    0.0155
          21   -0.0911   -0.1730   -0.0859   -0.2697    0.2101    0.1002    0.0768    0.1517
          22    0.0136    0.1809    0.2321    0.4373    0.0952    0.0174   -0.1206    0.0867
          23    0.0745    0.0306    0.0162    0.1151   -0.0331   -0.1066   -0.0281   -0.0542
          24   -0.0327    0.0383    0.0927    0.2430    0.0320    0.1092   -0.0033    0.0556
          25    0.0871    0.2149   -0.2945   -0.0099    0.0688    0.0197    0.0090    0.1372
          26    0.1224    0.0541   -0.0968   -0.0554   -0.3011   -0.1265    0.0127   -0.0965
          27   -0.0982   -0.1361    0.1567   -0.0061    0.0674    0.0470   -0.0031   -0.0288
          28   -0.0783   -0.2394    0.2739    0.0488    0.0437   -0.0310    0.0024   -0.2507
          29    0.1264    0.1530    0.0088    0.0627    0.4259    0.0430   -0.0419   -0.3672
          30   -0.0793   -0.1780    0.1088    0.0163   -0.1095   -0.0342    0.0226    0.0143
          31    0.1016    0.2353   -0.2299    0.0483    0.0560   -0.0521   -0.0293    0.2891
          32   -0.0270   -0.2425    0.0246    0.2106   -0.1398   -0.2007    0.0285    0.3924
          33   -0.0728   -0.1723    0.1146    0.0259   -0.0874   -0.0392    0.0153    0.0117
          34   -0.1039   -0.2680    0.1949    0.0108   -0.1445    0.0217    0.1313   -0.2490
          35   -0.1094   -0.1107    0.1659   -0.1725    0.3514    0.1284   -0.1868    0.2486
          36   -0.0906   -0.1321    0.1503   -0.0160    0.0645    0.0411   -0.0060   -0.0245
          37    0.0316    0.1237    0.1564   -0.1167   -0.1800    0.2188   -0.0669    0.1462
          38    0.0072    0.0462    0.0555   -0.0414   -0.0871    0.0972   -0.0282    0.0564
          39    0.0455    0.0667    0.0661   -0.0752   -0.2072    0.3552   -0.1548    0.0686
          40   -0.0078   -0.0686   -0.1194    0.0871    0.0054    0.0120   -0.0111   -0.0989
          41   -0.0275   -0.1104   -0.1711    0.1315    0.0499   -0.0823    0.0358   -0.1367
          42   -0.0068   -0.1531   -0.2553    0.1659    0.0048    0.0845   -0.0605   -0.2119
          43   -0.0141    0.1042    0.1606   -0.0442   -0.0007   -0.2509    0.2087    0.1682
          44   -0.0355    0.0289    0.0561    0.0289    0.0538   -0.3061    0.2152    0.0738
          45   -0.0170    0.0480    0.0784    0.0080    0.0218   -0.2423    0.1904    0.0956
          46    0.0138    0.0076    0.0543    0.1279   -0.0523    0.0620   -0.1108    0.0309
          47    0.5161   -0.1395    0.0561   -0.0259    0.1093    0.2554    0.4614    0.0471
          48    0.2310   -0.0986    0.0691    0.2621   -0.0212    0.2209   -0.0195    0.1058
          49   -0.0176   -0.0627   -0.1117    0.1045   -0.1127    0.0501    0.0500   -0.0274
          50    0.5369   -0.0867    0.0740    0.0184   -0.1941   -0.2519   -0.3148   -0.1077
          51    0.2649   -0.0531    0.1298   -0.2642    0.1103   -0.1632   -0.1827    0.0189


   Root No.      17        18        19        20        21        22        23        24

                17 A      18 A      19 A      20 A      21 A      22 A      23 A      24 A   

                1020.9    1028.0    1067.8    1086.4    1100.4    1114.8    1165.7    1202.7
  
           1    0.1495    0.0123    0.0545    0.3537   -0.0788    0.1048    0.2912   -0.1492
           2   -0.0788   -0.0919   -0.1341   -0.0723   -0.0379    0.0537   -0.1041    0.3077
           3   -0.0484    0.0113   -0.0053   -0.1314    0.1152    0.0840   -0.2331   -0.0331
           4   -0.1982    0.0513   -0.1361   -0.0633    0.1126    0.5147    0.0481   -0.0253
           5   -0.0716   -0.2486    0.1776   -0.1393    0.1609   -0.0415    0.1977   -0.3130
           6    0.0107   -0.1036   -0.1094   -0.2538   -0.0199   -0.0265    0.3154   -0.0261
           7    0.1349    0.3893    0.0418   -0.1803   -0.0261   -0.2017    0.0654    0.0643
           8    0.0170    0.0085   -0.0218    0.2286   -0.0063    0.1606    0.0003    0.0026
           9    0.0521    0.0344   -0.1631    0.1589    0.2562   -0.1367    0.1238    0.0465
          10   -0.1135   -0.3715   -0.0876    0.1438   -0.0189    0.1095   -0.1800    0.1580
          11    0.0605    0.0679   -0.1940    0.1310   -0.1401   -0.0737   -0.1476   -0.0115
          12   -0.0051    0.1245    0.0962    0.0227   -0.3376    0.1159   -0.1460   -0.0720
          13   -0.1211    0.0247   -0.0196   -0.1692    0.0211   -0.0976   -0.0973    0.0481
          14    0.0594    0.0481    0.1131    0.0074    0.0063   -0.0445    0.0339   -0.0903
          15    0.0397   -0.0102    0.0050    0.0465   -0.0814   -0.0900    0.0996    0.0122
          16   -0.0115   -0.0239    0.0366   -0.0142    0.0022   -0.1225   -0.1312   -0.0602
          17    0.0256   -0.0566   -0.0167   -0.0628   -0.0202   -0.1755    0.1218   -0.0006
          18    0.0823   -0.0461    0.0657    0.1328    0.0994    0.2515   -0.1389   -0.1664
          19    0.0414   -0.0085    0.0293   -0.0702    0.0263   -0.0828   -0.1153   -0.0556
          20   -0.0919    0.1794    0.0179    0.0470   -0.0296    0.0772   -0.0608   -0.0316
          21    0.0438    0.0256    0.1498    0.0385    0.0421    0.0375    0.0053    0.3254
          22    0.2284   -0.1343    0.1324    0.1045    0.0005   -0.3037   -0.3107    0.1719
          23    0.0383   -0.0182    0.6281    0.0048    0.2166   -0.0423    0.0497    0.4115
          24    0.1922   -0.1852   -0.2933   -0.0134   -0.1510   -0.3561   -0.1647   -0.2076
          25   -0.0527   -0.3876    0.2202   -0.0770   -0.3043    0.0734   -0.0442   -0.1199
          26    0.0181    0.4185   -0.1875    0.1879   -0.0241    0.0442   -0.2336    0.1429
          27    0.0101   -0.0306   -0.0367   -0.0148    0.0589   -0.0270    0.0585   -0.0126
          28    0.1103    0.2415    0.2301   -0.2104   -0.3147   -0.0051    0.0325   -0.1740
          29    0.1209    0.1458    0.0417    0.0796   -0.0913    0.0368    0.1126   -0.1326
          30   -0.0116    0.0052    0.0399   -0.0466   -0.0416   -0.0002   -0.0224   -0.0136
          31   -0.0265    0.1658   -0.0978   -0.1697    0.4272   -0.1749    0.1114   -0.1298
          32   -0.1249    0.0445    0.0109   -0.1732    0.1960    0.1165   -0.0461   -0.1698
          33   -0.0179    0.0025    0.0224   -0.0170   -0.0483    0.0533   -0.0358   -0.0010
          34   -0.0056   -0.1225   -0.0680    0.3494    0.3388   -0.1364    0.0083   -0.0578
          35    0.0023   -0.0888   -0.1393   -0.2976   -0.0824    0.0352   -0.0095    0.1693
          36    0.0057   -0.0293   -0.0407   -0.0051    0.0543   -0.0234    0.0094    0.0112
          37    0.1202    0.0479    0.1157    0.0765   -0.0170   -0.0458    0.0856   -0.0949
          38    0.0445    0.0186    0.0526    0.0246   -0.0056   -0.0194    0.0324   -0.0433
          39    0.0703    0.0722    0.1267   -0.0007    0.0287   -0.0475    0.0351   -0.1080
          40   -0.0853    0.0129   -0.0182   -0.1127    0.0214   -0.0529   -0.0646    0.0275
          41   -0.1267   -0.0075   -0.0509   -0.1477    0.0141   -0.0669   -0.0763    0.0537
          42   -0.1680    0.0302   -0.0253   -0.2249    0.0528   -0.0958   -0.1182    0.0358
          43    0.0755   -0.0280   -0.0084    0.0962   -0.0848   -0.0629    0.1117    0.0063
          44   -0.0040   -0.0443   -0.0499    0.0183   -0.0664   -0.0596    0.0536    0.0448
          45    0.0201   -0.0304   -0.0308    0.0399   -0.0648   -0.0545    0.0695    0.0287
          46   -0.3825    0.0289   -0.0741    0.0971   -0.2071   -0.2272    0.3031    0.1814
          47    0.0984    0.0242    0.0146   -0.0765    0.0665    0.0687   -0.1363   -0.0491
          48   -0.3574    0.0448   -0.0655    0.1241   -0.1661   -0.0782    0.2601    0.1526
          49    0.4274   -0.0791   -0.1525   -0.1553    0.0072    0.1606    0.1777    0.2582
          50    0.2086   -0.1710   -0.1202   -0.1020    0.0076    0.0374    0.1110    0.0446
          51   -0.3479   -0.0033    0.1695    0.1091    0.0223   -0.1838   -0.1818   -0.1836


   Root No.      25        26        27        28        29        30        31        32

                25 A      26 A      27 A      28 A      29 A      30 A      31 A      32 A   

                1226.7    1266.6    1303.0    1328.2    1347.2    1394.4    1398.0    1403.7
  
           1   -0.0660   -0.1647    0.1182    0.0507    0.2045   -0.0030   -0.0195   -0.0023
           2   -0.0177   -0.1632    0.6003    0.1038   -0.1349   -0.0304    0.0075    0.0079
           3    0.1728    0.0864   -0.1283   -0.1859    0.3584    0.0114   -0.0406    0.0503
           4    0.1183    0.1642    0.0194   -0.0901   -0.1342   -0.0032   -0.0051   -0.0346
           5   -0.0983   -0.2541    0.0621   -0.4401   -0.1131    0.0016    0.0084   -0.0206
           6    0.1295   -0.0896   -0.1172    0.4864    0.0986   -0.0002   -0.0074   -0.0018
           7    0.4015   -0.1970    0.0110   -0.0990   -0.0912    0.0144    0.0687    0.1432
           8    0.2471   -0.1324   -0.3369   -0.0885    0.0014    0.0021   -0.0700   -0.2079
           9   -0.0280   -0.0188    0.0222    0.0584   -0.0533    0.0007    0.0076   -0.0009
          10   -0.3400   -0.1412   -0.2166    0.0378    0.0614    0.0025    0.0310    0.1453
          11    0.1604    0.4413    0.0955    0.1420   -0.0040    0.0008    0.0512    0.1993
          12   -0.0160    0.0205    0.0143   -0.1085   -0.0076    0.0001   -0.0022   -0.0084
          13    0.0086    0.0352    0.0297   -0.0331    0.1657    0.0507    0.1918   -0.0630
          14   -0.0121    0.0340   -0.0815   -0.0322    0.1717   -0.2170   -0.0424    0.0147
          15   -0.0467   -0.0249    0.0727    0.0167    0.1400    0.1277   -0.1445    0.0294
          16   -0.0248   -0.0651    0.0467    0.0330   -0.0713   -0.0037    0.0080   -0.0050
          17    0.0055    0.0779   -0.1440   -0.0860    0.1041    0.0065   -0.0061    0.0100
          18   -0.0411   -0.1697    0.1831    0.1522   -0.2464   -0.0161    0.0187   -0.0322
          19    0.0353   -0.0310   -0.0387    0.1098    0.0212   -0.0003   -0.0001    0.0046
          20    0.0733   -0.0497   -0.0050    0.2239    0.0521   -0.0013   -0.0050    0.0022
          21   -0.1315    0.1862    0.0644   -0.4044   -0.0983    0.0009    0.0087    0.0048
          22   -0.0543    0.0288    0.0105   -0.0260    0.0443   -0.0002   -0.0019    0.0190
          23   -0.0098   -0.0039   -0.0439    0.2322    0.0721   -0.0005    0.0003    0.0237
          24   -0.0435   -0.0874    0.0138   -0.1068    0.0246    0.0013   -0.0003    0.0043
          25    0.1512    0.3459    0.0405    0.0801    0.0100    0.0004   -0.0580   -0.2160
          26   -0.2838   -0.1095   -0.1697   -0.0346    0.0417    0.0012   -0.0716   -0.2522
          27    0.0391   -0.0680    0.0472   -0.0237   -0.0199   -0.0001    0.0740    0.2731
          28   -0.2606    0.1422    0.2096    0.0084    0.0198   -0.0230   -0.0898   -0.2288
          29   -0.3698    0.1562   -0.0124    0.1224   -0.0055    0.0168    0.0978    0.2635
          30    0.0317   -0.0022    0.0641   -0.0397    0.0129   -0.0202   -0.1069   -0.2817
          31   -0.2318    0.1520    0.1862    0.0356    0.0564   -0.0198   -0.0952   -0.2188
          32   -0.2847    0.2072   -0.0735    0.0466    0.1394    0.0213    0.0778    0.2919
          33   -0.0092    0.0110   -0.0713    0.0145    0.0171    0.0205    0.0975    0.2794
          34    0.1239    0.3502    0.0632    0.0650   -0.0162    0.0006   -0.0559   -0.2179
          35   -0.2161   -0.1615   -0.2212    0.1699    0.0838    0.0008   -0.0757   -0.2578
          36   -0.0203    0.0506   -0.0489    0.0594    0.0220    0.0001   -0.0698   -0.2579
          37   -0.0449    0.0567   -0.2026    0.0333   -0.2987    0.3649   -0.3745    0.1013
          38   -0.0161    0.0200   -0.0665    0.0038   -0.0448    0.0545   -0.1018    0.0273
          39   -0.0320    0.0953   -0.2457    0.0077   -0.1950    0.0155    0.5366   -0.1698
          40   -0.0003    0.0415   -0.0533   -0.0007   -0.1008   -0.0294   -0.0308    0.0127
          41   -0.0158    0.0484   -0.0591    0.0272   -0.2782    0.5706   -0.2333    0.0540
          42   -0.0031    0.1042   -0.1890    0.0097   -0.3351   -0.4414   -0.1313    0.0625
          43   -0.0638    0.0108   -0.0921    0.0631   -0.3256   -0.4979   -0.2384    0.0877
          44   -0.0556    0.0151   -0.0362    0.0600   -0.2729    0.1557    0.5025   -0.1702
          45   -0.0478    0.0024   -0.0192    0.0470   -0.1788   -0.0028    0.1501   -0.0521
          46   -0.0462    0.0883   -0.0343   -0.1189    0.0783    0.0040   -0.0047    0.0087
          47    0.0226   -0.0395    0.0222    0.0292   -0.0075   -0.0004   -0.0009    0.0007
          48   -0.0456    0.0451    0.0294   -0.0798    0.0168   -0.0004   -0.0017    0.0003
          49   -0.0316    0.1632   -0.0233   -0.1719   -0.0066    0.0022    0.0002    0.0026
          50   -0.0076    0.0271    0.0025   -0.0451    0.0048    0.0005   -0.0007   -0.0003
          51   -0.0044   -0.1167    0.0359    0.0604   -0.0253   -0.0022    0.0033   -0.0007


   Root No.      33        34        35        36        37        38        39        40

                33 A      34 A      35 A      36 A      37 A      38 A      39 A      40 A   

                1427.4    1495.1    1763.3    3032.6    3046.6    3078.6    3081.7    3088.2
  
           1    0.0385    0.4345   -0.0248    0.0000   -0.0002   -0.0009    0.0007    0.0025
           2   -0.0748    0.2591    0.0297    0.0000    0.0004   -0.0008   -0.0013   -0.0011
           3    0.1204    0.5178   -0.0851   -0.0008   -0.0022    0.0006    0.0008   -0.0020
           4    0.0033   -0.1064    0.0032    0.0075   -0.0135    0.0030   -0.0016    0.1517
           5   -0.1286   -0.0028    0.0462   -0.0061    0.0110   -0.0014    0.0005   -0.1280
           6    0.0403   -0.0090   -0.0607   -0.0088    0.0147   -0.0019    0.0008   -0.1891
           7   -0.2450    0.0120    0.0004   -0.0086   -0.0090    0.0029    0.0023    0.0089
           8    0.1802   -0.1162   -0.0096    0.0066    0.0074   -0.0028   -0.0001   -0.0095
           9   -0.0168   -0.0553    0.0067   -0.2269   -0.2048   -0.0024    0.0029   -0.0095
          10    0.2447   -0.0817    0.0010   -0.0006    0.0001    0.0001   -0.0001   -0.0023
          11    0.2112   -0.0866   -0.0107    0.0004   -0.0001   -0.0001   -0.0000   -0.0062
          12   -0.0110    0.0124    0.0059    0.2057   -0.2255   -0.0007    0.0006   -0.0287
          13   -0.0513   -0.2974    0.0108    0.0014    0.0018   -0.2055    0.1335    0.0047
          14   -0.0431   -0.2396    0.0051   -0.0001   -0.0005   -0.0517   -0.2561   -0.0008
          15   -0.0857   -0.3631    0.0263   -0.0007   -0.0006    0.2074    0.0689   -0.0031
          16   -0.0326   -0.0846   -0.6729    0.0002    0.0005   -0.0009   -0.0005   -0.0002
          17    0.0214    0.0333   -0.0089   -0.0012   -0.0012   -0.0002   -0.0002   -0.0010
          18   -0.0542   -0.1560    0.0107    0.0003    0.0004   -0.0012   -0.0012   -0.0005
          19    0.0192    0.0134    0.6757    0.0005   -0.0006    0.0001   -0.0001    0.0014
          20    0.0253    0.0391   -0.0040    0.0011   -0.0014    0.0001    0.0000   -0.0005
          21   -0.0310   -0.0557    0.0070   -0.0003    0.0006   -0.0003   -0.0001   -0.0018
[...]
 T-DIPOLE    0.0761         C  1 -- C  7          +8.7% ( 43.0%)     63.0%
 TRAVEL      0.1073         C  7 -- H 17          +8.6% ( 42.6%)      4.2%
 RED. MASS   0.5360         C  1 -- C  2          +8.1% ( 41.4%)      3.8%
 EFF. MASS   4.8655

 VIBRATION   25   25A         ATOM PAIR      ENERGY CONTRIBUTION    RADIAL
 FREQ.      1226.73         C  3 -- H 10         +16.7% ( 59.8%)      0.5%
 T-DIPOLE    0.0526         C  3 -- H 11         +13.7% ( 54.3%)      0.1%
 TRAVEL      0.0985         C  3 -- C  4         +13.2% ( 53.2%)     98.5%
 RED. MASS   0.9556         C  4 -- H  9          +9.3% ( 44.6%)      0.9%
 EFF. MASS   5.6712

 VIBRATION   26   26A         ATOM PAIR      ENERGY CONTRIBUTION    RADIAL
 FREQ.      1266.59         C  2 -- C  4         +12.2% ( 53.5%)     82.9%
 T-DIPOLE    0.1437         C  4 -- H 12         +12.1% ( 53.0%)      0.8%
 TRAVEL      0.0922         C  4 -- H  9         +11.2% ( 51.1%)      1.8%
 RED. MASS   0.8449         C  1 -- C  4          +8.0% ( 43.2%)     52.0%
 EFF. MASS   6.2561

 VIBRATION   27   27A         ATOM PAIR      ENERGY CONTRIBUTION    RADIAL
 FREQ.      1302.99         C  1 -- C  3         +15.9% ( 67.5%)     96.7%
 T-DIPOLE    0.0934         C  1 -- C  6         +12.6% ( 60.2%)     51.6%
 TRAVEL      0.0803         C  1 -- C  4         +11.1% ( 56.5%)     90.7%
 RED. MASS   2.0951         C  1 -- C  5         +10.1% ( 53.8%)     10.4%
 EFF. MASS   8.0318

 VIBRATION   28   28A         ATOM PAIR      ENERGY CONTRIBUTION    RADIAL
 FREQ.      1328.18         C  2 -- C  7         +19.2% ( 79.2%)     94.5%
 T-DIPOLE    0.2095         C  2 -- H  8         +11.8% ( 62.1%)      1.9%
 TRAVEL      0.0723         C  2 -- C  4         +11.2% ( 60.5%)     47.9%
 RED. MASS   2.9866         C  1 -- C  2         +10.6% ( 58.7%)      2.6%
 EFF. MASS   9.7209

 VIBRATION   29   29A         ATOM PAIR      ENERGY CONTRIBUTION    RADIAL
 FREQ.      1347.23         C  1 -- C  6         +12.6% ( 50.7%)     90.1%
 T-DIPOLE    0.0729         C  5 -- H 15         +11.4% ( 48.2%)      0.4%
 TRAVEL      0.0991         C  5 -- H 14         +10.4% ( 46.1%)      2.6%
 RED. MASS   0.6943         C  1 -- C  2          +8.8% ( 42.3%)     62.8%
 EFF. MASS   5.0932

 VIBRATION   30   30A         ATOM PAIR      ENERGY CONTRIBUTION    RADIAL
 FREQ.      1394.43         C  5 -- H 14         +52.0% ( 62.5%)      0.2%
 T-DIPOLE    0.0515         C  5 -- H 15         +27.5% ( 45.5%)      6.5%
 TRAVEL      0.1745         C  5 -- H 13         +14.3% ( 32.8%)     21.3%
 RED. MASS   0.4197         C  1 -- C  5          +5.3% ( 19.9%)      1.0%
 EFF. MASS   1.5874

 VIBRATION   31   31A         ATOM PAIR      ENERGY CONTRIBUTION    RADIAL
 FREQ.      1397.96         C  5 -- H 13         +41.3% ( 57.3%)      0.8%
 T-DIPOLE    0.0465         C  5 -- H 15         +31.7% ( 50.2%)      3.2%
 TRAVEL      0.1702         C  5 -- H 14          +7.7% ( 24.8%)     46.1%
 RED. MASS   0.3558         C  1 -- C  5          +4.6% ( 19.1%)      1.0%
 EFF. MASS   1.6658

 VIBRATION   32   32A         ATOM PAIR      ENERGY CONTRIBUTION    RADIAL
 FREQ.      1403.71         C  3 -- H 11         +18.3% ( 44.4%)      3.5%
 T-DIPOLE    0.0082         C  3 -- H 10         +17.5% ( 43.4%)      4.0%
 TRAVEL      0.1466         C  4 -- H  9         +16.4% ( 42.1%)      3.8%
 RED. MASS   0.2500         C  4 -- H 12         +16.0% ( 41.5%)      4.2%
 EFF. MASS   2.2360

 VIBRATION   33   33A         ATOM PAIR      ENERGY CONTRIBUTION    RADIAL
 FREQ.      1427.36         C  4 -- H  9         +14.5% ( 45.9%)      4.9%
 T-DIPOLE    0.0323         C  4 -- H 12         +14.1% ( 45.3%)      5.4%
 TRAVEL      0.1135         C  3 -- H 10         +13.1% ( 43.7%)      4.3%
 RED. MASS   0.3791         C  3 -- H 11         +12.3% ( 42.3%)      5.8%
 EFF. MASS   3.6689         C  3 -- C  4         +10.8% ( 39.6%)     99.5%

 VIBRATION   34   34A         ATOM PAIR      ENERGY CONTRIBUTION    RADIAL
 FREQ.      1495.12         C  1 -- C  5         +21.9% ( 87.1%)     99.4%
 T-DIPOLE    0.1933         C  1 -- C  6         +12.2% ( 64.9%)     40.9%
 TRAVEL      0.0650         C  1 -- C  3         +11.5% ( 63.0%)     22.7%
 RED. MASS   4.2479         C  1 -- C  4         +11.4% ( 62.7%)     57.9%
 EFF. MASS  10.6734         C  1 -- C  2         +11.2% ( 62.3%)     45.8%
                            C  1 -- C  7         +11.0% ( 61.6%)     65.8%

 VIBRATION   35   35A         ATOM PAIR      ENERGY CONTRIBUTION    RADIAL
 FREQ.      1763.29         C  6 -- C  7         +36.0% (102.0%)    100.0%
 T-DIPOLE    0.1128         C  1 -- C  7         +11.2% ( 57.0%)     62.6%
 TRAVEL      0.0564         C  2 -- C  6         +11.1% ( 56.5%)     61.2%
 RED. MASS   4.9726         C  2 -- C  7         +10.9% ( 56.1%)      0.2%
 EFF. MASS  12.0218         C  1 -- C  6         +10.9% ( 56.1%)      0.5%

 VIBRATION   36   36A         ATOM PAIR      ENERGY CONTRIBUTION    RADIAL
 FREQ.      3032.58         C  3 -- H 11         +30.2% ( 57.5%)     97.5%
 T-DIPOLE    0.0152         C  4 -- H 12         +22.7% ( 49.9%)     96.9%
 TRAVEL      0.1194         C  3 -- H 10         +22.7% ( 49.8%)     95.7%
 RED. MASS   0.2646         C  4 -- H  9         +20.6% ( 47.5%)     96.3%
 EFF. MASS   1.5599

 VIBRATION   37   37A         ATOM PAIR      ENERGY CONTRIBUTION    RADIAL
 FREQ.      3046.64         C  4 -- H 12         +27.5% ( 54.5%)     97.2%
 T-DIPOLE    0.0937         C  3 -- H 11         +25.7% ( 52.6%)     97.8%
 TRAVEL      0.1201         C  4 -- H  9         +24.9% ( 51.9%)     96.6%
 RED. MASS   0.2616         C  3 -- H 10         +17.9% ( 43.9%)     95.9%
 EFF. MASS   1.5347

 VIBRATION   38   38A         ATOM PAIR      ENERGY CONTRIBUTION    RADIAL
 FREQ.      3078.62         C  5 -- H 15         +49.7% ( 72.7%)     97.1%
 T-DIPOLE    0.0275         C  5 -- H 14         +48.2% ( 71.7%)     96.9%
 TRAVEL      0.1205         C  1 -- C  5          +1.0% ( 10.4%)      0.0%
 RED. MASS   0.5098         C  5 -- H 13          +1.0% ( 10.1%)      0.1%
 EFF. MASS   1.5084

 VIBRATION   39   39A         ATOM PAIR      ENERGY CONTRIBUTION    RADIAL
 FREQ.      3081.71         C  5 -- H 13         +62.9% ( 81.8%)     98.8%
 T-DIPOLE    0.0356         C  5 -- H 14         +18.6% ( 44.5%)     85.7%
 TRAVEL      0.1204         C  5 -- H 15         +17.4% ( 43.1%)     84.7%
 RED. MASS   0.4914         C  1 -- C  5          +1.0% ( 10.5%)      0.0%
 EFF. MASS   1.5104

 VIBRATION   40   40A         ATOM PAIR      ENERGY CONTRIBUTION    RADIAL
 FREQ.      3088.24         C  2 -- H  8         +92.6% ( 99.1%)    100.0%
 T-DIPOLE    0.2291         C  2 -- C  6          +1.1% ( 10.9%)     49.1%
 TRAVEL      0.1225         C  2 -- C  7          +1.1% ( 10.9%)     22.9%
 RED. MASS   0.8959         C  1 -- C  2          +1.1% ( 10.9%)     30.3%
 EFF. MASS   1.4556

 VIBRATION   41   41A         ATOM PAIR      ENERGY CONTRIBUTION    RADIAL
 FREQ.      3102.39         C  3 -- H 10         +54.1% ( 73.0%)     98.0%
 T-DIPOLE    0.0676         C  3 -- H 11         +38.5% ( 61.6%)     95.8%
 TRAVEL      0.1300         C  4 -- H  9          +2.4% ( 15.5%)     97.2%
 RED. MASS   0.4447         C  4 -- H 12          +2.3% ( 15.0%)     96.8%
 EFF. MASS   1.2858

 VIBRATION   42   42A         ATOM PAIR      ENERGY CONTRIBUTION    RADIAL
 FREQ.      3105.42         C  4 -- H  9         +48.8% ( 69.3%)     97.4%
 T-DIPOLE    0.0813         C  4 -- H 12         +44.3% ( 66.0%)     96.9%
 TRAVEL      0.1300         C  3 -- H 10          +2.6% ( 16.1%)     98.1%
 RED. MASS   0.4399         C  3 -- H 11          +1.9% ( 13.7%)     96.0%
 EFF. MASS   1.2849

 VIBRATION   43   43A         ATOM PAIR      ENERGY CONTRIBUTION    RADIAL
 FREQ.      3173.75         C  5 -- H 13         +35.6% ( 57.5%)     97.5%
 T-DIPOLE    0.0475         C  5 -- H 14         +32.2% ( 54.6%)     96.9%
 TRAVEL      0.1367         C  5 -- H 15         +31.9% ( 54.4%)     96.8%
 RED. MASS   0.3277         C  1 -- C  5          +0.3% (  5.3%)     99.8%
 EFF. MASS   1.1378

 VIBRATION   44   44A         ATOM PAIR      ENERGY CONTRIBUTION    RADIAL
 FREQ.      3193.20         C  6 -- H 16         +48.4% ( 71.2%)    100.0%
 T-DIPOLE    0.4596         C  7 -- H 17         +47.4% ( 70.5%)    100.0%
 TRAVEL      0.1201         C  6 -- C  7          +1.1% ( 10.6%)      0.0%
 RED. MASS   0.4649         C  2 -- C  6          +0.8% (  9.2%)     99.9%
 EFF. MASS   1.4649

 VIBRATION   45   45A         ATOM PAIR      ENERGY CONTRIBUTION    RADIAL
 FREQ.      3212.97         C  7 -- H 17         +46.8% ( 70.8%)     99.9%
 T-DIPOLE    0.3670         C  6 -- H 16         +45.9% ( 70.0%)     99.9%
 TRAVEL      0.1102         C  6 -- C  7          +3.0% ( 17.8%)    100.0%
 RED. MASS   0.4699         C  1 -- C  7          +1.1% ( 10.8%)     98.5%
 EFF. MASS   1.7291

      SYMMETRY NUMBER FOR POINT-GROUP C1  =  1


          SYSTEM IS A GROUND STATE



 InChI=1S/C7H10/c1-7-4-2-6(7)3-5-7/h2,4,6H,3,5H2,1H3


          MOLECULE IS NOT LINEAR

          THERE ARE 45 GENUINE VIBRATIONS IN THIS SYSTEM
          THIS THERMODYNAMICS CALCULATION IS LIMITED TO
          MOLECULES WHICH HAVE NO INTERNAL ROTATIONS




                    CALCULATED THERMODYNAMIC PROPERTIES
                                          *
   TEMP. (K)   PARTITION FUNCTION   H.O.F.    ENTHALPY  HEAT CAPACITY ENTROPY
                                   KCAL/MOL   CAL/MOLE    CAL/K/MOL  CAL/K/MOL


 298.00  VIB.     0.8850D+01                  2213.9899    18.9680    11.7625
         ROT.     0.1633D+06                   888.2813     2.9808    26.8339
         INT.     0.1445D+07                  3102.2712    21.9488    38.5964
         TRA.     0.8833D+27                  1480.4688     4.9680    39.5363
         TOT.                       47.175    4582.7401    26.9168    78.1326

 200.00  VIB.     0.2909D+01                   802.9197    10.1952     6.1368
         ROT.     0.8978D+05                   596.1620     2.9808    25.6452
         INT.     0.2612D+06                  1399.0817    13.1761    31.7820
         TRA.     0.4856D+27                   993.6033     4.9680    37.5551
         TOT.                       44.985    2392.6849    18.1441    69.3371

 210.00  VIB.     0.3223D+01                   908.7410    10.9744     6.6529
         ROT.     0.9660D+05                   625.9700     2.9808    25.7907
         INT.     0.3113D+06                  1534.7111    13.9553    32.4436
         TRA.     0.5225D+27                  1043.2834     4.9680    37.7975
         TOT.                       45.170    2577.9945    18.9233    70.2411

 220.00  VIB.     0.3580D+01                  1022.5162    11.7859     7.1821
         ROT.     0.1036D+06                   655.7781     2.9808    25.9293
         INT.     0.3708D+06                  1678.2943    14.7667    33.1114
         TRA.     0.5603D+27                  1092.9636     4.9680    38.0286
         TOT.                       45.363    2771.2579    19.7347    71.1400

 230.00  VIB.     0.3986D+01                  1144.5616    12.6282     7.7244
         ROT.     0.1107D+06                   685.5862     2.9808    26.0618
         INT.     0.4414D+06                  1830.1478    15.6090    33.7863
         TRA.     0.5989D+27                  1142.6437     4.9680    38.2495
         TOT.                       45.565    2972.7916    20.5770    72.0357

 240.00  VIB.     0.4451D+01                  1275.1764    13.4994     8.2802
         ROT.     0.1180D+06                   715.3943     2.9808    26.1887
         INT.     0.5253D+06                  1990.5708    16.4802    34.4689
         TRA.     0.6384D+27                  1192.3239     4.9680    38.4609
         TOT.                       45.775    3182.8947    21.4482    72.9298

 250.00  VIB.     0.4981D+01                  1414.6362    14.3967     8.8494
         ROT.     0.1255D+06                   745.2024     2.9808    26.3104
         INT.     0.6250D+06                  2159.8386    17.3775    35.1597
         TRA.     0.6787D+27                  1242.0041     4.9680    38.6637
         TOT.                       45.994    3401.8427    22.3455    73.8235

 260.00  VIB.     0.5589D+01                  1563.1879    15.3172     9.4319
         ROT.     0.1331D+06                   775.0105     2.9808    26.4273
         INT.     0.7438D+06                  2338.1985    18.2980    35.8592
         TRA.     0.7198D+27                  1291.6842     4.9680    38.8586
         TOT.                       46.222    3629.8827    23.2661    74.7177

 270.00  VIB.     0.6287D+01                  1721.0472    16.2577    10.0275
         ROT.     0.1408D+06                   804.8186     2.9808    26.5398
         INT.     0.8853D+06                  2525.8658    19.2385    36.5673
         TRA.     0.7618D+27                  1341.3644     4.9680    39.0461
         TOT.                       46.459    3867.2302    24.2065    75.6134

 280.00  VIB.     0.7088D+01                  1888.3961    17.2146    10.6361
         ROT.     0.1487D+06                   834.6267     2.9808    26.6482
         INT.     0.1054D+07                  2723.0228    20.1954    37.2842
         TRA.     0.8045D+27                  1391.0445     4.9680    39.2267
         TOT.                       46.706    4114.0674    25.1634    76.5110

 290.00  VIB.     0.8011D+01                  2065.3830    18.1847    11.2570
         ROT.     0.1568D+06                   864.4348     2.9808    26.7528
         INT.     0.1256D+07                  2929.8178    21.1655    38.0098
         TRA.     0.8479D+27                  1440.7247     4.9680    39.4011
         TOT.                       46.963    4370.5425    26.1335    77.4109

 300.00  VIB.     0.9075D+01                  2252.1224    19.1646    11.8900
         ROT.     0.1649D+06                   894.2429     2.9808    26.8538
         INT.     0.1497D+07                  3146.3653    22.1454    38.7438
         TRA.     0.8922D+27                  1490.4049     4.9680    39.5695
         TOT.                       47.229    4636.7702    27.1134    78.3133

 310.00  VIB.     0.1031D+02                  2448.6964    20.1511    12.5345
         ROT.     0.1733D+06                   924.0510     2.9808    26.9516
         INT.     0.1785D+07                  3372.7475    23.1319    39.4861
         TRA.     0.9372D+27                  1540.0850     4.9680    39.7324
         TOT.                       47.505    4912.8325    28.0999    79.2185

 320.00  VIB.     0.1173D+02                  2655.1560    21.1412    13.1899
         ROT.     0.1817D+06                   953.8591     2.9808    27.0462
         INT.     0.2131D+07                  3609.0151    24.1220    40.2361
         TRA.     0.9829D+27                  1589.7652     4.9680    39.8901
         TOT.                       47.791    5198.7803    29.0900    80.1262

 330.00  VIB.     0.1338D+02                  2871.5228    22.1321    13.8556
         ROT.     0.1903D+06                   983.6672     2.9808    27.1379
         INT.     0.2546D+07                  3855.1900    25.1129    40.9935
         TRA.     0.1029D+28                  1639.4454     4.9680    40.0430
         TOT.                       48.087    5494.6354    30.0809    81.0365

 340.00  VIB.     0.1529D+02                  3097.7919    23.1212    14.5310
         ROT.     0.1990D+06                  1013.4753     2.9808    27.2269
         INT.     0.3043D+07                  4111.2672    26.1020    41.7579
         TRA.     0.1076D+28                  1689.1255     4.9680    40.1913
         TOT.                       48.393    5800.3927    31.0700    81.9492

 350.00  VIB.     0.1752D+02                  3333.9335    24.1062    15.2154
         ROT.     0.2079D+06                  1043.2834     2.9808    27.3133
         INT.     0.3641D+07                  4377.2169    27.0871    42.5288
         TRA.     0.1124D+28                  1738.8057     4.9680    40.3353
         TOT.                       48.708    6116.0226    32.0551    82.8641

 360.00  VIB.     0.2011D+02                  3579.8960    25.0851    15.9083
         ROT.     0.2168D+06                  1073.0915     2.9808    27.3973
         INT.     0.4361D+07                  4652.9876    28.0659    43.3056
         TRA.     0.1173D+28                  1788.4859     4.9680    40.4753
         TOT.                       49.034    6441.4734    33.0339    83.7809

 370.00  VIB.     0.2313D+02                  3835.6081    26.0559    16.6088
         ROT.     0.2259D+06                  1102.8996     2.9808    27.4790
         INT.     0.5226D+07                  4938.5077    29.0367    44.0878
         TRA.     0.1222D+28                  1838.1660     4.9680    40.6114
         TOT.                       49.369    6776.6737    34.0047    84.6992

 380.00  VIB.     0.2666D+02                  4100.9810    27.0170    17.3165
         ROT.     0.2351D+06                  1132.7077     2.9808    27.5585
         INT.     0.6269D+07                  5233.6887    29.9978    44.8750
         TRA.     0.1272D+28                  1887.8462     4.9680    40.7439
         TOT.                       49.714    7121.5348    34.9658    85.6188

 390.00  VIB.     0.3079D+02                  4375.9110    27.9671    18.0306
         ROT.     0.2445D+06                  1162.5158     2.9808    27.6359
         INT.     0.7527D+07                  5538.4268    30.9479    45.6665
         TRA.     0.1322D+28                  1937.5263     4.9680    40.8729
         TOT.                       50.068    7475.9532    35.9159    86.5394

 400.00  VIB.     0.3561D+02                  4660.2817    28.9049    18.7505
         ROT.     0.2539D+06                  1192.3239     2.9808    27.7114
         INT.     0.9044D+07                  5852.6056    31.8858    46.4619
         TRA.     0.1374D+28                  1987.2065     4.9680    40.9987
         TOT.                       50.432    7839.8121    36.8538    87.4606

   *: NOTE: HEATS OF FORMATION ARE RELATIVE TO THE
            ELEMENTS IN THEIR STANDARD STATE AT 298K
              (=  Standard Enthalpy of Formation).

            Hvib:  Zero-point energy is not included.
                   frequencies of less than zero cm-1 are not included.
            Hrot = (3/2)RT
            Htra = (3/2)RT + pV = (5/2)RT

            Heat capacity is Cp, not Cv

          For more information, see: HTTP://OpenMOPAC.net/Manual/thermochemistry.html


           FORCE CONSTANT IN CARTESIAN COORDINATES (Millidynes/A)

    ATOM   CHEMICAL       X               Y               Z
   NUMBER   SYMBOL  FORCE CONSTANT  FORCE CONSTANT  FORCE CONSTANT

      1       C        7.641670        8.210915        8.838634
      2       C        7.164626        8.061810        8.596840
      3       C        7.749933        7.843836        8.677989
      4       C        7.745779        8.013750        8.655838
      5       C        8.415129        8.517184        8.618876
      6       C       15.000376        3.516603        7.921148
      7       C       14.998277        3.529426        8.041483
      8       H        1.995793        1.722377        2.806102
      9       H        1.496005        1.495377        3.622318
     10       H        1.461998        1.485031        3.669670
     11       H        1.442487        1.429945        3.725262
     12       H        1.427098        1.399306        3.782936
     13       H        0.891841        5.155649        0.678611
     14       H        5.059974        0.720207        0.908912
     15       H        0.803822        1.384779        4.535219
     16       H        3.164453        0.792915        2.623605
     17       H        3.183666        0.761539        2.641542

 **********************
 *                    *
 * JOB ENDED NORMALLY *
 *                    *
 **********************



 TOTAL JOB TIME:             4.99 SECONDS

 == MOPAC DONE ==
