 *******************************************************************************
 ** Site#: 14399        For non-commercial use only    Version 18.184L 64BITS **
 *******************************************************************************
 ** Cite this program as: MOPAC2016, Version: 18.184L, James J. P. Stewart,   **
 ** Stewart Computational Chemistry, web: HTTP://OpenMOPAC.net. Days left:  20**
 *******************************************************************************
 **                                                                           **
 **                                MOPAC2016                                  **
 **                                                                           **
 *******************************************************************************

                              PM3 CALCULATION RESULTS

 *******************************************************************************
 *  CALCULATION DONE:                                Thu Jun 13 15:59:34 2019  *
 *  PM3        - The PM3 Hamiltonian to be used
 *  PRECISE    - CRITERIA TO BE INCREASED BY 100 TIMES
 *  NOSYM      - POINT-GROUP SYMMETRY SET TO C1
 *  THREADS=1  - MULTI-THREADING NOT USED
 *  T=         - A TIME OF 172800.0 SECONDS REQUESTED
 *  DUMP=N     - RESTART FILE WRITTEN EVERY  7200.000 SECONDS
 *******************************************************************************
pm3  precise nosym THREADS=1
 InChI=1S/C10H10/c1-2-8-7-9-5-3-4-6-10(8)9/h2-3,5-8H,1,4H2

   ATOM   CHEMICAL          X               Y               Z
  NUMBER   SYMBOL      (ANGSTROMS)     (ANGSTROMS)     (ANGSTROMS)
 
     1       C          1.36280000  *   0.28690000  *  -0.05860000  *
     2       C         -2.43630000  *   0.39920000  *  -0.72680000  *
     3       C         -0.03500000  *   0.32830000  *  -0.35290000  *
     4       C         -0.24220000  *   0.24700000  *   1.09220000  *
     5       C          1.09820000  *   0.19940000  *   1.37560000  *
     6       C         -0.99880000  *   0.40320000  *  -1.25080000  *
     7       C          2.01560000  *  -0.96440000  *  -0.58880000  *
     8       C         -2.60100000  *   0.31140000  *   0.81080000  *
     9       C         -1.56720000  *   0.23920000  *   1.67730000  *
    10       C          3.11260000  *  -0.90990000  *  -1.34850000  *
    11       H          1.88290000  *   1.23130000  *  -0.33760000  *
    12       H         -2.93410000  *   1.32790000  *  -1.07580000  *
    13       H         -2.96810000  *  -0.46210000  *  -1.18210000  *
    14       H          1.69710000  *   0.13300000  *   2.27390000  *
    15       H          1.58590000  *  -1.93530000  *  -0.35370000  *
    16       H         -3.60730000  *   0.30770000  *   1.20980000  *
    17       H         -0.77770000  *   0.46450000  *  -2.30790000  *
    18       H         -1.71910000  *   0.17830000  *   2.74680000  *
    19       H          3.56990000  *   0.04030000  *  -1.60700000  *
    20       H          3.56150000  *  -1.82570000  *  -1.71890000  *
 


          CARTESIAN COORDINATES 

    NO.       ATOM           X           Y           Z

     1         C          1.3628      0.2869     -0.0586
     2         C         -2.4363      0.3992     -0.7268
     3         C         -0.0350      0.3283     -0.3529
     4         C         -0.2422      0.2470      1.0922
     5         C          1.0982      0.1994      1.3756
     6         C         -0.9988      0.4032     -1.2508
     7         C          2.0156     -0.9644     -0.5888
     8         C         -2.6010      0.3114      0.8108
     9         C         -1.5672      0.2392      1.6773
    10         C          3.1126     -0.9099     -1.3485
    11         H          1.8829      1.2313     -0.3376
    12         H         -2.9341      1.3279     -1.0758
    13         H         -2.9681     -0.4621     -1.1821
    14         H          1.6971      0.1330      2.2739
    15         H          1.5859     -1.9353     -0.3537
    16         H         -3.6073      0.3077      1.2098
    17         H         -0.7777      0.4645     -2.3079
    18         H         -1.7191      0.1783      2.7468
    19         H          3.5699      0.0403     -1.6070
    20         H          3.5615     -1.8257     -1.7189

  H: (PM3): J. J. P. STEWART, J. COMP. CHEM. 10, 209 (1989).
  C: (PM3): J. J. P. STEWART, J. COMP. CHEM. 10, 209 (1989).

           Empirical Formula: C10 H10  =    20 atoms



      MOLECULAR POINT GROUP   :   C1  


      RHF CALCULATION, NO. OF DOUBLY OCCUPIED LEVELS = 25


          Geometry optimization using EF

          DIAGONAL MATRIX USED AS START HESSIAN

 CYCLE:     1 TIME:   0.023 TIME LEFT:  2.00D  GRAD.:   221.576 HEAT:  112.2337
 CYCLE:     2 TIME:   0.039 TIME LEFT:  2.00D  GRAD.:   111.472 HEAT:  102.9919
 CYCLE:     3 TIME:   0.035 TIME LEFT:  2.00D  GRAD.:    75.419 HEAT:  101.3956
 CYCLE:     4 TIME:   0.027 TIME LEFT:  2.00D  GRAD.:    49.793 HEAT:  100.2955
 CYCLE:     5 TIME:   0.031 TIME LEFT:  2.00D  GRAD.:    52.028 HEAT:  99.79980
 CYCLE:     6 TIME:   0.020 TIME LEFT:  2.00D  GRAD.:    34.448 HEAT:  99.20100
 CYCLE:     7 TIME:   0.031 TIME LEFT:  2.00D  GRAD.:    36.483 HEAT:  98.93685
 CYCLE:     8 TIME:   0.020 TIME LEFT:  2.00D  GRAD.:    29.818 HEAT:  98.65505
 CYCLE:     9 TIME:   0.023 TIME LEFT:  2.00D  GRAD.:    34.424 HEAT:  98.41761
 CYCLE:    10 TIME:   0.023 TIME LEFT:  2.00D  GRAD.:    39.674 HEAT:  98.23304
 CYCLE:    11 TIME:   0.023 TIME LEFT:  2.00D  GRAD.:    31.861 HEAT:  98.03775
 CYCLE:    12 TIME:   0.031 TIME LEFT:  2.00D  GRAD.:    21.345 HEAT:  97.84939
 CYCLE:    13 TIME:   0.027 TIME LEFT:  2.00D  GRAD.:    12.543 HEAT:  97.76809
 CYCLE:    14 TIME:   0.020 TIME LEFT:  2.00D  GRAD.:    11.401 HEAT:  97.71676
 CYCLE:    15 TIME:   0.023 TIME LEFT:  2.00D  GRAD.:    10.140 HEAT:  97.65320
 CYCLE:    16 TIME:   0.023 TIME LEFT:  2.00D  GRAD.:    14.618 HEAT:  97.62426
 CYCLE:    17 TIME:   0.035 TIME LEFT:  2.00D  GRAD.:    15.036 HEAT:  97.59757
 CYCLE:    18 TIME:   0.020 TIME LEFT:  2.00D  GRAD.:    19.097 HEAT:  97.59364
 CYCLE:    19 TIME:   0.023 TIME LEFT:  2.00D  GRAD.:     6.334 HEAT:  97.52647
 CYCLE:    20 TIME:   0.023 TIME LEFT:  2.00D  GRAD.:     8.869 HEAT:  97.52597
 CYCLE:    21 TIME:   0.023 TIME LEFT:  2.00D  GRAD.:     3.571 HEAT:  97.49966
 CYCLE:    22 TIME:   0.023 TIME LEFT:  2.00D  GRAD.:     4.323 HEAT:  97.49325
 CYCLE:    23 TIME:   0.023 TIME LEFT:  2.00D  GRAD.:     3.116 HEAT:  97.48115
 CYCLE:    24 TIME:   0.023 TIME LEFT:  2.00D  GRAD.:     5.137 HEAT:  97.47625
 CYCLE:    25 TIME:   0.020 TIME LEFT:  2.00D  GRAD.:     3.238 HEAT:  97.46806
 CYCLE:    26 TIME:   0.023 TIME LEFT:  2.00D  GRAD.:     3.426 HEAT:  97.46396
 CYCLE:    27 TIME:   0.023 TIME LEFT:  2.00D  GRAD.:     2.738 HEAT:  97.45887
 CYCLE:    28 TIME:   0.023 TIME LEFT:  2.00D  GRAD.:     1.998 HEAT:  97.45378
 CYCLE:    29 TIME:   0.023 TIME LEFT:  2.00D  GRAD.:     1.786 HEAT:  97.44996
 CYCLE:    30 TIME:   0.023 TIME LEFT:  2.00D  GRAD.:     1.526 HEAT:  97.44780
 CYCLE:    31 TIME:   0.020 TIME LEFT:  2.00D  GRAD.:     1.388 HEAT:  97.44533
 CYCLE:    32 TIME:   0.023 TIME LEFT:  2.00D  GRAD.:     1.822 HEAT:  97.44194
 CYCLE:    33 TIME:   0.023 TIME LEFT:  2.00D  GRAD.:     1.421 HEAT:  97.43820
 CYCLE:    34 TIME:   0.023 TIME LEFT:  2.00D  GRAD.:     1.346 HEAT:  97.43402
 CYCLE:    35 TIME:   0.023 TIME LEFT:  2.00D  GRAD.:     2.137 HEAT:  97.42814
 CYCLE:    36 TIME:   0.023 TIME LEFT:  2.00D  GRAD.:     1.557 HEAT:  97.42420
 CYCLE:    37 TIME:   0.023 TIME LEFT:  2.00D  GRAD.:     1.027 HEAT:  97.42061
 CYCLE:    38 TIME:   0.023 TIME LEFT:  2.00D  GRAD.:     0.969 HEAT:  97.41714
 CYCLE:    39 TIME:   0.023 TIME LEFT:  2.00D  GRAD.:     1.032 HEAT:  97.41479
 CYCLE:    40 TIME:   0.020 TIME LEFT:  2.00D  GRAD.:     0.789 HEAT:  97.41249
 CYCLE:    41 TIME:   0.023 TIME LEFT:  2.00D  GRAD.:     0.641 HEAT:  97.41091
 CYCLE:    42 TIME:   0.023 TIME LEFT:  2.00D  GRAD.:     0.603 HEAT:  97.40976
 CYCLE:    43 TIME:   0.023 TIME LEFT:  2.00D  GRAD.:     0.494 HEAT:  97.40894
 CYCLE:    44 TIME:   0.023 TIME LEFT:  2.00D  GRAD.:     0.383 HEAT:  97.40847
 CYCLE:    45 TIME:   0.020 TIME LEFT:  2.00D  GRAD.:     0.330 HEAT:  97.40815
 CYCLE:    46 TIME:   0.023 TIME LEFT:  2.00D  GRAD.:     0.323 HEAT:  97.40787
 CYCLE:    47 TIME:   0.023 TIME LEFT:  2.00D  GRAD.:     0.323 HEAT:  97.40757
 CYCLE:    48 TIME:   0.023 TIME LEFT:  2.00D  GRAD.:     0.320 HEAT:  97.40731
 CYCLE:    49 TIME:   0.023 TIME LEFT:  2.00D  GRAD.:     0.310 HEAT:  97.40706
 CYCLE:    50 TIME:   0.023 TIME LEFT:  2.00D  GRAD.:     0.308 HEAT:  97.40679
 CYCLE:    51 TIME:   0.020 TIME LEFT:  2.00D  GRAD.:     0.247 HEAT:  97.40665
 CYCLE:    52 TIME:   0.027 TIME LEFT:  2.00D  GRAD.:     0.253 HEAT:  97.40649
 CYCLE:    53 TIME:   0.020 TIME LEFT:  2.00D  GRAD.:     0.159 HEAT:  97.40642
 CYCLE:    54 TIME:   0.023 TIME LEFT:  2.00D  GRAD.:     0.103 HEAT:  97.40633
 CYCLE:    55 TIME:   0.023 TIME LEFT:  2.00D  GRAD.:     0.098 HEAT:  97.40628
 CYCLE:    56 TIME:   0.023 TIME LEFT:  2.00D  GRAD.:     0.091 HEAT:  97.40624
 CYCLE:    57 TIME:   0.023 TIME LEFT:  2.00D  GRAD.:     0.107 HEAT:  97.40618
 CYCLE:    58 TIME:   0.020 TIME LEFT:  2.00D  GRAD.:     0.086 HEAT:  97.40616
 CYCLE:    59 TIME:   0.023 TIME LEFT:  2.00D  GRAD.:     0.100 HEAT:  97.40612
 CYCLE:    60 TIME:   0.023 TIME LEFT:  2.00D  GRAD.:     0.061 HEAT:  97.40611
 CYCLE:    61 TIME:   0.023 TIME LEFT:  2.00D  GRAD.:     0.088 HEAT:  97.40609
 CYCLE:    62 TIME:   0.023 TIME LEFT:  2.00D  GRAD.:     0.058 HEAT:  97.40608
 CYCLE:    63 TIME:   0.023 TIME LEFT:  2.00D  GRAD.:     0.072 HEAT:  97.40606
 CYCLE:    64 TIME:   0.023 TIME LEFT:  2.00D  GRAD.:     0.101 HEAT:  97.40604
 CYCLE:    65 TIME:   0.020 TIME LEFT:  2.00D  GRAD.:     0.112 HEAT:  97.40600
 CYCLE:    66 TIME:   0.023 TIME LEFT:  2.00D  GRAD.:     0.101 HEAT:  97.40590
 CYCLE:    67 TIME:   0.023 TIME LEFT:  2.00D  GRAD.:     0.097 HEAT:  97.40585
 CYCLE:    68 TIME:   0.023 TIME LEFT:  2.00D  GRAD.:     0.140 HEAT:  97.40576
 CYCLE:    69 TIME:   0.023 TIME LEFT:  2.00D  GRAD.:     0.218 HEAT:  97.40567
 CYCLE:    70 TIME:   0.023 TIME LEFT:  2.00D  GRAD.:     0.168 HEAT:  97.40559
 CYCLE:    71 TIME:   0.023 TIME LEFT:  2.00D  GRAD.:     0.752 HEAT:  97.40676
 CYCLE:    72 TIME:   0.023 TIME LEFT:  2.00D  GRAD.:     0.176 HEAT:  97.40526
 CYCLE:    73 TIME:   0.020 TIME LEFT:  2.00D  GRAD.:     0.165 HEAT:  97.40513
 CYCLE:    74 TIME:   0.023 TIME LEFT:  2.00D  GRAD.:     0.135 HEAT:  97.40482
 CYCLE:    75 TIME:   0.023 TIME LEFT:  2.00D  GRAD.:     0.155 HEAT:  97.40456
 CYCLE:    76 TIME:   0.023 TIME LEFT:  2.00D  GRAD.:     0.171 HEAT:  97.40411
 CYCLE:    77 TIME:   0.023 TIME LEFT:  2.00D  GRAD.:     0.149 HEAT:  97.40386
 CYCLE:    78 TIME:   0.211 TIME LEFT:  2.00D  GRAD.:     4.579 HEAT:  97.41099
 CYCLE:    79 TIME:   0.023 TIME LEFT:  2.00D  GRAD.:     0.136 HEAT:  97.40380
 CYCLE:    80 TIME:   0.023 TIME LEFT:  2.00D  GRAD.:     0.117 HEAT:  97.40377
 CYCLE:    81 TIME:   0.020 TIME LEFT:  2.00D  GRAD.:     0.068 HEAT:  97.40372
 CYCLE:    82 TIME:   0.023 TIME LEFT:  2.00D  GRAD.:     0.063 HEAT:  97.40370
 CYCLE:    83 TIME:   0.023 TIME LEFT:  2.00D  GRAD.:     0.054 HEAT:  97.40368
 CYCLE:    84 TIME:   0.023 TIME LEFT:  2.00D  GRAD.:     0.043 HEAT:  97.40367

     GRADIENT =  0.04252  IS LESS THAN CUTOFF =  0.05000



 -------------------------------------------------------------------------------
 pm3  precise nosym THREADS=1
 InChI=1S/C10H10/c1-2-8-7-9-5-3-4-6-10(8)9/h2-3,5-8H,1,4H2



     GEOMETRY OPTIMISED USING EIGENVECTOR FOLLOWING (EF).     
     SCF FIELD WAS ACHIEVED                                   


                              PM3 CALCULATION
                                                       MOPAC2016 (Version: 18.184L)
                                                       Thu Jun 13 15:59:36 2019
                                                       No. of days remaining =  20




          FINAL HEAT OF FORMATION =         97.40367 KCAL/MOL =     407.53697 KJ/MOL


          TOTAL ENERGY            =      -1335.50712 EV
          ELECTRONIC ENERGY       =      -6923.41086 EV  POINT GROUP:     C1  
          CORE-CORE REPULSION     =       5587.90375 EV
          COSMO AREA              =        179.54 SQUARE ANGSTROMS
          COSMO VOLUME            =        176.67 CUBIC ANGSTROMS

          GRADIENT NORM           =          0.04252 = 0.00951 PER ATOM
          IONIZATION POTENTIAL    =          8.588278 EV
          HOMO LUMO ENERGIES (EV) =         -8.588 -0.093
          NO. OF FILLED LEVELS    =         25
          MOLECULAR WEIGHT        =        130.1890

          MOLECULAR DIMENSIONS (Angstroms)

            Atom       Atom       Distance
            H    20    H    16     8.19912
            H    14    H    17     5.20696
            H    11    H    15     3.07893


          SCF CALCULATIONS        =         93
 
          WALL-CLOCK TIME         =          2.230 SECONDS
          COMPUTATION TIME        =          0.801 SECONDS




   ATOM   CHEMICAL          X               Y               Z
  NUMBER   SYMBOL      (ANGSTROMS)     (ANGSTROMS)     (ANGSTROMS)
 
     1       C          1.43348264  *   0.25131410  *  -0.10243399  *
     2       C         -2.46477303  *   0.41028673  *  -0.69239922  *
     3       C         -0.07906898  *   0.30912705  *  -0.33287608  *
     4       C         -0.27644816  *   0.24214542  *   1.13489828  *
     5       C          1.05088687  *   0.17566126  *   1.39903183  *
     6       C         -1.06239319  *   0.38507060  *  -1.21681315  *
     7       C          2.10415452  *  -0.96111824  *  -0.63061053  *
     8       C         -2.62059345  *   0.34847102  *   0.79415889  *
     9       C         -1.60558131  *   0.26948775  *   1.67263271  *
    10       C          3.20875362  *  -0.90669167  *  -1.36576975  *
    11       H          1.96336864  *   1.18744116  *  -0.37816362  *
    12       H         -2.96251284  *   1.33198315  *  -1.05835480  *
    13       H         -3.02462359  *  -0.43758147  *  -1.13837659  *
    14       H          1.67850182  *   0.09886696  *   2.27444383  *
    15       H          1.63341694  *  -1.91887278  *  -0.37885337  *
    16       H         -3.65643258  *   0.37157256  *   1.15237557  *
    17       H         -0.91389715  *   0.42991330  *  -2.29859620  *
    18       H         -1.75727178  *   0.22574685  *   2.75468719  *
    19       H          3.70154709  *   0.02368508  *  -1.63572034  *
    20       H          3.69891323  *  -1.79573675  *  -1.75060522  *

                             CARTESIAN COORDINATES

   1    C        1.433482641     0.251314099    -0.102433990
   2    C       -2.464773030     0.410286732    -0.692399223
   3    C       -0.079068981     0.309127051    -0.332876080
   4    C       -0.276448157     0.242145416     1.134898275
   5    C        1.050886873     0.175661258     1.399031832
   6    C       -1.062393189     0.385070603    -1.216813153
   7    C        2.104154521    -0.961118243    -0.630610531
   8    C       -2.620593452     0.348471024     0.794158891
   9    C       -1.605581307     0.269487751     1.672632706
  10    C        3.208753617    -0.906691674    -1.365769745
  11    H        1.963368640     1.187441161    -0.378163618
  12    H       -2.962512838     1.331983151    -1.058354796
  13    H       -3.024623593    -0.437581468    -1.138376588
  14    H        1.678501822     0.098866956     2.274443825
  15    H        1.633416943    -1.918872779    -0.378853373
  16    H       -3.656432584     0.371572557     1.152375571
  17    H       -0.913897148     0.429913299    -2.298596199
  18    H       -1.757271776     0.225746854     2.754687190
  19    H        3.701547086     0.023685079    -1.635720342
  20    H        3.698913234    -1.795736748    -1.750605222


           Empirical Formula: C10 H10  =    20 atoms



      MOLECULAR POINT GROUP   :   C1  


                  EIGENVALUES  
 -41.06373 -35.65145 -31.72663 -29.95333 -25.32766 -23.66644 -20.79483 -19.97187
 -19.12170 -17.70778 -16.68038 -15.87359 -15.56419 -15.10367 -14.75109 -14.08784
 -13.82368 -13.22132 -12.75190 -12.49470 -11.54723 -11.21057 -10.33135 -10.20318
  -8.58828  -0.09274   0.96734   1.11519   2.33869   2.98081   3.10072   3.26372
   3.33522   3.54213   3.68890   3.81103   3.96778   3.98131   4.16445   4.25410
   4.34963   4.53103   4.77938   5.10328   5.22703   5.58285   5.70909   5.85770
   6.02571   6.56637


              NET ATOMIC CHARGES AND DIPOLE CONTRIBUTIONS

  ATOM NO.   TYPE          CHARGE      No. of ELECS.   s-Pop       p-Pop       
    1          C           0.043374        3.9566     1.16261     2.79401
    2          C          -0.021830        4.0218     1.13526     2.88657
    3          C          -0.132063        4.1321     1.21198     2.92008
    4          C          -0.080687        4.0807     1.19005     2.89064
    5          C          -0.131102        4.1311     1.22038     2.91072
    6          C          -0.107722        4.1077     1.18185     2.92588
    7          C          -0.128234        4.1282     1.19135     2.93688
    8          C          -0.125312        4.1253     1.19886     2.92645
    9          C          -0.069687        4.0697     1.16377     2.90592
   10          C          -0.156021        4.1560     1.18311     2.97291
   11          H           0.079714        0.9203     0.92029
   12          H           0.062221        0.9378     0.93778
   13          H           0.062279        0.9377     0.93772
   14          H           0.129772        0.8702     0.87023
   15          H           0.104186        0.8958     0.89581
   16          H           0.095239        0.9048     0.90476
   17          H           0.108786        0.8912     0.89121
   18          H           0.107047        0.8930     0.89295
   19          H           0.080768        0.9192     0.91923
   20          H           0.079272        0.9207     0.92073
 DIPOLE           X         Y         Z       TOTAL
 POINT-CHG.    -0.368     0.040    -0.187     0.414
 HYBRID        -0.072    -0.020    -0.012     0.075
 SUM           -0.439     0.020    -0.199     0.483


          ATOMIC ORBITAL ELECTRON POPULATIONS

     Atom    s        px        py        pz   
    1  C   1.16261   0.90746   0.96258   0.92398
    2  C   1.13526   0.94872   1.00576   0.93209
    3  C   1.21198   0.95590   1.01182   0.95236
    4  C   1.19005   0.94062   1.00268   0.94734
    5  C   1.22038   0.93945   1.01123   0.96005
    6  C   1.18185   0.93668   1.01261   0.97659
    7  C   1.19135   0.97011   0.98220   0.98457
    8  C   1.19886   0.97962   0.99254   0.95428
    9  C   1.16377   0.91622   1.01494   0.97476
   10  C   1.18311   0.97175   1.01130   0.98986
   11  H   0.92029
   12  H   0.93778
   13  H   0.93772
   14  H   0.87023
   15  H   0.89581
   16  H   0.90476
   17  H   0.89121
   18  H   0.89295
   19  H   0.91923
   20  H   0.92073
 *******************************************************************************
 ** Site#: 14399        For non-commercial use only    Version 18.184L 64BITS **
 *******************************************************************************
 ** Cite this program as: MOPAC2016, Version: 18.184L, James J. P. Stewart,   **
 ** Stewart Computational Chemistry, web: HTTP://OpenMOPAC.net. Days left:  20**
 *******************************************************************************
 **                                                                           **
 **                                MOPAC2016                                  **
 **                                                                           **
 *******************************************************************************

                              PM3 CALCULATION RESULTS

 *******************************************************************************
 *  CALCULATION DONE:                                Thu Jun 13 15:59:36 2019  *
 *  PM3        - The PM3 Hamiltonian to be used
 *  OLDGEO     - PREVIOUS GEOMETRY TO BE USED
 *  PRECISE    - CRITERIA TO BE INCREASED BY 100 TIMES
 *  NOSYM      - POINT-GROUP SYMMETRY SET TO C1
 *  THREADS=1  - MULTI-THREADING NOT USED
 *  T=         - A TIME OF 172800.0 SECONDS REQUESTED
 *  DUMP=N     - RESTART FILE WRITTEN EVERY  7200.000 SECONDS
 *  THERMO     - THERMODYNAMIC QUANTITIES TO BE CALCULATED
 *******************************************************************************
oldgeo thermo nosym precise THREADS=1  pm3
 InChI=1S/C10H10/c1-2-8-7-9-5-3-4-6-10(8)9/h2-3,5-8H,1,4H2

   ATOM   CHEMICAL          X               Y               Z
  NUMBER   SYMBOL      (ANGSTROMS)     (ANGSTROMS)     (ANGSTROMS)
 
     1       C          1.43348264  *   0.25131410  *  -0.10243399  *
     2       C         -2.46477303  *   0.41028673  *  -0.69239922  *
     3       C         -0.07906898  *   0.30912705  *  -0.33287608  *
     4       C         -0.27644816  *   0.24214542  *   1.13489828  *
     5       C          1.05088687  *   0.17566126  *   1.39903183  *
     6       C         -1.06239319  *   0.38507060  *  -1.21681315  *
     7       C          2.10415452  *  -0.96111824  *  -0.63061053  *
     8       C         -2.62059345  *   0.34847102  *   0.79415889  *
     9       C         -1.60558131  *   0.26948775  *   1.67263271  *
    10       C          3.20875362  *  -0.90669167  *  -1.36576975  *
    11       H          1.96336864  *   1.18744116  *  -0.37816362  *
    12       H         -2.96251284  *   1.33198315  *  -1.05835480  *
    13       H         -3.02462359  *  -0.43758147  *  -1.13837659  *
    14       H          1.67850182  *   0.09886696  *   2.27444383  *
    15       H          1.63341694  *  -1.91887278  *  -0.37885337  *
    16       H         -3.65643258  *   0.37157256  *   1.15237557  *
    17       H         -0.91389715  *   0.42991330  *  -2.29859620  *
    18       H         -1.75727178  *   0.22574685  *   2.75468719  *
    19       H          3.70154709  *   0.02368508  *  -1.63572034  *
    20       H          3.69891323  *  -1.79573675  *  -1.75060522  *
 


          CARTESIAN COORDINATES 

    NO.       ATOM           X           Y           Z

     1         C          1.4335      0.2513     -0.1024
     2         C         -2.4648      0.4103     -0.6924
     3         C         -0.0791      0.3091     -0.3329
     4         C         -0.2764      0.2421      1.1349
     5         C          1.0509      0.1757      1.3990
     6         C         -1.0624      0.3851     -1.2168
     7         C          2.1042     -0.9611     -0.6306
     8         C         -2.6206      0.3485      0.7942
     9         C         -1.6056      0.2695      1.6726
    10         C          3.2088     -0.9067     -1.3658
    11         H          1.9634      1.1874     -0.3782
    12         H         -2.9625      1.3320     -1.0584
    13         H         -3.0246     -0.4376     -1.1384
    14         H          1.6785      0.0989      2.2744
    15         H          1.6334     -1.9189     -0.3789
    16         H         -3.6564      0.3716      1.1524
    17         H         -0.9139      0.4299     -2.2986
    18         H         -1.7573      0.2257      2.7547
    19         H          3.7015      0.0237     -1.6357
    20         H          3.6989     -1.7957     -1.7506

  H: (PM3): J. J. P. STEWART, J. COMP. CHEM. 10, 209 (1989).
  C: (PM3): J. J. P. STEWART, J. COMP. CHEM. 10, 209 (1989).

           Empirical Formula: C10 H10  =    20 atoms



      MOLECULAR POINT GROUP   :   C1  


      RHF CALCULATION, NO. OF DOUBLY OCCUPIED LEVELS = 25



          HEAT OF FORMATION =      97.403673 KCALS/MOLE


          CARTESIAN COORDINATE DERIVATIVES

   NUMBER  ATOM         X            Y            Z

     1       C      0.002071     0.002077     0.004356
     2       C     -0.011090     0.000944    -0.000589
     3       C     -0.003973    -0.002879     0.001996
     4       C      0.002561    -0.013305    -0.001111
     5       C      0.001567     0.000479     0.002875
     6       C     -0.006790     0.000717    -0.000614
     7       C      0.016273     0.001642     0.006323
     8       C     -0.001268     0.010127     0.003114
     9       C      0.004277    -0.010139     0.000305
    10       C     -0.001446     0.002086    -0.006650
    11       H      0.007205     0.000773     0.004077
    12       H     -0.005092     0.001224    -0.000996
    13       H     -0.007930    -0.001188    -0.001205
    14       H     -0.009436     0.005883     0.001351
    15       H     -0.013841     0.007622     0.005791
    16       H      0.006659     0.003220    -0.004068
    17       H      0.001266    -0.002437     0.000694
    18       H      0.010881    -0.005998     0.000450
    19       H      0.005188     0.001249    -0.008543
    20       H      0.002918    -0.002097    -0.007554
 


          GRADIENT NORM =   0.04464


          TIME FOR SCF CALCULATION =    0.02

          TIME FOR DERIVATIVES     =    0.01

          MOLECULAR WEIGHT =  130.19



          ROTATIONAL CONSTANTS IN CM(-1)

          A =    0.10729629   B =    0.03061600   C =    0.02515797



           PRINCIPAL MOMENTS OF INERTIA IN UNITS OF 10**(-40)*GRAM-CM**2

          A =      260.8923   B =      914.3186   C =     1112.6803


          ORIENTATION OF MOLECULE IN FORCE CALCULATION

    NO.       ATOM         X         Y         Z

     1          C      -1.4119   -0.1144   -0.4323
     2          C       2.5339   -0.1144   -0.4323
     3          C       0.1192   -0.1102   -0.4323
     4          C       0.0920   -0.5876    0.9710
     5          C      -1.2615   -0.5992    1.0336
     6          C       1.2258    0.1250   -1.1207
     7          C      -2.0444    1.2187   -0.5800
     8          C       2.4631   -0.6027    0.9800
     9          C       1.3258   -0.8326    1.6596
    10          C      -3.0236    1.4558   -1.4452
    11          H      -1.8565   -0.8757   -1.1075
    12          H       3.1175   -0.8471   -1.0270
    13          H       3.1195    0.8280   -0.4476
    14          H      -2.0155   -0.8367    1.7692
    15          H      -1.6556    2.0099    0.0720
    16          H       3.4338   -0.7731    1.4601
    17          H       1.2427    0.4811   -2.1538
    18          H       1.3121   -1.1899    2.6930
    19          H      -3.4326    0.6971   -2.1073
    20          H      -3.4861    2.4323   -1.5509


    FIRST DERIVATIVES WILL BE USED IN THE CALCULATION OF SECOND DERIVATIVES

          ESTIMATED TIME TO COMPLETE CALCULATION =        8.44 SECONDS

    FOR POINT-GROUP C1   THERE ARE   1 UNIQUE SYMMETRY FUNCTIONS.

 STEP:   1 TIME =     0.05 SECS, INTEGRAL =      0.05 TIME LEFT: 172799.91
 STEP:   2 TIME =     0.05 SECS, INTEGRAL =      0.10 TIME LEFT: 172799.87
 STEP:   3 TIME =     0.05 SECS, INTEGRAL =      0.14 TIME LEFT: 172799.82
 STEP:   4 TIME =     0.05 SECS, INTEGRAL =      0.19 TIME LEFT: 172799.77
 STEP:   5 TIME =     0.04 SECS, INTEGRAL =      0.23 TIME LEFT: 172799.73
 STEP:   6 TIME =     0.05 SECS, INTEGRAL =      0.28 TIME LEFT: 172799.68
 STEP:   7 TIME =     0.05 SECS, INTEGRAL =      0.33 TIME LEFT: 172799.64
 STEP:   8 TIME =     0.05 SECS, INTEGRAL =      0.38 TIME LEFT: 172799.59
 STEP:   9 TIME =     0.04 SECS, INTEGRAL =      0.42 TIME LEFT: 172799.55
 STEP:  10 TIME =     0.05 SECS, INTEGRAL =      0.46 TIME LEFT: 172799.50
 STEP:  11 TIME =     0.05 SECS, INTEGRAL =      0.51 TIME LEFT: 172799.45
 STEP:  12 TIME =     0.04 SECS, INTEGRAL =      0.55 TIME LEFT: 172799.41
 STEP:  13 TIME =     0.05 SECS, INTEGRAL =      0.61 TIME LEFT: 172799.36
 STEP:  14 TIME =     0.05 SECS, INTEGRAL =      0.65 TIME LEFT: 172799.31
 STEP:  15 TIME =     0.05 SECS, INTEGRAL =      0.70 TIME LEFT: 172799.27
 STEP:  16 TIME =     0.05 SECS, INTEGRAL =      0.75 TIME LEFT: 172799.22
 STEP:  17 TIME =     0.05 SECS, INTEGRAL =      0.79 TIME LEFT: 172799.17
 STEP:  18 TIME =     0.04 SECS, INTEGRAL =      0.84 TIME LEFT: 172799.13
 STEP:  19 TIME =     0.05 SECS, INTEGRAL =      0.88 TIME LEFT: 172799.08
 STEP:  20 TIME =     0.05 SECS, INTEGRAL =      0.93 TIME LEFT: 172799.04
 STEP:  21 TIME =     0.04 SECS, INTEGRAL =      0.97 TIME LEFT: 172798.99
 STEP:  22 TIME =     0.05 SECS, INTEGRAL =      1.02 TIME LEFT: 172798.95
 STEP:  23 TIME =     0.04 SECS, INTEGRAL =      1.06 TIME LEFT: 172798.90
 STEP:  24 TIME =     0.05 SECS, INTEGRAL =      1.11 TIME LEFT: 172798.86
 STEP:  25 TIME =     0.04 SECS, INTEGRAL =      1.15 TIME LEFT: 172798.81
 STEP:  26 TIME =     0.04 SECS, INTEGRAL =      1.20 TIME LEFT: 172798.77
 STEP:  27 TIME =     0.05 SECS, INTEGRAL =      1.24 TIME LEFT: 172798.72
 STEP:  28 TIME =     0.04 SECS, INTEGRAL =      1.29 TIME LEFT: 172798.68
 STEP:  29 TIME =     0.05 SECS, INTEGRAL =      1.33 TIME LEFT: 172798.63
 STEP:  30 TIME =     0.05 SECS, INTEGRAL =      1.38 TIME LEFT: 172798.59
 STEP:  31 TIME =     0.04 SECS, INTEGRAL =      1.42 TIME LEFT: 172798.54
 STEP:  32 TIME =     0.05 SECS, INTEGRAL =      1.47 TIME LEFT: 172798.50
 STEP:  33 TIME =     0.04 SECS, INTEGRAL =      1.51 TIME LEFT: 172798.45
 STEP:  34 TIME =     0.04 SECS, INTEGRAL =      1.55 TIME LEFT: 172798.41
 STEP:  35 TIME =     0.05 SECS, INTEGRAL =      1.60 TIME LEFT: 172798.36
 STEP:  36 TIME =     0.05 SECS, INTEGRAL =      1.65 TIME LEFT: 172798.32
 STEP:  37 TIME =     0.05 SECS, INTEGRAL =      1.70 TIME LEFT: 172798.27
 STEP:  38 TIME =     0.04 SECS, INTEGRAL =      1.74 TIME LEFT: 172798.23
 STEP:  39 TIME =     0.05 SECS, INTEGRAL =      1.79 TIME LEFT: 172798.18
 STEP:  40 TIME =     0.04 SECS, INTEGRAL =      1.83 TIME LEFT: 172798.14
 STEP:  41 TIME =     0.05 SECS, INTEGRAL =      1.88 TIME LEFT: 172798.09
 STEP:  42 TIME =     0.05 SECS, INTEGRAL =      1.92 TIME LEFT: 172798.04
 STEP:  43 TIME =     0.05 SECS, INTEGRAL =      1.97 TIME LEFT: 172798.00
 STEP:  44 TIME =     0.04 SECS, INTEGRAL =      2.01 TIME LEFT: 172797.95
 STEP:  45 TIME =     0.05 SECS, INTEGRAL =      2.06 TIME LEFT: 172797.91
 STEP:  46 TIME =     0.05 SECS, INTEGRAL =      2.11 TIME LEFT: 172797.86
 STEP:  47 TIME =     0.05 SECS, INTEGRAL =      2.15 TIME LEFT: 172797.81
 STEP:  48 TIME =     0.05 SECS, INTEGRAL =      2.20 TIME LEFT: 172797.77
 STEP:  49 TIME =     0.05 SECS, INTEGRAL =      2.25 TIME LEFT: 172797.72
 STEP:  50 TIME =     0.05 SECS, INTEGRAL =      2.29 TIME LEFT: 172797.67
 STEP:  51 TIME =     0.04 SECS, INTEGRAL =      2.34 TIME LEFT: 172797.63
 STEP:  52 TIME =     0.05 SECS, INTEGRAL =      2.38 TIME LEFT: 172797.58
 STEP:  53 TIME =     0.04 SECS, INTEGRAL =      2.43 TIME LEFT: 172797.54
 STEP:  54 TIME =     0.05 SECS, INTEGRAL =      2.47 TIME LEFT: 172797.49
 STEP:  55 TIME =     0.04 SECS, INTEGRAL =      2.52 TIME LEFT: 172797.45
 STEP:  56 TIME =     0.05 SECS, INTEGRAL =      2.56 TIME LEFT: 172797.40
 STEP:  57 TIME =     0.04 SECS, INTEGRAL =      2.61 TIME LEFT: 172797.36
 STEP:  58 TIME =     0.04 SECS, INTEGRAL =      2.65 TIME LEFT: 172797.32
 STEP:  59 TIME =     0.05 SECS, INTEGRAL =      2.70 TIME LEFT: 172797.27
 STEP:  60 TIME =     0.05 SECS, INTEGRAL =      2.74 TIME LEFT: 172797.22

(To convert to Hartree/Bohr^2, multiply by (10^(-21) x N x a0^2)/(4.184 x 627.51) =  0.0642)


           FORCE MATRIX IN MILLIDYNES/ANGSTROM


                  C  1       C  2       C  3       C  4       C  5       C  6
 ------------------------------------------------------------------------------
     C    1  14.752089
     C    2   0.136852  14.683151
     C    3   3.672958   0.993251  19.787635
     C    4   2.281753   0.209443   4.764318  20.360774
     C    5   3.145422   0.039090   2.440165   9.580365  17.624802
     C    6   0.351756   4.611577  10.914947   0.905233   0.073772  18.218739
     C    7   5.077268   0.014195   0.581692   0.050639   0.565106   0.018020
     C    8   0.021356   4.643988   0.088004   1.324893   0.128245   0.639503
     C    9   0.135864   0.760345   0.654892   6.208496   0.649015   0.029154
     C   10   0.863421   0.002663   0.034790   0.007604   0.034462   0.001929
     H   11   4.403244   0.012042   0.411982   0.041475   0.404301   0.012418
     H   12   0.016668   4.381190   0.038525   0.015673   0.004257   0.412141
     H   13   0.017070   4.380925   0.038933   0.015927   0.004277   0.412079
     H   14   0.315083   0.004227   0.105164   0.421395   5.329091   0.009581
     H   15   0.442456   0.000995   0.009969   0.003945   0.011307   0.002511
     H   16   0.010820   0.421641   0.006328   0.133011   0.007079   0.045936
     H   17   0.059582   0.424649   0.466615   0.120045   0.007221   4.913390
     H   18   0.008465   0.121666   0.036807   0.443049   0.007552   0.004412
     H   19   0.103064   0.001039   0.010414   0.001345   0.009574   0.001190
     H   20   0.143307   0.001140   0.017354   0.002040   0.016889   0.001571


                  C  7       C  8       C  9       C 10       H 11       H 12
 ------------------------------------------------------------------------------
     C    7  18.301005
     C    8   0.006700  17.689018
     C    9   0.023944  10.037634  18.372150
     C   10  11.057870   0.000835   0.004020  18.025504
     H   11   0.453858   0.002590   0.017921   0.046226   4.907848
     H   12   0.001046   0.414532   0.038350   0.000374   0.001545   4.964430
     H   13   0.001871   0.414299   0.038492   0.000568   0.001112   0.565437
     H   14   0.011828   0.006073   0.034140   0.002907   0.005492   0.000903
     H   15   4.811838   0.001847   0.002137   0.452292   0.037951   0.000429
     H   16   0.002788   4.811845   0.436944   0.000541   0.001656   0.030775
     H   17   0.007328   0.045551   0.006342   0.002131   0.006967   0.023867
     H   18   0.001693   0.446124   4.889795   0.000649   0.001152   0.015811
     H   19   0.490388   0.000553   0.000492   5.065437   0.028561   0.000103
     H   20   0.460858   0.000790   0.001399   5.106505   0.002090   0.000109


                  H 13       H 14       H 15       H 16       H 17       H 18
 ------------------------------------------------------------------------------
     H   13   4.964132
     H   14   0.000927   5.702766
     H   15   0.000394   0.003241   5.172328
     H   16   0.030481   0.001519   0.000397   5.181591
     H   17   0.023950   0.006859   0.000965   0.006624   5.296571
     H   18   0.015982   0.002882   0.000454   0.066454   0.001298   5.265698
     H   19   0.000138   0.001295   0.120281   0.000141   0.000631   0.000187
     H   20   0.000220   0.000734   0.081107   0.000168   0.000564   0.000151


                  H 19       H 20
 ------------------------------
     H   19   5.461342
     H   20   0.424079   5.493045


          HEAT OF FORMATION =      97.403673 KCALS/MOLE

          ZERO POINT ENERGY     103.848 KCAL/MOL


           NORMAL COORDINATE ANALYSIS (Total motion = 1 Angstrom)


   Root No.       1         2         3         4         5         6         7         8

                 1 A       2 A       3 A       4 A       5 A       6 A       7 A       8 A   

                  31.0     106.9     142.6     227.9     283.9     333.7     392.9     448.9
  
           1   -0.0161   -0.0036   -0.0086   -0.0028    0.0017    0.0045   -0.0165    0.0281
           2   -0.0120   -0.0238   -0.0139    0.0007   -0.0224    0.0398   -0.0096   -0.0113
           3    0.0274   -0.0185    0.0086    0.0120   -0.0034    0.0168    0.0086   -0.0225
           4   -0.0159   -0.0036   -0.0109   -0.0093   -0.0113   -0.0033    0.0133    0.0008
           5    0.0135   -0.0066    0.0501   -0.0224    0.0060    0.0041   -0.0036    0.0052
           6   -0.0152   -0.0035    0.0091   -0.0167   -0.0103   -0.0053    0.0060   -0.0194
           7   -0.0158   -0.0034   -0.0096   -0.0059   -0.0038    0.0003   -0.0043    0.0152
           8   -0.0038   -0.0263   -0.0405   -0.0049    0.0298    0.0275    0.0132    0.0115
           9    0.0103   -0.0156   -0.0057    0.0109    0.0246    0.0221    0.0187    0.0346
          10    0.0020   -0.0069   -0.0035   -0.0028   -0.0076   -0.0021    0.0159   -0.0178
          11   -0.0073   -0.0116   -0.0191   -0.0358    0.0441   -0.0131   -0.0024    0.0140
          12    0.0095   -0.0107    0.0016    0.0001    0.0287    0.0079    0.0117    0.0356
          13    0.0027   -0.0072   -0.0032   -0.0033   -0.0096   -0.0038    0.0143   -0.0221
          14   -0.0140   -0.0362    0.0193   -0.0131   -0.0400   -0.0363   -0.0205    0.0259
          15    0.0244   -0.0220    0.0197    0.0085   -0.0066   -0.0073    0.0124   -0.0025
          16   -0.0249   -0.0021   -0.0149   -0.0134   -0.0147   -0.0066    0.0025   -0.0042
          17    0.0062   -0.0311   -0.0115    0.0509    0.0121   -0.0405   -0.0159   -0.0047
          18   -0.0007   -0.0150   -0.0037    0.0191    0.0035   -0.0108    0.0178    0.0020
          19   -0.0193    0.0202    0.0374    0.0247    0.0303    0.0051   -0.0417    0.0124
          20   -0.0130   -0.0073    0.0045    0.0094   -0.0117    0.0413   -0.0210   -0.0236
          21    0.0318    0.0184   -0.0243   -0.0210   -0.0157    0.0029   -0.0495   -0.0092
          22    0.0023   -0.0068   -0.0032   -0.0016   -0.0070    0.0004    0.0313   -0.0131
          23    0.0083    0.0512    0.0077    0.0247   -0.0363    0.0253    0.0087    0.0281
          24   -0.0161    0.0163   -0.0051    0.0001   -0.0243    0.0023    0.0096   -0.0113
          25    0.0111   -0.0083    0.0011    0.0039   -0.0001    0.0047    0.0286   -0.0015
          26   -0.0015    0.0407   -0.0231   -0.0043    0.0305   -0.0205   -0.0153   -0.0344
          27   -0.0047    0.0102   -0.0079    0.0002    0.0112   -0.0048   -0.0025   -0.0081
          28    0.0682    0.0191    0.0134    0.0081    0.0166    0.0010   -0.0446    0.0039
          29    0.0194    0.0405    0.0082   -0.0076    0.0010   -0.0174    0.0614    0.0004
          30   -0.0584    0.0336    0.0043   -0.0069    0.0047   -0.0107   -0.0274    0.0097
          31   -0.0198   -0.0151   -0.0369   -0.0065    0.0224    0.0124    0.0023    0.0661
          32   -0.0127   -0.0033   -0.0194    0.0002   -0.0168    0.0569   -0.0293   -0.0200
          33    0.0307   -0.0324    0.0340    0.0142   -0.0221   -0.0103    0.0193   -0.0366
          34   -0.0167   -0.0047    0.0505   -0.0983   -0.0031    0.0270    0.0070   -0.0271
          35    0.0198   -0.0335    0.1087   -0.0993    0.0371    0.0122   -0.0112   -0.0352
          36   -0.0238    0.0285   -0.0020   -0.0110   -0.0399    0.0149    0.0087    0.0013
          37   -0.0231   -0.0013   -0.0760    0.0753   -0.0231   -0.0367    0.0109    0.0271
          38    0.0179   -0.0088    0.0916   -0.0771    0.0143    0.0250   -0.0026   -0.0129
          39   -0.0181   -0.0429    0.0479   -0.0758    0.0263   -0.0217   -0.0176   -0.0647
          40    0.0122   -0.0091   -0.0001   -0.0029   -0.0156   -0.0085    0.0257   -0.0552
          41   -0.0195   -0.0487    0.0609   -0.0035   -0.1158   -0.1062   -0.0585    0.0521
          42    0.0323   -0.0281    0.0363    0.0119   -0.0373   -0.0346    0.0121   -0.0280
          43   -0.0939    0.0421    0.0975    0.0688    0.0844    0.0057   -0.0077   -0.0120
          44   -0.0405   -0.0335    0.0176    0.0309   -0.0050    0.0691   -0.0156   -0.0449
          45    0.1096    0.0376   -0.0760   -0.0737   -0.0556   -0.0330   -0.0732    0.0325
          46    0.0086   -0.0077   -0.0002    0.0022   -0.0038    0.0032    0.0340   -0.0101
          47    0.0132    0.1004    0.0064    0.0729   -0.1090    0.0663    0.0279    0.0502
          48   -0.0270    0.0356   -0.0116    0.0098   -0.0563    0.0114    0.0112   -0.0086
          49   -0.0384    0.0002   -0.0227   -0.0244   -0.0297   -0.0177    0.0014   -0.0382
          50    0.0098   -0.0485   -0.0139    0.1235   -0.0159   -0.1041   -0.0434   -0.0407
          51    0.0003   -0.0209   -0.0046    0.0439   -0.0063   -0.0328    0.0081   -0.0108
          52    0.0246   -0.0105    0.0083    0.0143    0.0130    0.0150    0.0335    0.0299
          53   -0.0050    0.0776   -0.0511    0.0139    0.0397   -0.0418   -0.0370   -0.1103
          54   -0.0057    0.0228   -0.0175    0.0066    0.0146   -0.0120   -0.0097   -0.0338
          55    0.1435   -0.0038   -0.0466   -0.0342   -0.0389    0.0144   -0.1364    0.0254
          56    0.0469    0.0696   -0.0039   -0.0320   -0.0044   -0.0645    0.1169    0.0364
          57   -0.1364    0.0145    0.0552    0.0470    0.0454    0.0338   -0.0320   -0.0438
          58    0.0709    0.0411    0.0518    0.0348    0.0596   -0.0173    0.0452   -0.0264
          59    0.0204    0.0546    0.0236    0.0005    0.0190   -0.0332    0.1097   -0.0054
          60   -0.0604    0.0668   -0.0211   -0.0485   -0.0165   -0.0719    0.0073    0.0868


   Root No.       9        10        11        12        13        14        15        16

                 9 A      10 A      11 A      12 A      13 A      14 A      15 A      16 A   

                 466.3     541.5     617.9     666.4     679.9     761.9     829.7     842.3
  
           1   -0.0159   -0.0341   -0.0176   -0.0012   -0.0096    0.0009    0.0136   -0.0310
           2   -0.0216   -0.0126   -0.0010    0.0013   -0.0101    0.0002    0.0085   -0.0221
           3    0.0116    0.0077   -0.0179    0.0343   -0.0093   -0.0022    0.0057   -0.0170
           4   -0.0148    0.0668   -0.0158    0.0231   -0.0141   -0.0014   -0.0091    0.0227
           5   -0.0056    0.0033    0.0018    0.0015   -0.0165   -0.0295   -0.0302   -0.0099
           6    0.0155   -0.0044    0.0179   -0.0087    0.0119   -0.0099   -0.0032   -0.0204
           7   -0.0097   -0.0112   -0.0283    0.0079   -0.0258    0.0008    0.0005   -0.0083
           8    0.0389   -0.0038   -0.0320    0.0045    0.0610   -0.0151    0.0080    0.0102
           9   -0.0265    0.0005   -0.0112   -0.0075    0.0132   -0.0046    0.0026    0.0050
          10    0.0148   -0.0396    0.0074   -0.0079   -0.0035   -0.0002   -0.0054    0.0160
          11    0.0459    0.0182    0.0357    0.0019   -0.0283    0.0328    0.0010    0.0162
          12   -0.0229   -0.0028    0.0086   -0.0114   -0.0246    0.0133   -0.0050    0.0080
          13    0.0212   -0.0429    0.0027    0.0018   -0.0057   -0.0016   -0.0043    0.0188
          14    0.0041    0.0009   -0.0047   -0.0181    0.0085    0.0168   -0.0169   -0.0287
          15    0.0090    0.0055   -0.0112    0.0403    0.0017   -0.0014    0.0084   -0.0175
          16    0.0010    0.0301   -0.0202    0.0179   -0.0161   -0.0005   -0.0035    0.0053
          17    0.0073   -0.0134   -0.0020    0.0027   -0.0046    0.0017   -0.0176   -0.0030
          18   -0.0224    0.0481    0.0221   -0.0057    0.0162   -0.0001   -0.0091    0.0178
          19    0.0064   -0.0066    0.0198    0.0244    0.0212   -0.0018    0.0015   -0.0015
          20   -0.0178    0.0005    0.0258    0.0037   -0.0104   -0.0025   -0.0055    0.0173
          21    0.0117    0.0237   -0.0138   -0.0332   -0.0107    0.0026   -0.0023    0.0013
          22   -0.0090    0.0229    0.0389   -0.0297    0.0323    0.0021    0.0089   -0.0268
          23    0.0151    0.0101    0.0019    0.0029   -0.0134   -0.0088    0.0194    0.0037
          24    0.0244   -0.0156    0.0170   -0.0119    0.0093   -0.0023    0.0117   -0.0134
          25   -0.0160   -0.0078    0.0240   -0.0274    0.0088    0.0021   -0.0037    0.0012
          26   -0.0327    0.0146   -0.0004    0.0037    0.0034   -0.0255    0.0272   -0.0119
          27   -0.0099   -0.0623   -0.0093   -0.0112   -0.0272   -0.0073   -0.0101    0.0329
          28    0.0160    0.0104   -0.0018   -0.0052    0.0107    0.0007    0.0012   -0.0043
          29   -0.0075   -0.0084   -0.0027    0.0022   -0.0079   -0.0010   -0.0037    0.0133
          30    0.0070    0.0036    0.0016   -0.0012    0.0076    0.0009   -0.0007   -0.0008
          31   -0.0221   -0.0460   -0.0602   -0.0250    0.0206   -0.0081    0.0511   -0.0464
          32   -0.0360   -0.0065    0.0153   -0.0208   -0.0232   -0.0053    0.0139   -0.0037
          33    0.0331    0.0095   -0.0080    0.0750   -0.0140    0.0096   -0.0254   -0.0262
          34   -0.0442    0.0515   -0.0654    0.0395    0.0154    0.0822    0.0770    0.0682
          35   -0.0561   -0.0090   -0.0339    0.0042    0.0358    0.0637    0.0278    0.0315
          36    0.0471   -0.0064    0.0111    0.0038   -0.0202   -0.0377    0.0138   -0.0266
          37    0.0227    0.0832    0.0093    0.0297   -0.0661   -0.0862   -0.1033   -0.0045
          38   -0.0309   -0.0071   -0.0163   -0.0017    0.0177    0.0275    0.0304    0.0099
          39   -0.0220   -0.0286   -0.0332    0.0109    0.0407    0.0683    0.0160    0.0130
          40    0.0525   -0.0456    0.0033    0.0403   -0.0005   -0.0128    0.0022    0.0564
          41   -0.0352   -0.0017   -0.0694   -0.1019    0.0968   -0.1243    0.0614    0.1718
          42    0.0281    0.0028   -0.0317    0.0528    0.0352   -0.0584    0.0403    0.0854
          43    0.0490    0.0295   -0.0082   -0.0090    0.0301   -0.0048   -0.0073    0.0436
          44   -0.0153    0.0042    0.0106    0.0040   -0.0265   -0.0057    0.0039    0.0040
          45   -0.0165   -0.0032    0.0201   -0.0130    0.0039    0.0084   -0.0079   -0.0109
          46   -0.0114   -0.0037    0.0453   -0.0454    0.0316    0.0047    0.0041   -0.0230
          47    0.0255   -0.0160   -0.0438    0.0055    0.0802    0.2095   -0.0805    0.0648
          48    0.0319    0.0295   -0.0122    0.0200    0.0434    0.0702   -0.0145    0.0005
          49    0.0366    0.0332   -0.0108    0.0236   -0.0008   -0.0009    0.0013   -0.0105
          50   -0.0391   -0.0193    0.0112    0.0040   -0.0617    0.1308    0.1841    0.0176
          51   -0.0378    0.0451    0.0269   -0.0055   -0.0031    0.0443    0.0603    0.0248
          52   -0.0546   -0.0023    0.0142   -0.0374   -0.0129    0.0055   -0.0223    0.0255
          53   -0.1193   -0.0192   -0.0823    0.0209    0.1132    0.0722   -0.1471   -0.0500
          54   -0.0407   -0.0732   -0.0375   -0.0056    0.0103    0.0265   -0.0708    0.0205
          55   -0.0276   -0.0174    0.0881    0.0672    0.0410   -0.0085   -0.0189    0.0686
          56   -0.0184   -0.0416   -0.0049    0.0503    0.0096   -0.0027    0.0156   -0.0384
          57    0.0466    0.0579   -0.0529   -0.1001   -0.0306    0.0087   -0.0092    0.0100
          58    0.0711    0.0599   -0.1242   -0.1258   -0.0373    0.0155    0.0200   -0.0843
          59    0.0132    0.0051   -0.0534   -0.0373   -0.0238    0.0047    0.0081   -0.0303
          60   -0.0387   -0.0801    0.0740    0.1551    0.0761   -0.0108    0.0212   -0.0420


   Root No.      17        18        19        20        21        22        23        24

                17 A      18 A      19 A      20 A      21 A      22 A      23 A      24 A   

                 886.2     897.4     929.3     937.2     946.9     970.6    1005.4    1019.7
  
           1   -0.0309    0.0128    0.0004    0.0054   -0.0117    0.0059    0.0006    0.0226
           2   -0.0098    0.0057   -0.0227   -0.0077   -0.0011    0.0008    0.0004    0.0017
           3    0.0053   -0.0301   -0.0111   -0.0082    0.0063   -0.0023    0.0068    0.0314
           4    0.0145    0.0012   -0.0022   -0.0033    0.0056   -0.0397   -0.0009   -0.0189
           5   -0.0120    0.0026   -0.0092    0.0138    0.0221   -0.0126    0.0346   -0.0064
           6   -0.0135   -0.0053    0.0007    0.0061    0.0056    0.0371    0.0115    0.0032
           7   -0.0066   -0.0215    0.0122    0.0041   -0.0040   -0.0047   -0.0009    0.0141
           8    0.0272   -0.0001    0.0050    0.0029    0.0174    0.0053    0.0130   -0.0089
           9    0.0003    0.0120    0.0016    0.0059   -0.0008   -0.0173    0.0045    0.0143
          10    0.0056    0.0197   -0.0115   -0.0007   -0.0004   -0.0032    0.0027    0.0145
          11   -0.0341   -0.0074   -0.0134    0.0006    0.0080   -0.0023   -0.0133    0.0110
          12   -0.0040   -0.0243    0.0049   -0.0013    0.0057    0.0077   -0.0072   -0.0074
          13   -0.0013    0.0354   -0.0129    0.0014   -0.0040    0.0001    0.0027    0.0189
          14    0.0449    0.0252    0.0044    0.0070   -0.0077   -0.0034    0.0069   -0.0095
          15   -0.0239    0.0120    0.0265    0.0105   -0.0088    0.0080   -0.0057   -0.0355
          16    0.0041   -0.0089    0.0030   -0.0008    0.0012    0.0259   -0.0002    0.0039
          17   -0.0031   -0.0238    0.0144   -0.0195   -0.0299   -0.0081   -0.0345   -0.0035
          18    0.0000    0.0547   -0.0248   -0.0077   -0.0147    0.0232   -0.0061    0.0265
          19    0.0003    0.0077    0.0067   -0.0193    0.0133   -0.0010   -0.0005   -0.0021
          20   -0.0074   -0.0001    0.0089   -0.0061    0.0033   -0.0006   -0.0046   -0.0093
          21    0.0033   -0.0066   -0.0169    0.0151   -0.0120    0.0003   -0.0017   -0.0057
          22   -0.0059   -0.0275    0.0118    0.0014    0.0002   -0.0278   -0.0016   -0.0070
          23    0.0178    0.0115    0.0018    0.0021    0.0023    0.0165   -0.0475    0.0091
          24    0.0021   -0.0147    0.0095    0.0023    0.0008   -0.0487   -0.0175   -0.0052
          25    0.0111   -0.0158    0.0033   -0.0027    0.0045    0.0144   -0.0011   -0.0125
          26    0.0041    0.0031    0.0066   -0.0118   -0.0262    0.0047    0.0390    0.0020
          27    0.0343   -0.0048   -0.0027   -0.0110    0.0015   -0.0125    0.0126   -0.0258
          28    0.0051    0.0025   -0.0066   -0.0091    0.0071   -0.0014    0.0022   -0.0043
          29   -0.0040   -0.0003    0.0372    0.0149   -0.0031    0.0018    0.0057    0.0185
          30    0.0039    0.0012    0.0004    0.0075   -0.0051    0.0011   -0.0006    0.0032
          31   -0.0882    0.0591    0.0394    0.0715   -0.0353    0.0065    0.0101   -0.0368
          32   -0.0457    0.0064   -0.0617   -0.0197   -0.0047   -0.0046   -0.0275   -0.0895
          33    0.0819   -0.0606    0.0081   -0.0378    0.0254    0.0032    0.0312    0.1713
          34    0.0666   -0.0069    0.0205   -0.0206   -0.0093   -0.0302   -0.0934   -0.0326
          35    0.0178    0.0058    0.0034   -0.0262   -0.0387   -0.0411   -0.0233    0.0048
          36    0.0012   -0.0181    0.0090    0.0374    0.0634    0.0801   -0.0102   -0.0223
          37   -0.0240   -0.0150   -0.0121    0.0097    0.0298   -0.0285    0.0843   -0.0570
          38    0.0139    0.0125   -0.0025    0.0038    0.0049   -0.0178   -0.0203    0.0162
          39   -0.0052   -0.0392    0.0296   -0.0448   -0.0711    0.0892   -0.0185   -0.0170
          40   -0.0465    0.1118   -0.0062    0.0163   -0.0177   -0.0111   -0.0164   -0.0712
          41   -0.1216   -0.1281   -0.0551   -0.0367    0.0460    0.0025   -0.0110    0.0803
          42   -0.1234    0.0373    0.0156    0.0115   -0.0050   -0.0013   -0.0315   -0.1015
          43    0.0555   -0.0567   -0.0498    0.1439   -0.0783    0.0064    0.0106   -0.0076
          44   -0.0143   -0.0401   -0.0787    0.0196   -0.0283    0.0000   -0.0160   -0.0136
          45   -0.0211    0.0803    0.1219   -0.1138    0.0812   -0.0050    0.0057    0.0031
          46    0.0045   -0.0375    0.0117   -0.0017    0.0042    0.0149   -0.0010   -0.0160
          47   -0.0870   -0.0440   -0.0198   -0.0466   -0.0527    0.0447    0.1796   -0.0242
          48   -0.0545   -0.0181    0.0036   -0.0093   -0.0258   -0.1229    0.0614   -0.0030
          49    0.0117   -0.0545    0.0170   -0.0091    0.0144    0.2212   -0.0040   -0.0319
          50    0.0301    0.0000   -0.0109    0.0893    0.1450   -0.0093    0.0913   -0.0221
          51    0.0112    0.0639   -0.0341    0.0297    0.0454    0.0254    0.0373    0.0210
          52    0.0478   -0.0494    0.0108   -0.0146    0.0234    0.1888   -0.0114   -0.0871
          53   -0.0659    0.0105   -0.0231    0.0843    0.1230    0.0015   -0.1451    0.0314
          54    0.0114   -0.0035   -0.0126    0.0219    0.0537   -0.0137   -0.0513   -0.0182
          55    0.0337   -0.0410    0.0417    0.1333   -0.0689    0.0105    0.0074    0.0416
          56    0.0028   -0.0247   -0.1105   -0.0107   -0.0130   -0.0022   -0.0160   -0.0313
          57   -0.0214    0.0558    0.1338   -0.0537    0.0539   -0.0019    0.0205    0.0304
          58   -0.0102    0.0239   -0.1228   -0.0469   -0.0029   -0.0019   -0.0238   -0.0478
          59   -0.0098    0.0061   -0.0347   -0.0125   -0.0034    0.0002   -0.0074   -0.0084
          60    0.0251   -0.0287   -0.1335   -0.0698    0.0350   -0.0112   -0.0032   -0.0501


   Root No.      25        26        27        28        29        30        31        32

                25 A      26 A      27 A      28 A      29 A      30 A      31 A      32 A   

                1028.0    1061.4    1063.6    1090.1    1132.9    1143.0    1163.3    1169.3
  
           1    0.0016   -0.0002   -0.0088   -0.0209    0.0286   -0.0208    0.0204    0.0116
           2    0.0014   -0.0010   -0.0036   -0.0102    0.0092   -0.0004    0.0374   -0.0295
           3   -0.0070   -0.0020   -0.0021   -0.0056   -0.0403    0.0497    0.0031   -0.0146
           4    0.0039   -0.0012    0.0015   -0.0248    0.0006    0.0011    0.0094    0.0048
           5    0.0034    0.0008   -0.0065    0.0003    0.0007   -0.0007   -0.0013   -0.0009
           6   -0.0009    0.0036    0.0207    0.0022   -0.0007    0.0004    0.0028    0.0021
           7   -0.0042    0.0037    0.0117    0.0496   -0.0045   -0.0007   -0.0131   -0.0068
           8    0.0085   -0.0072   -0.0045   -0.0034    0.0096   -0.0102   -0.0007    0.0068
           9   -0.0015    0.0030    0.0270    0.0364   -0.0047   -0.0049   -0.0253   -0.0127
          10   -0.0024    0.0004    0.0063   -0.0131   -0.0065    0.0028   -0.0156   -0.0083
          11   -0.0014   -0.0026   -0.0019   -0.0037   -0.0056    0.0040    0.0093    0.0004
          12    0.0021   -0.0000    0.0022    0.0024    0.0144   -0.0032   -0.0111   -0.0083
          13   -0.0020    0.0014    0.0107   -0.0181    0.0077   -0.0058   -0.0227   -0.0113
          14   -0.0071    0.0019    0.0078    0.0132   -0.0085    0.0123   -0.0084    0.0013
          15    0.0046   -0.0021   -0.0211   -0.0309    0.0136   -0.0405   -0.0116   -0.0024
          16   -0.0015   -0.0013   -0.0180    0.0272   -0.0049   -0.0035    0.0013    0.0017
          17   -0.0028    0.0329    0.0017   -0.0026   -0.0012    0.0032   -0.0000   -0.0026
          18   -0.0039    0.0088   -0.0180   -0.0044   -0.0036    0.0010    0.0084    0.0039
          19    0.0307   -0.0013    0.0002   -0.0004   -0.0094    0.0081   -0.0067    0.0028
          20    0.0114    0.0004    0.0026    0.0071   -0.0009   -0.0045   -0.0127    0.0153
          21   -0.0312    0.0017    0.0012    0.0038    0.0108   -0.0123   -0.0032    0.0114
          22    0.0013   -0.0009   -0.0076    0.0092   -0.0017   -0.0027    0.0033    0.0014
          23   -0.0043   -0.0369    0.0069   -0.0017   -0.0030   -0.0017   -0.0035   -0.0024
          24    0.0009   -0.0146   -0.0126    0.0044    0.0085    0.0056    0.0107    0.0064
          25    0.0012   -0.0002    0.0017   -0.0053   -0.0050   -0.0028   -0.0021   -0.0021
          26    0.0006    0.0139    0.0092    0.0031    0.0032    0.0005   -0.0057   -0.0023
          27    0.0044   -0.0006   -0.0279   -0.0072   -0.0088   -0.0022    0.0152    0.0077
          28   -0.0492    0.0008   -0.0001   -0.0002    0.0039   -0.0023    0.0006    0.0099
          29   -0.0196   -0.0000   -0.0027   -0.0059   -0.0003    0.0029   -0.0002    0.0061
          30    0.0510   -0.0014   -0.0004   -0.0021   -0.0054    0.0068   -0.0024    0.0105
          31   -0.0603   -0.0146   -0.0443   -0.1043   -0.1426    0.1786    0.0385    0.0976
          32   -0.0137    0.0035    0.0006    0.0072   -0.0293   -0.0131   -0.0633   -0.1706
          33    0.0509    0.0025    0.0168    0.0310    0.1166   -0.0701    0.1031    0.0836
          34    0.0048    0.1695    0.0587   -0.0776   -0.0407   -0.0321    0.0160    0.0054
          35   -0.0031   -0.1069   -0.0529    0.0103    0.0224    0.0193    0.0059    0.0038
          36    0.0075    0.3040    0.1372   -0.0603   -0.0658   -0.0553   -0.0011   -0.0037
          37    0.0077   -0.1580    0.0852   -0.0686   -0.0372   -0.0351    0.0147    0.0043
          38    0.0009    0.0933   -0.0580    0.0256    0.0218    0.0199   -0.0037   -0.0002
          39   -0.0128   -0.2668    0.1805   -0.0464   -0.0630   -0.0560   -0.0040   -0.0068
          40   -0.0020    0.0132    0.0633    0.1849    0.0257    0.0675    0.0689    0.0265
          41    0.0102   -0.0078   -0.0105   -0.0581   -0.0049   -0.0080   -0.0085   -0.0178
          42    0.0105    0.0066    0.0253    0.1548    0.0324    0.0277    0.0831    0.0307
          43   -0.0859    0.0013   -0.0014   -0.0024    0.0255   -0.0204    0.1008   -0.2187
          44   -0.0322    0.0041    0.0023    0.0071    0.0063   -0.0138   -0.1032    0.2424
          45    0.0912   -0.0045    0.0024    0.0048   -0.0189    0.0166    0.0445   -0.1340
          46    0.0007   -0.0049   -0.0423    0.0486   -0.1004   -0.0793    0.0735    0.0383
          47    0.0086    0.0607   -0.0209    0.0233   -0.0627   -0.0487    0.0381    0.0197
          48    0.0070    0.0283    0.0496   -0.0667    0.1832    0.1412   -0.1116   -0.0581
          49    0.0025   -0.0211   -0.1707    0.0419    0.0309    0.0382   -0.1244   -0.0736
          50    0.0166   -0.0522    0.0165    0.0149    0.0099   -0.0129   -0.0126    0.0033
          51    0.0027   -0.0204   -0.0122    0.0011   -0.0004   -0.0044    0.0030    0.0052
          52    0.0078    0.0073    0.0801   -0.0531    0.1575    0.1686    0.0908    0.0564
          53   -0.0065   -0.0197    0.0096    0.0019    0.0017   -0.0006   -0.0052   -0.0042
          54    0.0024   -0.0124   -0.0287   -0.0089   -0.0066    0.0000    0.0173    0.0081
          55    0.1636   -0.0050   -0.0055   -0.0164   -0.0193    0.0301    0.0124    0.0075
          56    0.0626    0.0004    0.0052    0.0119   -0.0010   -0.0081   -0.0204    0.0079
          57   -0.1744    0.0017   -0.0060   -0.0124    0.0095    0.0002    0.0138    0.0144
          58    0.2057   -0.0031    0.0059    0.0096   -0.0031    0.0017    0.0082    0.0098
          59    0.0735   -0.0012    0.0010    0.0008   -0.0021    0.0029    0.0031    0.0079
          60   -0.2033    0.0039    0.0056    0.0134    0.0075   -0.0051    0.0107    0.0123


   Root No.      33        34        35        36        37        38        39        40

                33 A      34 A      35 A      36 A      37 A      38 A      39 A      40 A   

                1193.9    1209.1    1306.3    1315.1    1368.0    1373.5    1404.6    1442.7
  
           1    0.0048   -0.0242   -0.0220   -0.0158    0.0018    0.0084   -0.0615   -0.0370
           2    0.0103   -0.0179    0.0192    0.0092   -0.0059   -0.0140    0.0686    0.0236
           3   -0.0093   -0.0144   -0.0121   -0.0110    0.0039    0.0087   -0.0347   -0.0074
           4    0.0044   -0.0068   -0.0060    0.0037   -0.0496    0.0509    0.0135   -0.0443
           5    0.0042   -0.0025    0.0021   -0.0030   -0.0110   -0.0225   -0.0120    0.0212
           6   -0.0125    0.0066   -0.0057    0.0088    0.0319    0.0647    0.0358   -0.0606
           7   -0.0183    0.0196    0.0074    0.0080    0.0041   -0.0234    0.0110   -0.0060
           8   -0.0072   -0.0026    0.0003   -0.0111    0.0074    0.0114   -0.0143    0.0119
           9    0.0069    0.0052   -0.0095    0.0291   -0.0200   -0.0297    0.0199   -0.0433
          10   -0.0010    0.0051   -0.0015    0.0063   -0.0027   -0.0048    0.0033   -0.0167
          11   -0.0055    0.0018    0.0004    0.0030   -0.0038   -0.0238    0.0045   -0.0284
          12    0.0216   -0.0086    0.0026   -0.0075    0.0103    0.0681   -0.0034    0.0874
          13   -0.0018    0.0100   -0.0080    0.0215   -0.0116    0.0254    0.0075    0.0569
          14    0.0001   -0.0066   -0.0059   -0.0035    0.0010    0.0070   -0.0116   -0.0002
          15   -0.0190    0.0198    0.0099    0.0067   -0.0007   -0.0160    0.0145   -0.0059
          16   -0.0266    0.0195    0.0236   -0.0189    0.0243   -0.0104   -0.0008    0.0518
          17    0.0031    0.0001   -0.0008    0.0041   -0.0018    0.0089    0.0076   -0.0051
          18   -0.0057   -0.0008    0.0039   -0.0111    0.0047   -0.0264   -0.0183    0.0159
          19   -0.0044   -0.0027   -0.0114   -0.0095   -0.0015   -0.0027    0.0128    0.0050
          20    0.0144    0.0555   -0.0071   -0.0002    0.0043    0.0103   -0.0464   -0.0154
          21    0.0046    0.0134   -0.0138   -0.0093   -0.0005   -0.0015   -0.0037   -0.0049
          22    0.0059   -0.0043    0.0027   -0.0054   -0.0004   -0.0163   -0.0083    0.0111
          23    0.0030   -0.0003    0.0060   -0.0071    0.0081    0.0064    0.0060   -0.0151
          24   -0.0084    0.0009   -0.0172    0.0207   -0.0235   -0.0183   -0.0173    0.0437
          25    0.0090   -0.0031    0.0228   -0.0277    0.0258   -0.0046    0.0132   -0.0423
          26   -0.0005    0.0017   -0.0039    0.0055   -0.0014    0.0077   -0.0004    0.0117
          27    0.0012   -0.0047    0.0109   -0.0156    0.0037   -0.0225    0.0017   -0.0332
          28   -0.0003   -0.0109    0.0001   -0.0024   -0.0025   -0.0061    0.0301    0.0111
          29   -0.0065   -0.0216    0.0021    0.0010   -0.0000    0.0001   -0.0022   -0.0015
          30   -0.0039   -0.0169    0.0009   -0.0020   -0.0023   -0.0054    0.0283    0.0110
          31    0.0853    0.1123    0.0193    0.0019   -0.0028    0.0039    0.0693    0.0484
          32   -0.1238   -0.1331   -0.0226   -0.0110    0.0060    0.0177   -0.0767   -0.0214
          33    0.0862    0.0272    0.0059    0.0001   -0.0070   -0.0260    0.0413   -0.0158
          34    0.0565   -0.0414   -0.0670    0.0636    0.1593   -0.0838   -0.0194    0.0387
          35   -0.0047   -0.0035   -0.0604    0.0694    0.1855   -0.0004    0.0263   -0.0097
          36    0.0463   -0.0229    0.0236   -0.0349   -0.0439   -0.0879   -0.0459    0.0568
          37    0.0555   -0.0429   -0.0663    0.0636    0.1589   -0.0838   -0.0173    0.0395
          38   -0.0247    0.0176    0.0328   -0.0332   -0.1190    0.0548    0.0073   -0.0278
          39    0.0389   -0.0168    0.0564   -0.0702   -0.1493   -0.0688   -0.0511    0.0510
          40    0.0645   -0.0697   -0.0145   -0.0240    0.0067    0.0470   -0.0269    0.0357
          41   -0.0088    0.0161    0.0007    0.0138   -0.0068   -0.0024    0.0127    0.0127
          42    0.0452   -0.0544    0.0077   -0.0373    0.0179    0.0000   -0.0127   -0.0305
          43    0.0367    0.1010   -0.0214   -0.0097    0.0035    0.0094   -0.0477   -0.0188
          44   -0.0178   -0.0515    0.0009   -0.0013   -0.0014   -0.0045    0.0110    0.0010
          45    0.0215    0.0869   -0.0200   -0.0093    0.0037    0.0099   -0.0417   -0.0128
          46   -0.0205   -0.0073   -0.0483    0.0514   -0.0503    0.0135   -0.0186    0.0494
          47   -0.0136   -0.0018   -0.0250    0.0277   -0.0214    0.0256    0.0003    0.0077
          48    0.0390    0.0050    0.0729   -0.0807    0.0626   -0.0740   -0.0010   -0.0230
          49    0.1713   -0.0718   -0.0562    0.0701   -0.0835   -0.0666   -0.0042   -0.0532
          50   -0.0028    0.0017   -0.0032    0.0025   -0.0008    0.0107    0.0008   -0.0065
          51   -0.0055   -0.0016    0.0015   -0.0104    0.0040   -0.0287   -0.0216    0.0113
          52   -0.1236    0.0352   -0.0670    0.0834   -0.0684   -0.0826   -0.0310    0.0228
          53    0.0005    0.0014   -0.0035    0.0052   -0.0007    0.0090   -0.0003    0.0114
          54    0.0006   -0.0051    0.0111   -0.0164    0.0031   -0.0247    0.0006   -0.0336
          55   -0.0126   -0.0784    0.1248    0.0928    0.0101    0.0215   -0.0639   -0.0132
          56    0.0040    0.0539   -0.1231   -0.0950   -0.0122   -0.0261    0.0934    0.0263
          57   -0.0061   -0.0610    0.0778    0.0571    0.0047    0.0096   -0.0291   -0.0072
          58    0.0255    0.0350    0.1061    0.0845    0.0120    0.0254   -0.0882   -0.0239
          59    0.0090    0.0085    0.0573    0.0469    0.0081    0.0180   -0.0707   -0.0222
          60    0.0279    0.0369    0.1228    0.0982    0.0148    0.0319   -0.1103   -0.0284


   Root No.      41        42        43        44        45        46        47        48

                41 A      42 A      43 A      44 A      45 A      46 A      47 A      48 A   

                1808.9    1861.1    1907.3    1987.5    2929.6    2949.3    3006.9    3047.2
  
           1   -0.0034   -0.0229    0.0028   -0.0359    0.0001   -0.0291   -0.0000   -0.0012
           2   -0.0019    0.0290    0.0107    0.0087    0.0001   -0.0485    0.0000   -0.0018
           3    0.0047   -0.0095   -0.0149   -0.0120    0.0001   -0.0434   -0.0000   -0.0017
           4   -0.0054    0.0009   -0.0098    0.0111   -0.0001   -0.0000   -0.0344    0.0000
           5   -0.0099    0.0006   -0.0014   -0.0001   -0.0575   -0.0004   -0.0061    0.0000
           6    0.0288   -0.0016    0.0043    0.0003   -0.0199   -0.0001    0.0179   -0.0000
           7    0.0266    0.0027   -0.0835    0.1783    0.0000   -0.0007    0.0007    0.0001
           8    0.0027    0.0011   -0.0115    0.0429   -0.0002    0.0000    0.0001   -0.0002
           9   -0.0080   -0.0005    0.0340   -0.1265   -0.0001   -0.0005   -0.0002   -0.0000
          10   -0.0748   -0.0219    0.1895    0.1026   -0.0000    0.0015   -0.0003    0.0001
          11    0.0045    0.0015   -0.0134   -0.0168    0.0002   -0.0008   -0.0000   -0.0001
          12   -0.0113   -0.0027    0.0353    0.0471    0.0000    0.0009    0.0000    0.0001
          13    0.0640    0.0124   -0.1070   -0.0736    0.0000   -0.0010    0.0001    0.0000
          14   -0.0011    0.0013    0.0008   -0.0051   -0.0000    0.0001   -0.0000   -0.0002
          15    0.0020   -0.0012    0.0004    0.0168    0.0000   -0.0010    0.0000    0.0000
          16   -0.0245   -0.0025    0.0741   -0.1500   -0.0000    0.0001   -0.0007    0.0000
          17   -0.0019   -0.0002    0.0105   -0.0253   -0.0001   -0.0001    0.0008    0.0000
          18    0.0058    0.0008   -0.0309    0.0742   -0.0000    0.0000   -0.0023   -0.0001
          19    0.0063    0.1581    0.0160    0.0043    0.0000    0.0009    0.0000   -0.0268
          20   -0.0019   -0.0759   -0.0101   -0.0038   -0.0000    0.0023    0.0000   -0.0463
          21    0.0045    0.1261    0.0139    0.0029   -0.0000    0.0016    0.0000   -0.0420
          22    0.1497   -0.0109    0.0430   -0.0002   -0.0000   -0.0000    0.0044    0.0011
          23    0.0416   -0.0029    0.0108    0.0004   -0.0000    0.0000   -0.0010   -0.0002
          24   -0.1221    0.0085   -0.0319   -0.0011   -0.0000   -0.0000    0.0028    0.0005
          25   -0.1435    0.0196   -0.1075   -0.0328    0.0000   -0.0002    0.0002   -0.0001
          26   -0.0281    0.0007    0.0020    0.0052   -0.0003   -0.0000    0.0001    0.0001
          27    0.0830   -0.0024   -0.0039   -0.0144   -0.0001   -0.0001   -0.0002   -0.0003
          28   -0.0059   -0.1359   -0.0127   -0.0018   -0.0000   -0.0001   -0.0000    0.0010
          29    0.0015    0.0362    0.0035   -0.0000   -0.0000   -0.0006    0.0000    0.0047
          30   -0.0051   -0.1188   -0.0114   -0.0015   -0.0000   -0.0003   -0.0000    0.0026
          31    0.0044    0.0298   -0.0035   -0.0102   -0.0013    0.3504   -0.0001    0.0102
          32    0.0057   -0.0227   -0.0165   -0.0136   -0.0021    0.5904   -0.0002    0.0248
          33   -0.0046    0.0181    0.0086   -0.0080   -0.0019    0.5296   -0.0002    0.0179
          34    0.0018    0.0002   -0.0085    0.0149   -0.2492   -0.0012    0.2060   -0.0003
          35   -0.0052    0.0007   -0.0032   -0.0009    0.3025    0.0016   -0.3064    0.0004
          36    0.0239   -0.0015    0.0008    0.0124    0.2506    0.0014   -0.2265    0.0003
          37    0.0019    0.0006   -0.0084    0.0149    0.2503    0.0015    0.2067   -0.0003
          38   -0.0106    0.0003    0.0021   -0.0069    0.3925    0.0027    0.3801   -0.0005
          39    0.0219   -0.0015    0.0025    0.0103   -0.0103   -0.0001    0.0111    0.0000
          40    0.0305    0.0088   -0.0620   -0.0636    0.0000    0.0004    0.0005   -0.0001
          41    0.0167    0.0035   -0.0275   -0.0228   -0.0000   -0.0009    0.0002   -0.0001
          42   -0.0494   -0.0095    0.0808    0.0700   -0.0000   -0.0006   -0.0005    0.0001
          43    0.0002   -0.0015   -0.0001   -0.0036    0.0001   -0.0155   -0.0001    0.2741
          44    0.0048    0.1198    0.0124    0.0036    0.0001   -0.0230   -0.0003    0.5665
          45    0.0022    0.0412    0.0022   -0.0012    0.0001   -0.0230   -0.0002    0.4627
          46    0.0628   -0.0058    0.0250    0.0042    0.0001    0.0001   -0.0522   -0.0123
          47   -0.0331    0.0018   -0.0054    0.0040   -0.0016    0.0000    0.0080    0.0022
          48    0.0950   -0.0048    0.0149   -0.0119   -0.0005    0.0001   -0.0225   -0.0062
          49   -0.0026    0.0022   -0.0281    0.0226    0.0000   -0.0001   -0.0030    0.0000
          50   -0.0035   -0.0007    0.0160   -0.0399   -0.0013    0.0008   -0.0082   -0.0002
          51    0.0104    0.0010   -0.0470    0.1166   -0.0006   -0.0008    0.0238    0.0006
          52    0.0327   -0.0052    0.0270   -0.0029   -0.0000   -0.0000    0.0006    0.0000
          53   -0.0387    0.0015   -0.0002    0.0061   -0.0007    0.0001    0.0003   -0.0012
          54    0.1119   -0.0038   -0.0004   -0.0177   -0.0003   -0.0003   -0.0010    0.0034
          55    0.0007   -0.0022   -0.0015    0.0001    0.0000    0.0037    0.0000    0.0043
          56   -0.0058   -0.1359   -0.0130   -0.0024    0.0000    0.0029    0.0000    0.0043
          57   -0.0024   -0.0499   -0.0043   -0.0015    0.0000    0.0046    0.0000    0.0057
          58   -0.0009   -0.0231   -0.0020   -0.0004   -0.0000    0.0011    0.0000    0.0312
          59    0.0058    0.1346    0.0128    0.0010   -0.0000   -0.0018   -0.0001   -0.0740
          60    0.0020    0.0247    0.0005    0.0009    0.0000    0.0005    0.0000    0.0043


   Root No.      49        50        51        52        53        54

                49 A      50 A      51 A      52 A      53 A      54 A   

                3047.7    3081.5    3088.0    3133.7    3146.6    3216.0
  
           1   -0.0000   -0.0000    0.0004   -0.0002   -0.0005   -0.0008
           2   -0.0000    0.0000   -0.0001    0.0005   -0.0001    0.0002
           3   -0.0000   -0.0000   -0.0000   -0.0000   -0.0005   -0.0005
           4   -0.0034   -0.0013    0.0022    0.0000   -0.0000    0.0001
           5   -0.0005   -0.0003    0.0004    0.0000   -0.0000    0.0000
           6    0.0015    0.0007   -0.0014   -0.0000    0.0000   -0.0001
           7   -0.0000   -0.0000   -0.0062    0.0000    0.0001    0.0022
           8    0.0000   -0.0002   -0.0011    0.0000   -0.0000    0.0008
           9   -0.0000    0.0005    0.0032   -0.0000    0.0000   -0.0024
          10    0.0005    0.0018   -0.0008    0.0000    0.0000    0.0084
          11    0.0000   -0.0001   -0.0001   -0.0000   -0.0000   -0.0005
          12   -0.0001    0.0004    0.0003    0.0000    0.0000    0.0013
          13   -0.0001   -0.0003    0.0002    0.0000   -0.0000   -0.0610
          14   -0.0000    0.0000    0.0000    0.0000   -0.0000   -0.0170
          15    0.0000   -0.0001   -0.0000   -0.0000    0.0001    0.0528
          16    0.0002    0.0004    0.0065    0.0000   -0.0000   -0.0006
          17    0.0003    0.0015    0.0221    0.0000   -0.0000   -0.0002
          18   -0.0010   -0.0042   -0.0644   -0.0000    0.0001    0.0005
          19   -0.0004   -0.0000    0.0000    0.0027   -0.0067   -0.0001
          20   -0.0007   -0.0000    0.0000   -0.0021   -0.0027    0.0000
          21   -0.0006   -0.0000    0.0001    0.0018   -0.0075    0.0000
          22   -0.0487   -0.0186    0.0032    0.0000   -0.0000   -0.0003
          23    0.0076    0.0015   -0.0004   -0.0000    0.0000   -0.0001
          24   -0.0214   -0.0041    0.0013    0.0000   -0.0000    0.0002
          25    0.0025    0.0039   -0.0004   -0.0000   -0.0000   -0.0002
          26   -0.0047    0.0189   -0.0016   -0.0000    0.0000    0.0001
          27    0.0136   -0.0548    0.0045    0.0000   -0.0000   -0.0004
          28    0.0000   -0.0000    0.0001   -0.0197    0.0335   -0.0000
          29    0.0001    0.0000   -0.0000   -0.0542   -0.0430   -0.0000
          30    0.0000   -0.0000    0.0000   -0.0381    0.0174   -0.0000
          31    0.0001    0.0001    0.0006   -0.0033    0.0016   -0.0012
          32    0.0002    0.0001    0.0005   -0.0016    0.0040   -0.0007
          33    0.0002    0.0001    0.0005   -0.0037    0.0028   -0.0007
          34    0.0190    0.0053   -0.0142    0.0000    0.0001   -0.0003
          35   -0.0287   -0.0080    0.0187    0.0000   -0.0001    0.0004
          36   -0.0250   -0.0071    0.0110    0.0000   -0.0001    0.0003
          37    0.0190    0.0054   -0.0142   -0.0000    0.0001   -0.0003
          38    0.0378    0.0107   -0.0213   -0.0001    0.0002   -0.0005
          39   -0.0019   -0.0005   -0.0029    0.0000   -0.0000   -0.0000
          40   -0.0001   -0.0006    0.0017   -0.0003    0.0001    0.6267
          41   -0.0001   -0.0002    0.0006   -0.0001   -0.0000    0.1972
          42    0.0002    0.0004   -0.0016    0.0004   -0.0002   -0.6105
          43    0.0042    0.0001   -0.0003    0.0080    0.0245    0.0000
          44    0.0086    0.0003   -0.0007    0.0087    0.0455    0.0002
          45    0.0070    0.0002   -0.0006    0.0108    0.0396    0.0001
          46    0.5485    0.1677   -0.0282   -0.0002    0.0003    0.0002
          47   -0.0981   -0.0284    0.0048    0.0000   -0.0001   -0.0000
          48    0.2766    0.0804   -0.0136   -0.0001    0.0002    0.0000
          49   -0.0001   -0.0004   -0.0073   -0.0000    0.0000   -0.0001
          50   -0.0054   -0.0172   -0.2507   -0.0002    0.0003    0.0005
          51    0.0157    0.0499    0.7287    0.0006   -0.0007   -0.0014
          52   -0.0010   -0.0084    0.0008    0.0000   -0.0000   -0.0003
          53    0.0612   -0.2111    0.0170    0.0001   -0.0001   -0.0001
          54   -0.1772    0.6116   -0.0491   -0.0003    0.0003    0.0002
          55    0.0001    0.0001   -0.0003    0.2786   -0.0522    0.0003
          56    0.0002    0.0003   -0.0006    0.5182   -0.1277    0.0005
          57    0.0002    0.0002   -0.0005    0.4516   -0.0953    0.0004
          58    0.0006    0.0001   -0.0004   -0.0778   -0.2885    0.0001
          59   -0.0013   -0.0003    0.0008    0.1391    0.6255   -0.0002
          60    0.0001    0.0000   -0.0001   -0.0266   -0.0604   -0.0000


           MASS-WEIGHTED COORDINATE ANALYSIS (NORMAL COORDINATES)


   Root No.       1         2         3         4         5         6         7         8

                 1 A       2 A       3 A       4 A       5 A       6 A       7 A       8 A   

                  31.0     106.9     142.6     227.9     283.9     333.7     392.9     448.9
  
           1   -0.1109   -0.0269   -0.0702   -0.0234    0.0129    0.0375   -0.1118    0.2353
           2   -0.0824   -0.1775   -0.1140    0.0056   -0.1739    0.3291   -0.0649   -0.0949
           3    0.1883   -0.1380    0.0707    0.0997   -0.0263    0.1389    0.0581   -0.1885
           4   -0.1095   -0.0272   -0.0894   -0.0772   -0.0874   -0.0270    0.0900    0.0067
           5    0.0929   -0.0491    0.4098   -0.1860    0.0465    0.0340   -0.0243    0.0438
           6   -0.1048   -0.0262    0.0746   -0.1385   -0.0797   -0.0442    0.0408   -0.1622
           7   -0.1090   -0.0255   -0.0789   -0.0487   -0.0297    0.0029   -0.0294    0.1272
           8   -0.0264   -0.1963   -0.3317   -0.0407    0.2313    0.2273    0.0895    0.0962
           9    0.0712   -0.1163   -0.0462    0.0907    0.1907    0.1826    0.1268    0.2900
          10    0.0139   -0.0516   -0.0287   -0.0232   -0.0586   -0.0174    0.1074   -0.1487
          11   -0.0501   -0.0864   -0.1561   -0.2965    0.3422   -0.1084   -0.0160    0.1172
          12    0.0651   -0.0799    0.0129    0.0012    0.2224    0.0650    0.0793    0.2979
          13    0.0187   -0.0533   -0.0264   -0.0273   -0.0742   -0.0315    0.0970   -0.1848
          14   -0.0966   -0.2697    0.1575   -0.1088   -0.3102   -0.3004   -0.1385    0.2168
          15    0.1678   -0.1640    0.1609    0.0702   -0.0513   -0.0603    0.0842   -0.0207
          16   -0.1712   -0.0153   -0.1220   -0.1112   -0.1138   -0.0549    0.0167   -0.0354
          17    0.0427   -0.2323   -0.0945    0.4215    0.0940   -0.3348   -0.1073   -0.0398
          18   -0.0048   -0.1118   -0.0306    0.1583    0.0272   -0.0892    0.1206    0.0164
          19   -0.1329    0.1509    0.3057    0.2051    0.2351    0.0422   -0.2824    0.1038
          20   -0.0892   -0.0547    0.0365    0.0780   -0.0909    0.3415   -0.1422   -0.1979
          21    0.2189    0.1376   -0.1985   -0.1739   -0.1218    0.0241   -0.3347   -0.0770
          22    0.0159   -0.0507   -0.0264   -0.0131   -0.0546    0.0033    0.2120   -0.1095
          23    0.0571    0.3815    0.0630    0.2048   -0.2814    0.2094    0.0591    0.2353
          24   -0.1108    0.1214   -0.0415    0.0011   -0.1883    0.0192    0.0647   -0.0947
          25    0.0764   -0.0621    0.0093    0.0322   -0.0009    0.0385    0.1936   -0.0129
          26   -0.0103    0.3039   -0.1888   -0.0359    0.2369   -0.1700   -0.1033   -0.2884
          27   -0.0322    0.0758   -0.0650    0.0013    0.0872   -0.0397   -0.0166   -0.0680
          28    0.4694    0.1422    0.1093    0.0668    0.1289    0.0083   -0.3022    0.0328
          29    0.1333    0.3018    0.0668   -0.0628    0.0076   -0.1442    0.4156    0.0036
          30   -0.4017    0.2503    0.0348   -0.0575    0.0361   -0.0881   -0.1858    0.0812
          31   -0.0394   -0.0326   -0.0875   -0.0157    0.0502    0.0298    0.0044    0.1603
          32   -0.0254   -0.0072   -0.0459    0.0005   -0.0379    0.1364   -0.0574   -0.0485
          33    0.0611   -0.0700    0.0806    0.0340   -0.0496   -0.0247    0.0378   -0.0889
          34   -0.0332   -0.0101    0.1198   -0.2360   -0.0070    0.0648    0.0137   -0.0657
          35    0.0395   -0.0725    0.2577   -0.2385    0.0832    0.0293   -0.0220   -0.0854
          36   -0.0473    0.0616   -0.0048   -0.0264   -0.0896    0.0357    0.0171    0.0032
          37   -0.0461   -0.0028   -0.1801    0.1807   -0.0520   -0.0881    0.0214    0.0657
          38    0.0357   -0.0190    0.2172   -0.1851    0.0322    0.0598   -0.0051   -0.0313
          39   -0.0362   -0.0927    0.1136   -0.1819    0.0590   -0.0520   -0.0345   -0.1570
          40    0.0243   -0.0197   -0.0003   -0.0070   -0.0350   -0.0204    0.0504   -0.1340
          41   -0.0390   -0.1053    0.1444   -0.0085   -0.2601   -0.2545   -0.1148    0.1264
          42    0.0644   -0.0606    0.0860    0.0286   -0.0838   -0.0830    0.0237   -0.0679
          43   -0.1871    0.0910    0.2312    0.1651    0.1896    0.0136   -0.0150   -0.0291
          44   -0.0806   -0.0723    0.0418    0.0743   -0.0113    0.1655   -0.0305   -0.1091
          45    0.2185    0.0812   -0.1801   -0.1769   -0.1249   -0.0791   -0.1435    0.0788
          46    0.0171   -0.0166   -0.0005    0.0052   -0.0086    0.0076    0.0666   -0.0246
          47    0.0263    0.2170    0.0152    0.1752   -0.2448    0.1589    0.0547    0.1217
          48   -0.0538    0.0769   -0.0275    0.0235   -0.1266    0.0274    0.0219   -0.0209
          49   -0.0766    0.0004   -0.0537   -0.0586   -0.0668   -0.0425    0.0027   -0.0928
          50    0.0195   -0.1048   -0.0329    0.2965   -0.0357   -0.2494   -0.0852   -0.0989
          51    0.0006   -0.0452   -0.0110    0.1055   -0.0141   -0.0786    0.0159   -0.0262
          52    0.0491   -0.0227    0.0197    0.0342    0.0291    0.0359    0.0657    0.0727
[...]
 TRAVEL      0.1301         C  9 -- H 18          +7.4% ( 34.6%)      0.0%
 RED. MASS   0.2462         C  3 -- C  5          +6.1% ( 31.6%)     96.7%
 EFF. MASS   3.3354

 VIBRATION   34   34A         ATOM PAIR      ENERGY CONTRIBUTION    RADIAL
 FREQ.      1209.13         C  1 -- C  7         +15.6% ( 55.8%)     44.1%
 T-DIPOLE    0.1216         C  7 -- C 10         +14.7% ( 54.2%)      2.1%
 TRAVEL      0.0921         C  7 -- H 15         +13.6% ( 52.1%)     17.2%
 RED. MASS   0.8655         C  1 -- H 11         +10.9% ( 46.6%)     11.8%
 EFF. MASS   6.5769

 VIBRATION   35   35A         ATOM PAIR      ENERGY CONTRIBUTION    RADIAL
 FREQ.      1306.28         C 10 -- H 19         +12.3% ( 43.0%)      0.0%
 T-DIPOLE    0.1084         C 10 -- H 20          +9.5% ( 37.7%)      0.5%
 TRAVEL      0.1139         C  1 -- C  7          +7.0% ( 32.4%)     97.1%
 RED. MASS   0.2994         C  1 -- C  5          +6.5% ( 31.3%)     68.6%
 EFF. MASS   3.9758

 VIBRATION   36   36A         ATOM PAIR      ENERGY CONTRIBUTION    RADIAL
 FREQ.      1315.07         C  9 -- H 18          +8.1% ( 36.6%)      4.3%
 T-DIPOLE    0.0491         C  3 -- C  5          +7.0% ( 34.0%)     95.6%
 TRAVEL      0.1017         C  8 -- H 16          +6.9% ( 33.7%)      0.5%
 RED. MASS   0.3493         C 10 -- H 19          +6.7% ( 33.2%)      0.3%
 EFF. MASS   4.9569

 VIBRATION   37   37A         ATOM PAIR      ENERGY CONTRIBUTION    RADIAL
 FREQ.      1367.95         C  2 -- H 12         +22.2% ( 57.0%)      6.5%
 T-DIPOLE    0.0963         C  2 -- H 13         +22.2% ( 57.0%)      6.5%
 TRAVEL      0.1047         C  2 -- C  8         +12.7% ( 43.1%)     63.3%
 RED. MASS   0.6770         C  2 -- C  6         +12.6% ( 42.9%)     40.7%
 EFF. MASS   4.4983

 VIBRATION   38   38A         ATOM PAIR      ENERGY CONTRIBUTION    RADIAL
 FREQ.      1373.48         C  2 -- C  6         +12.0% ( 55.4%)     77.4%
 T-DIPOLE    0.0496         C  2 -- H 12         +11.4% ( 54.0%)      0.2%
 TRAVEL      0.0715         C  2 -- H 13         +11.4% ( 54.0%)      0.2%
 RED. MASS   2.0701         C  2 -- C  8         +11.1% ( 53.4%)     58.5%
 EFF. MASS   9.5993         C  3 -- C  4         +10.7% ( 52.2%)     96.2%

 VIBRATION   39   39A         ATOM PAIR      ENERGY CONTRIBUTION    RADIAL
 FREQ.      1404.60         C  1 -- C  7         +18.4% ( 71.4%)     96.9%
 T-DIPOLE    0.3150         C  1 -- H 11         +13.7% ( 61.8%)      0.0%
 TRAVEL      0.0717         C  1 -- C  3         +12.6% ( 59.3%)     34.6%
 RED. MASS   2.4486         C  1 -- C  5         +12.3% ( 58.6%)     44.9%
 EFF. MASS   9.3428         C  1 -- C  4         +11.3% ( 56.0%)     71.3%

 VIBRATION   40   40A         ATOM PAIR      ENERGY CONTRIBUTION    RADIAL
 FREQ.      1442.70         C  4 -- C  5         +11.1% ( 55.4%)     40.9%
 T-DIPOLE    0.2320         C  4 -- C  9         +10.2% ( 53.2%)     44.8%
 TRAVEL      0.0640         C  3 -- C  4         +10.0% ( 52.7%)     99.6%
 RED. MASS   1.7015         C  2 -- C  6          +8.8% ( 49.3%)     96.4%
 EFF. MASS  11.4258

 VIBRATION   41   41A         ATOM PAIR      ENERGY CONTRIBUTION    RADIAL
 FREQ.      1808.91         C  8 -- C  9         +37.0% ( 92.2%)     99.5%
 T-DIPOLE    0.5420         C  2 -- C  8         +14.0% ( 56.7%)     56.1%
 TRAVEL      0.0560         C  8 -- H 16         +12.9% ( 54.5%)      4.4%
 RED. MASS   4.1848         C  4 -- C  9         +10.2% ( 48.4%)      0.5%
 EFF. MASS  11.8982

 VIBRATION   42   42A         ATOM PAIR      ENERGY CONTRIBUTION    RADIAL
 FREQ.      1861.06         C  7 -- C 10         +44.1% ( 98.5%)     98.8%
 T-DIPOLE    0.0861         C  1 -- C  7         +16.6% ( 60.4%)     55.1%
 TRAVEL      0.0554         C  7 -- H 15         +15.2% ( 57.7%)      3.9%
 RED. MASS   5.1443         C 10 -- H 19         +10.6% ( 48.3%)     10.9%
 EFF. MASS  11.8042         C 10 -- H 20         +10.4% ( 47.9%)     12.9%

 VIBRATION   43   43A         ATOM PAIR      ENERGY CONTRIBUTION    RADIAL
 FREQ.      1907.30         C  4 -- C  5         +21.4% ( 76.6%)     97.0%
 T-DIPOLE    0.4204         C  4 -- C  9         +18.1% ( 70.4%)     85.3%
 TRAVEL      0.0544         C  3 -- C  4         +14.4% ( 62.9%)      0.0%
 RED. MASS   3.2662         C  1 -- C  4         +12.0% ( 57.4%)     77.8%
 EFF. MASS  11.9516

 VIBRATION   44   44A         ATOM PAIR      ENERGY CONTRIBUTION    RADIAL
 FREQ.      1987.53         C  3 -- C  6         +28.6% ( 86.7%)    100.0%
 T-DIPOLE    0.5557         C  3 -- C  4         +15.8% ( 64.4%)     86.7%
 TRAVEL      0.0533         C  3 -- C  5         +14.1% ( 60.9%)     91.2%
 RED. MASS   4.0082         C  1 -- C  3         +12.8% ( 58.0%)     76.3%
 EFF. MASS  11.9260

 VIBRATION   45   45A         ATOM PAIR      ENERGY CONTRIBUTION    RADIAL
 FREQ.      2929.59         C  2 -- H 13         +49.0% ( 72.6%)     96.5%
 T-DIPOLE    0.0509         C  2 -- H 12         +48.9% ( 72.5%)     96.5%
 TRAVEL      0.1224         C  2 -- C  8          +1.1% ( 10.8%)      0.0%
 RED. MASS   0.5177         C  2 -- C  6          +1.1% ( 10.8%)      0.0%
 EFF. MASS   1.5355

 VIBRATION   46   46A         ATOM PAIR      ENERGY CONTRIBUTION    RADIAL
 FREQ.      2949.33         C  1 -- H 11         +95.6% ( 99.9%)    100.0%
 T-DIPOLE    0.1008         C  1 -- C  7          +1.1% ( 10.6%)     14.6%
 TRAVEL      0.1258         C  1 -- C  4          +1.1% ( 10.5%)     31.8%
 RED. MASS   0.9264         C  1 -- C  3          +1.0% ( 10.4%)     16.2%
 EFF. MASS   1.4444

 VIBRATION   47   47A         ATOM PAIR      ENERGY CONTRIBUTION    RADIAL
 FREQ.      3006.93         C  2 -- H 12         +48.8% ( 68.9%)     97.8%
 T-DIPOLE    0.1348         C  2 -- H 13         +48.7% ( 68.8%)     97.7%
 TRAVEL      0.1324         C  8 -- H 16          +1.0% (  9.7%)    100.0%
 RED. MASS   0.4737         C  2 -- C  8          +0.7% (  8.0%)     17.8%
 EFF. MASS   1.2797

 VIBRATION   48   48A         ATOM PAIR      ENERGY CONTRIBUTION    RADIAL
 FREQ.      3047.21         C  7 -- H 15         +96.0% ( 99.4%)    100.0%
 T-DIPOLE    0.2653         C  7 -- C 10          +1.4% ( 12.1%)     30.5%
 TRAVEL      0.1213         C  1 -- C  7          +1.3% ( 11.7%)     14.7%
 RED. MASS   0.9077         C 10 -- H 20          +1.0% ( 10.2%)     95.9%
 EFF. MASS   1.5035

 VIBRATION   49   49A         ATOM PAIR      ENERGY CONTRIBUTION    RADIAL
 FREQ.      3047.70         C  8 -- H 16         +88.5% ( 95.4%)    100.0%
 T-DIPOLE    0.3204         C  9 -- H 18          +8.0% ( 28.7%)     99.7%
 TRAVEL      0.1222         C  8 -- C  9          +1.3% ( 11.4%)     13.9%
 RED. MASS   0.7757         C  2 -- C  8          +1.2% ( 11.3%)     18.5%
 EFF. MASS   1.4828

 VIBRATION   50   50A         ATOM PAIR      ENERGY CONTRIBUTION    RADIAL
 FREQ.      3081.52         C  9 -- H 18         +88.4% ( 95.5%)    100.0%
 T-DIPOLE    0.3481         C  8 -- H 16          +7.5% ( 27.8%)     99.4%
 TRAVEL      0.1182         C  8 -- C  9          +1.8% ( 13.8%)     67.2%
 RED. MASS   0.7839         C  4 -- C  9          +1.4% ( 12.2%)     22.9%
 EFF. MASS   1.5672

 VIBRATION   51   51A         ATOM PAIR      ENERGY CONTRIBUTION    RADIAL
 FREQ.      3088.03         C  6 -- H 17         +95.9% ( 99.5%)    100.0%
 T-DIPOLE    0.3177         C  3 -- C  6          +1.7% ( 13.3%)     47.3%
 TRAVEL      0.1189         C  2 -- C  6          +1.5% ( 12.5%)     18.3%
 RED. MASS   0.9134         C  9 -- H 18          +0.4% (  6.7%)    100.0%
 EFF. MASS   1.5456

 VIBRATION   52   52A         ATOM PAIR      ENERGY CONTRIBUTION    RADIAL
 FREQ.      3133.69         C 10 -- H 19         +92.2% ( 97.7%)     99.9%
 T-DIPOLE    0.2035         C 10 -- H 20          +6.5% ( 25.9%)     70.3%
 TRAVEL      0.1183         C  7 -- C 10          +1.3% ( 11.7%)     22.9%
 RED. MASS   0.8585
 EFF. MASS   1.5368

 VIBRATION   53   53A         ATOM PAIR      ENERGY CONTRIBUTION    RADIAL
 FREQ.      3146.64         C 10 -- H 20         +92.0% ( 96.6%)     99.7%
 T-DIPOLE    0.2725         C 10 -- H 19          +5.5% ( 23.6%)     38.9%
 TRAVEL      0.1208         C  7 -- C 10          +1.6% ( 12.7%)     72.9%
 RED. MASS   0.8224         C  7 -- H 15          +0.9% (  9.4%)     95.2%
 EFF. MASS   1.4682

 VIBRATION   54   54A         ATOM PAIR      ENERGY CONTRIBUTION    RADIAL
 FREQ.      3216.03         C  5 -- H 14         +94.3% ( 99.9%)    100.0%
 T-DIPOLE    0.5867         C  4 -- C  5          +2.0% ( 14.6%)     66.7%
 TRAVEL      0.1146         C  3 -- C  5          +1.8% ( 13.9%)     99.0%
 RED. MASS   0.9303         C  1 -- C  5          +1.8% ( 13.8%)     36.9%
 EFF. MASS   1.5960

      SYMMETRY NUMBER FOR POINT-GROUP C1  =  1


          SYSTEM IS A GROUND STATE



 InChI=1S/C10H10/c1-2-8-7-9-5-3-4-6-10(8)9/h2-3,5-8H,1,4H2


          MOLECULE IS NOT LINEAR

          THERE ARE 54 GENUINE VIBRATIONS IN THIS SYSTEM
          THIS THERMODYNAMICS CALCULATION IS LIMITED TO
          MOLECULES WHICH HAVE NO INTERNAL ROTATIONS




                    CALCULATED THERMODYNAMIC PROPERTIES
                                          *
   TEMP. (K)   PARTITION FUNCTION   H.O.F.    ENTHALPY  HEAT CAPACITY ENTROPY
                                   KCAL/MOL   CAL/MOLE    CAL/K/MOL  CAL/K/MOL


 298.00  VIB.     0.2006D+03                  3694.4855    27.8496    22.9327
         ROT.     0.5812D+06                   888.2813     2.9808    29.3566
         INT.     0.1166D+09                  4582.7668    30.8304    52.2893
         TRA.     0.1436D+28                  1480.4688     4.9680    40.5022
         TOT.                       97.404    6063.2357    35.7984    92.7915

 200.00  VIB.     0.2802D+02                  1532.2561    16.5214    14.2845
         ROT.     0.3195D+06                   596.1620     2.9808    28.1679
         INT.     0.8954D+07                  2128.4180    19.5022    42.4524
         TRA.     0.7896D+27                   993.6033     4.9680    38.5210
         TOT.                       94.462    3122.0213    24.4703    80.9734

 210.00  VIB.     0.3400D+02                  1702.7936    17.5909    15.1163
         ROT.     0.3438D+06                   625.9700     2.9808    28.3134
         INT.     0.1169D+08                  2328.7637    20.5718    43.4297
         TRA.     0.8496D+27                  1043.2834     4.9680    38.7634
         TOT.                       94.712    3372.0471    25.5398    82.1931

 220.00  VIB.     0.4133D+02                  1884.1681    18.6884    15.9599
         ROT.     0.3687D+06                   655.7781     2.9808    28.4520
         INT.     0.1524D+08                  2539.9463    21.6692    44.4119
         TRA.     0.9110D+27                  1092.9636     4.9680    38.9945
         TOT.                       94.973    3632.9099    26.6372    83.4065

 230.00  VIB.     0.5031D+02                  2076.6459    19.8111    16.8153
         ROT.     0.3941D+06                   685.5862     2.9808    28.5845
         INT.     0.1983D+08                  2762.2322    22.7919    45.3998
         TRA.     0.9738D+27                  1142.6437     4.9680    39.2154
         TOT.                       95.245    3904.8759    27.7599    84.6152

 240.00  VIB.     0.6135D+02                  2280.4640    20.9559    17.6826
         ROT.     0.4200D+06                   715.3943     2.9808    28.7114
         INT.     0.2577D+08                  2995.8583    23.9367    46.3940
         TRA.     0.1038D+28                  1192.3239     4.9680    39.4268
         TOT.                       95.529    4188.1822    28.9047    85.8208

 250.00  VIB.     0.7494D+02                  2495.8262    22.1193    18.5616
         ROT.     0.4466D+06                   745.2024     2.9808    28.8331
         INT.     0.3347D+08                  3241.0286    25.1001    47.3946
         TRA.     0.1103D+28                  1242.0041     4.9680    39.6296
         TOT.                       95.823    4483.0327    30.0682    87.0243

 260.00  VIB.     0.9170D+02                  2722.9008    23.2978    19.4520
         ROT.     0.4736D+06                   775.0105     2.9808    28.9500
         INT.     0.4343D+08                  3497.9114    26.2786    48.4020
         TRA.     0.1170D+28                  1291.6842     4.9680    39.8245
         TOT.                       96.130    4789.5956    31.2466    88.2265

 270.00  VIB.     0.1124D+03                  2961.8199    24.4876    20.3536
         ROT.     0.5012D+06                   804.8186     2.9808    29.0625
         INT.     0.5634D+08                  3766.6386    27.4684    49.4160
         TRA.     0.1239D+28                  1341.3644     4.9680    40.0120
         TOT.                       96.448    5108.0030    32.4364    89.4280

 280.00  VIB.     0.1380D+03                  3212.6791    25.6852    21.2657
         ROT.     0.5293D+06                   834.6267     2.9808    29.1709
         INT.     0.7306D+08                  4047.3058    28.6660    50.4366
         TRA.     0.1308D+28                  1391.0445     4.9680    40.1926
         TOT.                       96.779    5438.3504    33.6340    90.6293

 290.00  VIB.     0.1698D+03                  3475.5387    26.8871    22.1880
         ROT.     0.5579D+06                   864.4348     2.9808    29.2755
         INT.     0.9473D+08                  4339.9735    29.8679    51.4635
         TRA.     0.1379D+28                  1440.7247     4.9680    40.3670
         TOT.                       97.121    5780.6982    34.8360    91.8305

 300.00  VIB.     0.2092D+03                  3750.4252    28.0901    23.1198
         ROT.     0.5870D+06                   894.2429     2.9808    29.3765
         INT.     0.1228D+09                  4644.6681    31.0709    52.4964
         TRA.     0.1451D+28                  1490.4049     4.9680    40.5354
         TOT.                       97.476    6135.0730    36.0389    93.0318

 310.00  VIB.     0.2583D+03                  4037.3337    29.2910    24.0605
         ROT.     0.6166D+06                   924.0510     2.9808    29.4743
         INT.     0.1592D+09                  4961.3847    32.2719    53.5348
         TRA.     0.1524D+28                  1540.0850     4.9680    40.6983
         TOT.                       97.842    6501.4698    37.2399    94.2331

 320.00  VIB.     0.3193D+03                  4336.2301    30.4872    25.0093
         ROT.     0.6467D+06                   953.8591     2.9808    29.5689
         INT.     0.2065D+09                  5290.0892    33.4680    54.5783
         TRA.     0.1598D+28                  1589.7652     4.9680    40.8560
         TOT.                       98.220    6879.8544    38.4360    95.4343

 330.00  VIB.     0.3955D+03                  4647.0538    31.6761    25.9657
         ROT.     0.6773D+06                   983.6672     2.9808    29.6606
         INT.     0.2678D+09                  5630.7210    34.6569    55.6263
         TRA.     0.1674D+28                  1639.4454     4.9680    41.0089
         TOT.                       98.611    7270.1664    39.6249    96.6352

 340.00  VIB.     0.4906D+03                  4969.7204    32.8555    26.9289
         ROT.     0.7083D+06                  1013.4753     2.9808    29.7496
         INT.     0.3475D+09                  5983.1957    35.8363    56.6785
         TRA.     0.1750D+28                  1689.1255     4.9680    41.1572
         TOT.                       99.013    7672.3213    40.8043    97.8357

 350.00  VIB.     0.6096D+03                  5304.1245    34.0233    27.8981
         ROT.     0.7397D+06                  1043.2834     2.9808    29.8360
         INT.     0.4509D+09                  6347.4079    37.0041    57.7342
         TRA.     0.1828D+28                  1738.8057     4.9680    41.3012
         TOT.                       99.427    8086.2136    41.9721    99.0354

 360.00  VIB.     0.7586D+03                  5650.1424    35.1779    28.8728
         ROT.     0.7717D+06                  1073.0915     2.9808    29.9200
         INT.     0.5854D+09                  6723.2339    38.1587    58.7928
         TRA.     0.1907D+28                  1788.4859     4.9680    41.4412
         TOT.                       99.852    8511.7197    43.1268   100.2340

 370.00  VIB.     0.9453D+03                  6007.6344    36.3179    29.8522
         ROT.     0.8041D+06                  1102.8996     2.9808    30.0017
         INT.     0.7601D+09                  7110.5340    39.2987    59.8539
         TRA.     0.1987D+28                  1838.1660     4.9680    41.5773
         TOT.                      100.289    8948.7000    44.2667   101.4312

 380.00  VIB.     0.1180D+04                  6376.4474    37.4420    30.8357
         ROT.     0.8369D+06                  1132.7077     2.9808    30.0812
         INT.     0.9873D+09                  7509.1551    40.4228    60.9169
         TRA.     0.2068D+28                  1887.8462     4.9680    41.7098
         TOT.                      100.737    9397.0013    45.3908   102.6267

 390.00  VIB.     0.1474D+04                  6756.4174    38.5491    31.8227
         ROT.     0.8701D+06                  1162.5158     2.9808    30.1586
         INT.     0.1283D+10                  7918.9332    41.5299    61.9813
         TRA.     0.2150D+28                  1937.5263     4.9680    41.8388
         TOT.                      101.197    9856.4595    46.4980   103.8201

 400.00  VIB.     0.1845D+04                  7147.3709    39.6386    32.8124
         ROT.     0.9038D+06                  1192.3239     2.9808    30.2341
         INT.     0.1667D+10                  8339.6948    42.6194    63.0465
         TRA.     0.2233D+28                  1987.2065     4.9680    41.9646
         TOT.                      101.667   10326.9013    47.5874   105.0111

   *: NOTE: HEATS OF FORMATION ARE RELATIVE TO THE
            ELEMENTS IN THEIR STANDARD STATE AT 298K
              (=  Standard Enthalpy of Formation).

            Hvib:  Zero-point energy is not included.
                   frequencies of less than zero cm-1 are not included.
            Hrot = (3/2)RT
            Htra = (3/2)RT + pV = (5/2)RT

            Heat capacity is Cp, not Cv

          For more information, see: HTTP://OpenMOPAC.net/Manual/thermochemistry.html


           FORCE CONSTANT IN CARTESIAN COORDINATES (Millidynes/A)

    ATOM   CHEMICAL       X               Y               Z
   NUMBER   SYMBOL  FORCE CONSTANT  FORCE CONSTANT  FORCE CONSTANT

      1       C        8.414742        8.834728        7.443879
      2       C        8.894924        7.776760        8.700499
      3       C       14.570240        3.224766       10.070044
      4       C       17.334402        2.932340        8.918924
      5       C       14.466809        2.763293        7.819665
      6       C       12.852193        3.315596       10.852285
      7       C        9.619997        9.100614        8.572342
      8       C       13.679935        3.257540        9.598188
      9       C       13.412415        3.267143       11.090896
     10       C        9.322198        8.880875        8.261371
     11       H        1.348954        2.634093        2.186620
     12       H        1.723988        2.580550        1.857332
     13       H        1.731836        3.780166        0.648786
     14       H        3.081230        0.584515        2.919974
     15       H        1.107188        3.015541        2.086222
     16       H        4.153070        0.498590        1.578575
     17       H        0.719593        0.867326        4.718564
     18       H        0.723260        0.862695        4.686530
     19       H        1.198886        2.991834        2.266226
     20       H        1.377951        4.532644        0.562529

 **********************
 *                    *
 * JOB ENDED NORMALLY *
 *                    *
 **********************



 TOTAL JOB TIME:             8.07 SECONDS

 == MOPAC DONE ==
