 *******************************************************************************
 ** Site#: 14399        For non-commercial use only    Version 18.184L 64BITS **
 *******************************************************************************
 ** Cite this program as: MOPAC2016, Version: 18.184L, James J. P. Stewart,   **
 ** Stewart Computational Chemistry, web: HTTP://OpenMOPAC.net. Days left:  20**
 *******************************************************************************
 **                                                                           **
 **                                MOPAC2016                                  **
 **                                                                           **
 *******************************************************************************

                              PM3 CALCULATION RESULTS

 *******************************************************************************
 *  CALCULATION DONE:                                Thu Jun 13 15:38:28 2019  *
 *  PM3        - The PM3 Hamiltonian to be used
 *  NONR       - DO NOT USE NEWTON-RAPHSON STEP IN EF
 *  PRECISE    - CRITERIA TO BE INCREASED BY 100 TIMES
 *  NOSYM      - POINT-GROUP SYMMETRY SET TO C1
 *  THREADS=1  - MULTI-THREADING NOT USED
 *  T=         - A TIME OF 172800.0 SECONDS REQUESTED
 *  DUMP=N     - RESTART FILE WRITTEN EVERY  7200.000 SECONDS
 *  GNORM=     - EXIT WHEN GRADIENT NORM DROPS BELOW   0.00    
 *******************************************************************************
pm3  precise nosym gnorm=0.0 nonr THREADS=1
 InChI=1S/C10H12/c1-2-3-4-7-10-8-5-6-9-10/h2,5-9H,1,3-4H2

   ATOM   CHEMICAL          X               Y               Z
  NUMBER   SYMBOL      (ANGSTROMS)     (ANGSTROMS)     (ANGSTROMS)
 
     1       C          0.64530000  *  -0.36320000  *  -0.27740000  *
     2       C          2.08930000  *   0.13840000  *  -0.17740000  *
     3       C         -1.65670000  *   0.55410000  *  -0.09370000  *
     4       C         -0.33620000  *   0.75410000  *  -0.05400000  *
     5       C          3.07020000  *  -0.98020000  *  -0.40100000  *
     6       C         -2.36400000  *  -0.69840000  *  -0.34380000  *
     7       C         -2.67960000  *   1.57070000  *   0.10950000  *
     8       C         -3.86100000  *   0.98150000  *  -0.00790000  *
     9       C         -3.66310000  *  -0.44100000  *  -0.29210000  *
    10       C          4.38560000  *  -0.75670000  *  -0.35660000  *
    11       H          0.47610000  *  -0.79830000  *  -1.28700000  *
    12       H          0.47640000  *  -1.15280000  *   0.48770000  *
    13       H          2.26030000  *   0.92830000  *  -0.94180000  *
    14       H          2.26060000  *   0.57400000  *   0.83170000  *
    15       H          0.03160000  *   1.75450000  *   0.14580000  *
    16       H          2.71560000  *  -1.98780000  *  -0.60230000  *
    17       H         -1.92680000  *  -1.66920000  *  -0.53780000  *
    18       H         -2.51950000  *   2.62040000  *   0.31920000  *
    19       H         -4.81560000  *   1.48060000  *   0.09190000  *
    20       H         -4.44650000  *  -1.17260000  *  -0.43810000  *
    21       H          5.08140000  *  -1.57330000  *  -0.51990000  *
    22       H          4.77650000  *   0.23690000  *  -0.15820000  *
 


          CARTESIAN COORDINATES 

    NO.       ATOM           X           Y           Z

     1         C          0.6453     -0.3632     -0.2774
     2         C          2.0893      0.1384     -0.1774
     3         C         -1.6567      0.5541     -0.0937
     4         C         -0.3362      0.7541     -0.0540
     5         C          3.0702     -0.9802     -0.4010
     6         C         -2.3640     -0.6984     -0.3438
     7         C         -2.6796      1.5707      0.1095
     8         C         -3.8610      0.9815     -0.0079
     9         C         -3.6631     -0.4410     -0.2921
    10         C          4.3856     -0.7567     -0.3566
    11         H          0.4761     -0.7983     -1.2870
    12         H          0.4764     -1.1528      0.4877
    13         H          2.2603      0.9283     -0.9418
    14         H          2.2606      0.5740      0.8317
    15         H          0.0316      1.7545      0.1458
    16         H          2.7156     -1.9878     -0.6023
    17         H         -1.9268     -1.6692     -0.5378
    18         H         -2.5195      2.6204      0.3192
    19         H         -4.8156      1.4806      0.0919
    20         H         -4.4465     -1.1726     -0.4381
    21         H          5.0814     -1.5733     -0.5199
    22         H          4.7765      0.2369     -0.1582

  H: (PM3): J. J. P. STEWART, J. COMP. CHEM. 10, 209 (1989).
  C: (PM3): J. J. P. STEWART, J. COMP. CHEM. 10, 209 (1989).

           Empirical Formula: C10 H12  =    22 atoms



      MOLECULAR POINT GROUP   :   C1  


      RHF CALCULATION, NO. OF DOUBLY OCCUPIED LEVELS = 26


          Geometry optimization using EF

  GNORM HAS BEEN SET TOO LOW, RESET TO 0.01

  SPECIFY LET AS KEYWORD TO ALLOW GNORM LESS THAN 0.01

          DIAGONAL MATRIX USED AS START HESSIAN

 CYCLE:     1 TIME:   0.023 TIME LEFT:  2.00D  GRAD.:   112.015 HEAT:  65.85070
 CYCLE:     2 TIME:   0.047 TIME LEFT:  2.00D  GRAD.:    50.693 HEAT:  63.82200
 CYCLE:     3 TIME:   0.023 TIME LEFT:  2.00D  GRAD.:    41.032 HEAT:  62.91502
 CYCLE:     4 TIME:   0.031 TIME LEFT:  2.00D  GRAD.:    26.977 HEAT:  62.42481
 CYCLE:     5 TIME:   0.027 TIME LEFT:  2.00D  GRAD.:    36.860 HEAT:  62.26687
 CYCLE:     6 TIME:   0.023 TIME LEFT:  2.00D  GRAD.:    37.458 HEAT:  62.10243
 CYCLE:     7 TIME:   0.020 TIME LEFT:  2.00D  GRAD.:    49.598 HEAT:  62.07570
 CYCLE:     8 TIME:   0.023 TIME LEFT:  2.00D  GRAD.:    37.503 HEAT:  61.85230
 CYCLE:     9 TIME:   0.031 TIME LEFT:  2.00D  GRAD.:    19.849 HEAT:  61.55016
 CYCLE:    10 TIME:   0.035 TIME LEFT:  2.00D  GRAD.:    14.694 HEAT:  61.48147
 CYCLE:    11 TIME:   0.027 TIME LEFT:  2.00D  GRAD.:    11.837 HEAT:  61.44341
 CYCLE:    12 TIME:   0.020 TIME LEFT:  2.00D  GRAD.:    11.571 HEAT:  61.42781
 CYCLE:    13 TIME:   0.023 TIME LEFT:  2.00D  GRAD.:     9.424 HEAT:  61.41344
 CYCLE:    14 TIME:   0.031 TIME LEFT:  2.00D  GRAD.:     4.792 HEAT:  61.39377
 CYCLE:    15 TIME:   0.035 TIME LEFT:  2.00D  GRAD.:     3.208 HEAT:  61.38778
 CYCLE:    16 TIME:   0.027 TIME LEFT:  2.00D  GRAD.:     4.127 HEAT:  61.38649
 CYCLE:    17 TIME:   0.023 TIME LEFT:  2.00D  GRAD.:     2.690 HEAT:  61.38234
 CYCLE:    18 TIME:   0.020 TIME LEFT:  2.00D  GRAD.:     4.460 HEAT:  61.38223
 CYCLE:    19 TIME:   0.023 TIME LEFT:  2.00D  GRAD.:     2.594 HEAT:  61.37618
 CYCLE:    20 TIME:   0.023 TIME LEFT:  2.00D  GRAD.:     3.073 HEAT:  61.37188
 CYCLE:    21 TIME:   0.023 TIME LEFT:  2.00D  GRAD.:     2.382 HEAT:  61.36442
 CYCLE:    22 TIME:   0.023 TIME LEFT:  2.00D  GRAD.:     1.711 HEAT:  61.35854
 CYCLE:    23 TIME:   0.023 TIME LEFT:  2.00D  GRAD.:     3.711 HEAT:  61.35287
 CYCLE:    24 TIME:   0.023 TIME LEFT:  2.00D  GRAD.:     2.407 HEAT:  61.35119
 CYCLE:    25 TIME:   0.020 TIME LEFT:  2.00D  GRAD.:     1.944 HEAT:  61.34888
 CYCLE:    26 TIME:   0.023 TIME LEFT:  2.00D  GRAD.:     1.857 HEAT:  61.34830
 CYCLE:    27 TIME:   0.023 TIME LEFT:  2.00D  GRAD.:     0.908 HEAT:  61.34661
 CYCLE:    28 TIME:   0.023 TIME LEFT:  2.00D  GRAD.:     0.892 HEAT:  61.34566
 CYCLE:    29 TIME:   0.035 TIME LEFT:  2.00D  GRAD.:     1.707 HEAT:  61.34531
 CYCLE:    30 TIME:   0.023 TIME LEFT:  2.00D  GRAD.:     0.771 HEAT:  61.34470
 CYCLE:    31 TIME:   0.023 TIME LEFT:  2.00D  GRAD.:     0.644 HEAT:  61.34436
 CYCLE:    32 TIME:   0.020 TIME LEFT:  2.00D  GRAD.:     0.556 HEAT:  61.34404
 CYCLE:    33 TIME:   0.023 TIME LEFT:  2.00D  GRAD.:     0.588 HEAT:  61.34368
 CYCLE:    34 TIME:   0.023 TIME LEFT:  2.00D  GRAD.:     0.681 HEAT:  61.34346
 CYCLE:    35 TIME:   0.023 TIME LEFT:  2.00D  GRAD.:     0.379 HEAT:  61.34323
 CYCLE:    36 TIME:   0.023 TIME LEFT:  2.00D  GRAD.:     0.479 HEAT:  61.34302
 CYCLE:    37 TIME:   0.023 TIME LEFT:  2.00D  GRAD.:     0.416 HEAT:  61.34274
 CYCLE:    38 TIME:   0.023 TIME LEFT:  2.00D  GRAD.:     0.440 HEAT:  61.34245
 CYCLE:    39 TIME:   0.020 TIME LEFT:  2.00D  GRAD.:     0.504 HEAT:  61.34219
 CYCLE:    40 TIME:   0.023 TIME LEFT:  2.00D  GRAD.:     0.562 HEAT:  61.34174
 CYCLE:    41 TIME:   0.023 TIME LEFT:  2.00D  GRAD.:     0.525 HEAT:  61.34108
 CYCLE:    42 TIME:   0.023 TIME LEFT:  2.00D  GRAD.:     0.771 HEAT:  61.34074
 CYCLE:    43 TIME:   0.023 TIME LEFT:  2.00D  GRAD.:     0.418 HEAT:  61.34003
 CYCLE:    44 TIME:   0.023 TIME LEFT:  2.00D  GRAD.:     0.315 HEAT:  61.33980
 CYCLE:    45 TIME:   0.020 TIME LEFT:  2.00D  GRAD.:     0.257 HEAT:  61.33957
 CYCLE:    46 TIME:   0.023 TIME LEFT:  2.00D  GRAD.:     0.239 HEAT:  61.33924
 CYCLE:    47 TIME:   0.023 TIME LEFT:  2.00D  GRAD.:     0.285 HEAT:  61.33897
 CYCLE:    48 TIME:   0.023 TIME LEFT:  2.00D  GRAD.:     0.263 HEAT:  61.33885
 CYCLE:    49 TIME:   0.023 TIME LEFT:  2.00D  GRAD.:     0.195 HEAT:  61.33865
 CYCLE:    50 TIME:   0.023 TIME LEFT:  2.00D  GRAD.:     0.161 HEAT:  61.33859
 CYCLE:    51 TIME:   0.023 TIME LEFT:  2.00D  GRAD.:     0.137 HEAT:  61.33850
 CYCLE:    52 TIME:   0.020 TIME LEFT:  2.00D  GRAD.:     0.080 HEAT:  61.33847
 CYCLE:    53 TIME:   0.023 TIME LEFT:  2.00D  GRAD.:     0.044 HEAT:  61.33845
 CYCLE:    54 TIME:   0.023 TIME LEFT:  2.00D  GRAD.:     0.045 HEAT:  61.33844
 CYCLE:    55 TIME:   0.023 TIME LEFT:  2.00D  GRAD.:     0.045 HEAT:  61.33843
 CYCLE:    56 TIME:   0.023 TIME LEFT:  2.00D  GRAD.:     0.080 HEAT:  61.33842
 CYCLE:    57 TIME:   0.023 TIME LEFT:  2.00D  GRAD.:     0.051 HEAT:  61.33842
 CYCLE:    58 TIME:   0.023 TIME LEFT:  2.00D  GRAD.:     0.046 HEAT:  61.33841
 CYCLE:    59 TIME:   0.020 TIME LEFT:  2.00D  GRAD.:     0.042 HEAT:  61.33840
 CYCLE:    60 TIME:   0.023 TIME LEFT:  2.00D  GRAD.:     0.039 HEAT:  61.33839
 CYCLE:    61 TIME:   0.023 TIME LEFT:  2.00D  GRAD.:     0.029 HEAT:  61.33838
 CYCLE:    62 TIME:   0.023 TIME LEFT:  2.00D  GRAD.:     0.025 HEAT:  61.33837
 CYCLE:    63 TIME:   0.023 TIME LEFT:  2.00D  GRAD.:     0.024 HEAT:  61.33837
 CYCLE:    64 TIME:   0.023 TIME LEFT:  2.00D  GRAD.:     0.026 HEAT:  61.33836
 CYCLE:    65 TIME:   0.020 TIME LEFT:  2.00D  GRAD.:     0.030 HEAT:  61.33836
 CYCLE:    66 TIME:   0.023 TIME LEFT:  2.00D  GRAD.:     0.025 HEAT:  61.33836
 CYCLE:    67 TIME:   0.023 TIME LEFT:  2.00D  GRAD.:     0.026 HEAT:  61.33835
 CYCLE:    68 TIME:   0.023 TIME LEFT:  2.00D  GRAD.:     0.026 HEAT:  61.33834
 CYCLE:    69 TIME:   0.023 TIME LEFT:  2.00D  GRAD.:     0.029 HEAT:  61.33833
 CYCLE:    70 TIME:   0.023 TIME LEFT:  2.00D  GRAD.:     0.041 HEAT:  61.33831
 CYCLE:    71 TIME:   0.023 TIME LEFT:  2.00D  GRAD.:     0.088 HEAT:  61.33825
 CYCLE:    72 TIME:   0.477 TIME LEFT:  2.00D  GRAD.:     1.144 HEAT:  61.33861
 CYCLE:    73 TIME:   0.051 TIME LEFT:  2.00D  GRAD.:     1.158 HEAT:  61.33860
 CYCLE:    74 TIME:   0.027 TIME LEFT:  2.00D  GRAD.:     0.293 HEAT:  61.33821
 CYCLE:    75 TIME:   0.023 TIME LEFT:  2.00D  GRAD.:     0.286 HEAT:  61.33812
 CYCLE:    76 TIME:   0.020 TIME LEFT:  2.00D  GRAD.:     0.273 HEAT:  61.33803
 CYCLE:    77 TIME:   0.023 TIME LEFT:  2.00D  GRAD.:     0.251 HEAT:  61.33787
 CYCLE:    78 TIME:   0.059 TIME LEFT:  2.00D  GRAD.:     0.345 HEAT:  61.33735
 CYCLE:    79 TIME:   0.043 TIME LEFT:  2.00D  GRAD.:     0.732 HEAT:  61.33495
 CYCLE:    80 TIME:   0.035 TIME LEFT:  2.00D  GRAD.:     4.265 HEAT:  61.32531
 CYCLE:    81 TIME:   0.031 TIME LEFT:  2.00D  GRAD.:    12.529 HEAT:  61.32664
 CYCLE:    82 TIME:   0.086 TIME LEFT:  2.00D  GRAD.:    15.872 HEAT:  61.31084
 CYCLE:    83 TIME:   0.027 TIME LEFT:  2.00D  GRAD.:    11.936 HEAT:  61.29552
 CYCLE:    84 TIME:   0.023 TIME LEFT:  2.00D  GRAD.:    11.858 HEAT:  61.29476
 CYCLE:    85 TIME:   0.020 TIME LEFT:  2.00D  GRAD.:     5.507 HEAT:  61.27179
 CYCLE:    86 TIME:   0.023 TIME LEFT:  2.00D  GRAD.:     2.321 HEAT:  61.26186
 CYCLE:    87 TIME:   0.023 TIME LEFT:  2.00D  GRAD.:     2.249 HEAT:  61.26044
 CYCLE:    88 TIME:   0.023 TIME LEFT:  2.00D  GRAD.:     1.324 HEAT:  61.24804
 CYCLE:    89 TIME:   0.023 TIME LEFT:  2.00D  GRAD.:     1.093 HEAT:  61.24261
 CYCLE:    90 TIME:   0.023 TIME LEFT:  2.00D  GRAD.:     1.165 HEAT:  61.24027
 CYCLE:    91 TIME:   0.039 TIME LEFT:  2.00D  GRAD.:     1.273 HEAT:  61.23323
 CYCLE:    92 TIME:   0.422 TIME LEFT:  2.00D  GRAD.:     3.683 HEAT:  61.23549
 CYCLE:    93 TIME:   0.051 TIME LEFT:  2.00D  GRAD.:     3.688 HEAT:  61.23518
 CYCLE:    94 TIME:   0.023 TIME LEFT:  2.00D  GRAD.:     3.186 HEAT:  61.23338
 CYCLE:    95 TIME:   0.023 TIME LEFT:  2.00D  GRAD.:     2.887 HEAT:  61.22995
 CYCLE:    96 TIME:   0.027 TIME LEFT:  2.00D  GRAD.:     2.560 HEAT:  61.22050
 CYCLE:    97 TIME:   0.023 TIME LEFT:  2.00D  GRAD.:     5.100 HEAT:  61.19765
 CYCLE:    98 TIME:   0.027 TIME LEFT:  2.00D  GRAD.:    15.715 HEAT:  61.18043
 CYCLE:    99 TIME:   0.023 TIME LEFT:  2.00D  GRAD.:     5.465 HEAT:  61.14952
 CYCLE:   100 TIME:   0.023 TIME LEFT:  2.00D  GRAD.:     5.602 HEAT:  61.12519
 CYCLE:   101 TIME:   0.023 TIME LEFT:  2.00D  GRAD.:     7.459 HEAT:  61.09862
 CYCLE:   102 TIME:   0.031 TIME LEFT:  2.00D  GRAD.:     2.712 HEAT:  61.04540
 CYCLE:   103 TIME:   0.027 TIME LEFT:  2.00D  GRAD.:     2.221 HEAT:  61.03080
 CYCLE:   104 TIME:   0.023 TIME LEFT:  2.00D  GRAD.:     1.855 HEAT:  61.01559
 CYCLE:   105 TIME:   0.023 TIME LEFT:  2.00D  GRAD.:    10.194 HEAT:  61.01047
 CYCLE:   106 TIME:   0.020 TIME LEFT:  2.00D  GRAD.:     3.192 HEAT:  60.98268
 CYCLE:   107 TIME:   0.023 TIME LEFT:  2.00D  GRAD.:     1.929 HEAT:  60.97290
 CYCLE:   108 TIME:   0.023 TIME LEFT:  2.00D  GRAD.:     1.845 HEAT:  60.96597
 CYCLE:   109 TIME:   0.023 TIME LEFT:  2.00D  GRAD.:     1.138 HEAT:  60.94800
 CYCLE:   110 TIME:   0.023 TIME LEFT:  2.00D  GRAD.:     2.991 HEAT:  60.93427
 CYCLE:   111 TIME:   0.023 TIME LEFT:  2.00D  GRAD.:     1.698 HEAT:  60.92893
 CYCLE:   112 TIME:   0.020 TIME LEFT:  2.00D  GRAD.:     1.244 HEAT:  60.92540
 CYCLE:   113 TIME:   0.023 TIME LEFT:  2.00D  GRAD.:     1.035 HEAT:  60.92321
 CYCLE:   114 TIME:   0.023 TIME LEFT:  2.00D  GRAD.:     1.871 HEAT:  60.91785
 CYCLE:   115 TIME:   0.023 TIME LEFT:  2.00D  GRAD.:     1.049 HEAT:  60.91526
 CYCLE:   116 TIME:   0.023 TIME LEFT:  2.00D  GRAD.:     0.966 HEAT:  60.91360
 CYCLE:   117 TIME:   0.023 TIME LEFT:  2.00D  GRAD.:     1.315 HEAT:  60.90925
 CYCLE:   118 TIME:   0.023 TIME LEFT:  2.00D  GRAD.:     1.584 HEAT:  60.90646
 CYCLE:   119 TIME:   0.020 TIME LEFT:  2.00D  GRAD.:     1.657 HEAT:  60.90363
 CYCLE:   120 TIME:   0.023 TIME LEFT:  2.00D  GRAD.:     2.166 HEAT:  60.89588
 CYCLE:   121 TIME:   0.023 TIME LEFT:  2.00D  GRAD.:     2.766 HEAT:  60.88843
 CYCLE:   122 TIME:   0.023 TIME LEFT:  2.00D  GRAD.:     3.046 HEAT:  60.87864
 CYCLE:   123 TIME:   0.023 TIME LEFT:  2.00D  GRAD.:     2.351 HEAT:  60.87157
 CYCLE:   124 TIME:   0.023 TIME LEFT:  2.00D  GRAD.:     2.320 HEAT:  60.86280
 CYCLE:   125 TIME:   0.023 TIME LEFT:  2.00D  GRAD.:     1.368 HEAT:  60.85934
 CYCLE:   126 TIME:   0.020 TIME LEFT:  2.00D  GRAD.:     0.893 HEAT:  60.85494
 CYCLE:   127 TIME:   0.023 TIME LEFT:  2.00D  GRAD.:     0.892 HEAT:  60.85343
 CYCLE:   128 TIME:   0.023 TIME LEFT:  2.00D  GRAD.:     1.008 HEAT:  60.84968
 CYCLE:   129 TIME:   0.023 TIME LEFT:  2.00D  GRAD.:     0.808 HEAT:  60.84830
 CYCLE:   130 TIME:   0.023 TIME LEFT:  2.00D  GRAD.:     1.135 HEAT:  60.84663
 CYCLE:   131 TIME:   0.023 TIME LEFT:  2.00D  GRAD.:     0.477 HEAT:  60.84547
 CYCLE:   132 TIME:   0.020 TIME LEFT:  2.00D  GRAD.:     0.363 HEAT:  60.84500
 CYCLE:   133 TIME:   0.023 TIME LEFT:  2.00D  GRAD.:     0.332 HEAT:  60.84471
 CYCLE:   134 TIME:   0.023 TIME LEFT:  2.00D  GRAD.:     0.551 HEAT:  60.84389
 CYCLE:   135 TIME:   0.023 TIME LEFT:  2.00D  GRAD.:     0.343 HEAT:  60.84363
 CYCLE:   136 TIME:   0.023 TIME LEFT:  2.00D  GRAD.:     0.198 HEAT:  60.84331
 CYCLE:   137 TIME:   0.023 TIME LEFT:  2.00D  GRAD.:     0.217 HEAT:  60.84316
 CYCLE:   138 TIME:   0.023 TIME LEFT:  2.00D  GRAD.:     0.204 HEAT:  60.84306
 CYCLE:   139 TIME:   0.020 TIME LEFT:  2.00D  GRAD.:     0.299 HEAT:  60.84280
 CYCLE:   140 TIME:   0.023 TIME LEFT:  2.00D  GRAD.:     0.285 HEAT:  60.84265
 CYCLE:   141 TIME:   0.023 TIME LEFT:  2.00D  GRAD.:     0.297 HEAT:  60.84224
 CYCLE:   142 TIME:   0.031 TIME LEFT:  2.00D  GRAD.:     0.345 HEAT:  60.84184
 CYCLE:   143 TIME:   0.023 TIME LEFT:  2.00D  GRAD.:     0.501 HEAT:  60.84095
 CYCLE:   144 TIME:   0.020 TIME LEFT:  2.00D  GRAD.:     1.097 HEAT:  60.83963
 CYCLE:   145 TIME:   0.035 TIME LEFT:  2.00D  GRAD.:     0.905 HEAT:  60.83845
 CYCLE:   146 TIME:   0.023 TIME LEFT:  2.00D  GRAD.:     0.767 HEAT:  60.83633
 CYCLE:   147 TIME:   0.023 TIME LEFT:  2.00D  GRAD.:     0.662 HEAT:  60.83241
 CYCLE:   148 TIME:   0.023 TIME LEFT:  2.00D  GRAD.:     0.627 HEAT:  60.82956
 CYCLE:   149 TIME:   0.020 TIME LEFT:  2.00D  GRAD.:     0.971 HEAT:  60.82465
 CYCLE:   150 TIME:   0.027 TIME LEFT:  2.00D  GRAD.:     6.096 HEAT:  60.82785
 CYCLE:   151 TIME:   0.020 TIME LEFT:  2.00D  GRAD.:     1.615 HEAT:  60.81791
 CYCLE:   152 TIME:   0.023 TIME LEFT:  2.00D  GRAD.:     1.447 HEAT:  60.81467
 CYCLE:   153 TIME:   0.023 TIME LEFT:  2.00D  GRAD.:     1.706 HEAT:  60.81133
 CYCLE:   154 TIME:   0.023 TIME LEFT:  2.00D  GRAD.:     2.986 HEAT:  60.80428
 CYCLE:   155 TIME:   0.020 TIME LEFT:  2.00D  GRAD.:     1.899 HEAT:  60.79575
 CYCLE:   156 TIME:   0.023 TIME LEFT:  2.00D  GRAD.:     1.310 HEAT:  60.79288
 CYCLE:   157 TIME:   0.023 TIME LEFT:  2.00D  GRAD.:     1.322 HEAT:  60.79080
 CYCLE:   158 TIME:   0.023 TIME LEFT:  2.00D  GRAD.:     1.339 HEAT:  60.78424
 CYCLE:   159 TIME:   0.023 TIME LEFT:  2.00D  GRAD.:     4.453 HEAT:  60.77790
 CYCLE:   160 TIME:   0.039 TIME LEFT:  2.00D  GRAD.:     2.981 HEAT:  60.77369
 CYCLE:   161 TIME:   0.023 TIME LEFT:  2.00D  GRAD.:     1.058 HEAT:  60.76914
 CYCLE:   162 TIME:   0.023 TIME LEFT:  2.00D  GRAD.:     0.967 HEAT:  60.76840
 CYCLE:   163 TIME:   0.023 TIME LEFT:  2.00D  GRAD.:     0.994 HEAT:  60.76670
 CYCLE:   164 TIME:   0.023 TIME LEFT:  2.00D  GRAD.:     1.957 HEAT:  60.76435
 CYCLE:   165 TIME:   0.020 TIME LEFT:  2.00D  GRAD.:     1.268 HEAT:  60.76324
 CYCLE:   166 TIME:   0.023 TIME LEFT:  2.00D  GRAD.:     1.225 HEAT:  60.76264
 CYCLE:   167 TIME:   0.023 TIME LEFT:  2.00D  GRAD.:     0.624 HEAT:  60.76167
 CYCLE:   168 TIME:   0.023 TIME LEFT:  2.00D  GRAD.:     0.647 HEAT:  60.76106
 CYCLE:   169 TIME:   0.023 TIME LEFT:  2.00D  GRAD.:     0.752 HEAT:  60.76027
 CYCLE:   170 TIME:   0.023 TIME LEFT:  2.00D  GRAD.:     0.635 HEAT:  60.75959
 CYCLE:   171 TIME:   0.023 TIME LEFT:  2.00D  GRAD.:     0.577 HEAT:  60.75944
 CYCLE:   172 TIME:   0.020 TIME LEFT:  2.00D  GRAD.:     0.337 HEAT:  60.75916
 CYCLE:   173 TIME:   0.023 TIME LEFT:  2.00D  GRAD.:     0.300 HEAT:  60.75892
 CYCLE:   174 TIME:   0.023 TIME LEFT:  2.00D  GRAD.:     0.208 HEAT:  60.75877
 CYCLE:   175 TIME:   0.023 TIME LEFT:  2.00D  GRAD.:     0.183 HEAT:  60.75869
 CYCLE:   176 TIME:   0.023 TIME LEFT:  2.00D  GRAD.:     0.161 HEAT:  60.75866
 CYCLE:   177 TIME:   0.023 TIME LEFT:  2.00D  GRAD.:     0.159 HEAT:  60.75861
 CYCLE:   178 TIME:   0.023 TIME LEFT:  2.00D  GRAD.:     0.193 HEAT:  60.75857
 CYCLE:   179 TIME:   0.020 TIME LEFT:  2.00D  GRAD.:     0.295 HEAT:  60.75844
 CYCLE:   180 TIME:   0.023 TIME LEFT:  2.00D  GRAD.:     0.268 HEAT:  60.75832
 CYCLE:   181 TIME:   0.023 TIME LEFT:  2.00D  GRAD.:     0.217 HEAT:  60.75820
 CYCLE:   182 TIME:   0.023 TIME LEFT:  2.00D  GRAD.:     0.138 HEAT:  60.75816
 CYCLE:   183 TIME:   0.023 TIME LEFT:  2.00D  GRAD.:     0.089 HEAT:  60.75815
 CYCLE:   184 TIME:   0.023 TIME LEFT:  2.00D  GRAD.:     0.057 HEAT:  60.75813
 CYCLE:   185 TIME:   0.020 TIME LEFT:  2.00D  GRAD.:     0.039 HEAT:  60.75812
 CYCLE:   186 TIME:   0.023 TIME LEFT:  2.00D  GRAD.:     0.027 HEAT:  60.75812
 CYCLE:   187 TIME:   0.023 TIME LEFT:  2.00D  GRAD.:     0.025 HEAT:  60.75811
 CYCLE:   188 TIME:   0.023 TIME LEFT:  2.00D  GRAD.:     0.016 HEAT:  60.75811
 CYCLE:   189 TIME:   0.023 TIME LEFT:  2.00D  GRAD.:     0.041 HEAT:  60.75811
 CYCLE:   190 TIME:   0.023 TIME LEFT:  2.00D  GRAD.:     0.012 HEAT:  60.75811
 CYCLE:   191 TIME:   0.023 TIME LEFT:  2.00D  GRAD.:     0.015 HEAT:  60.75811
 CYCLE:   192 TIME:   0.020 TIME LEFT:  2.00D  GRAD.:     0.008 HEAT:  60.75811

     GRADIENT =  0.00760  IS LESS THAN CUTOFF =  0.01000



 -------------------------------------------------------------------------------
 pm3  precise nosym gnorm=0.0 nonr THREADS=1
 InChI=1S/C10H12/c1-2-3-4-7-10-8-5-6-9-10/h2,5-9H,1,3-4H2



     GEOMETRY OPTIMISED USING EIGENVECTOR FOLLOWING (EF).     
     SCF FIELD WAS ACHIEVED                                   


                              PM3 CALCULATION
                                                       MOPAC2016 (Version: 18.184L)
                                                       Thu Jun 13 15:38:34 2019
                                                       No. of days remaining =  20




          FINAL HEAT OF FORMATION =         60.75811 KCAL/MOL =     254.21194 KJ/MOL


          TOTAL ENERGY            =      -1367.76158 EV
          ELECTRONIC ENERGY       =      -6983.38344 EV  POINT GROUP:     C1  
          CORE-CORE REPULSION     =       5615.62186 EV
          COSMO AREA              =        196.25 SQUARE ANGSTROMS
          COSMO VOLUME            =        191.86 CUBIC ANGSTROMS

          GRADIENT NORM           =          0.00760 = 0.00162 PER ATOM
          IONIZATION POTENTIAL    =          9.127797 EV
          HOMO LUMO ENERGIES (EV) =         -9.128 -0.633
          NO. OF FILLED LEVELS    =         26
          MOLECULAR WEIGHT        =        132.2048

          MOLECULAR DIMENSIONS (Angstroms)

            Atom       Atom       Distance
            H    21    H    19    10.27539
            H    20    H    18     4.28992
            H    14    H    11     3.04677


          SCF CALCULATIONS        =        221
 
          WALL-CLOCK TIME         =          5.680 SECONDS
          COMPUTATION TIME        =          2.092 SECONDS




   ATOM   CHEMICAL          X               Y               Z
  NUMBER   SYMBOL      (ANGSTROMS)     (ANGSTROMS)     (ANGSTROMS)
 
     1       C          0.72822581  *  -0.19376929  *  -0.70419972  *
     2       C          1.96682284  *   0.00083897  *   0.16163473  *
     3       C         -1.59746488  *   0.58001012  *  -0.23863191  *
     4       C         -0.29645103  *   0.84013539  *  -0.41282065  *
     5       C          2.99220082  *  -1.03494048  *  -0.13996020  *
     6       C         -2.29444924  *  -0.72069407  *  -0.26741401  *
     7       C         -2.64958754  *   1.58319678  *   0.02597473  *
     8       C         -3.83640121  *   0.93777382  *   0.13703100  *
     9       C         -3.61410222  *  -0.50267034  *  -0.04608221  *
    10       C          4.25970478  *  -0.74495261  *  -0.40824004  *
    11       H          0.99726302  *  -0.12119224  *  -1.77783570  *
    12       H          0.31848699  *  -1.21617560  *  -0.56586603  *
    13       H          2.37496211  *   1.02249900  *   0.02185170  *
    14       H          1.69677760  *  -0.07132408  *   1.23437290  *
    15       H          0.05916373  *   1.87744435  *  -0.35042951  *
    16       H          2.64142690  *  -2.07418308  *  -0.12065868  *
    17       H         -1.78941541  *  -1.66985667  *  -0.43844017  *
    18       H         -2.45303883  *   2.64984386  *   0.10784555  *
    19       H         -4.81387047  *   1.37397441  *   0.33002347  *
    20       H         -4.41011255  *  -1.24257155  *  -0.00177163  *
    21       H          5.00369240  *  -1.50862230  *  -0.61324641  *
    22       H          4.64569627  *   0.27047620  *  -0.44048543  *

                             CARTESIAN COORDINATES

   1    C        0.728225807    -0.193769285    -0.704199723
   2    C        1.966822842     0.000838968     0.161634734
   3    C       -1.597464884     0.580010119    -0.238631908
   4    C       -0.296451026     0.840135388    -0.412820646
   5    C        2.992200817    -1.034940483    -0.139960204
   6    C       -2.294449238    -0.720694068    -0.267414014
   7    C       -2.649587536     1.583196779     0.025974726
   8    C       -3.836401214     0.937773820     0.137030995
   9    C       -3.614102219    -0.502670343    -0.046082211
  10    C        4.259704781    -0.744952606    -0.408240035
  11    H        0.997263019    -0.121192235    -1.777835702
  12    H        0.318486992    -1.216175600    -0.565866029
  13    H        2.374962112     1.022499003     0.021851697
  14    H        1.696777597    -0.071324083     1.234372900
  15    H        0.059163734     1.877444351    -0.350429508
  16    H        2.641426897    -2.074183076    -0.120658677
  17    H       -1.789415413    -1.669856670    -0.438440173
  18    H       -2.453038829     2.649843856     0.107845550
  19    H       -4.813870475     1.373974405     0.330023471
  20    H       -4.410112555    -1.242571545    -0.001771627
  21    H        5.003692404    -1.508622305    -0.613246405
  22    H        4.645696273     0.270476198    -0.440485432


           Empirical Formula: C10 H12  =    22 atoms



      MOLECULAR POINT GROUP   :   C1  


                  EIGENVALUES  
 -40.10541 -37.23034 -32.20397 -27.81438 -27.19847 -23.43982 -21.35323 -19.99429
 -18.89236 -18.35426 -17.39248 -16.65536 -15.44456 -15.17331 -14.24079 -14.07970
 -13.95690 -13.79613 -12.98893 -12.84843 -12.40780 -12.16029 -11.98752 -10.33618
  -9.56538  -9.12780  -0.63294   1.01840   2.04719   2.18959   2.96322   3.28401
   3.38096   3.41359   3.53546   3.70389   3.75934   3.83484   3.97322   4.02696
   4.31850   4.37757   4.42517   4.51792   4.64391   5.01272   5.16626   5.46505
   5.72331   6.02668   6.21111   6.22845


              NET ATOMIC CHARGES AND DIPOLE CONTRIBUTIONS

  ATOM NO.   TYPE          CHARGE      No. of ELECS.   s-Pop       p-Pop       
    1          C          -0.079876        4.0799     1.14991     2.92997
    2          C          -0.064377        4.0644     1.14954     2.91484
    3          C          -0.092492        4.0925     1.18510     2.90739
    4          C          -0.041910        4.0419     1.19222     2.84969
    5          C          -0.142523        4.1425     1.19545     2.94707
    6          C          -0.126792        4.1268     1.19024     2.93655
    7          C          -0.126625        4.1266     1.19274     2.93388
    8          C          -0.117557        4.1176     1.19367     2.92389
    9          C          -0.113439        4.1134     1.19365     2.91979
   10          C          -0.160379        4.1604     1.18259     2.97779
   11          H           0.066531        0.9335     0.93347
   12          H           0.065057        0.9349     0.93494
   13          H           0.054893        0.9451     0.94511
   14          H           0.060432        0.9396     0.93957
   15          H           0.098854        0.9011     0.90115
   16          H           0.098464        0.9015     0.90154
   17          H           0.117444        0.8826     0.88256
   18          H           0.115591        0.8844     0.88441
   19          H           0.113530        0.8865     0.88647
   20          H           0.113160        0.8868     0.88684
   21          H           0.080177        0.9198     0.91982
   22          H           0.081837        0.9182     0.91816
 DIPOLE           X         Y         Z       TOTAL
 POINT-CHG.     0.870     0.019    -0.108     0.877
 HYBRID         0.050     0.040    -0.017     0.066
 SUM            0.920     0.059    -0.125     0.930


          ATOMIC ORBITAL ELECTRON POPULATIONS

     Atom    s        px        py        pz   
    1  C   1.14991   0.94733   0.98514   0.99750
    2  C   1.14954   0.94445   0.97738   0.99301
    3  C   1.18510   0.94120   0.94707   1.01912
    4  C   1.19222   0.93987   0.98512   0.92470
    5  C   1.19545   0.95936   0.98775   0.99996
    6  C   1.19024   0.95321   0.95347   1.02987
    7  C   1.19274   0.94203   0.96636   1.02550
    8  C   1.19367   0.97160   0.94438   1.00791
    9  C   1.19365   0.96160   0.95459   1.00360
   10  C   1.18259   0.96013   1.01027   1.00739
   11  H   0.93347
   12  H   0.93494
   13  H   0.94511
   14  H   0.93957
   15  H   0.90115
   16  H   0.90154
   17  H   0.88256
   18  H   0.88441
   19  H   0.88647
   20  H   0.88684
   21  H   0.91982
   22  H   0.91816
 *******************************************************************************
 ** Site#: 14399        For non-commercial use only    Version 18.184L 64BITS **
 *******************************************************************************
 ** Cite this program as: MOPAC2016, Version: 18.184L, James J. P. Stewart,   **
 ** Stewart Computational Chemistry, web: HTTP://OpenMOPAC.net. Days left:  20**
 *******************************************************************************
 **                                                                           **
 **                                MOPAC2016                                  **
 **                                                                           **
 *******************************************************************************

                              PM3 CALCULATION RESULTS

 *******************************************************************************
 *  CALCULATION DONE:                                Thu Jun 13 15:38:34 2019  *
 *  PM3        - The PM3 Hamiltonian to be used
 *  OLDGEO     - PREVIOUS GEOMETRY TO BE USED
 *  PRECISE    - CRITERIA TO BE INCREASED BY 100 TIMES
 *  NOSYM      - POINT-GROUP SYMMETRY SET TO C1
 *  THREADS=1  - MULTI-THREADING NOT USED
 *  T=         - A TIME OF 172800.0 SECONDS REQUESTED
 *  DUMP=N     - RESTART FILE WRITTEN EVERY  7200.000 SECONDS
 *  THERMO     - THERMODYNAMIC QUANTITIES TO BE CALCULATED
 *******************************************************************************
oldgeo thermo nosym precise THREADS=1  pm3
 InChI=1S/C10H12/c1-2-3-4-7-10-8-5-6-9-10/h2,5-9H,1,3-4H2

   ATOM   CHEMICAL          X               Y               Z
  NUMBER   SYMBOL      (ANGSTROMS)     (ANGSTROMS)     (ANGSTROMS)
 
     1       C          0.72822581  *  -0.19376929  *  -0.70419972  *
     2       C          1.96682284  *   0.00083897  *   0.16163473  *
     3       C         -1.59746488  *   0.58001012  *  -0.23863191  *
     4       C         -0.29645103  *   0.84013539  *  -0.41282065  *
     5       C          2.99220082  *  -1.03494048  *  -0.13996020  *
     6       C         -2.29444924  *  -0.72069407  *  -0.26741401  *
     7       C         -2.64958754  *   1.58319678  *   0.02597473  *
     8       C         -3.83640121  *   0.93777382  *   0.13703100  *
     9       C         -3.61410222  *  -0.50267034  *  -0.04608221  *
    10       C          4.25970478  *  -0.74495261  *  -0.40824004  *
    11       H          0.99726302  *  -0.12119224  *  -1.77783570  *
    12       H          0.31848699  *  -1.21617560  *  -0.56586603  *
    13       H          2.37496211  *   1.02249900  *   0.02185170  *
    14       H          1.69677760  *  -0.07132408  *   1.23437290  *
    15       H          0.05916373  *   1.87744435  *  -0.35042951  *
    16       H          2.64142690  *  -2.07418308  *  -0.12065868  *
    17       H         -1.78941541  *  -1.66985667  *  -0.43844017  *
    18       H         -2.45303883  *   2.64984386  *   0.10784555  *
    19       H         -4.81387047  *   1.37397441  *   0.33002347  *
    20       H         -4.41011255  *  -1.24257155  *  -0.00177163  *
    21       H          5.00369240  *  -1.50862230  *  -0.61324641  *
    22       H          4.64569627  *   0.27047620  *  -0.44048543  *
 


          CARTESIAN COORDINATES 

    NO.       ATOM           X           Y           Z

     1         C          0.7282     -0.1938     -0.7042
     2         C          1.9668      0.0008      0.1616
     3         C         -1.5975      0.5800     -0.2386
     4         C         -0.2965      0.8401     -0.4128
     5         C          2.9922     -1.0349     -0.1400
     6         C         -2.2944     -0.7207     -0.2674
     7         C         -2.6496      1.5832      0.0260
     8         C         -3.8364      0.9378      0.1370
     9         C         -3.6141     -0.5027     -0.0461
    10         C          4.2597     -0.7450     -0.4082
    11         H          0.9973     -0.1212     -1.7778
    12         H          0.3185     -1.2162     -0.5659
    13         H          2.3750      1.0225      0.0219
    14         H          1.6968     -0.0713      1.2344
    15         H          0.0592      1.8774     -0.3504
    16         H          2.6414     -2.0742     -0.1207
    17         H         -1.7894     -1.6699     -0.4384
    18         H         -2.4530      2.6498      0.1078
    19         H         -4.8139      1.3740      0.3300
    20         H         -4.4101     -1.2426     -0.0018
    21         H          5.0037     -1.5086     -0.6132
    22         H          4.6457      0.2705     -0.4405

  H: (PM3): J. J. P. STEWART, J. COMP. CHEM. 10, 209 (1989).
  C: (PM3): J. J. P. STEWART, J. COMP. CHEM. 10, 209 (1989).

           Empirical Formula: C10 H12  =    22 atoms



      MOLECULAR POINT GROUP   :   C1  


      RHF CALCULATION, NO. OF DOUBLY OCCUPIED LEVELS = 26



          HEAT OF FORMATION =      60.758112 KCALS/MOLE


          CARTESIAN COORDINATE DERIVATIVES

   NUMBER  ATOM         X            Y            Z

     1       C     -0.000403     0.002576     0.001860
     2       C      0.001012    -0.001063    -0.002406
     3       C     -0.009808     0.001600     0.002897
     4       C      0.005040    -0.002403     0.000423
     5       C      0.001266     0.003262     0.001211
     6       C      0.009850    -0.002867    -0.002918
     7       C      0.006899    -0.005146    -0.003799
     8       C     -0.006825    -0.005093     0.013112
     9       C     -0.005979     0.011571    -0.007819
    10       C     -0.000928    -0.002094    -0.003173
    11       H     -0.000541    -0.000266    -0.001024
    12       H      0.000708     0.000815     0.000579
    13       H     -0.000213    -0.000589     0.000053
    14       H     -0.001490    -0.001076     0.000162
    15       H      0.000635     0.000246    -0.000499
    16       H      0.000760     0.000863     0.001276
    17       H     -0.000232    -0.000289    -0.001431
    18       H      0.000605     0.000776     0.000632
    19       H      0.000204     0.000443     0.000108
    20       H     -0.000073    -0.000505    -0.000539
    21       H      0.000953     0.000645     0.001100
    22       H     -0.001440    -0.001407     0.000194
 


          GRADIENT NORM =   0.02974


          TIME FOR SCF CALCULATION =    0.02

          TIME FOR DERIVATIVES     =    0.01

          MOLECULAR WEIGHT =  132.20



          ROTATIONAL CONSTANTS IN CM(-1)

          A =    0.17938651   B =    0.01637372   C =    0.01533125



           PRINCIPAL MOMENTS OF INERTIA IN UNITS OF 10**(-40)*GRAM-CM**2

          A =      156.0473   B =     1709.6161   C =     1825.8639


          ORIENTATION OF MOLECULE IN FORCE CALCULATION

    NO.       ATOM         X         Y         Z

     1          C       0.5623   -1.0711   -0.2299
     2          C       2.0860   -1.0711   -0.2299
     3          C      -0.9648    0.9018   -0.2299
     4          C       0.0270    0.1967   -0.7866
     5          C       2.6159   -2.3471    0.3234
     6          C      -1.7139    0.6266    1.0117
     7          C      -1.5416    2.1515   -0.7674
     8          C      -2.5257    2.5619    0.0696
     9          C      -2.6330    1.6086    1.1821
    10          C       3.5308   -3.0827   -0.2967
    11          H       0.1802   -1.9089   -0.8483
    12          H       0.1773   -1.2545    0.7950
    13          H       2.4688   -0.8882   -1.2546
    14          H       2.4669   -0.2331    0.3878
    15          H       0.4840    0.5528   -1.7197
    16          H       2.2089   -2.6517    1.2956
    17          H      -1.5218   -0.2327    1.6520
    18          H      -1.1991    2.6226   -1.6860
    19          H      -3.1549    3.4437   -0.0273
    20          H      -3.3494    1.7127    1.9938
    21          H       3.9215   -4.0052    0.1217
    22          H       3.9559   -2.8180   -1.2612


    FIRST DERIVATIVES WILL BE USED IN THE CALCULATION OF SECOND DERIVATIVES

          ESTIMATED TIME TO COMPLETE CALCULATION =        7.22 SECONDS

    FOR POINT-GROUP C1   THERE ARE   1 UNIQUE SYMMETRY FUNCTIONS.

 STEP:   1 TIME =     0.05 SECS, INTEGRAL =      0.05 TIME LEFT: 172799.92
 STEP:   2 TIME =     0.05 SECS, INTEGRAL =      0.10 TIME LEFT: 172799.88
 STEP:   3 TIME =     0.05 SECS, INTEGRAL =      0.15 TIME LEFT: 172799.82
 STEP:   4 TIME =     0.05 SECS, INTEGRAL =      0.20 TIME LEFT: 172799.77
 STEP:   5 TIME =     0.05 SECS, INTEGRAL =      0.25 TIME LEFT: 172799.73
 STEP:   6 TIME =     0.05 SECS, INTEGRAL =      0.30 TIME LEFT: 172799.68
 STEP:   7 TIME =     0.05 SECS, INTEGRAL =      0.35 TIME LEFT: 172799.62
 STEP:   8 TIME =     0.05 SECS, INTEGRAL =      0.39 TIME LEFT: 172799.58
 STEP:   9 TIME =     0.05 SECS, INTEGRAL =      0.45 TIME LEFT: 172799.53
 STEP:  10 TIME =     0.05 SECS, INTEGRAL =      0.50 TIME LEFT: 172799.48
 STEP:  11 TIME =     0.05 SECS, INTEGRAL =      0.55 TIME LEFT: 172799.43
 STEP:  12 TIME =     0.05 SECS, INTEGRAL =      0.60 TIME LEFT: 172799.38
 STEP:  13 TIME =     0.05 SECS, INTEGRAL =      0.64 TIME LEFT: 172799.33
 STEP:  14 TIME =     0.05 SECS, INTEGRAL =      0.70 TIME LEFT: 172799.28
 STEP:  15 TIME =     0.05 SECS, INTEGRAL =      0.74 TIME LEFT: 172799.23
 STEP:  16 TIME =     0.05 SECS, INTEGRAL =      0.79 TIME LEFT: 172799.18
 STEP:  17 TIME =     0.05 SECS, INTEGRAL =      0.84 TIME LEFT: 172799.13
 STEP:  18 TIME =     0.05 SECS, INTEGRAL =      0.89 TIME LEFT: 172799.08
 STEP:  19 TIME =     0.05 SECS, INTEGRAL =      0.94 TIME LEFT: 172799.04
 STEP:  20 TIME =     0.05 SECS, INTEGRAL =      0.99 TIME LEFT: 172798.98
 STEP:  21 TIME =     0.05 SECS, INTEGRAL =      1.04 TIME LEFT: 172798.94
 STEP:  22 TIME =     0.05 SECS, INTEGRAL =      1.09 TIME LEFT: 172798.89
 STEP:  23 TIME =     0.05 SECS, INTEGRAL =      1.14 TIME LEFT: 172798.84
 STEP:  24 TIME =     0.05 SECS, INTEGRAL =      1.18 TIME LEFT: 172798.79
 STEP:  25 TIME =     0.05 SECS, INTEGRAL =      1.23 TIME LEFT: 172798.74
 STEP:  26 TIME =     0.05 SECS, INTEGRAL =      1.29 TIME LEFT: 172798.69
 STEP:  27 TIME =     0.05 SECS, INTEGRAL =      1.34 TIME LEFT: 172798.64
 STEP:  28 TIME =     0.05 SECS, INTEGRAL =      1.39 TIME LEFT: 172798.59
 STEP:  29 TIME =     0.05 SECS, INTEGRAL =      1.43 TIME LEFT: 172798.54
 STEP:  30 TIME =     0.05 SECS, INTEGRAL =      1.48 TIME LEFT: 172798.49
 STEP:  31 TIME =     0.05 SECS, INTEGRAL =      1.54 TIME LEFT: 172798.44
 STEP:  32 TIME =     0.05 SECS, INTEGRAL =      1.58 TIME LEFT: 172798.39
 STEP:  33 TIME =     0.05 SECS, INTEGRAL =      1.63 TIME LEFT: 172798.34
 STEP:  34 TIME =     0.05 SECS, INTEGRAL =      1.68 TIME LEFT: 172798.29
 STEP:  35 TIME =     0.05 SECS, INTEGRAL =      1.73 TIME LEFT: 172798.24
 STEP:  36 TIME =     0.05 SECS, INTEGRAL =      1.79 TIME LEFT: 172798.19
 STEP:  37 TIME =     0.05 SECS, INTEGRAL =      1.84 TIME LEFT: 172798.14
 STEP:  38 TIME =     0.05 SECS, INTEGRAL =      1.88 TIME LEFT: 172798.09
 STEP:  39 TIME =     0.05 SECS, INTEGRAL =      1.93 TIME LEFT: 172798.04
 STEP:  40 TIME =     0.05 SECS, INTEGRAL =      1.98 TIME LEFT: 172797.99
 STEP:  41 TIME =     0.05 SECS, INTEGRAL =      2.03 TIME LEFT: 172797.95
 STEP:  42 TIME =     0.05 SECS, INTEGRAL =      2.08 TIME LEFT: 172797.89
 STEP:  43 TIME =     0.05 SECS, INTEGRAL =      2.13 TIME LEFT: 172797.84
 STEP:  44 TIME =     0.05 SECS, INTEGRAL =      2.18 TIME LEFT: 172797.79
 STEP:  45 TIME =     0.05 SECS, INTEGRAL =      2.23 TIME LEFT: 172797.74
 STEP:  46 TIME =     0.05 SECS, INTEGRAL =      2.28 TIME LEFT: 172797.69
 STEP:  47 TIME =     0.05 SECS, INTEGRAL =      2.33 TIME LEFT: 172797.64
 STEP:  48 TIME =     0.05 SECS, INTEGRAL =      2.38 TIME LEFT: 172797.59
 STEP:  49 TIME =     0.05 SECS, INTEGRAL =      2.43 TIME LEFT: 172797.54
 STEP:  50 TIME =     0.05 SECS, INTEGRAL =      2.48 TIME LEFT: 172797.49
 STEP:  51 TIME =     0.05 SECS, INTEGRAL =      2.53 TIME LEFT: 172797.44
 STEP:  52 TIME =     0.05 SECS, INTEGRAL =      2.58 TIME LEFT: 172797.39
 STEP:  53 TIME =     0.05 SECS, INTEGRAL =      2.63 TIME LEFT: 172797.34
 STEP:  54 TIME =     0.05 SECS, INTEGRAL =      2.68 TIME LEFT: 172797.29
 STEP:  55 TIME =     0.05 SECS, INTEGRAL =      2.73 TIME LEFT: 172797.24
 STEP:  56 TIME =     0.05 SECS, INTEGRAL =      2.78 TIME LEFT: 172797.20
 STEP:  57 TIME =     0.05 SECS, INTEGRAL =      2.83 TIME LEFT: 172797.14
 STEP:  58 TIME =     0.05 SECS, INTEGRAL =      2.88 TIME LEFT: 172797.09
 STEP:  59 TIME =     0.05 SECS, INTEGRAL =      2.93 TIME LEFT: 172797.04
 STEP:  60 TIME =     0.05 SECS, INTEGRAL =      2.98 TIME LEFT: 172796.99
 STEP:  61 TIME =     0.05 SECS, INTEGRAL =      3.03 TIME LEFT: 172796.94
 STEP:  62 TIME =     0.05 SECS, INTEGRAL =      3.08 TIME LEFT: 172796.89
 STEP:  63 TIME =     0.05 SECS, INTEGRAL =      3.13 TIME LEFT: 172796.84
 STEP:  64 TIME =     0.05 SECS, INTEGRAL =      3.18 TIME LEFT: 172796.79
 STEP:  65 TIME =     0.05 SECS, INTEGRAL =      3.23 TIME LEFT: 172796.74
 STEP:  66 TIME =     0.05 SECS, INTEGRAL =      3.28 TIME LEFT: 172796.70

(To convert to Hartree/Bohr^2, multiply by (10^(-21) x N x a0^2)/(4.184 x 627.51) =  0.0642)


           FORCE MATRIX IN MILLIDYNES/ANGSTROM


                  C  1       C  2       C  3       C  4       C  5       C  6
 ------------------------------------------------------------------------------
     C    1  14.616265
     C    2   4.046852  14.647787
     C    3   0.814304   0.048329  19.491498
     C    4   5.019315   0.706880  10.095342  18.009746
     C    5   0.702961   4.965246   0.012166   0.053711  18.195451
     C    6   0.095921   0.014391   4.764845   0.821538   0.004773  18.117504
     C    7   0.143918   0.020227   4.720312   0.897622   0.004766   1.142793
     C    8   0.029235   0.007015   1.498856   0.144062   0.004134   1.561921
     C    9   0.024550   0.006954   1.515029   0.139269   0.005150   9.486025
     C   10   0.041792   0.835720   0.004741   0.008458  11.090834   0.002778
     H   11   4.411690   0.448504   0.039311   0.402089   0.020076   0.014241
     H   12   4.393492   0.439552   0.040489   0.460419   0.033885   0.036303
     H   13   0.442868   4.429694   0.003868   0.036902   0.459047   0.002221
     H   14   0.448146   4.438421   0.003611   0.021289   0.411145   0.002212
     H   15   0.432274   0.030464   0.451799   4.750970   0.002578   0.116447
     H   16   0.026550   0.431876   0.001961   0.001618   4.786034   0.001263
     H   17   0.025167   0.002247   0.419710   0.014113   0.000970   5.037600
     H   18   0.003911   0.000882   0.420080   0.020592   0.000648   0.038291
     H   19   0.008572   0.001215   0.107187   0.008611   0.000610   0.048986
     H   20   0.004131   0.000597   0.109325   0.009757   0.000625   0.444626
     H   21   0.017721   0.136280   0.001630   0.003150   0.461960   0.000951
     H   22   0.009745   0.096534   0.001591   0.002596   0.490170   0.000955


                  C  7       C  8       C  9       C 10       H 11       H 12
 ------------------------------------------------------------------------------
     C    7  18.129146
     C    8   9.498515  18.148519
     C    9   1.568517   5.012251  18.140027
     C   10   0.002607   0.003104   0.003119  18.049094
     H   11   0.021233   0.007451   0.007117   0.002341   5.008088
     H   12   0.006578   0.004607   0.003765   0.001967   0.558221   4.976786
     H   13   0.001973   0.001694   0.001514   0.047651   0.023581   0.043720
     H   14   0.001746   0.001541   0.001457   0.034130   0.046542   0.023596
     H   15   0.086023   0.020752   0.022396   0.001168   0.015996   0.038755
     H   16   0.001347   0.001304   0.001457   0.454554   0.002506   0.023064
     H   17   0.039040   0.098194   0.444900   0.000746   0.001904   0.074332
     H   18   5.076942   0.443989   0.097897   0.000500   0.000767   0.000593
     H   19   0.445434   5.085742   0.418710   0.000600   0.001285   0.000408
     H   20   0.049004   0.418741   5.084494   0.000586   0.000541   0.000545
     H   21   0.000976   0.001243   0.001131   5.108856   0.000629   0.000508
     H   22   0.000642   0.000912   0.000893   5.071110   0.000653   0.000504


                  H 13       H 14       H 15       H 16       H 17       H 18
 ------------------------------------------------------------------------------
     H   13   5.044268
     H   14   0.560847   5.030953
     H   15   0.024596   0.002525   5.113343
     H   16   0.038990   0.018784   0.000741   5.159408
     H   17   0.000693   0.000577   0.003862   0.000740   5.427743
     H   18   0.000212   0.000183   0.011150   0.000203   0.009500   5.479071
     H   19   0.000112   0.000156   0.003456   0.000165   0.005285   0.039807
     H   20   0.000116   0.000141   0.007423   0.000132   0.040241   0.005423
     H   21   0.002965   0.017481   0.000293   0.077891   0.000270   0.000171
     H   22   0.029158   0.011502   0.000643   0.115702   0.000274   0.000175


                  H 19       H 20       H 21       H 22
 ------------------------------------------------------
     H   19   5.477020
     H   20   0.008715   5.475109
     H   21   0.000282   0.000126   5.495807
     H   22   0.000114   0.000161   0.422620   5.466100


          HEAT OF FORMATION =      60.758112 KCALS/MOLE

          ZERO POINT ENERGY     117.252 KCAL/MOL


           NORMAL COORDINATE ANALYSIS (Total motion = 1 Angstrom)


   Root No.       1         2         3         4         5         6         7         8

                 1 A       2 A       3 A       4 A       5 A       6 A       7 A       8 A   

                  48.1      72.3      81.8     122.9     174.0     211.7     306.1     347.7
  
           1    0.0160   -0.0133   -0.0171    0.0085    0.0031    0.0281    0.0187   -0.0132
           2    0.0122   -0.0234   -0.0211   -0.0137    0.0296    0.0090    0.0120    0.0006
           3    0.0546   -0.0007    0.0025   -0.0029    0.0502   -0.0301    0.0097    0.0045
           4    0.0161   -0.0131   -0.0166    0.0097    0.0022    0.0295    0.0180   -0.0226
           5   -0.0068    0.0140   -0.0262    0.0204    0.0001    0.0053    0.0376    0.0025
           6    0.0099    0.0570   -0.0342   -0.0092    0.0090    0.0018   -0.0112   -0.0187
           7   -0.0007   -0.0051   -0.0120   -0.0150   -0.0232   -0.0279    0.0038    0.0082
           8    0.0033   -0.0142   -0.0085   -0.0235   -0.0096   -0.0189   -0.0151   -0.0171
           9    0.0190   -0.0052    0.0109    0.0013   -0.0435    0.0006    0.0151    0.0127
          10    0.0133   -0.0150   -0.0170   -0.0107    0.0013    0.0066   -0.0186    0.0413
          11    0.0050   -0.0266   -0.0167   -0.0195    0.0018    0.0177   -0.0217    0.0246
          12    0.0416   -0.0066    0.0123    0.0043   -0.0145    0.0126   -0.0136    0.0309
          13    0.0174   -0.0013    0.0045    0.0327   -0.0078   -0.0004   -0.0336   -0.0355
          14   -0.0196   -0.0057   -0.0096    0.0430   -0.0097   -0.0141    0.0111    0.0151
          15   -0.0210   -0.0003   -0.0168    0.0201   -0.0033   -0.0093   -0.0263    0.0059
          16   -0.0230    0.0004   -0.0320   -0.0373   -0.0097   -0.0291    0.0019   -0.0034
          17    0.0151    0.0039    0.0015   -0.0210   -0.0293   -0.0001   -0.0020   -0.0229
          18    0.0080    0.0020    0.0008   -0.0118   -0.0396    0.0047    0.0171    0.0027
          19    0.0026    0.0068    0.0197    0.0216   -0.0201   -0.0286    0.0231    0.0122
          20   -0.0062   -0.0107    0.0067   -0.0024    0.0035   -0.0232   -0.0119   -0.0337
          21   -0.0077   -0.0102    0.0106    0.0098   -0.0130   -0.0129    0.0082   -0.0142
          22   -0.0149    0.0192    0.0206    0.0304    0.0204    0.0012    0.0137    0.0200
          23   -0.0002    0.0085    0.0249    0.0186    0.0152    0.0132   -0.0069   -0.0182
          24   -0.0312   -0.0052    0.0023    0.0094    0.0298    0.0036   -0.0067   -0.0149
          25   -0.0309    0.0148   -0.0128   -0.0088    0.0237    0.0048   -0.0075    0.0231
          26    0.0130    0.0174    0.0207    0.0052   -0.0079    0.0304   -0.0060    0.0014
          27   -0.0216    0.0021   -0.0047   -0.0061    0.0108    0.0181   -0.0076    0.0038
          28    0.0014    0.0067    0.0581   -0.0327    0.0044    0.0083   -0.0165   -0.0259
          29   -0.0150    0.0331    0.0268   -0.0106    0.0029   -0.0209    0.0018    0.0387
          30   -0.0503   -0.0346    0.0188   -0.0125   -0.0003    0.0117    0.0131   -0.0048
          31   -0.0114    0.0294   -0.0360    0.0239   -0.0286    0.0467    0.0279   -0.0365
          32    0.0041   -0.0237   -0.0197   -0.0191   -0.0052    0.0327   -0.0194    0.0239
          33    0.0822   -0.0265    0.0126   -0.0048    0.1169   -0.0748    0.0464   -0.0127
          34    0.0443   -0.0476    0.0067    0.0179    0.0261    0.0141    0.0417   -0.0132
          35    0.0364   -0.0453   -0.0177   -0.0261    0.1046   -0.0422    0.0383   -0.0131
          36    0.0690   -0.0177    0.0113   -0.0024    0.0736   -0.0454    0.0237    0.0022
          37   -0.0112    0.0202   -0.0414    0.0013   -0.0216    0.0561    0.0178   -0.0384
          38   -0.0005    0.0835   -0.0496    0.0020   -0.0115    0.0249    0.0472   -0.0304
          39    0.0007    0.0817   -0.0478   -0.0156   -0.0021    0.0159   -0.0087   -0.0316
          40    0.0447   -0.0570   -0.0014   -0.0053    0.0367    0.0210    0.0258   -0.0086
          41   -0.0182   -0.0125   -0.0118    0.0442   -0.0059   -0.0123    0.0247    0.0208
          42    0.0077    0.1198   -0.0627   -0.0326   -0.0042    0.0306    0.0007   -0.0521
          43    0.0228   -0.0201   -0.0139   -0.0082    0.0196    0.0151   -0.0593    0.0909
          44    0.0023   -0.0366   -0.0131   -0.0081   -0.0145    0.0569   -0.0414    0.0694
          45    0.0450   -0.0131    0.0148    0.0094   -0.0109    0.0312   -0.0410    0.0722
          46    0.0335    0.0004   -0.0220    0.1008   -0.0242   -0.0351   -0.1093   -0.0448
          47   -0.0330   -0.0543   -0.0267    0.1032   -0.0269   -0.0261   -0.0168    0.0113
          48   -0.0185   -0.0149   -0.0332    0.0675   -0.0156   -0.0272   -0.0658    0.0000
          49   -0.0335   -0.0070   -0.0624   -0.0757   -0.0132   -0.0526   -0.0044   -0.0179
          50    0.0250    0.0051   -0.0050   -0.0360   -0.0566   -0.0011    0.0057   -0.0271
          51    0.0239    0.0058    0.0006   -0.0211   -0.0740    0.0094    0.0291    0.0013
          52    0.0174    0.0061    0.0399    0.0420   -0.0405   -0.0454    0.0454    0.0052
          53   -0.0161   -0.0218    0.0037   -0.0020    0.0105   -0.0491   -0.0125   -0.0615
          54   -0.0072   -0.0161    0.0165    0.0176   -0.0169   -0.0326    0.0160   -0.0311
          55   -0.0172    0.0305    0.0414    0.0597    0.0439    0.0177    0.0224    0.0183
          56   -0.0045    0.0165    0.0396    0.0404    0.0365    0.0250   -0.0017   -0.0214
          57   -0.0542   -0.0063    0.0005    0.0178    0.0704    0.0037   -0.0152   -0.0303
          58   -0.0466    0.0221   -0.0201   -0.0136    0.0479    0.0276   -0.0261    0.0383
          59    0.0196    0.0325    0.0315    0.0147   -0.0085    0.0597   -0.0057    0.0301
          60   -0.0363    0.0065   -0.0125   -0.0116    0.0321    0.0345   -0.0240    0.0135
          61    0.0034    0.0175    0.0778   -0.0241   -0.0005   -0.0225   -0.0848   -0.0099
          62   -0.0243    0.0183    0.0419    0.0004   -0.0034   -0.0332   -0.0284    0.0372
          63   -0.0728   -0.0774    0.0335    0.0041   -0.0095    0.0135    0.0103   -0.0249
          64   -0.0150    0.0034    0.0865   -0.1003    0.0205    0.0467    0.0670   -0.0317
          65   -0.0018    0.0825    0.0448   -0.0705    0.0207   -0.0154    0.0222    0.0674
          66   -0.0539   -0.0226    0.0363   -0.0586    0.0116    0.0302    0.0559    0.0000


   Root No.       9        10        11        12        13        14        15        16

                 9 A      10 A      11 A      12 A      13 A      14 A      15 A      16 A   

                 461.7     497.7     516.1     591.7     636.0     711.3     795.2     806.9
  
           1    0.0247   -0.0123   -0.0172    0.0011    0.0237    0.0009   -0.0001    0.0005
           2    0.0215    0.0019    0.0417    0.0007   -0.0063   -0.0270    0.0062   -0.0086
           3   -0.0172    0.0018   -0.0076   -0.0031    0.0050   -0.0084    0.0139   -0.0149
           4    0.0198   -0.0137   -0.0201    0.0014    0.0132   -0.0044   -0.0050    0.0021
           5   -0.0267    0.0040   -0.0040   -0.0008    0.0062   -0.0021    0.0038   -0.0078
           6   -0.0033    0.0025    0.0135    0.0007   -0.0082   -0.0039    0.0110   -0.0157
           7   -0.0036    0.0068   -0.0066    0.0688    0.0003    0.0351    0.0179    0.0091
           8   -0.0094    0.0050   -0.0163    0.0519    0.0015   -0.0261    0.0011    0.0156
           9    0.0053    0.0081    0.0148    0.0524   -0.0053   -0.0155    0.0001    0.0178
          10   -0.0083    0.0091   -0.0056   -0.0062    0.0004    0.0529    0.0175   -0.0046
          11    0.0036    0.0116    0.0290   -0.0048   -0.0157   -0.0099    0.0023    0.0032
          12   -0.0258    0.0088   -0.0360   -0.0124    0.0171   -0.0423   -0.0054    0.0110
          13   -0.0139    0.0037    0.0084   -0.0007   -0.0460   -0.0032   -0.0019    0.0023
          14   -0.0245    0.0060   -0.0063   -0.0026   -0.0172    0.0078    0.0012    0.0010
          15    0.0468   -0.0148   -0.0123    0.0019   -0.0223   -0.0048   -0.0060    0.0062
          16   -0.0004    0.0206   -0.0099   -0.0261    0.0032   -0.0145   -0.0035   -0.0056
          17    0.0078    0.0113   -0.0125   -0.0182    0.0025    0.0318    0.0096   -0.0154
          18    0.0147    0.0169    0.0182   -0.0184   -0.0069   -0.0129   -0.0059   -0.0023
          19   -0.0020   -0.0246    0.0220   -0.0161   -0.0030   -0.0107   -0.0140   -0.0116
          20   -0.0097   -0.0266   -0.0177   -0.0133    0.0068   -0.0226   -0.0207   -0.0003
          21    0.0037   -0.0251    0.0070   -0.0094   -0.0005    0.0370   -0.0037   -0.0121
          22    0.0082    0.0382    0.0101    0.0040   -0.0043   -0.0189   -0.0135   -0.0090
          23    0.0076    0.0233   -0.0145    0.0050    0.0026    0.0102   -0.0125   -0.0018
          24    0.0064    0.0233   -0.0129    0.0053    0.0019    0.0189   -0.0047   -0.0101
          25   -0.0170   -0.0269    0.0028    0.0125    0.0014   -0.0297   -0.0089    0.0003
          26   -0.0026   -0.0262    0.0034    0.0130   -0.0008    0.0223    0.0046   -0.0096
          27   -0.0057   -0.0245    0.0036    0.0122   -0.0014    0.0113    0.0056   -0.0127
          28   -0.0113    0.0051    0.0147    0.0003   -0.0064   -0.0043    0.0006   -0.0015
          29    0.0271   -0.0075   -0.0135   -0.0000    0.0136    0.0050    0.0007    0.0005
          30   -0.0117    0.0031    0.0021    0.0000    0.0066    0.0009   -0.0026    0.0035
          31    0.0151   -0.0176   -0.0432    0.0026    0.0398   -0.0351    0.0412   -0.0638
          32    0.0119    0.0171    0.0294   -0.0119   -0.0081   -0.0862    0.0398   -0.0317
          33    0.0009   -0.0156    0.0266    0.0135   -0.0037    0.0979   -0.0611    0.0601
          34    0.0301   -0.0226   -0.0278    0.0080    0.0426    0.0258   -0.0567    0.0684
          35    0.0427   -0.0108    0.0967    0.0158   -0.0323    0.0885   -0.0578    0.0547
          36   -0.0111   -0.0043   -0.0001    0.0020    0.0071    0.0237   -0.0211    0.0242
          37    0.0246   -0.0133   -0.0063    0.0048    0.0433    0.0248   -0.0542    0.0643
          38   -0.0908    0.0281    0.0324    0.0018    0.0633    0.0371   -0.0446    0.0632
          39   -0.0144    0.0074    0.0260    0.0027    0.0142    0.0148   -0.0179    0.0227
          40    0.0543   -0.0240   -0.0210    0.0001    0.0281   -0.0499    0.0412   -0.0633
          41   -0.0095   -0.0047   -0.0307   -0.0030   -0.0477   -0.0073    0.0208   -0.0313
          42   -0.0492    0.0215    0.0522    0.0045    0.0581    0.0337   -0.0432    0.0604
          43   -0.0509    0.0007   -0.0283   -0.1011   -0.0013    0.1217   -0.0411   -0.0302
          44   -0.0031    0.0043    0.0460   -0.0796   -0.0272    0.0149   -0.0699    0.0031
          45   -0.0488    0.0019   -0.0396   -0.0872    0.0114    0.0003   -0.0622   -0.0011
          46   -0.0041    0.0145    0.0553    0.0020    0.0059   -0.0076   -0.0010    0.0043
          47   -0.0301    0.0138    0.0158   -0.0014    0.0374    0.0122   -0.0100    0.0190
          48    0.0466   -0.0070    0.0148    0.0033    0.0169   -0.0049   -0.0091    0.0128
          49   -0.0002    0.0457   -0.0193   -0.1822    0.0034   -0.0328   -0.0325    0.0365
          50    0.0202    0.0296   -0.0097   -0.1365    0.0019    0.0579   -0.0071    0.0178
          51    0.0310    0.0341    0.0252   -0.1309   -0.0082    0.0265   -0.0200    0.0299
          52    0.0028   -0.0744    0.0526   -0.1295   -0.0033   -0.0478    0.0924    0.0426
          53   -0.0140   -0.0722   -0.0242   -0.1027    0.0164   -0.0178    0.0753    0.0330
          54    0.0032   -0.0671    0.0148   -0.0974    0.0044    0.0260    0.0852    0.0251
          55    0.0349    0.1175    0.0083   -0.0517   -0.0072   -0.0031    0.0988    0.0776
          56    0.0277    0.0865   -0.0189   -0.0398    0.0014    0.0181    0.0750    0.0695
          57    0.0164    0.0843   -0.0374   -0.0415    0.0082   -0.0168    0.0644    0.0761
          58   -0.0431   -0.1098    0.0078   -0.0226    0.0054   -0.0246    0.0351    0.0901
          59   -0.0153   -0.0891    0.0333   -0.0154   -0.0073    0.0068    0.0344    0.0655
          60   -0.0269   -0.0897    0.0043   -0.0151    0.0029    0.0189    0.0409    0.0567
          61    0.0505    0.0040    0.0652    0.0087    0.1956   -0.0129   -0.0010   -0.0086
          62    0.0208    0.0072    0.0338    0.0033    0.1567    0.0068    0.0114   -0.0165
          63   -0.0869    0.0377    0.0612   -0.0005    0.1322    0.0125    0.0236   -0.0289
          64   -0.0673    0.0070   -0.0281   -0.0061   -0.1452    0.0017    0.0074   -0.0042
          65    0.1023   -0.0418   -0.0737    0.0011   -0.0763   -0.0039   -0.0233    0.0301
          66   -0.0176   -0.0049   -0.0327   -0.0026   -0.0790    0.0015   -0.0057    0.0100


   Root No.      17        18        19        20        21        22        23        24

                17 A      18 A      19 A      20 A      21 A      22 A      23 A      24 A   

                 813.8     833.1     890.7     932.7     936.5     964.2     973.2     988.2
  
           1   -0.0004    0.0005   -0.0040    0.0037    0.0155   -0.0015   -0.0001    0.0002
           2    0.0045    0.0020   -0.0099    0.0050   -0.0057   -0.0098    0.0085   -0.0050
           3    0.0068    0.0072   -0.0113    0.0050   -0.0140   -0.0071   -0.0054   -0.0090
           4    0.0006   -0.0053    0.0068   -0.0003   -0.0023    0.0002    0.0030   -0.0010
           5    0.0055    0.0031    0.0153   -0.0032   -0.0253    0.0117   -0.0048    0.0095
           6    0.0094    0.0111    0.0181    0.0016    0.0169    0.0073   -0.0013    0.0071
           7    0.0132    0.0031    0.0061    0.0044   -0.0042    0.0096    0.0006   -0.0054
           8    0.0087   -0.0323    0.0136    0.0038    0.0006    0.0093    0.0078   -0.0013
           9    0.0058    0.0278    0.0125    0.0039   -0.0004    0.0093    0.0121   -0.0004
          10   -0.0007    0.0069   -0.0214   -0.0138    0.0051    0.0050   -0.0223    0.0015
          11   -0.0022    0.0001   -0.0086   -0.0105    0.0031    0.0050   -0.0078    0.0040
          12   -0.0061   -0.0077   -0.0139   -0.0110    0.0078   -0.0003    0.0129    0.0080
          13   -0.0012   -0.0011    0.0036   -0.0235   -0.0073   -0.0060    0.0010   -0.0024
          14   -0.0015    0.0007   -0.0025   -0.0136    0.0065   -0.0070    0.0005   -0.0048
          15   -0.0029   -0.0037    0.0024   -0.0158    0.0025   -0.0057    0.0037   -0.0014
          16   -0.0256    0.0287    0.0016    0.0046   -0.0042   -0.0238    0.0021    0.0227
          17   -0.0137   -0.0448   -0.0020    0.0037   -0.0053   -0.0216    0.0124    0.0200
          18   -0.0197    0.0053    0.0104    0.0033    0.0050   -0.0083   -0.0409    0.0104
          19    0.0148   -0.0343   -0.0025    0.0038   -0.0023   -0.0217    0.0002   -0.0148
          20    0.0070   -0.0054    0.0055    0.0026    0.0084   -0.0092   -0.0333   -0.0163
          21    0.0101    0.0534   -0.0102    0.0032   -0.0105   -0.0220    0.0196   -0.0096
          22    0.0105   -0.0501   -0.0052   -0.0066    0.0056    0.0145   -0.0078    0.0259
          23    0.0022    0.0804   -0.0081   -0.0050   -0.0005    0.0093    0.0132    0.0241
          24    0.0083   -0.0149   -0.0086   -0.0052    0.0020    0.0095   -0.0050    0.0197
          25   -0.0235    0.0545    0.0009   -0.0024    0.0020    0.0154   -0.0010   -0.0314
          26   -0.0130    0.0022   -0.0024   -0.0018   -0.0010    0.0108    0.0075   -0.0241
          27   -0.0087   -0.0757    0.0004   -0.0019    0.0007    0.0105    0.0169   -0.0202
          28    0.0011    0.0004    0.0030   -0.0076   -0.0092   -0.0023    0.0009   -0.0039
          29   -0.0008    0.0009   -0.0032    0.0005    0.0376   -0.0107    0.0072   -0.0088
          30   -0.0019   -0.0027   -0.0038   -0.0050   -0.0273    0.0001   -0.0034   -0.0036
          31    0.0410    0.0267    0.0551    0.0614   -0.0168    0.0346   -0.0120   -0.0033
          32    0.0112    0.0048   -0.0825   -0.0141   -0.0193   -0.0555    0.0144   -0.0260
          33   -0.0297   -0.0143    0.0519   -0.0063    0.0256    0.0330   -0.0049    0.0226
          34   -0.0401   -0.0265   -0.0232   -0.0225    0.0511   -0.0137   -0.0088    0.0092
          35   -0.0254   -0.0169    0.0534   -0.0079    0.0305    0.0279    0.0256    0.0257
          36   -0.0143   -0.0072   -0.0059   -0.0079    0.0067   -0.0042   -0.0029    0.0011
          37   -0.0353   -0.0410   -0.0223   -0.0221    0.0412   -0.0220    0.0203   -0.0005
          38   -0.0372   -0.0355   -0.0656    0.0051   -0.0857   -0.0133   -0.0069   -0.0228
          39   -0.0130   -0.0103   -0.0092   -0.0054    0.0223   -0.0064    0.0052    0.0010
          40    0.0397    0.0256    0.0326    0.0644   -0.0029    0.0056    0.0089   -0.0266
          41    0.0196    0.0190    0.0610   -0.0434   -0.0133    0.0352   -0.0155    0.0488
          42   -0.0362   -0.0313   -0.0634    0.0156    0.0005   -0.0289    0.0095   -0.0307
          43   -0.0143   -0.0137    0.0995    0.0648   -0.0386   -0.0134   -0.0154   -0.0183
          44   -0.0221    0.0108    0.1161    0.0570   -0.0154    0.0026    0.0547    0.0148
          45   -0.0205   -0.0128    0.0934    0.0532   -0.0204   -0.0100    0.0411    0.0028
          46   -0.0048   -0.0010   -0.0518    0.1844    0.0491    0.0390   -0.0003    0.0208
          47   -0.0136   -0.0143   -0.0676    0.1397   -0.0561    0.0286   -0.0135   -0.0026
          48   -0.0082   -0.0083   -0.0416    0.1194    0.0074    0.0239   -0.0012    0.0087
          49    0.1407   -0.0338   -0.0159   -0.0201   -0.0022    0.0854    0.1740   -0.0435
          50    0.1108   -0.0058   -0.0270   -0.0196    0.0091    0.0706   -0.0095   -0.0684
          51    0.0980    0.0772   -0.0170   -0.0204    0.0235    0.0834   -0.1196   -0.0880
          52   -0.1003    0.0111   -0.0019   -0.0225   -0.0002    0.0806    0.0943    0.0691
          53   -0.0787   -0.0720    0.0069   -0.0199    0.0287    0.0880   -0.0872    0.0240
          54   -0.0766    0.0375   -0.0096   -0.0181    0.0004    0.0656    0.0274    0.0423
          55   -0.0103   -0.0713    0.0512    0.0366   -0.0248   -0.0688    0.0480   -0.0914
          56   -0.0156    0.0692    0.0390    0.0294   -0.0215   -0.0544    0.0417   -0.0726
          57   -0.0180    0.0034    0.0524    0.0278    0.0070   -0.0322   -0.0996   -0.0984
          58    0.1113    0.0793    0.0056    0.0153   -0.0099   -0.0733   -0.0055    0.1158
          59    0.0973   -0.0297    0.0186    0.0125    0.0073   -0.0344   -0.1111    0.0714
          60    0.0963   -0.0518    0.0020    0.0119   -0.0106   -0.0617    0.0270    0.0973
          61    0.0089   -0.0032    0.0317   -0.0208   -0.1507    0.0465   -0.0311    0.0417
          62    0.0099    0.0097    0.0212    0.0024    0.0591    0.0060    0.0025    0.0161
          63    0.0154    0.0213    0.0251    0.0114    0.1587   -0.0086    0.0170    0.0096
          64   -0.0006    0.0076   -0.0279    0.1298    0.1196    0.0253    0.0074    0.0299
          65   -0.0170   -0.0220   -0.0456    0.0793   -0.1428    0.0434   -0.0290    0.0225
          66   -0.0070   -0.0053   -0.0291    0.0777   -0.0152    0.0263   -0.0098    0.0194


   Root No.      25        26        27        28        29        30        31        32

                25 A      26 A      27 A      28 A      29 A      30 A      31 A      32 A   

                 995.0    1024.3    1045.6    1065.6    1086.9    1101.1    1110.0    1135.0
  
           1    0.0016   -0.0041    0.0066   -0.0028   -0.0034   -0.0407    0.0010    0.0112
           2   -0.0090    0.0163    0.0051    0.0026    0.0005   -0.0172    0.0028   -0.0132
           3   -0.0147    0.0096   -0.0076    0.0051    0.0010   -0.0115    0.0199   -0.0088
           4   -0.0029    0.0037   -0.0109    0.0081    0.0054    0.0423   -0.0006   -0.0160
           5    0.0184    0.0050    0.0187    0.0077    0.0016    0.0152   -0.0070    0.0062
           6    0.0132   -0.0020    0.0118   -0.0013   -0.0003    0.0108   -0.0185    0.0137
           7   -0.0124    0.0124    0.0022    0.0033    0.0007   -0.0056   -0.0055   -0.0015
           8   -0.0078    0.0057   -0.0004    0.0016   -0.0026    0.0040    0.0099    0.0079
           9   -0.0064    0.0020   -0.0004   -0.0019    0.0022   -0.0040   -0.0031   -0.0050
          10    0.0143   -0.0184   -0.0037    0.0003    0.0029    0.0055    0.0049    0.0032
          11    0.0130   -0.0170   -0.0034   -0.0064   -0.0026    0.0056    0.0130    0.0111
          12    0.0174   -0.0126    0.0048   -0.0066   -0.0031    0.0019   -0.0165   -0.0190
          13   -0.0033    0.0056   -0.0253   -0.0102   -0.0020   -0.0062   -0.0023    0.0029
          14   -0.0083   -0.0001   -0.0228   -0.0099   -0.0016   -0.0029   -0.0054    0.0057
          15   -0.0016    0.0085   -0.0142   -0.0034   -0.0012   -0.0052    0.0042   -0.0013
          16    0.0020   -0.0013    0.0020   -0.0011   -0.0044   -0.0028   -0.0075   -0.0025
          17    0.0033    0.0010    0.0071   -0.0140    0.0160   -0.0057   -0.0127   -0.0104
          18   -0.0038   -0.0098   -0.0115    0.0156   -0.0106    0.0120    0.0228    0.0135
          19    0.0145   -0.0031    0.0025   -0.0067    0.0051   -0.0003   -0.0028   -0.0048
          20    0.0092   -0.0085   -0.0020   -0.0040    0.0008    0.0058    0.0140    0.0101
          21    0.0120   -0.0011   -0.0018    0.0110   -0.0076   -0.0042   -0.0105   -0.0046
          22   -0.0131    0.0029    0.0013   -0.0021   -0.0040   -0.0019   -0.0044   -0.0043
          23   -0.0080   -0.0030   -0.0037    0.0029    0.0006    0.0068    0.0153    0.0102
          24   -0.0109    0.0055    0.0023    0.0004    0.0052   -0.0049   -0.0103   -0.0049
          25    0.0038    0.0036    0.0016   -0.0009   -0.0043   -0.0017   -0.0058   -0.0053
          26    0.0039    0.0010   -0.0008    0.0038    0.0059   -0.0051   -0.0093   -0.0078
          27    0.0064   -0.0023   -0.0005   -0.0027   -0.0007    0.0065    0.0170    0.0149
          28   -0.0097   -0.0127    0.0332    0.0095    0.0017    0.0045    0.0013   -0.0045
          29   -0.0188   -0.0102    0.0135    0.0047    0.0010    0.0049    0.0024   -0.0028
          30   -0.0085   -0.0120    0.0200    0.0031    0.0001   -0.0004   -0.0030    0.0061
          31   -0.0299   -0.1042   -0.0240   -0.0513   -0.0212   -0.1486    0.1221   -0.0475
          32   -0.0273    0.1100    0.0133    0.0472    0.0150    0.0163   -0.0435    0.0030
          33    0.0317   -0.0543    0.0013   -0.0242   -0.0074    0.0110    0.0064    0.0043
          34    0.0348    0.0715    0.0815    0.0016   -0.0193   -0.0615   -0.0376    0.1864
          35    0.0312   -0.0646   -0.0156   -0.0154    0.0069    0.0326   -0.0383   -0.0971
          36    0.0066    0.0209    0.0156    0.0050   -0.0034   -0.0103   -0.0022    0.0402
          37    0.0069    0.0613    0.0027    0.0627    0.0229    0.0702    0.0833   -0.1269
          38   -0.0447   -0.0199   -0.0381   -0.0241   -0.0086   -0.0385   -0.0005    0.0298
          39    0.0047    0.0156    0.0058    0.0131    0.0043    0.0113    0.0137   -0.0233
          40   -0.0742   -0.0623   -0.0586   -0.0530   -0.0042    0.1535   -0.1173    0.0872
          41    0.1065    0.0461    0.0873    0.0546    0.0100   -0.0205    0.0379   -0.0416
          42   -0.0622   -0.0151   -0.0509   -0.0259   -0.0055   -0.0105   -0.0064    0.0142
          43   -0.0811    0.0863   -0.0041    0.0593    0.0241    0.0453    0.0846    0.0381
          44   -0.0364    0.0041    0.0094   -0.0494   -0.0255   -0.0962   -0.0852   -0.0160
          45   -0.0478    0.0460    0.0095    0.0052   -0.0025   -0.0178   -0.0166   -0.0148
          46    0.0348   -0.0007    0.0963    0.0341    0.0025   -0.0018    0.0027    0.0296
          47   -0.0146   -0.0413    0.0061    0.0034    0.0083    0.0509   -0.0058   -0.0579
          48    0.0118   -0.0073    0.0452    0.0188    0.0036    0.0132    0.0059   -0.0097
          49    0.0179   -0.0531   -0.0616    0.1238    0.0287   -0.0255    0.0021    0.0334
          50   -0.0118    0.0459    0.0396   -0.0693    0.0017   -0.0015   -0.0178   -0.0241
          51   -0.0286    0.0628    0.0483   -0.0922   -0.0408    0.0259    0.0160   -0.0149
          52   -0.0382    0.0101    0.0058   -0.0431    0.2048    0.0283    0.0770    0.0660
          53   -0.0523    0.0157   -0.0035    0.0384   -0.2132   -0.0284   -0.0710   -0.0642
          54   -0.0392    0.0167   -0.0013    0.0203   -0.0441   -0.0121   -0.0266   -0.0180
          55    0.0506   -0.0053    0.0002    0.0101   -0.1768    0.0182    0.0229    0.0181
          56    0.0411   -0.0100   -0.0048    0.0095   -0.0880    0.0175    0.0303    0.0226
          57    0.0233   -0.0007    0.0039   -0.0241    0.3110   -0.0405   -0.0590   -0.0453
          58   -0.0146    0.0124    0.0294   -0.0754   -0.0291    0.0209    0.0171   -0.0190
          59   -0.0284   -0.0354   -0.0703    0.1826    0.0652   -0.0571   -0.0657    0.0229
          60   -0.0058    0.0099    0.0324   -0.0907   -0.0292    0.0335    0.0458    0.0004
          61    0.0913    0.0582   -0.0894   -0.0223   -0.0029   -0.0086   -0.0074    0.0050
          62    0.0382    0.0442   -0.0877   -0.0191   -0.0026   -0.0023    0.0011   -0.0007
          63    0.0249    0.0434   -0.0861   -0.0184   -0.0033   -0.0047    0.0034    0.0012
          64    0.0638    0.0629   -0.0923   -0.0161   -0.0022   -0.0069    0.0093   -0.0130
          65    0.0465    0.0205   -0.0699   -0.0262   -0.0043   -0.0111   -0.0146    0.0194
          66    0.0410    0.0296   -0.0588   -0.0171   -0.0032   -0.0104   -0.0042    0.0094


   Root No.      33        34        35        36        37        38        39        40

                33 A      34 A      35 A      36 A      37 A      38 A      39 A      40 A   

                1164.0    1175.9    1187.7    1210.9    1229.4    1295.2    1344.1    1383.4
  
           1    0.0342    0.0103   -0.0008   -0.0137   -0.0126    0.0063   -0.0259   -0.0065
           2    0.0179   -0.0239   -0.0007    0.0031    0.0071   -0.0091    0.0145   -0.0352
           3   -0.0232    0.0254   -0.0006    0.0032   -0.0097    0.0004   -0.0043    0.0139
           4   -0.0233    0.0175   -0.0037   -0.0119   -0.0007    0.0329   -0.0168   -0.0054
           5   -0.0171   -0.0121   -0.0158   -0.0044    0.0083   -0.0240    0.0084   -0.0150
           6    0.0237    0.0123    0.0191    0.0057    0.0001    0.0118   -0.0028    0.0063
           7    0.0051    0.0047   -0.0050   -0.0032   -0.0069   -0.0145    0.0120   -0.0047
           8   -0.0061   -0.0116    0.0173   -0.0077    0.0002    0.0156   -0.0162    0.0201
           9    0.0041    0.0090   -0.0118    0.0107    0.0071    0.0031    0.0001   -0.0148
          10    0.0021    0.0082   -0.0094   -0.0010   -0.0067   -0.0158    0.0114   -0.0011
          11   -0.0298    0.0038    0.0105    0.0130    0.0151    0.0232   -0.0175    0.0081
          12    0.0132   -0.0280    0.0033   -0.0067   -0.0001   -0.0059    0.0078   -0.0060
          13    0.0043   -0.0034    0.0025    0.0016    0.0017    0.0066    0.0140   -0.0023
          14    0.0162   -0.0032    0.0091    0.0223   -0.0241    0.0009   -0.0203    0.0061
          15   -0.0192   -0.0081   -0.0145   -0.0192    0.0246   -0.0222    0.0053   -0.0041
          16   -0.0087   -0.0091    0.0134   -0.0057   -0.0035   -0.0010    0.0034   -0.0113
          17   -0.0048   -0.0022   -0.0007    0.0052    0.0050    0.0035   -0.0013   -0.0029
          18    0.0148    0.0130   -0.0167    0.0024   -0.0000   -0.0024   -0.0028    0.0176
          19   -0.0003    0.0007   -0.0057    0.0074    0.0074    0.0047   -0.0016   -0.0008
          20    0.0111    0.0129   -0.0047   -0.0101   -0.0157   -0.0163    0.0094   -0.0067
          21   -0.0111   -0.0143    0.0122    0.0007    0.0062    0.0105   -0.0076    0.0078
          22   -0.0026    0.0001   -0.0019    0.0050    0.0053    0.0054   -0.0036    0.0018
          23    0.0118    0.0110   -0.0122    0.0008   -0.0032   -0.0118    0.0130   -0.0165
          24   -0.0089   -0.0114    0.0148   -0.0071   -0.0033    0.0052   -0.0086    0.0146
          25   -0.0044   -0.0069    0.0062   -0.0012    0.0013    0.0052   -0.0046    0.0043
          26   -0.0004    0.0009   -0.0076    0.0096    0.0096    0.0093   -0.0105    0.0177
          27    0.0063    0.0081    0.0001   -0.0085   -0.0118   -0.0162    0.0166   -0.0237
          28   -0.0000    0.0036    0.0036   -0.0046    0.0105   -0.0028    0.0134   -0.0042
          29   -0.0056    0.0038   -0.0020   -0.0048    0.0020    0.0006   -0.0092    0.0025
          30    0.0038   -0.0045   -0.0034    0.0104   -0.0190    0.0065   -0.0118    0.0038
          31   -0.0325   -0.0820    0.0346    0.0524    0.0373   -0.0219    0.0620    0.0807
          32    0.0612    0.0462   -0.0312   -0.0401   -0.0370   -0.0160    0.0086    0.0764
          33   -0.0381   -0.0130    0.0182    0.0196    0.0185    0.0247   -0.0428   -0.1634
          34   -0.0124   -0.0047    0.0519    0.0746    0.0810   -0.0257    0.0665    0.0818
          35    0.1213   -0.0698   -0.0330   -0.0728   -0.0428   -0.0169    0.0310    0.1687
          36   -0.0226    0.0142    0.0130    0.0238    0.0159   -0.0120    0.0285    0.0677
          37   -0.0523   -0.0097    0.0523    0.1299   -0.0637   -0.0842    0.0732    0.0452
          38   -0.0664   -0.0113   -0.0969   -0.1202    0.0613    0.0262    0.0429    0.0842
          39    0.0044    0.0038    0.0274    0.0389   -0.0136   -0.0231    0.0311    0.0345
          40   -0.0279   -0.0568   -0.0107    0.0482    0.0045   -0.0774    0.0582    0.0484
          41   -0.0038    0.0426   -0.0030   -0.0435    0.0154    0.0420    0.0217    0.0356
          42    0.0078   -0.0149    0.0051    0.0197   -0.0111   -0.0117   -0.0580   -0.0817
          43    0.0882   -0.0946   -0.0153    0.0108    0.0660    0.0545   -0.0322   -0.0092
          44   -0.1055    0.1593    0.0118   -0.0139   -0.0851   -0.0598    0.0281    0.0172
          45    0.0255   -0.0185    0.0014   -0.0109   -0.0038   -0.0040    0.0048   -0.0075
          46   -0.0619   -0.0787   -0.1043    0.0260   -0.1081    0.0386   -0.0252    0.0045
          47    0.0956    0.1282    0.1539   -0.0242    0.1203   -0.0244    0.0260   -0.0033
          48   -0.0217    0.0028   -0.0126   -0.0250    0.0273   -0.0187    0.0037   -0.0045
          49    0.0323    0.0512   -0.0658    0.0496    0.0318    0.0007   -0.0037    0.0173
          50   -0.0226   -0.0276    0.0356   -0.0181   -0.0096    0.0038    0.0009   -0.0151
          51   -0.0178   -0.0362    0.0517   -0.0459   -0.0316   -0.0048    0.0037   -0.0074
          52   -0.0072   -0.0110    0.0561   -0.0574   -0.0487   -0.0175    0.0008    0.0156
          53    0.0199    0.0273   -0.0719    0.0592    0.0442    0.0064    0.0079   -0.0250
          54   -0.0103   -0.0131    0.0016    0.0130    0.0177    0.0162   -0.0092    0.0057
          55   -0.0138   -0.0191    0.0439   -0.0320   -0.0233    0.0010   -0.0090    0.0142
          56    0.0073    0.0023    0.0101   -0.0183   -0.0187   -0.0159    0.0121   -0.0120
          57    0.0102    0.0219   -0.0656    0.0591    0.0485    0.0149   -0.0008   -0.0057
          58    0.0167    0.0158   -0.0370    0.0261    0.0233    0.0196   -0.0196    0.0293
          59   -0.0523   -0.0551    0.0960   -0.0550   -0.0415   -0.0228    0.0233   -0.0399
          60    0.0325    0.0364   -0.0519    0.0232    0.0128   -0.0016    0.0011    0.0037
          61    0.0154   -0.0116    0.0085    0.0233   -0.0063   -0.0935   -0.1044    0.0192
          62   -0.0071    0.0051   -0.0022   -0.0093    0.0046    0.0240    0.0178   -0.0027
          63   -0.0176    0.0097   -0.0116   -0.0278    0.0075    0.1240    0.1435   -0.0275
          64   -0.0216   -0.0060   -0.0062   -0.0262    0.0545   -0.1158   -0.0867    0.0139
          65    0.0346    0.0002    0.0122    0.0345   -0.0619    0.1487    0.1336   -0.0227
          66    0.0044   -0.0100   -0.0055    0.0105   -0.0181    0.0045   -0.0104    0.0040


   Root No.      41        42        43        44        45        46        47        48

                41 A      42 A      43 A      44 A      45 A      46 A      47 A      48 A   

                1394.5    1403.3    1407.8    1440.3    1710.3    1770.2    1861.9    1926.8
  
           1   -0.0306    0.0231   -0.0155   -0.0423    0.0007   -0.0005   -0.0015    0.0180
           2   -0.0028    0.0008    0.0043    0.0527   -0.0020    0.0015    0.0020   -0.0277
           3    0.0006   -0.0023   -0.0012   -0.0217    0.0007   -0.0009   -0.0011    0.0069
           4    0.0357   -0.0194    0.0187    0.0326   -0.0003    0.0001   -0.0199    0.0031
           5   -0.0037   -0.0230   -0.0403   -0.0346   -0.0000   -0.0002    0.0320   -0.0036
           6    0.0014    0.0100    0.0167    0.0151    0.0001    0.0001   -0.0067    0.0011
           7    0.0028   -0.0019   -0.0076    0.0234   -0.0139    0.0035    0.0050    0.2056
           8    0.0083    0.0294   -0.0442    0.0037    0.0103    0.0002   -0.0036   -0.1474
           9   -0.0131   -0.0269    0.0547   -0.0345    0.0072   -0.0047   -0.0028   -0.1136
          10   -0.0019   -0.0091   -0.0042    0.0175   -0.0016   -0.0015   -0.0029   -0.1719
          11    0.0003    0.0039    0.0114   -0.0381    0.0026   -0.0036    0.0021    0.1478
          12    0.0054    0.0042   -0.0067    0.0182   -0.0001    0.0056    0.0022    0.0682
          13   -0.0041   -0.0003   -0.0050   -0.0024    0.0001    0.0000    0.1563   -0.0049
          14    0.0056    0.0072    0.0167    0.0132    0.0000    0.0001   -0.1519    0.0049
          15   -0.0052   -0.0048   -0.0134   -0.0115   -0.0001   -0.0000   -0.0745    0.0014
          16    0.0072    0.0020    0.0199   -0.0169    0.0987    0.0892   -0.0004   -0.0143
[...]
 RED. MASS   0.2964         C  2 -- C  5          +5.8% ( 31.3%)     80.9%
 EFF. MASS   4.6322

 VIBRATION   40   40A         ATOM PAIR      ENERGY CONTRIBUTION    RADIAL
 FREQ.      1383.43         C  1 -- H 12         +15.8% ( 50.1%)      4.6%
 T-DIPOLE    0.1970         C  1 -- H 11         +15.5% ( 49.6%)      4.8%
 TRAVEL      0.1031         C  8 -- C  9          +7.0% ( 33.3%)     99.9%
 RED. MASS   0.3921         C  1 -- C  4          +5.9% ( 30.7%)     78.7%
 EFF. MASS   4.5844

 VIBRATION   41   41A         ATOM PAIR      ENERGY CONTRIBUTION    RADIAL
 FREQ.      1394.53         C  8 -- C  9         +13.4% ( 54.3%)    100.0%
 T-DIPOLE    0.3728         C  7 -- C  8          +7.2% ( 39.7%)      0.0%
 TRAVEL      0.0833         C  1 -- C  2          +6.8% ( 38.7%)    100.0%
 RED. MASS   0.7310         C  2 -- H 13          +6.2% ( 37.1%)      2.4%
 EFF. MASS   6.9673

 VIBRATION   42   42A         ATOM PAIR      ENERGY CONTRIBUTION    RADIAL
 FREQ.      1403.29         C  3 -- C  7         +10.3% ( 47.0%)     94.2%
 T-DIPOLE    0.2902         C  8 -- C  9          +8.9% ( 43.6%)     99.9%
 TRAVEL      0.0833         C  7 -- C  8          +8.5% ( 42.6%)      0.0%
 RED. MASS   0.6714         C  3 -- C  8          +7.5% ( 40.1%)     56.5%
 EFF. MASS   6.9327

 VIBRATION   43   43A         ATOM PAIR      ENERGY CONTRIBUTION    RADIAL
 FREQ.      1407.81         C  3 -- C  6         +15.1% ( 61.8%)     83.3%
 T-DIPOLE    0.2310         C  3 -- C  7         +12.2% ( 55.4%)     72.6%
 TRAVEL      0.0733         C  3 -- C  9          +8.1% ( 45.3%)     15.4%
 RED. MASS   1.5325         C  3 -- C  4          +7.9% ( 44.7%)      0.0%
 EFF. MASS   8.9051

 VIBRATION   44   44A         ATOM PAIR      ENERGY CONTRIBUTION    RADIAL
 FREQ.      1440.30         C  1 -- C  4         +14.4% ( 61.0%)     97.0%
 T-DIPOLE    0.2147         C  1 -- C  2         +11.9% ( 55.5%)     38.5%
 TRAVEL      0.0705         C  1 -- H 12          +8.8% ( 47.8%)      1.3%
 RED. MASS   1.5195         C  1 -- H 11          +8.3% ( 46.3%)      1.3%
 EFF. MASS   9.4150

 VIBRATION   45   45A         ATOM PAIR      ENERGY CONTRIBUTION    RADIAL
 FREQ.      1710.35         C  6 -- C  9         +16.7% ( 73.2%)    100.0%
 T-DIPOLE    1.5277         C  7 -- C  8         +16.3% ( 72.4%)    100.0%
 TRAVEL      0.0572         C  6 -- C  8          +9.8% ( 56.1%)     27.4%
 RED. MASS   2.7223         C  7 -- C  9          +9.8% ( 56.1%)     26.9%
 EFF. MASS  12.0353

 VIBRATION   46   46A         ATOM PAIR      ENERGY CONTRIBUTION    RADIAL
 FREQ.      1770.15         C  7 -- C  8         +16.1% ( 70.4%)     99.8%
 T-DIPOLE    0.1643         C  6 -- C  9         +15.8% ( 69.8%)     99.9%
 TRAVEL      0.0568         C  8 -- C  9         +11.0% ( 58.3%)      0.0%
 RED. MASS   2.6817         C  7 -- C  9          +9.8% ( 55.0%)     65.5%
 EFF. MASS  11.8110

 VIBRATION   47   47A         ATOM PAIR      ENERGY CONTRIBUTION    RADIAL
 FREQ.      1861.88         C  5 -- C 10         +45.2% ( 99.2%)     98.9%
 T-DIPOLE    0.1325         C  2 -- C  5         +16.7% ( 60.3%)     54.8%
 TRAVEL      0.0554         C  5 -- H 16         +15.4% ( 57.9%)      3.9%
 RED. MASS   5.2924         C 10 -- H 22         +11.0% ( 48.8%)     10.9%
 EFF. MASS  11.7910         C 10 -- H 21         +10.7% ( 48.4%)     12.9%

 VIBRATION   48   48A         ATOM PAIR      ENERGY CONTRIBUTION    RADIAL
 FREQ.      1926.77         C  3 -- C  4         +32.1% ( 97.4%)     99.4%
 T-DIPOLE    2.5383         C  3 -- C  6         +12.8% ( 61.5%)     47.0%
 TRAVEL      0.0542         C  3 -- C  7         +12.6% ( 61.2%)     42.9%
 RED. MASS   5.6511         C  3 -- C  8         +12.5% ( 60.9%)     87.8%
 EFF. MASS  11.9208         C  3 -- C  9         +12.5% ( 60.8%)     90.5%

 VIBRATION   49   49A         ATOM PAIR      ENERGY CONTRIBUTION    RADIAL
 FREQ.      2931.20         C  1 -- H 12         +46.8% ( 71.2%)     97.2%
 T-DIPOLE    0.0751         C  1 -- H 11         +35.6% ( 62.1%)     95.4%
 TRAVEL      0.1217         C  2 -- H 13          +7.5% ( 28.5%)     96.3%
 RED. MASS   0.3894         C  2 -- H 14          +7.4% ( 28.3%)     96.0%
 EFF. MASS   1.5522

 VIBRATION   50   50A         ATOM PAIR      ENERGY CONTRIBUTION    RADIAL
 FREQ.      2949.23         C  2 -- H 13         +42.0% ( 67.1%)     96.6%
 T-DIPOLE    0.0767         C  2 -- H 14         +40.9% ( 66.3%)     96.4%
 TRAVEL      0.1220         C  1 -- H 12          +8.7% ( 30.6%)     97.7%
 RED. MASS   0.3840         C  1 -- H 11          +6.0% ( 25.3%)     95.5%
 EFF. MASS   1.5363

 VIBRATION   51   51A         ATOM PAIR      ENERGY CONTRIBUTION    RADIAL
 FREQ.      3012.45         C  1 -- H 11         +55.9% ( 73.7%)     98.4%
 T-DIPOLE    0.1213         C  1 -- H 12         +39.7% ( 62.1%)     96.6%
 TRAVEL      0.1323         C  2 -- H 13          +1.1% ( 10.5%)     98.4%
 RED. MASS   0.4662         C  2 -- H 14          +0.9% (  9.4%)     97.2%
 EFF. MASS   1.2798

 VIBRATION   52   52A         ATOM PAIR      ENERGY CONTRIBUTION    RADIAL
 FREQ.      3024.15         C  2 -- H 14         +49.1% ( 69.1%)     97.8%
 T-DIPOLE    0.0730         C  2 -- H 13         +46.9% ( 67.4%)     97.6%
 TRAVEL      0.1323         C  1 -- H 11          +1.2% ( 10.9%)     98.0%
 RED. MASS   0.4579         C  1 -- H 12          +0.9% (  9.4%)     96.2%
 EFF. MASS   1.2746

 VIBRATION   53   53A         ATOM PAIR      ENERGY CONTRIBUTION    RADIAL
 FREQ.      3028.69         C  4 -- H 15         +96.1% ( 99.4%)    100.0%
 T-DIPOLE    0.2833         C  3 -- C  4          +1.5% ( 12.2%)     36.4%
 TRAVEL      0.1216         C  1 -- C  4          +1.3% ( 11.5%)     14.3%
 RED. MASS   0.9077         C  1 -- H 12          +0.7% (  8.5%)     99.4%
 EFF. MASS   1.5056

 VIBRATION   54   54A         ATOM PAIR      ENERGY CONTRIBUTION    RADIAL
 FREQ.      3041.55         C  5 -- H 16         +95.7% ( 99.2%)    100.0%
 T-DIPOLE    0.2362         C  5 -- C 10          +1.4% ( 12.0%)     30.6%
 TRAVEL      0.1216         C  2 -- C  5          +1.3% ( 11.6%)     13.8%
 RED. MASS   0.9004         C 10 -- H 21          +0.9% (  9.6%)     95.5%
 EFF. MASS   1.4991

 VIBRATION   55   55A         ATOM PAIR      ENERGY CONTRIBUTION    RADIAL
 FREQ.      3128.43         C  6 -- H 17         +74.2% ( 88.4%)    100.0%
 T-DIPOLE    0.3804         C  9 -- H 20         +20.6% ( 46.6%)    100.0%
 TRAVEL      0.1201         C  6 -- C  9          +1.3% ( 11.7%)      8.4%
 RED. MASS   0.6082         C  6 -- C  8          +1.3% ( 11.5%)     94.6%
 EFF. MASS   1.4939

 VIBRATION   56   56A         ATOM PAIR      ENERGY CONTRIBUTION    RADIAL
 FREQ.      3134.95         C 10 -- H 22         +91.5% ( 97.4%)     99.9%
 T-DIPOLE    0.1971         C 10 -- H 21          +7.1% ( 27.2%)     72.4%
 TRAVEL      0.1182         C  5 -- C 10          +1.3% ( 11.7%)     21.7%
 RED. MASS   0.8492
 EFF. MASS   1.5399

 VIBRATION   57   57A         ATOM PAIR      ENERGY CONTRIBUTION    RADIAL
 FREQ.      3136.36         C  8 -- H 19         +50.7% ( 73.3%)    100.0%
 T-DIPOLE    0.3541         C  7 -- H 18         +43.0% ( 67.4%)    100.0%
 TRAVEL      0.1205         C  7 -- C  8          +1.2% ( 11.2%)      0.1%
 RED. MASS   0.4559         C  8 -- C  9          +0.8% (  9.3%)     22.6%
 EFF. MASS   1.4808

 VIBRATION   58   58A         ATOM PAIR      ENERGY CONTRIBUTION    RADIAL
 FREQ.      3145.21         C  9 -- H 20         +51.6% ( 74.3%)    100.0%
 T-DIPOLE    0.4931         C  7 -- H 18         +20.2% ( 46.5%)    100.0%
 TRAVEL      0.1159         C  6 -- H 17         +12.4% ( 36.4%)     99.9%
 RED. MASS   0.3538         C  8 -- H 19          +9.0% ( 31.1%)     99.8%
 EFF. MASS   1.5957

 VIBRATION   59   59A         ATOM PAIR      ENERGY CONTRIBUTION    RADIAL
 FREQ.      3147.30         C 10 -- H 21         +91.5% ( 96.3%)     99.7%
 T-DIPOLE    0.2745         C 10 -- H 22          +6.1% ( 24.8%)     43.4%
 TRAVEL      0.1209         C  5 -- C 10          +1.6% ( 12.7%)     73.9%
 RED. MASS   0.8137         C  5 -- H 16          +0.8% (  8.9%)     94.7%
 EFF. MASS   1.4650

 VIBRATION   60   60A         ATOM PAIR      ENERGY CONTRIBUTION    RADIAL
 FREQ.      3156.64         C  8 -- H 19         +34.0% ( 60.4%)    100.0%
 T-DIPOLE    0.3625         C  7 -- H 18         +30.3% ( 57.0%)     99.9%
 TRAVEL      0.1123         C  9 -- H 20         +21.0% ( 47.5%)    100.0%
 RED. MASS   0.2821         C  6 -- H 17          +6.9% ( 27.3%)     99.9%
 EFF. MASS   1.6945

      SYMMETRY NUMBER FOR POINT-GROUP C1  =  1


          SYSTEM IS A GROUND STATE



 InChI=1S/C10H12/c1-2-3-4-7-10-8-5-6-9-10/h2,5-9H,1,3-4H2


          MOLECULE IS NOT LINEAR

          THERE ARE 60 GENUINE VIBRATIONS IN THIS SYSTEM
          THIS THERMODYNAMICS CALCULATION IS LIMITED TO
          MOLECULES WHICH HAVE NO INTERNAL ROTATIONS




                    CALCULATED THERMODYNAMIC PROPERTIES
                                          *
   TEMP. (K)   PARTITION FUNCTION   H.O.F.    ENTHALPY  HEAT CAPACITY ENTROPY
                                   KCAL/MOL   CAL/MOLE    CAL/K/MOL  CAL/K/MOL


 298.00  VIB.     0.9407D+03                  4429.5154    30.9531    28.4697
         ROT.     0.7873D+06                   888.2813     2.9808    29.9599
         INT.     0.7406D+09                  5317.7967    33.9339    58.4296
         TRA.     0.1470D+28                  1480.4688     4.9680    40.5480
         TOT.                       60.758    6798.2656    38.9019    98.9776

 200.00  VIB.     0.8181D+02                  1984.5973    19.2914    18.6755
         ROT.     0.4329D+06                   596.1620     2.9808    28.7712
         INT.     0.3542D+08                  2580.7592    22.2722    47.4468
         TRA.     0.8080D+27                   993.6033     4.9680    38.5668
         TOT.                       57.534    3574.3625    27.2402    86.0136

 210.00  VIB.     0.1050D+03                  2182.8464    20.3645    19.6426
         ROT.     0.4658D+06                   625.9700     2.9808    28.9167
         INT.     0.4890D+08                  2808.8165    23.3453    48.5592
         TRA.     0.8694D+27                  1043.2834     4.9680    38.8092
         TOT.                       57.812    3852.0999    28.3134    87.3685

 220.00  VIB.     0.1347D+03                  2392.0063    21.4731    20.6154
         ROT.     0.4994D+06                   655.7781     2.9808    29.0553
         INT.     0.6725D+08                  3047.7844    24.4539    49.6707
         TRA.     0.9322D+27                  1092.9636     4.9680    39.0403
         TOT.                       58.101    4140.7480    29.4219    88.7111

 230.00  VIB.     0.1727D+03                  2612.4178    22.6144    21.5950
         ROT.     0.5339D+06                   685.5862     2.9808    29.1878
         INT.     0.9217D+08                  3298.0041    25.5952    50.7828
         TRA.     0.9965D+27                  1142.6437     4.9680    39.2612
         TOT.                       58.400    4440.6478    30.5632    90.0440

 240.00  VIB.     0.2214D+03                  2844.3915    23.7849    22.5821
         ROT.     0.5690D+06                   715.3943     2.9808    29.3147
         INT.     0.1260D+09                  3559.7858    26.7658    51.8968
         TRA.     0.1062D+28                  1192.3239     4.9680    39.4726
         TOT.                       58.712    4752.1097    31.7338    91.3694

 250.00  VIB.     0.2838D+03                  3088.2022    24.9811    23.5772
         ROT.     0.6050D+06                   745.2024     2.9808    29.4364
         INT.     0.1717D+09                  3833.4046    27.9619    53.0136
         TRA.     0.1129D+28                  1242.0041     4.9680    39.6754
         TOT.                       59.035    5075.4087    32.9300    92.6890

 260.00  VIB.     0.3640D+03                  3344.0862    26.1989    24.5806
         ROT.     0.6416D+06                   775.0105     2.9808    29.5533
         INT.     0.2335D+09                  4119.0967    29.1798    54.1339
         TRA.     0.1198D+28                  1291.6842     4.9680    39.8703
         TOT.                       59.371    5410.7810    34.1478    94.0042

 270.00  VIB.     0.4670D+03                  3612.2397    27.4343    25.5925
         ROT.     0.6790D+06                   804.8186     2.9808    29.6658
         INT.     0.3171D+09                  4417.0584    30.4152    55.2583
         TRA.     0.1267D+28                  1341.3644     4.9680    40.0578
         TOT.                       59.718    5758.4227    35.3832    95.3160

 280.00  VIB.     0.5993D+03                  3892.8183    28.6833    26.6128
         ROT.     0.7171D+06                   834.6267     2.9808    29.7742
         INT.     0.4298D+09                  4727.4450    31.6641    56.3869
         TRA.     0.1338D+28                  1391.0445     4.9680    40.2384
         TOT.                       60.078    6118.4896    36.6321    96.6254

 290.00  VIB.     0.7697D+03                  4185.9376    29.9418    27.6412
         ROT.     0.7558D+06                   864.4348     2.9808    29.8788
         INT.     0.5818D+09                  5050.3724    32.9227    57.5200
         TRA.     0.1411D+28                  1440.7247     4.9680    40.4128
         TOT.                       60.451    6491.0971    37.8907    97.9328

 300.00  VIB.     0.9891D+03                  4491.6748    31.2063    28.6776
         ROT.     0.7953D+06                   894.2429     2.9808    29.9798
         INT.     0.7866D+09                  5385.9177    34.1871    58.6574
         TRA.     0.1484D+28                  1490.4049     4.9680    40.5812
         TOT.                       60.836    6876.3226    39.1551    99.2386

 310.00  VIB.     0.1272D+04                  4810.0706    32.4730    29.7215
         ROT.     0.8354D+06                   924.0510     2.9808    30.0776
         INT.     0.1063D+10                  5734.1216    35.4538    59.7991
         TRA.     0.1559D+28                  1540.0850     4.9680    40.7441
         TOT.                       61.234    7274.2067    40.4218   100.5432

 320.00  VIB.     0.1637D+04                  5141.1319    33.7388    30.7725
         ROT.     0.8761D+06                   953.8591     2.9808    30.1722
         INT.     0.1434D+10                  6094.9910    36.7196    60.9447
         TRA.     0.1635D+28                  1589.7652     4.9680    40.9018
         TOT.                       61.645    7684.7562    41.6877   101.8465

 330.00  VIB.     0.2108D+04                  5484.8341    35.0007    31.8300
         ROT.     0.9175D+06                   983.6672     2.9808    30.2639
         INT.     0.1934D+10                  6468.5014    37.9815    62.0939
         TRA.     0.1713D+28                  1639.4454     4.9680    41.0547
         TOT.                       62.068    8107.9467    42.9496   103.1486

 340.00  VIB.     0.2717D+04                  5841.1244    36.2560    32.8935
         ROT.     0.9595D+06                  1013.4753     2.9808    30.3529
         INT.     0.2607D+10                  6854.5997    39.2368    63.2465
         TRA.     0.1791D+28                  1689.1255     4.9680    41.2030
         TOT.                       62.504    8543.7253    44.2048   104.4495

 350.00  VIB.     0.3506D+04                  6209.9244    37.5023    33.9625
         ROT.     0.1002D+07                  1043.2834     2.9808    30.4393
         INT.     0.3513D+10                  7253.2078    40.4831    64.4018
         TRA.     0.1871D+28                  1738.8057     4.9680    41.3470
         TOT.                       62.952    8992.0135    45.4511   105.7489

 360.00  VIB.     0.4526D+04                  6591.1332    38.7374    35.0363
         ROT.     0.1045D+07                  1073.0915     2.9808    30.5233
         INT.     0.4732D+10                  7664.2247    41.7183    65.5596
         TRA.     0.1951D+28                  1788.4859     4.9680    41.4870
         TOT.                       63.413    9452.7106    46.6863   107.0466

 370.00  VIB.     0.5849D+04                  6984.6301    39.9596    36.1144
         ROT.     0.1089D+07                  1102.8996     2.9808    30.6050
         INT.     0.6371D+10                  8087.5298    42.9404    66.7194
         TRA.     0.2033D+28                  1838.1660     4.9680    41.6231
         TOT.                       63.886    9925.6958    47.9085   108.3425

 380.00  VIB.     0.7564D+04                  7390.2775    41.1673    37.1961
         ROT.     0.1134D+07                  1132.7077     2.9808    30.6845
         INT.     0.8575D+10                  8522.9852    44.1481    67.8806
         TRA.     0.2116D+28                  1887.8462     4.9680    41.7556
         TOT.                       64.371   10410.8313    49.1161   109.6362

 390.00  VIB.     0.9790D+04                  7807.9229    42.3591    38.2809
         ROT.     0.1179D+07                  1162.5158     2.9808    30.7619
         INT.     0.1154D+11                  8970.4387    45.3399    69.0428
         TRA.     0.2200D+28                  1937.5263     4.9680    41.8846
         TOT.                       64.868   10907.9651    50.3079   110.9274

 400.00  VIB.     0.1268D+05                  8237.4021    43.5339    39.3682
         ROT.     0.1224D+07                  1192.3239     2.9808    30.8374
         INT.     0.1553D+11                  9429.7260    46.5147    70.2056
         TRA.     0.2285D+28                  1987.2065     4.9680    42.0104
         TOT.                       65.377   11416.9325    51.4827   112.2160

   *: NOTE: HEATS OF FORMATION ARE RELATIVE TO THE
            ELEMENTS IN THEIR STANDARD STATE AT 298K
              (=  Standard Enthalpy of Formation).

            Hvib:  Zero-point energy is not included.
                   frequencies of less than zero cm-1 are not included.
            Hrot = (3/2)RT
            Htra = (3/2)RT + pV = (5/2)RT

            Heat capacity is Cp, not Cv

          For more information, see: HTTP://OpenMOPAC.net/Manual/thermochemistry.html


           FORCE CONSTANT IN CARTESIAN COORDINATES (Millidynes/A)

    ATOM   CHEMICAL       X               Y               Z
   NUMBER   SYMBOL  FORCE CONSTANT  FORCE CONSTANT  FORCE CONSTANT

      1       C        8.201813        8.713328        8.347752
      2       C        8.148124        8.786495        8.388464
      3       C       10.559003        9.377724        8.441964
      4       C        9.632220        9.167406        8.247374
      5       C        8.829651        9.341500        9.000476
      6       C        7.747102       11.348925        7.954360
      7       C        8.329371        7.604664       11.121211
      8       C        9.237767        9.621672        8.277473
      9       C        9.350323        8.832671        8.945134
     10       C        8.416233        9.286754        8.838724
     11       H        1.158560        3.008100        2.077038
     12       H        1.170582        0.786631        4.327828
     13       H        1.220201        0.815079        4.371742
     14       H        1.166841        3.028622        2.093818
     15       H        1.316733        1.111606        3.742127
     16       H        1.143259        1.008240        4.076196
     17       H        0.630986        3.490234        2.230071
     18       H        0.998982        1.493190        3.969023
     19       H        2.119629        3.708889        0.640508
     20       H        2.587716        0.639738        3.238450
     21       H        1.112083        4.023469        1.347553
     22       H        1.232357        0.899918        4.336129

 **********************
 *                    *
 * JOB ENDED NORMALLY *
 *                    *
 **********************



 TOTAL JOB TIME:            15.35 SECONDS

 == MOPAC DONE ==
