 *******************************************************************************
 ** Site#: 14399        For non-commercial use only    Version 18.184L 64BITS **
 *******************************************************************************
 ** Cite this program as: MOPAC2016, Version: 18.184L, James J. P. Stewart,   **
 ** Stewart Computational Chemistry, web: HTTP://OpenMOPAC.net. Days left:  20**
 *******************************************************************************
 **                                                                           **
 **                                MOPAC2016                                  **
 **                                                                           **
 *******************************************************************************

                              PM3 CALCULATION RESULTS

 *******************************************************************************
 *  CALCULATION DONE:                                Thu Jun 13 20:25:23 2019  *
 *  PM3        - The PM3 Hamiltonian to be used
 *  PRECISE    - CRITERIA TO BE INCREASED BY 100 TIMES
 *  NOSYM      - POINT-GROUP SYMMETRY SET TO C1
 *  THREADS=1  - MULTI-THREADING NOT USED
 *  T=         - A TIME OF 172800.0 SECONDS REQUESTED
 *  DUMP=N     - RESTART FILE WRITTEN EVERY  7200.000 SECONDS
 *******************************************************************************
pm3  precise nosym THREADS=1
 InChI=1S/C7H10/c1-5-2-6-3-7(5)4-6/h3,5,7H,2,4H2,1H3

   ATOM   CHEMICAL          X               Y               Z
  NUMBER   SYMBOL      (ANGSTROMS)     (ANGSTROMS)     (ANGSTROMS)
 
     1       C          0.68880000  *  -0.02570000  *   0.34950000  *
     2       C         -0.62000000  *   0.85020000  *   0.32940000  *
     3       C          0.10040000  *  -1.39440000  *  -0.10690000  *
     4       C         -1.60380000  *   0.01740000  *   1.00240000  *
     5       C          1.77170000  *   0.51000000  *  -0.59370000  *
     6       C         -1.23850000  *  -0.81470000  *  -0.19950000  *
     7       C         -1.30120000  *   0.36050000  *  -0.89880000  *
     8       H          1.09970000  *  -0.09280000  *   1.38270000  *
     9       H         -0.60290000  *   1.94170000  *   0.53630000  *
    10       H          0.47070000  *  -1.74390000  *  -1.09590000  *
    11       H          0.16070000  *  -2.17230000  *   0.68440000  *
    12       H         -1.26890000  *  -0.40720000  *   1.97740000  *
    13       H         -2.65490000  *   0.41670000  *   1.04400000  *
    14       H          2.65320000  *  -0.16490000  *  -0.57110000  *
    15       H          1.40000000  *   0.57680000  *  -1.63810000  *
    16       H          2.09030000  *   1.52040000  *  -0.26140000  *
    17       H         -1.14530000  *   0.62210000  *  -1.94080000  *
 


          CARTESIAN COORDINATES 

    NO.       ATOM           X           Y           Z

     1         C          0.6888     -0.0257      0.3495
     2         C         -0.6200      0.8502      0.3294
     3         C          0.1004     -1.3944     -0.1069
     4         C         -1.6038      0.0174      1.0024
     5         C          1.7717      0.5100     -0.5937
     6         C         -1.2385     -0.8147     -0.1995
     7         C         -1.3012      0.3605     -0.8988
     8         H          1.0997     -0.0928      1.3827
     9         H         -0.6029      1.9417      0.5363
    10         H          0.4707     -1.7439     -1.0959
    11         H          0.1607     -2.1723      0.6844
    12         H         -1.2689     -0.4072      1.9774
    13         H         -2.6549      0.4167      1.0440
    14         H          2.6532     -0.1649     -0.5711
    15         H          1.4000      0.5768     -1.6381
    16         H          2.0903      1.5204     -0.2614
    17         H         -1.1453      0.6221     -1.9408

  H: (PM3): J. J. P. STEWART, J. COMP. CHEM. 10, 209 (1989).
  C: (PM3): J. J. P. STEWART, J. COMP. CHEM. 10, 209 (1989).

           Empirical Formula: C7 H10  =    17 atoms



      MOLECULAR POINT GROUP   :   C1  


      RHF CALCULATION, NO. OF DOUBLY OCCUPIED LEVELS = 19


          Geometry optimization using EF

          DIAGONAL MATRIX USED AS START HESSIAN

 CYCLE:     1 TIME:   0.023 TIME LEFT:  2.00D  GRAD.:   258.666 HEAT:  146.6357
 CYCLE:     2 TIME:   0.031 TIME LEFT:  2.00D  GRAD.:   294.916 HEAT:  144.4635
 CYCLE:     3 TIME:   0.023 TIME LEFT:  2.00D  GRAD.:   199.166 HEAT:  135.8982
 CYCLE:     4 TIME:   0.031 TIME LEFT:  2.00D  GRAD.:    76.693 HEAT:  127.1395
 CYCLE:     5 TIME:   0.031 TIME LEFT:  2.00D  GRAD.:    39.575 HEAT:  124.8275
 CYCLE:     6 TIME:   0.039 TIME LEFT:  2.00D  GRAD.:    43.932 HEAT:  124.4015
 CYCLE:     7 TIME:   0.023 TIME LEFT:  2.00D  GRAD.:    42.797 HEAT:  124.1969
 CYCLE:     8 TIME:   0.023 TIME LEFT:  2.00D  GRAD.:    45.682 HEAT:  124.0963
 CYCLE:     9 TIME:   0.023 TIME LEFT:  2.00D  GRAD.:    18.794 HEAT:  123.6663
 CYCLE:    10 TIME:   0.031 TIME LEFT:  2.00D  GRAD.:    14.051 HEAT:  123.5751
 CYCLE:    11 TIME:   0.023 TIME LEFT:  2.00D  GRAD.:     7.400 HEAT:  123.4945
 CYCLE:    12 TIME:   0.023 TIME LEFT:  2.00D  GRAD.:    13.477 HEAT:  123.4754
 CYCLE:    13 TIME:   0.023 TIME LEFT:  2.00D  GRAD.:    11.040 HEAT:  123.4279
 CYCLE:    14 TIME:   0.031 TIME LEFT:  2.00D  GRAD.:     9.378 HEAT:  123.3985
 CYCLE:    15 TIME:   0.023 TIME LEFT:  2.00D  GRAD.:     6.289 HEAT:  123.3686
 CYCLE:    16 TIME:   0.023 TIME LEFT:  2.00D  GRAD.:     8.948 HEAT:  123.3628
 CYCLE:    17 TIME:   0.023 TIME LEFT:  2.00D  GRAD.:     8.095 HEAT:  123.3544
 CYCLE:    18 TIME:   0.023 TIME LEFT:  2.00D  GRAD.:     4.922 HEAT:  123.3388
 CYCLE:    19 TIME:   0.023 TIME LEFT:  2.00D  GRAD.:     3.252 HEAT:  123.3320
 CYCLE:    20 TIME:   0.023 TIME LEFT:  2.00D  GRAD.:     3.031 HEAT:  123.3290
 CYCLE:    21 TIME:   0.023 TIME LEFT:  2.00D  GRAD.:     1.593 HEAT:  123.3244
 CYCLE:    22 TIME:   0.023 TIME LEFT:  2.00D  GRAD.:     2.392 HEAT:  123.3215
 CYCLE:    23 TIME:   0.023 TIME LEFT:  2.00D  GRAD.:     2.493 HEAT:  123.3181
 CYCLE:    24 TIME:   0.023 TIME LEFT:  2.00D  GRAD.:     1.072 HEAT:  123.3152
 CYCLE:    25 TIME:   0.023 TIME LEFT:  2.00D  GRAD.:     1.375 HEAT:  123.3137
 CYCLE:    26 TIME:   0.023 TIME LEFT:  2.00D  GRAD.:     1.186 HEAT:  123.3122
 CYCLE:    27 TIME:   0.016 TIME LEFT:  2.00D  GRAD.:     0.526 HEAT:  123.3115
 CYCLE:    28 TIME:   0.023 TIME LEFT:  2.00D  GRAD.:     0.471 HEAT:  123.3112
 CYCLE:    29 TIME:   0.023 TIME LEFT:  2.00D  GRAD.:     0.485 HEAT:  123.3109
 CYCLE:    30 TIME:   0.023 TIME LEFT:  2.00D  GRAD.:     0.488 HEAT:  123.3104
 CYCLE:    31 TIME:   0.023 TIME LEFT:  2.00D  GRAD.:     0.381 HEAT:  123.3100
 CYCLE:    32 TIME:   0.023 TIME LEFT:  2.00D  GRAD.:     0.334 HEAT:  123.3098
 CYCLE:    33 TIME:   0.031 TIME LEFT:  2.00D  GRAD.:     0.320 HEAT:  123.3096
 CYCLE:    34 TIME:   0.023 TIME LEFT:  2.00D  GRAD.:     0.284 HEAT:  123.3094
 CYCLE:    35 TIME:   0.016 TIME LEFT:  2.00D  GRAD.:     0.232 HEAT:  123.3093
 CYCLE:    36 TIME:   0.023 TIME LEFT:  2.00D  GRAD.:     0.170 HEAT:  123.3092
 CYCLE:    37 TIME:   0.023 TIME LEFT:  2.00D  GRAD.:     0.132 HEAT:  123.3091
 CYCLE:    38 TIME:   0.023 TIME LEFT:  2.00D  GRAD.:     0.129 HEAT:  123.3091
 CYCLE:    39 TIME:   0.023 TIME LEFT:  2.00D  GRAD.:     0.135 HEAT:  123.3090
 CYCLE:    40 TIME:   0.023 TIME LEFT:  2.00D  GRAD.:     0.107 HEAT:  123.3090
 CYCLE:    41 TIME:   0.023 TIME LEFT:  2.00D  GRAD.:     0.087 HEAT:  123.3090
 CYCLE:    42 TIME:   0.023 TIME LEFT:  2.00D  GRAD.:     0.082 HEAT:  123.3090
 CYCLE:    43 TIME:   0.023 TIME LEFT:  2.00D  GRAD.:     0.093 HEAT:  123.3089
 CYCLE:    44 TIME:   0.023 TIME LEFT:  2.00D  GRAD.:     0.061 HEAT:  123.3089
 CYCLE:    45 TIME:   0.016 TIME LEFT:  2.00D  GRAD.:     0.046 HEAT:  123.3089

     GRADIENT =  0.04633  IS LESS THAN CUTOFF =  0.05000



 -------------------------------------------------------------------------------
 pm3  precise nosym THREADS=1
 InChI=1S/C7H10/c1-5-2-6-3-7(5)4-6/h3,5,7H,2,4H2,1H3



     GEOMETRY OPTIMISED USING EIGENVECTOR FOLLOWING (EF).     
     SCF FIELD WAS ACHIEVED                                   


                              PM3 CALCULATION
                                                       MOPAC2016 (Version: 18.184L)
                                                       Thu Jun 13 20:25:24 2019
                                                       No. of days remaining =  20




          FINAL HEAT OF FORMATION =        123.30893 KCAL/MOL =     515.92456 KJ/MOL


          TOTAL ENERGY            =       -978.46251 EV
          ELECTRONIC ENERGY       =      -4714.52626 EV  POINT GROUP:     C1  
          CORE-CORE REPULSION     =       3736.06375 EV
          COSMO AREA              =        138.92 SQUARE ANGSTROMS
          COSMO VOLUME            =        136.36 CUBIC ANGSTROMS

          GRADIENT NORM           =          0.04633 = 0.01124 PER ATOM
          IONIZATION POTENTIAL    =          8.462886 EV
          HOMO LUMO ENERGIES (EV) =         -8.463 -0.658
          NO. OF FILLED LEVELS    =         19
          MOLECULAR WEIGHT        =         94.1560

          MOLECULAR DIMENSIONS (Angstroms)

            Atom       Atom       Distance
            H    14    H    13     5.56953
            H    11    H     9     4.12773
            H     8    H    17     3.88442


          SCF CALCULATIONS        =         52
 
          WALL-CLOCK TIME         =          1.148 SECONDS
          COMPUTATION TIME        =          0.483 SECONDS




   ATOM   CHEMICAL          X               Y               Z
  NUMBER   SYMBOL      (ANGSTROMS)     (ANGSTROMS)     (ANGSTROMS)
 
     1       C          0.69185763  *   0.02450964  *   0.35333221  *
     2       C         -0.62950365  *   0.93823952  *   0.30584154  *
     3       C          0.05684691  *  -1.39890568  *  -0.10952626  *
     4       C         -1.59464200  *  -0.05261397  *   1.06870527  *
     5       C          1.77332867  *   0.50156770  *  -0.57596584  *
     6       C         -1.32935988  *  -0.83309714  *  -0.22874064  *
     7       C         -1.21402192  *   0.35524344  *  -0.97619677  *
     8       H          1.07996271  *  -0.03249133  *   1.39162477  *
     9       H         -0.53547598  *   2.00316142  *   0.53052165  *
    10       H          0.49484832  *  -1.77013568  *  -1.04808003  *
    11       H          0.17013930  *  -2.18017733  *   0.65590296  *
    12       H         -1.24677310  *  -0.46915847  *   2.02255558  *
    13       H         -2.62168421  *   0.31127379  *   1.20350794  *
    14       H          2.64223531  *  -0.16856886  *  -0.55163996  *
    15       H          1.42261668  *   0.55008052  *  -1.61663794  *
    16       H          2.11846185  *   1.50613999  *  -0.29884275  *
    17       H         -1.17365651  *   0.63723999  *  -2.01623953  *

                             CARTESIAN COORDINATES

   1    C        0.691857629     0.024509645     0.353332213
   2    C       -0.629503645     0.938239525     0.305841536
   3    C        0.056846910    -1.398905684    -0.109526263
   4    C       -1.594641998    -0.052613970     1.068705272
   5    C        1.773328666     0.501567698    -0.575965840
   6    C       -1.329359878    -0.833097138    -0.228740642
   7    C       -1.214021923     0.355243438    -0.976196770
   8    H        1.079962706    -0.032491325     1.391624773
   9    H       -0.535475979     2.003161417     0.530521651
  10    H        0.494848318    -1.770135677    -1.048080034
  11    H        0.170139298    -2.180177329     0.655902964
  12    H       -1.246773102    -0.469158473     2.022555583
  13    H       -2.621684210     0.311273793     1.203507942
  14    H        2.642235307    -0.168568857    -0.551639965
  15    H        1.422616677     0.550080517    -1.616637937
  16    H        2.118461846     1.506139990    -0.298842747
  17    H       -1.173656512     0.637239994    -2.016239530


           Empirical Formula: C7 H10  =    17 atoms



      MOLECULAR POINT GROUP   :   C1  


                  EIGENVALUES  
 -42.94641 -31.87587 -27.34892 -24.94586 -23.02504 -19.25104 -18.26643 -16.26608
 -15.89368 -15.32345 -14.34554 -13.95871 -13.30952 -12.82635 -12.36403 -12.01477
 -11.82204 -11.70104  -8.46289  -0.65781   2.95005   3.01953   3.09059   3.34019
   3.48886   3.70679   3.88199   4.00617   4.04390   4.26213   4.35705   4.43315
   4.53751   4.70877   4.86385   4.98676   5.10165   5.64678


              NET ATOMIC CHARGES AND DIPOLE CONTRIBUTIONS

  ATOM NO.   TYPE          CHARGE      No. of ELECS.   s-Pop       p-Pop       
    1          C          -0.099726        4.0997     1.22517     2.87456
    2          C          -0.067228        4.0672     1.20842     2.85880
    3          C           0.006937        3.9931     1.16073     2.83233
    4          C          -0.106923        4.1069     1.19071     2.91621
    5          C          -0.114302        4.1143     1.13768     2.97662
    6          C          -0.172404        4.1724     1.31278     2.85962
    7          C          -0.123065        4.1231     1.24300     2.88007
    8          H           0.066600        0.9334     0.93340
    9          H           0.092484        0.9075     0.90752
   10          H           0.059794        0.9402     0.94021
   11          H           0.055241        0.9448     0.94476
   12          H           0.063686        0.9363     0.93631
   13          H           0.070409        0.9296     0.92959
   14          H           0.043804        0.9562     0.95620
   15          H           0.044331        0.9557     0.95567
   16          H           0.043907        0.9561     0.95609
   17          H           0.136455        0.8635     0.86354
 DIPOLE           X         Y         Z       TOTAL
 POINT-CHG.     1.101     0.442    -0.003     1.186
 HYBRID         0.195     0.419     0.097     0.473
 SUM            1.296     0.861     0.094     1.559


          ATOMIC ORBITAL ELECTRON POPULATIONS

     Atom    s        px        py        pz   
    1  C   1.22517   0.95742   0.92096   0.99618
    2  C   1.20842   0.94061   0.96388   0.95432
    3  C   1.16073   0.88765   0.94149   1.00319
    4  C   1.19071   0.98293   0.95962   0.97367
    5  C   1.13768   0.97792   1.00571   0.99299
    6  C   1.31278   0.95232   0.97696   0.93035
    7  C   1.24300   0.87432   1.04106   0.96468
    8  H   0.93340
    9  H   0.90752
   10  H   0.94021
   11  H   0.94476
   12  H   0.93631
   13  H   0.92959
   14  H   0.95620
   15  H   0.95567
   16  H   0.95609
   17  H   0.86354
 *******************************************************************************
 ** Site#: 14399        For non-commercial use only    Version 18.184L 64BITS **
 *******************************************************************************
 ** Cite this program as: MOPAC2016, Version: 18.184L, James J. P. Stewart,   **
 ** Stewart Computational Chemistry, web: HTTP://OpenMOPAC.net. Days left:  20**
 *******************************************************************************
 **                                                                           **
 **                                MOPAC2016                                  **
 **                                                                           **
 *******************************************************************************

                              PM3 CALCULATION RESULTS

 *******************************************************************************
 *  CALCULATION DONE:                                Thu Jun 13 20:25:24 2019  *
 *  PM3        - The PM3 Hamiltonian to be used
 *  OLDGEO     - PREVIOUS GEOMETRY TO BE USED
 *  PRECISE    - CRITERIA TO BE INCREASED BY 100 TIMES
 *  NOSYM      - POINT-GROUP SYMMETRY SET TO C1
 *  THREADS=1  - MULTI-THREADING NOT USED
 *  T=         - A TIME OF 172800.0 SECONDS REQUESTED
 *  DUMP=N     - RESTART FILE WRITTEN EVERY  7200.000 SECONDS
 *  THERMO     - THERMODYNAMIC QUANTITIES TO BE CALCULATED
 *******************************************************************************
oldgeo thermo nosym precise THREADS=1  pm3
 InChI=1S/C7H10/c1-5-2-6-3-7(5)4-6/h3,5,7H,2,4H2,1H3

   ATOM   CHEMICAL          X               Y               Z
  NUMBER   SYMBOL      (ANGSTROMS)     (ANGSTROMS)     (ANGSTROMS)
 
     1       C          0.69185763  *   0.02450964  *   0.35333221  *
     2       C         -0.62950365  *   0.93823952  *   0.30584154  *
     3       C          0.05684691  *  -1.39890568  *  -0.10952626  *
     4       C         -1.59464200  *  -0.05261397  *   1.06870527  *
     5       C          1.77332867  *   0.50156770  *  -0.57596584  *
     6       C         -1.32935988  *  -0.83309714  *  -0.22874064  *
     7       C         -1.21402192  *   0.35524344  *  -0.97619677  *
     8       H          1.07996271  *  -0.03249133  *   1.39162477  *
     9       H         -0.53547598  *   2.00316142  *   0.53052165  *
    10       H          0.49484832  *  -1.77013568  *  -1.04808003  *
    11       H          0.17013930  *  -2.18017733  *   0.65590296  *
    12       H         -1.24677310  *  -0.46915847  *   2.02255558  *
    13       H         -2.62168421  *   0.31127379  *   1.20350794  *
    14       H          2.64223531  *  -0.16856886  *  -0.55163996  *
    15       H          1.42261668  *   0.55008052  *  -1.61663794  *
    16       H          2.11846185  *   1.50613999  *  -0.29884275  *
    17       H         -1.17365651  *   0.63723999  *  -2.01623953  *
 


          CARTESIAN COORDINATES 

    NO.       ATOM           X           Y           Z

     1         C          0.6919      0.0245      0.3533
     2         C         -0.6295      0.9382      0.3058
     3         C          0.0568     -1.3989     -0.1095
     4         C         -1.5946     -0.0526      1.0687
     5         C          1.7733      0.5016     -0.5760
     6         C         -1.3294     -0.8331     -0.2287
     7         C         -1.2140      0.3552     -0.9762
     8         H          1.0800     -0.0325      1.3916
     9         H         -0.5355      2.0032      0.5305
    10         H          0.4948     -1.7701     -1.0481
    11         H          0.1701     -2.1802      0.6559
    12         H         -1.2468     -0.4692      2.0226
    13         H         -2.6217      0.3113      1.2035
    14         H          2.6422     -0.1686     -0.5516
    15         H          1.4226      0.5501     -1.6166
    16         H          2.1185      1.5061     -0.2988
    17         H         -1.1737      0.6372     -2.0162

  H: (PM3): J. J. P. STEWART, J. COMP. CHEM. 10, 209 (1989).
  C: (PM3): J. J. P. STEWART, J. COMP. CHEM. 10, 209 (1989).

           Empirical Formula: C7 H10  =    17 atoms



      MOLECULAR POINT GROUP   :   C1  


      RHF CALCULATION, NO. OF DOUBLY OCCUPIED LEVELS = 19



          HEAT OF FORMATION =     123.308928 KCALS/MOLE


          CARTESIAN COORDINATE DERIVATIVES

   NUMBER  ATOM         X            Y            Z

     1       C      0.003210    -0.003631     0.002809
     2       C      0.012820     0.006368     0.003698
     3       C     -0.006368    -0.007664    -0.000896
     4       C      0.007158     0.007154    -0.005624
     5       C      0.002953    -0.004780     0.007372
     6       C     -0.004149     0.000261    -0.008966
     7       C     -0.009080    -0.006271     0.000902
     8       H     -0.002904    -0.002022     0.001659
     9       H     -0.003936    -0.006305     0.007219
    10       H      0.000265    -0.000672    -0.000516
    11       H     -0.011646     0.010585    -0.002416
    12       H     -0.007630    -0.007268    -0.006073
    13       H      0.005798    -0.011256    -0.004189
    14       H      0.007204     0.006444     0.005363
    15       H      0.007809     0.010293     0.007039
    16       H     -0.006166    -0.004934    -0.004370
    17       H      0.004660     0.013699    -0.003011
 


          GRADIENT NORM =   0.04617


          TIME FOR SCF CALCULATION =    0.03

          TIME FOR DERIVATIVES     =    0.01

          MOLECULAR WEIGHT =   94.16



          ROTATIONAL CONSTANTS IN CM(-1)

          A =    0.16136976   B =    0.09010184   C =    0.08275391



           PRINCIPAL MOMENTS OF INERTIA IN UNITS OF 10**(-40)*GRAM-CM**2

          A =      173.4698   B =      310.6793   C =      338.2653


          ORIENTATION OF MOLECULE IN FORCE CALCULATION

    NO.       ATOM         X         Y         Z

     1          C      -0.7493   -0.6834    0.1551
     2          C       0.8579   -0.6834    0.1551
     3          C      -1.0228    0.9193    0.1551
     4          C       1.0656    0.3940    1.2914
     5          C      -1.3397   -1.3680   -1.0464
     6          C       0.4421    1.2504    0.1775
     7          C       1.0449    0.4681   -0.8269
     8          H      -1.1314   -1.1517    1.0861
     9          H       1.3794   -1.6424    0.1115
    10          H      -1.5662    1.2538   -0.7412
    11          H      -1.5827    1.2517    1.0412
    12          H       0.5146    0.2567    2.2305
    13          H       2.1128    0.6176    1.5336
    14          H      -2.4358   -1.3112   -1.0373
    15          H      -0.9931   -0.9124   -1.9848
    16          H      -1.0605   -2.4293   -1.0741
    17          H       1.2028    0.5289   -1.8918


    FIRST DERIVATIVES WILL BE USED IN THE CALCULATION OF SECOND DERIVATIVES

          ESTIMATED TIME TO COMPLETE CALCULATION =        7.97 SECONDS

    FOR POINT-GROUP C1   THERE ARE   1 UNIQUE SYMMETRY FUNCTIONS.

 STEP:   1 TIME =     0.04 SECS, INTEGRAL =      0.04 TIME LEFT: 172799.92
 STEP:   2 TIME =     0.03 SECS, INTEGRAL =      0.07 TIME LEFT: 172799.89
 STEP:   3 TIME =     0.03 SECS, INTEGRAL =      0.10 TIME LEFT: 172799.86
 STEP:   4 TIME =     0.02 SECS, INTEGRAL =      0.12 TIME LEFT: 172799.84
 STEP:   5 TIME =     0.03 SECS, INTEGRAL =      0.16 TIME LEFT: 172799.80
 STEP:   6 TIME =     0.02 SECS, INTEGRAL =      0.18 TIME LEFT: 172799.78
 STEP:   7 TIME =     0.03 SECS, INTEGRAL =      0.21 TIME LEFT: 172799.75
 STEP:   8 TIME =     0.03 SECS, INTEGRAL =      0.24 TIME LEFT: 172799.72
 STEP:   9 TIME =     0.03 SECS, INTEGRAL =      0.27 TIME LEFT: 172799.69
 STEP:  10 TIME =     0.03 SECS, INTEGRAL =      0.30 TIME LEFT: 172799.66
 STEP:  11 TIME =     0.04 SECS, INTEGRAL =      0.34 TIME LEFT: 172799.62
 STEP:  12 TIME =     0.02 SECS, INTEGRAL =      0.37 TIME LEFT: 172799.59
 STEP:  13 TIME =     0.03 SECS, INTEGRAL =      0.40 TIME LEFT: 172799.56
 STEP:  14 TIME =     0.02 SECS, INTEGRAL =      0.42 TIME LEFT: 172799.54
 STEP:  15 TIME =     0.04 SECS, INTEGRAL =      0.46 TIME LEFT: 172799.50
 STEP:  16 TIME =     0.04 SECS, INTEGRAL =      0.50 TIME LEFT: 172799.46
 STEP:  17 TIME =     0.04 SECS, INTEGRAL =      0.54 TIME LEFT: 172799.42
 STEP:  18 TIME =     0.03 SECS, INTEGRAL =      0.57 TIME LEFT: 172799.39
 STEP:  19 TIME =     0.03 SECS, INTEGRAL =      0.60 TIME LEFT: 172799.36
 STEP:  20 TIME =     0.03 SECS, INTEGRAL =      0.63 TIME LEFT: 172799.33
 STEP:  21 TIME =     0.02 SECS, INTEGRAL =      0.66 TIME LEFT: 172799.30
 STEP:  22 TIME =     0.02 SECS, INTEGRAL =      0.68 TIME LEFT: 172799.28
 STEP:  23 TIME =     0.03 SECS, INTEGRAL =      0.71 TIME LEFT: 172799.25
 STEP:  24 TIME =     0.03 SECS, INTEGRAL =      0.74 TIME LEFT: 172799.22
 STEP:  25 TIME =     0.03 SECS, INTEGRAL =      0.77 TIME LEFT: 172799.19
 STEP:  26 TIME =     0.03 SECS, INTEGRAL =      0.80 TIME LEFT: 172799.16
 STEP:  27 TIME =     0.05 SECS, INTEGRAL =      0.85 TIME LEFT: 172799.11
 STEP:  28 TIME =     0.04 SECS, INTEGRAL =      0.89 TIME LEFT: 172799.07
 STEP:  29 TIME =     0.04 SECS, INTEGRAL =      0.93 TIME LEFT: 172799.03
 STEP:  30 TIME =     0.03 SECS, INTEGRAL =      0.96 TIME LEFT: 172799.00
 STEP:  31 TIME =     0.04 SECS, INTEGRAL =      1.00 TIME LEFT: 172798.96
 STEP:  32 TIME =     0.04 SECS, INTEGRAL =      1.04 TIME LEFT: 172798.92
 STEP:  33 TIME =     0.04 SECS, INTEGRAL =      1.08 TIME LEFT: 172798.88
 STEP:  34 TIME =     0.04 SECS, INTEGRAL =      1.12 TIME LEFT: 172798.84
 STEP:  35 TIME =     0.04 SECS, INTEGRAL =      1.16 TIME LEFT: 172798.80
 STEP:  36 TIME =     0.03 SECS, INTEGRAL =      1.19 TIME LEFT: 172798.77
 STEP:  37 TIME =     0.04 SECS, INTEGRAL =      1.23 TIME LEFT: 172798.73
 STEP:  38 TIME =     0.05 SECS, INTEGRAL =      1.27 TIME LEFT: 172798.69
 STEP:  39 TIME =     0.04 SECS, INTEGRAL =      1.31 TIME LEFT: 172798.65
 STEP:  40 TIME =     0.04 SECS, INTEGRAL =      1.35 TIME LEFT: 172798.61
 STEP:  41 TIME =     0.03 SECS, INTEGRAL =      1.38 TIME LEFT: 172798.58
 STEP:  42 TIME =     0.03 SECS, INTEGRAL =      1.41 TIME LEFT: 172798.55
 STEP:  43 TIME =     0.03 SECS, INTEGRAL =      1.45 TIME LEFT: 172798.52
 STEP:  44 TIME =     0.04 SECS, INTEGRAL =      1.48 TIME LEFT: 172798.48
 STEP:  45 TIME =     0.02 SECS, INTEGRAL =      1.51 TIME LEFT: 172798.45
 STEP:  46 TIME =     0.03 SECS, INTEGRAL =      1.54 TIME LEFT: 172798.42
 STEP:  47 TIME =     0.03 SECS, INTEGRAL =      1.57 TIME LEFT: 172798.39
 STEP:  48 TIME =     0.03 SECS, INTEGRAL =      1.60 TIME LEFT: 172798.36
 STEP:  49 TIME =     0.04 SECS, INTEGRAL =      1.64 TIME LEFT: 172798.32
 STEP:  50 TIME =     0.05 SECS, INTEGRAL =      1.69 TIME LEFT: 172798.27
 STEP:  51 TIME =     0.04 SECS, INTEGRAL =      1.73 TIME LEFT: 172798.23

(To convert to Hartree/Bohr^2, multiply by (10^(-21) x N x a0^2)/(4.184 x 627.51) =  0.0642)


           FORCE MATRIX IN MILLIDYNES/ANGSTROM


                  C  1       C  2       C  3       C  4       C  5       C  6
 ------------------------------------------------------------------------------
     C    1  13.265600
     C    2   2.034314  13.293641
     C    3   1.866670   0.776439  13.874187
     C    4   0.849337   2.676573   0.745891  14.242963
     C    5   4.669671   0.500985   0.515706   0.051925  14.493519
     C    6   1.351884   2.142004   4.231875   3.501833   0.029726  12.796664
     C    7   1.030208   3.738804   1.049405   2.045552   0.059841   7.411083
     H    8   4.437736   0.398050   0.399153   0.037614   0.425188   0.033269
     H    9   0.377712   4.917122   0.035891   0.343776   0.008507   0.039151
     H   10   0.425799   0.019551   4.685129   0.048257   0.031552   0.447334
     H   11   0.416006   0.023565   4.703728   0.023402   0.028894   0.453388
     H   12   0.063356   0.412346   0.034865   4.770787   0.003222   0.416394
     H   13   0.039390   0.436200   0.042836   4.758462   0.008093   0.424352
     H   14   0.452259   0.042624   0.012386   0.007872   4.749449   0.003722
     H   15   0.469798   0.014124   0.021521   0.002654   4.687385   0.009734
     H   16   0.453446   0.014908   0.043888   0.001888   4.739818   0.006971
     H   17   0.014863   0.330416   0.030790   0.074970   0.010896   0.439488


                  C  7       H  8       H  9       H 10       H 11       H 12
 ------------------------------------------------------------------------------
     C    7  16.084826
     H    8   0.031781   4.934438
     H    9   0.380734   0.008477   5.432669
     H   10   0.030123   0.026683   0.002832   5.296189
     H   11   0.032887   0.027391   0.004329   0.521478   5.301675
     H   12   0.055021   0.031112   0.007459   0.002830   0.015252   5.411183
     H   13   0.091665   0.001839   0.004501   0.007528   0.002677   0.524043
     H   14   0.005963   0.030170   0.001408   0.007487   0.001592   0.000559
     H   15   0.015084   0.045799   0.001294   0.018828   0.001600   0.000389
     H   16   0.005327   0.028791   0.005967   0.002875   0.005067   0.000445
     H   17   5.354273   0.002195   0.012303   0.004229   0.002132   0.011966


                  H 13       H 14       H 15       H 16       H 17
 ------------------------------------------------------------------
     H   13   5.392311
     H   14   0.001405   5.473237
     H   15   0.000639   0.567137   5.421999
     H   16   0.000521   0.566291   0.570253   5.466510
     H   17   0.005989   0.000806   0.011477   0.000965   5.735848


          HEAT OF FORMATION =     123.308928 KCALS/MOLE

          ZERO POINT ENERGY      93.204 KCAL/MOL


           NORMAL COORDINATE ANALYSIS (Total motion = 1 Angstrom)


   Root No.       1         2         3         4         5         6         7         8

                 1 A       2 A       3 A       4 A       5 A       6 A       7 A       8 A   

                 183.6     213.7     309.0     446.1     491.3     523.5     631.0     717.7
  
           1    0.0066   -0.0063   -0.0276   -0.0049    0.0085   -0.0288   -0.0079    0.0465
           2   -0.0064   -0.0088    0.0272    0.0077    0.0046    0.0086    0.0352   -0.0304
           3   -0.0002    0.0197    0.0048   -0.0137    0.0496    0.0086   -0.0271   -0.0113
           4    0.0068   -0.0064   -0.0325   -0.0069    0.0105   -0.0223    0.0712    0.0076
           5    0.0042   -0.0093   -0.0031    0.0026   -0.0070   -0.0020    0.0022   -0.0327
           6   -0.0069    0.0299   -0.0105   -0.0148   -0.0273   -0.0010    0.0171   -0.0089
           7   -0.0038   -0.0089    0.0020    0.0022   -0.0173   -0.0271   -0.0420   -0.0052
           8   -0.0089   -0.0086    0.0349    0.0146    0.0029   -0.0185    0.0444    0.0707
           9    0.0040    0.0333    0.0074    0.0511   -0.0145   -0.0055    0.0010    0.0004
          10    0.0028    0.0107    0.0136   -0.0373   -0.0336    0.0446    0.0185   -0.0075
          11   -0.0000    0.0259   -0.0260    0.0022   -0.0370    0.0080   -0.0185    0.0015
          12   -0.0017   -0.0104   -0.0071   -0.0080   -0.0116   -0.0208    0.0096   -0.0176
          13   -0.0025    0.0356    0.0506   -0.0004    0.0332   -0.0042   -0.0061    0.0102
          14   -0.0016    0.0405   -0.0333   -0.0220    0.0399    0.0012    0.0003   -0.0105
          15    0.0016   -0.0318    0.0014    0.0017    0.0381   -0.0022   -0.0027   -0.0026
          16   -0.0063   -0.0087    0.0111    0.0034   -0.0196   -0.0277   -0.0413   -0.0198
          17    0.0015   -0.0098    0.0058    0.0023   -0.0180   -0.0090   -0.0588    0.0303
          18    0.0046   -0.0269    0.0154   -0.0330   -0.0187    0.0057   -0.0066    0.0152
          19   -0.0030   -0.0236   -0.0294    0.0412    0.0113    0.0381    0.0153   -0.0526
          20    0.0115   -0.0400    0.0041   -0.0011    0.0056    0.0079   -0.0114   -0.0341
          21   -0.0010   -0.0122   -0.0067   -0.0070   -0.0154    0.0232    0.0028    0.0250
          22    0.0102   -0.0277   -0.0488    0.0015    0.0252   -0.0310   -0.0077    0.0572
          23   -0.0081   -0.0336    0.0462   -0.0056    0.0135    0.0132    0.0504   -0.0210
          24    0.0005   -0.0037    0.0055   -0.0160    0.0597    0.0098   -0.0211   -0.0044
          25    0.0141   -0.0064   -0.0558   -0.0138    0.0051   -0.0551    0.0596    0.0425
          26    0.0086   -0.0105   -0.0151   -0.0020   -0.0087   -0.0199   -0.0026   -0.0161
          27   -0.0134    0.0561   -0.0358    0.0020   -0.0544   -0.0033    0.0223    0.0049
          28   -0.0056   -0.0523    0.0155   -0.0906   -0.0039   -0.0108   -0.0538    0.0157
          29   -0.0125   -0.0085    0.0478    0.0485   -0.0456   -0.0219    0.0808    0.0612
          30    0.0037    0.0600    0.0046    0.1240   -0.0424   -0.0185    0.0227   -0.0132
          31   -0.0071    0.0330    0.0049    0.0966   -0.0373   -0.0452   -0.0207   -0.0301
          32   -0.0150   -0.0090    0.0426   -0.0187    0.0455   -0.0072    0.0287    0.0363
          33    0.0041    0.0603    0.0060    0.1263   -0.0443   -0.0207    0.0216   -0.0061
          34    0.0067    0.0253    0.0297   -0.0761   -0.0626    0.1365    0.0465    0.0295
          35   -0.0088    0.0556   -0.0255    0.0084   -0.0708    0.0068   -0.0816   -0.0278
          36   -0.0007    0.0023    0.0022   -0.0282   -0.0314    0.0284    0.0160   -0.0018
          37    0.0019    0.0145    0.0243   -0.0472   -0.0499    0.0685   -0.0032   -0.0027
          38    0.0063    0.0352   -0.0542   -0.0064   -0.0168    0.0255    0.1030    0.0226
          39   -0.0038   -0.0351   -0.0262    0.0378    0.0345   -0.1265   -0.0033   -0.0534
          40    0.0089    0.0360    0.0489   -0.0009    0.0338   -0.0050   -0.0076    0.0128
          41    0.2481    0.0518   -0.0771   -0.0350    0.0413   -0.0176   -0.0213    0.0428
          42   -0.1311   -0.0781   -0.0715   -0.0045    0.0092   -0.0322    0.0052    0.0639
          43    0.2085    0.0807    0.0938    0.0001    0.0638    0.0157   -0.0240   -0.0244
          44   -0.1743    0.0746   -0.0645   -0.0488    0.0773    0.0096   -0.0428    0.0010
          45   -0.0040    0.0004    0.0022   -0.0100    0.0656    0.0089   -0.0289   -0.0094
          46   -0.2395    0.0268    0.0963    0.0112    0.0389    0.0154    0.0122   -0.0454
          47   -0.0669    0.0393   -0.0242   -0.0208    0.0428    0.0062    0.0030   -0.0234
          48    0.1421   -0.0636    0.0696    0.0396    0.0067    0.0027    0.0522   -0.0494
          49   -0.0053   -0.0389   -0.0638    0.1522    0.0703    0.2368   -0.0933    0.1928
          50    0.0192   -0.0754    0.0099    0.0044    0.0289    0.0498   -0.0388   -0.0139
          51   -0.0010   -0.0166   -0.0117    0.0105   -0.0051    0.0576   -0.0155    0.0653


   Root No.       9        10        11        12        13        14        15        16

                 9 A      10 A      11 A      12 A      13 A      14 A      15 A      16 A   

                 767.4     796.2     830.8     888.2     931.5     940.8     955.3     988.7
  
           1    0.0349    0.0138   -0.0363   -0.0112    0.0013    0.0006    0.0048    0.0034
           2    0.0417   -0.0441   -0.0008   -0.0020    0.0033    0.0010   -0.0016   -0.0025
           3   -0.0293    0.0133    0.0154    0.0070    0.0020   -0.0035    0.0058    0.0076
           4   -0.0136   -0.0258    0.0454    0.0172    0.0116   -0.0007   -0.0221    0.0060
           5   -0.0054    0.0110    0.0208   -0.0472   -0.0092   -0.0250    0.0171   -0.0134
           6    0.0255    0.0453    0.0330   -0.0196    0.0026    0.0197   -0.0010    0.0022
           7   -0.0145   -0.0082    0.0128    0.0070   -0.0119    0.0279    0.0091    0.0013
           8   -0.0332    0.0390   -0.0138   -0.0037    0.0054   -0.0082   -0.0000    0.0029
           9   -0.0137   -0.0100   -0.0038   -0.0124    0.0420    0.0076    0.0172   -0.0101
          10   -0.0005    0.0024    0.0128   -0.0127   -0.0025   -0.0238   -0.0007    0.0038
          11   -0.0328   -0.0398   -0.0370    0.0117   -0.0028   -0.0040   -0.0016    0.0006
          12   -0.0101   -0.0155   -0.0159   -0.0339   -0.0297   -0.0250    0.0069    0.0183
          13    0.0182    0.0009   -0.0221   -0.0081   -0.0060    0.0038    0.0084   -0.0004
          14    0.0217   -0.0188   -0.0079    0.0007    0.0077    0.0095   -0.0007    0.0110
          15    0.0128   -0.0040   -0.0103    0.0050   -0.0117    0.0021   -0.0116   -0.0154
          16   -0.0066   -0.0101    0.0067   -0.0034   -0.0026    0.0001    0.0010   -0.0024
          17    0.0322    0.0049    0.0487    0.0418    0.0111   -0.0142    0.0043   -0.0057
          18   -0.0119   -0.0295   -0.0150    0.0010   -0.0041    0.0059   -0.0058   -0.0044
          19   -0.0100    0.0359   -0.0306    0.0258    0.0165   -0.0098    0.0091   -0.0132
          20   -0.0020    0.0448    0.0049   -0.0034    0.0019    0.0166   -0.0021    0.0017
          21    0.0112    0.0032   -0.0034    0.0599    0.0112   -0.0172   -0.0023    0.0033
          22    0.0249   -0.0067   -0.0640   -0.0147    0.0247   -0.0577    0.0007   -0.0234
          23    0.0337   -0.0319    0.0049    0.0259   -0.0600    0.0152   -0.0516   -0.0142
          24   -0.0317    0.0097    0.0046    0.0192   -0.0209   -0.0189   -0.0209   -0.0109
          25   -0.0501    0.0045    0.0801   -0.0158    0.0191    0.0091   -0.0775    0.0261
          26   -0.0277    0.0246    0.0395   -0.0627   -0.0074   -0.0262   -0.0114    0.0007
          27    0.0424    0.0627    0.0516   -0.0759    0.0401    0.1785   -0.0429   -0.0710
          28   -0.0840   -0.0561   -0.0124   -0.0619    0.0991    0.0759    0.0342   -0.1102
          29   -0.0221    0.0048   -0.0427   -0.0132   -0.0715    0.0249   -0.0795   -0.1476
          30    0.0323    0.0095   -0.0006    0.0275   -0.0597   -0.0092   -0.0299    0.0010
          31    0.0074    0.0425    0.0377    0.0621   -0.1377    0.0140   -0.0075    0.1153
          32   -0.0944    0.0516    0.0269   -0.0082    0.0658   -0.0090    0.0782    0.1571
          33    0.0270    0.0153   -0.0027    0.0267   -0.0648   -0.0016   -0.0259    0.0035
          34    0.0215    0.0480   -0.0205    0.0061   -0.0490    0.0213    0.0388    0.0053
          35   -0.0260    0.0106   -0.1282   -0.0335    0.0787   -0.0280   -0.1632    0.0719
          36    0.0035    0.0169   -0.0452   -0.0315   -0.0441   -0.0027    0.0064    0.0284
          37    0.0132    0.0261   -0.0128   -0.0306    0.0097   -0.0383   -0.0355    0.0157
          38   -0.0707   -0.0750    0.0001    0.1106   -0.0933    0.1216    0.1638   -0.0330
          39   -0.0302   -0.0726    0.0596   -0.0452   -0.0010   -0.0708    0.0031   -0.0009
          40    0.0185    0.0031   -0.0246   -0.0090   -0.0081    0.0032    0.0087   -0.0023
          41    0.0315    0.0377   -0.0466   -0.0258   -0.0363   -0.0022    0.0184   -0.0190
          42    0.0981    0.0242   -0.0875   -0.0621   -0.0137    0.0270    0.0566    0.0189
          43   -0.0492   -0.0020    0.0227    0.0378   -0.0245   -0.0189   -0.0471   -0.0455
          44   -0.0467    0.0388    0.0106    0.0265   -0.0585   -0.0265   -0.0430   -0.0672
          45   -0.0428    0.0219    0.0141    0.0329   -0.0490   -0.0221   -0.0510   -0.0677
          46    0.0101   -0.0579    0.0117    0.0215    0.0289    0.0155   -0.0190    0.0180
          47    0.0179   -0.0305    0.0007    0.0085    0.0127    0.0108   -0.0089    0.0121
          48    0.0784   -0.0997   -0.0110   -0.0024    0.0670    0.0486    0.0066    0.0651
          49   -0.0063   -0.1086    0.1190   -0.1708   -0.0391   -0.0011   -0.0109    0.0173
          50   -0.0610    0.0044   -0.0420   -0.0024   -0.0378    0.2078   -0.0867    0.1050
          51    0.0083   -0.0218    0.0172    0.0285    0.0001   -0.0043   -0.0107    0.0146


   Root No.      17        18        19        20        21        22        23        24

                17 A      18 A      19 A      20 A      21 A      22 A      23 A      24 A   

                 997.1    1029.4    1052.4    1066.3    1123.4    1128.5    1162.4    1165.4
  
           1   -0.0077    0.0187    0.0111    0.0193    0.0331   -0.0003   -0.0076   -0.0098
           2    0.0064    0.0038   -0.0278    0.0227   -0.0035    0.0068    0.0219    0.0122
           3    0.0040   -0.0069    0.0042   -0.0113   -0.0096    0.0058   -0.0353    0.0306
           4    0.0060   -0.0083   -0.0126    0.0120   -0.0327   -0.0005   -0.0268   -0.0218
           5   -0.0121    0.0031   -0.0066   -0.0109   -0.0211    0.0089    0.0005   -0.0019
           6    0.0074   -0.0106    0.0235    0.0251   -0.0021    0.0165    0.0141    0.0031
           7   -0.0162   -0.0142    0.0021    0.0076   -0.0032   -0.0059   -0.0079   -0.0093
           8   -0.0003    0.0087    0.0130   -0.0059    0.0107    0.0093   -0.0119   -0.0085
           9    0.0029   -0.0042   -0.0146    0.0185    0.0124    0.0131    0.0032   -0.0065
          10    0.0347    0.0143    0.0219   -0.0106    0.0149   -0.0086    0.0121    0.0065
          11    0.0065    0.0065   -0.0062   -0.0205    0.0054    0.0043   -0.0111   -0.0174
          12   -0.0125    0.0085    0.0000    0.0098    0.0018    0.0223   -0.0147   -0.0109
          13    0.0169   -0.0189   -0.0128   -0.0139   -0.0124   -0.0022    0.0037    0.0039
          14   -0.0153   -0.0021    0.0221   -0.0170    0.0015   -0.0044   -0.0060   -0.0022
          15   -0.0041    0.0019    0.0024   -0.0011    0.0019   -0.0039    0.0269   -0.0359
          16    0.0025    0.0055   -0.0046   -0.0020    0.0049    0.0113    0.0054    0.0108
          17    0.0018    0.0027   -0.0028    0.0002   -0.0063    0.0229   -0.0060   -0.0008
          18   -0.0030    0.0016   -0.0112   -0.0115    0.0020   -0.0401    0.0024    0.0027
          19   -0.0010    0.0002   -0.0043   -0.0124    0.0050    0.0102   -0.0009    0.0028
          20    0.0023   -0.0096    0.0140    0.0143    0.0091   -0.0445   -0.0122   -0.0053
          21    0.0019   -0.0034   -0.0028   -0.0119   -0.0065    0.0003    0.0111    0.0060
          22   -0.0696    0.1444    0.0115    0.0588   -0.1272   -0.0012    0.0620    0.2218
          23    0.0305   -0.0423   -0.0891    0.0742    0.1697   -0.0137   -0.1356    0.0968
          24   -0.0092    0.0213   -0.0259    0.0306    0.0126   -0.0050   -0.0870    0.1728
          25   -0.0934   -0.0941   -0.0450   -0.0983    0.1371    0.0449    0.1408    0.1104
          26   -0.0651   -0.0519   -0.0194   -0.0654    0.0700    0.0394    0.0945    0.0699
          27   -0.0098    0.1576   -0.1034   -0.1067    0.0110   -0.1319   -0.0470    0.0075
          28   -0.0177   -0.0660    0.0168    0.0369   -0.0580    0.0124    0.0187    0.0000
          29   -0.0004   -0.0616    0.0853   -0.0442   -0.1128   -0.0101    0.0004    0.0645
          30    0.0028    0.0005    0.0061   -0.0161   -0.0014   -0.0075   -0.0107    0.0163
          31   -0.0296    0.0023   -0.0135   -0.0297   -0.0733   -0.1245    0.0400    0.0038
          32    0.0023    0.0344   -0.0892    0.0272   -0.0399   -0.1064    0.0972   -0.0173
          33   -0.0054   -0.0040    0.0130   -0.0181   -0.0121   -0.0187   -0.0090    0.0075
          34   -0.1082   -0.0072   -0.0489    0.0103   -0.0211    0.0714   -0.0403   -0.0278
          35    0.0106   -0.0790    0.0286    0.1155   -0.0398   -0.1082    0.0290    0.0434
          36   -0.0895   -0.0147   -0.0333    0.0411   -0.0239    0.0504   -0.0387   -0.0198
          37   -0.0089    0.0052   -0.0139   -0.0204   -0.0081    0.0183   -0.0153   -0.0256
          38    0.0128   -0.0126    0.0709    0.0815    0.0453   -0.0596    0.0747    0.0864
          39    0.1499    0.0591    0.0738   -0.0362    0.0551   -0.0279    0.0200    0.0288
          40    0.0192   -0.0198   -0.0157   -0.0136   -0.0134   -0.0029    0.0066    0.0036
          41    0.0649   -0.0484   -0.0593   -0.0158   -0.0289   -0.0051    0.0283   -0.0044
          42    0.0891   -0.0996   -0.0503   -0.0710   -0.0545   -0.0092    0.0122    0.0113
          43   -0.0383    0.0528    0.0096    0.0389    0.0232   -0.0052    0.0530   -0.0585
          44    0.0113    0.0243   -0.0418    0.0462    0.0141   -0.0041    0.0667   -0.0640
          45   -0.0112    0.0387   -0.0184    0.0456    0.0194   -0.0052    0.0796   -0.0889
          46   -0.0685    0.0310    0.0698   -0.0159    0.0205   -0.0104    0.0020   -0.0239
          47   -0.0338    0.0102    0.0379   -0.0149    0.0100   -0.0065   -0.0034   -0.0103
          48   -0.0820   -0.0009    0.1176   -0.0736    0.0058   -0.0166   -0.0255   -0.0127
          49   -0.0028   -0.0185    0.0222    0.0322    0.0061   -0.0506   -0.0064   -0.0042
          50    0.0930    0.0688    0.0079   -0.0022   -0.0384    0.2367    0.0438    0.0209
          51    0.0069   -0.0023    0.0013   -0.0061   -0.0092    0.0059    0.0148    0.0072


   Root No.      25        26        27        28        29        30        31        32

                25 A      26 A      27 A      28 A      29 A      30 A      31 A      32 A   

                1172.1    1242.5    1257.3    1271.9    1300.6    1397.3    1405.7    1411.1
  
           1   -0.0231    0.0085   -0.0017   -0.0340    0.0416    0.0064    0.0004    0.0040
           2    0.0021    0.0002   -0.0257    0.0265    0.0438    0.0068    0.0011    0.0061
           3    0.0092   -0.0026   -0.0149   -0.0025    0.0464    0.0111    0.0014    0.0075
           4    0.0116    0.0021   -0.0042   -0.0063   -0.0083   -0.0001    0.0018   -0.0027
           5   -0.0029    0.0640    0.0466   -0.0311    0.0069   -0.0002   -0.0008    0.0023
           6   -0.0123    0.0300   -0.0417   -0.0055   -0.0173   -0.0011    0.0004   -0.0025
           7   -0.0144    0.0341    0.0190    0.0618    0.0046    0.0001   -0.0207    0.0472
           8    0.0235    0.0210    0.0009    0.0260   -0.0040    0.0003    0.0046   -0.0135
           9   -0.0088   -0.0072    0.0087    0.0002   -0.0106   -0.0015   -0.0002   -0.0012
          10   -0.0061   -0.0153    0.0213    0.0139    0.0027   -0.0003   -0.0016    0.0037
          11   -0.0220    0.0031   -0.0462    0.0105   -0.0111   -0.0005   -0.0002   -0.0004
          12    0.0067   -0.0618    0.0192    0.0162    0.0007    0.0001   -0.0018    0.0059
          13    0.0067   -0.0047    0.0017    0.0086   -0.0039   -0.0229   -0.0264   -0.0139
          14   -0.0013    0.0004    0.0061   -0.0060   -0.0044   -0.0378    0.0161    0.0001
          15    0.0031   -0.0022    0.0036    0.0008    0.0046    0.0116    0.0019   -0.0089
          16    0.0435   -0.0069   -0.0334   -0.0520   -0.0186   -0.0010    0.0071   -0.0169
          17    0.0092   -0.0400    0.0177   -0.0127   -0.0046   -0.0008    0.0025   -0.0051
          18    0.0167    0.0478   -0.0247   -0.0274    0.0003    0.0004    0.0020   -0.0043
          19    0.0031   -0.0007    0.0010   -0.0091    0.0003    0.0002    0.0013   -0.0030
          20    0.0018   -0.0322   -0.0352    0.0263   -0.0092   -0.0001   -0.0009    0.0013
          21   -0.0144    0.0137    0.0276    0.0098    0.0081    0.0002   -0.0022    0.0052
          22   -0.0120    0.0198   -0.0583    0.1084   -0.1009   -0.0119   -0.0108   -0.0017
          23   -0.1109    0.0412    0.0815   -0.0728   -0.1064   -0.0158    0.0079   -0.0214
          24   -0.0446    0.0222    0.0151    0.0055   -0.0901   -0.0070    0.0003   -0.0085
          25    0.0100   -0.0773   -0.0351    0.0503    0.0217    0.0025    0.0014   -0.0009
          26   -0.0067    0.0286    0.0236   -0.0006    0.0209    0.0007   -0.0013    0.0035
          27    0.0493   -0.0898    0.0949    0.0286    0.0334    0.0023   -0.0016    0.0061
          28   -0.1347   -0.0690    0.0542    0.0237    0.0263   -0.0009    0.0691   -0.1618
          29   -0.1003   -0.1509   -0.0224   -0.1499    0.0454    0.0080   -0.0366    0.1070
          30    0.0165   -0.0052   -0.0206   -0.0416   -0.0040    0.0018   -0.0630    0.1550
          31   -0.1049    0.0158    0.0141    0.0054    0.0372    0.0008    0.0687   -0.1598
          32   -0.1178   -0.0991   -0.0107   -0.1592   -0.0281   -0.0049   -0.0394    0.0924
          33   -0.0109    0.0258    0.0072    0.0301    0.0194    0.0014    0.0663   -0.1552
          34    0.0114   -0.0789   -0.0200    0.0038   -0.0231   -0.0043    0.0142   -0.0447
          35    0.1113   -0.0083    0.1567   -0.0205    0.0375    0.0009    0.0033   -0.0071
          36    0.0338   -0.0990    0.0232    0.0070   -0.0078   -0.0022    0.0087   -0.0260
          37   -0.0214   -0.0080   -0.0107    0.0149   -0.0025    0.0004   -0.0043    0.0123
          38    0.1178   -0.0349    0.0940   -0.0489    0.0142   -0.0004    0.0021   -0.0034
          39   -0.0446   -0.0621    0.0270    0.0577   -0.0076   -0.0048    0.0119   -0.0419
          40    0.0063   -0.0053    0.0045    0.0104   -0.0181    0.0093   -0.0096   -0.0049
          41    0.0135   -0.0093    0.0179    0.0243   -0.0872    0.3726   -0.0374   -0.0107
          42    0.0279   -0.0169    0.0295    0.0339   -0.1425   -0.1187    0.1595    0.0836
          43   -0.0105    0.0034    0.0175   -0.0004   -0.0678   -0.1217    0.2246    0.1021
          44   -0.0038   -0.0021    0.0184    0.0053   -0.0774   -0.0546   -0.2034   -0.0578
          45   -0.0038   -0.0014    0.0170    0.0025   -0.0625   -0.0603   -0.0152    0.0085
          46   -0.0142    0.0027    0.0286   -0.0168   -0.0837    0.3340    0.1012    0.0420
          47   -0.0067    0.0022    0.0139   -0.0112   -0.0306    0.0772    0.0385    0.0113
          48   -0.0101   -0.0045    0.0441   -0.0326   -0.1309   -0.0623   -0.1816   -0.0471
          49    0.0164   -0.0065   -0.0395    0.0037   -0.0098    0.0010    0.0001   -0.0019
          50   -0.0213    0.0364    0.0525   -0.0380    0.0033    0.0007    0.0008   -0.0027
          51   -0.0149    0.0206    0.0268    0.0087    0.0080    0.0005   -0.0026    0.0058


   Root No.      33        34        35        36        37        38        39        40

                33 A      34 A      35 A      36 A      37 A      38 A      39 A      40 A   

                1422.4    1441.1    1582.1    2954.2    3040.8    3069.5    3071.3    3083.7
  
           1   -0.0293    0.0059    0.0119    0.0224    0.0009    0.0003    0.0007   -0.0003
           2   -0.0333    0.0048    0.0041    0.0273    0.0012    0.0002    0.0010    0.0001
           3   -0.0425    0.0050    0.0028   -0.0547   -0.0024    0.0007   -0.0019    0.0002
           4    0.0013   -0.0023    0.0039    0.0014    0.0001    0.0001   -0.0002    0.0002
           5    0.0013    0.0047    0.0371    0.0004   -0.0000   -0.0013    0.0002    0.0002
           6    0.0053    0.0018   -0.0291   -0.0004   -0.0001    0.0001   -0.0001    0.0002
           7    0.0089    0.0129   -0.0157    0.0000   -0.0003   -0.0004   -0.0005    0.0004
           8   -0.0020   -0.0017   -0.0069    0.0015    0.0006    0.0003    0.0002   -0.0005
           9    0.0063   -0.0025    0.0054    0.0041   -0.0571    0.0021   -0.0006   -0.0007
          10    0.0007   -0.0197   -0.0182   -0.0001   -0.0012   -0.0523   -0.0004    0.0002
          11    0.0024   -0.0018    0.0124    0.0001   -0.0005   -0.0117   -0.0001    0.0000
          12   -0.0019   -0.0499   -0.0253   -0.0001    0.0006    0.0219    0.0002   -0.0001
          13    0.0295   -0.0040   -0.0020   -0.0018    0.0001   -0.0003    0.0212   -0.0449
          14    0.0368   -0.0039   -0.0014   -0.0022   -0.0006   -0.0003    0.0329    0.0327
          15    0.0665   -0.0056   -0.0021    0.0019    0.0004    0.0003   -0.0317    0.0038
          16    0.0031   -0.0110    0.1129   -0.0004   -0.0001   -0.0006   -0.0001    0.0000
          17    0.0016   -0.0007   -0.1063   -0.0006   -0.0001    0.0001   -0.0000   -0.0000
          18   -0.0027    0.0159   -0.1137   -0.0001   -0.0006    0.0002    0.0000    0.0000
          19   -0.0011    0.0061   -0.0911   -0.0006   -0.0005   -0.0003   -0.0000    0.0000
          20    0.0022   -0.0088    0.0667   -0.0004    0.0002   -0.0001   -0.0001    0.0000
          21    0.0002   -0.0056    0.1403    0.0002    0.0001   -0.0003   -0.0003   -0.0000
          22    0.0477   -0.0151   -0.0247   -0.2768   -0.0107    0.0019   -0.0072   -0.0004
          23    0.0546   -0.0200    0.0071   -0.3387   -0.0177    0.0021   -0.0086    0.0015
          24    0.0336   -0.0178   -0.0133    0.6598    0.0264   -0.0020    0.0240   -0.0021
          25   -0.0108   -0.0008   -0.0433    0.0009   -0.0003   -0.0074    0.0015    0.0007
          26   -0.0042    0.0058    0.0181   -0.0004    0.0005    0.0124   -0.0023   -0.0005
          27   -0.0075   -0.0106    0.0498   -0.0007   -0.0000   -0.0001   -0.0001    0.0002
          28   -0.0372   -0.0385    0.0054   -0.0157    0.2238   -0.0015    0.0052   -0.0011
          29   -0.0010    0.0184    0.0033    0.0071   -0.1401    0.0014   -0.0039   -0.0001
          30    0.0313    0.0329   -0.0042   -0.0262    0.3536   -0.0019    0.0079   -0.0023
          31   -0.0435   -0.0240   -0.0609    0.0158   -0.2193    0.0124    0.0011   -0.0055
          32    0.0390    0.0210   -0.0326   -0.0051    0.1324   -0.0073   -0.0006    0.0031
          33   -0.0398   -0.0313   -0.0192   -0.0248    0.3320   -0.0185   -0.0022    0.0093
          34    0.0251    0.2950    0.0894    0.0018    0.0063    0.2007    0.0016   -0.0005
          35   -0.0019    0.0722   -0.0359    0.0013    0.0011    0.0502    0.0004   -0.0002
          36    0.0126    0.1629    0.0261    0.0007   -0.0093   -0.3705   -0.0029    0.0009
          37   -0.0032   -0.0846   -0.0203    0.0033    0.0143    0.4263    0.0038   -0.0011
          38   -0.0013   -0.0238   -0.0104    0.0008    0.0029    0.0909    0.0008   -0.0002
          39    0.0265    0.3257    0.0277    0.0011    0.0039    0.1104    0.0010   -0.0003
          40    0.0114   -0.0021   -0.0018    0.0168   -0.0003    0.0032   -0.1758    0.4501
          41   -0.0428    0.0036   -0.0017   -0.0034   -0.0001   -0.0003    0.0289   -0.0138
          42   -0.1536    0.0128   -0.0005   -0.0032    0.0000    0.0001   -0.0106   -0.0126
          43   -0.1074    0.0135    0.0047    0.0113    0.0018    0.0014   -0.1542   -0.0087
          44   -0.1610    0.0106    0.0043    0.0145    0.0028    0.0020   -0.1992    0.0347
          45   -0.1026    0.0099    0.0041   -0.0216   -0.0040   -0.0041    0.4079   -0.0337
          46   -0.0408    0.0070    0.0006   -0.0064   -0.0024   -0.0005    0.0770    0.0959
          47    0.0097   -0.0004   -0.0003    0.0149    0.0089    0.0009   -0.2219   -0.4120
          48   -0.1741    0.0107    0.0010   -0.0025    0.0004    0.0001   -0.0174    0.0005
          49    0.0035   -0.0062    0.0316   -0.0001   -0.0002    0.0011   -0.0006   -0.0000
          50    0.0024    0.0009   -0.0202   -0.0001    0.0002    0.0004   -0.0002    0.0000
          51    0.0012   -0.0073    0.1853    0.0017    0.0008   -0.0088    0.0025    0.0004


   Root No.      41        42        43        44        45

                41 A      42 A      43 A      44 A      45 A   

                3093.5    3117.1    3123.5    3174.5    3225.0
  
           1    0.0005    0.0009    0.0001   -0.0003   -0.0005
           2   -0.0015   -0.0003    0.0000   -0.0004   -0.0003
           3   -0.0001   -0.0001    0.0002   -0.0001    0.0002
           4    0.0005    0.0298    0.0020   -0.0000    0.0008
           5   -0.0012   -0.0569   -0.0046    0.0002   -0.0028
           6   -0.0001   -0.0020   -0.0011    0.0000    0.0004
           7    0.0350   -0.0020   -0.0001    0.0002   -0.0005
           8   -0.0199    0.0011    0.0001   -0.0000    0.0003
           9   -0.0012    0.0001    0.0002    0.0002    0.0001
          10   -0.0014    0.0034   -0.0140    0.0000   -0.0005
          11   -0.0002    0.0001   -0.0021    0.0000   -0.0005
          12    0.0002    0.0040   -0.0373    0.0000    0.0028
          13    0.0011   -0.0000   -0.0000   -0.0115    0.0000
          14    0.0001    0.0002   -0.0000   -0.0131   -0.0001
          15   -0.0005   -0.0003   -0.0000   -0.0175    0.0004
          16    0.0003   -0.0005   -0.0001   -0.0000   -0.0024
          17   -0.0003    0.0017    0.0001    0.0000    0.0040
          18   -0.0001    0.0004   -0.0006    0.0000    0.0026
          19   -0.0003    0.0005    0.0000    0.0001    0.0142
          20    0.0002   -0.0003    0.0000   -0.0000    0.0025
          21    0.0000    0.0001   -0.0000   -0.0004   -0.0762
          22    0.0003    0.0004    0.0002    0.0007    0.0006
          23   -0.0012   -0.0010    0.0004    0.0011    0.0003
          24    0.0010    0.0005   -0.0018   -0.0039   -0.0011
          25   -0.0104   -0.3648   -0.0273    0.0008   -0.0066
          26    0.0183    0.6693    0.0505   -0.0019    0.0106
          27    0.0008    0.0300    0.0020   -0.0002    0.0000
          28   -0.1996    0.0078    0.0007   -0.0016    0.0010
          29    0.1252   -0.0047   -0.0003    0.0005   -0.0004
          30   -0.3646    0.0144    0.0013   -0.0030    0.0017
          31   -0.2167    0.0084    0.0017   -0.0003    0.0020
          32    0.1302   -0.0048   -0.0011    0.0002   -0.0008
          33    0.3782   -0.0149   -0.0038    0.0007   -0.0027
          34    0.0042    0.0227   -0.2404    0.0001    0.0071
          35    0.0007    0.0061   -0.0591    0.0000    0.0019
          36   -0.0068   -0.0329    0.3791   -0.0002   -0.0122
          37    0.0108   -0.0604    0.4107   -0.0002   -0.0006
          38    0.0024   -0.0139    0.0879   -0.0000    0.0002
          39    0.0027   -0.0126    0.0764   -0.0000    0.0009
          40   -0.0118    0.0019    0.0005    0.3352   -0.0034
          41    0.0004   -0.0000   -0.0000   -0.0277    0.0002
          42    0.0000   -0.0002    0.0000   -0.0180    0.0004
          43   -0.0017   -0.0015   -0.0001   -0.1008    0.0031
          44   -0.0035   -0.0020   -0.0001   -0.1311    0.0035
          45    0.0057    0.0039    0.0002    0.2382   -0.0057
          46    0.0005    0.0008   -0.0000   -0.0944    0.0006
          47    0.0007   -0.0003    0.0002    0.3180   -0.0024
          48   -0.0001    0.0001    0.0000   -0.0066    0.0002
          49   -0.0003    0.0022   -0.0015   -0.0007   -0.1362
          50   -0.0002    0.0008   -0.0006   -0.0003   -0.0499
          51    0.0028   -0.0144    0.0078    0.0044    0.8492


           MASS-WEIGHTED COORDINATE ANALYSIS (NORMAL COORDINATES)


   Root No.       1         2         3         4         5         6         7         8

                 1 A       2 A       3 A       4 A       5 A       6 A       7 A       8 A   

                 183.6     213.7     309.0     446.1     491.3     523.5     631.0     717.7
  
           1    0.0462   -0.0506   -0.2229   -0.0388    0.0650   -0.2176   -0.0528    0.3132
           2   -0.0448   -0.0698    0.2196    0.0610    0.0352    0.0650    0.2363   -0.2048
           3   -0.0016    0.1567    0.0391   -0.1087    0.3803    0.0646   -0.1816   -0.0757
           4    0.0475   -0.0510   -0.2626   -0.0548    0.0804   -0.1684    0.4779    0.0510
           5    0.0294   -0.0744   -0.0247    0.0207   -0.0538   -0.0154    0.0148   -0.2202
           6   -0.0482    0.2384   -0.0849   -0.1175   -0.2094   -0.0074    0.1146   -0.0597
           7   -0.0263   -0.0708    0.0163    0.0178   -0.1329   -0.2052   -0.2818   -0.0349
           8   -0.0626   -0.0689    0.2819    0.1161    0.0221   -0.1397    0.2982    0.4758
           9    0.0278    0.2653    0.0595    0.4059   -0.1109   -0.0415    0.0068    0.0025
          10    0.0194    0.0854    0.1100   -0.2965   -0.2577    0.3372    0.1239   -0.0503
          11   -0.0001    0.2062   -0.2101    0.0178   -0.2838    0.0607   -0.1241    0.0103
          12   -0.0121   -0.0832   -0.0576   -0.0637   -0.0892   -0.1576    0.0642   -0.1182
          13   -0.0175    0.2840    0.4088   -0.0035    0.2547   -0.0315   -0.0412    0.0689
          14   -0.0112    0.3232   -0.2693   -0.1746    0.3061    0.0089    0.0021   -0.0704
          15    0.0112   -0.2537    0.0111    0.0138    0.2920   -0.0170   -0.0183   -0.0177
          16   -0.0444   -0.0694    0.0895    0.0268   -0.1504   -0.2092   -0.2769   -0.1335
          17    0.0105   -0.0778    0.0471    0.0184   -0.1381   -0.0677   -0.3948    0.2040
          18    0.0322   -0.2145    0.1244   -0.2617   -0.1431    0.0432   -0.0444    0.1025
          19   -0.0208   -0.1885   -0.2373    0.3270    0.0870    0.2881    0.1027   -0.3543
          20    0.0808   -0.3185    0.0328   -0.0089    0.0432    0.0599   -0.0767   -0.2296
          21   -0.0071   -0.0969   -0.0542   -0.0557   -0.1185    0.1751    0.0187    0.1684
          22    0.0208   -0.0641   -0.1142    0.0035    0.0560   -0.0678   -0.0149    0.1116
          23   -0.0164   -0.0776    0.1083   -0.0128    0.0301    0.0288    0.0979   -0.0410
          24    0.0010   -0.0086    0.0128   -0.0369    0.1327    0.0215   -0.0411   -0.0085
          25    0.0286   -0.0147   -0.1308   -0.0317    0.0113   -0.1205    0.1158    0.0828
          26    0.0176   -0.0243   -0.0353   -0.0047   -0.0194   -0.0437   -0.0050   -0.0315
          27   -0.0272    0.1295   -0.0839    0.0046   -0.1208   -0.0072    0.0433    0.0095
          28   -0.0114   -0.1209    0.0363   -0.2085   -0.0086   -0.0236   -0.1047    0.0306
          29   -0.0253   -0.0196    0.1120    0.1116   -0.1012   -0.0480    0.1570    0.1192
          30    0.0076    0.1386    0.0108    0.2852   -0.0943   -0.0405    0.0441   -0.0256
          31   -0.0144    0.0761    0.0115    0.2223   -0.0829   -0.0990   -0.0403   -0.0586
          32   -0.0305   -0.0207    0.0997   -0.0429    0.1012   -0.0157    0.0559    0.0708
          33    0.0084    0.1393    0.0142    0.2906   -0.0984   -0.0454    0.0420   -0.0119
          34    0.0136    0.0584    0.0695   -0.1750   -0.1390    0.2988    0.0904    0.0575
          35   -0.0180    0.1283   -0.0596    0.0194   -0.1573    0.0149   -0.1587   -0.0541
          36   -0.0015    0.0053    0.0051   -0.0648   -0.0698    0.0622    0.0312   -0.0035
          37    0.0039    0.0335    0.0568   -0.1085   -0.1107    0.1499   -0.0062   -0.0052
          38    0.0128    0.0812   -0.1268   -0.0148   -0.0374    0.0558    0.2002    0.0441
          39   -0.0077   -0.0811   -0.0613    0.0871    0.0767   -0.2771   -0.0065   -0.1041
          40    0.0181    0.0832    0.1144   -0.0021    0.0752   -0.0110   -0.0147    0.0249
          41    0.5035    0.1196   -0.1806   -0.0804    0.0917   -0.0386   -0.0414    0.0835
          42   -0.2660   -0.1804   -0.1674   -0.0103    0.0204   -0.0705    0.0102    0.1245
          43    0.4232    0.1862    0.2197    0.0002    0.1416    0.0344   -0.0467   -0.0476
          44   -0.3538    0.1724   -0.1511   -0.1123    0.1717    0.0210   -0.0833    0.0019
          45   -0.0082    0.0008    0.0051   -0.0229    0.1458    0.0194   -0.0562   -0.0184
          46   -0.4861    0.0618    0.2255    0.0258    0.0864    0.0338    0.0237   -0.0885
          47   -0.1358    0.0907   -0.0566   -0.0477    0.0952    0.0136    0.0058   -0.0456
          48    0.2884   -0.1470    0.1630    0.0911    0.0150    0.0060    0.1014   -0.0963
          49   -0.0108   -0.0899   -0.1494    0.3501    0.1562    0.5185   -0.1814    0.3759
          50    0.0390   -0.1742    0.0233    0.0102    0.0641    0.1090   -0.0754   -0.0271
          51   -0.0020   -0.0382   -0.0273    0.0243   -0.0113    0.1261   -0.0302    0.1273


   Root No.       9        10        11        12        13        14        15        16

                 9 A      10 A      11 A      12 A      13 A      14 A      15 A      16 A   

                 767.4     796.2     830.8     888.2     931.5     940.8     955.3     988.7
  
           1    0.2859    0.1025   -0.2755   -0.0854    0.0125    0.0054    0.0477    0.0326
           2    0.3416   -0.3263   -0.0063   -0.0156    0.0310    0.0085   -0.0160   -0.0238
           3   -0.2396    0.0988    0.1166    0.0531    0.0186   -0.0299    0.0573    0.0727
           4   -0.1114   -0.1908    0.3443    0.1309    0.1094   -0.0062   -0.2198    0.0574
           5   -0.0440    0.0816    0.1580   -0.3593   -0.0864   -0.2133    0.1699   -0.1285
           6    0.2086    0.3356    0.2504   -0.1492    0.0250    0.1685   -0.0104    0.0213
           7   -0.1189   -0.0609    0.0968    0.0535   -0.1125    0.2382    0.0905    0.0127
           8   -0.2716    0.2890   -0.1051   -0.0284    0.0513   -0.0700   -0.0000    0.0282
           9   -0.1121   -0.0740   -0.0288   -0.0946    0.3953    0.0649    0.1711   -0.0963
          10   -0.0042    0.0180    0.0969   -0.0965   -0.0235   -0.2031   -0.0067    0.0367
          11   -0.2691   -0.2943   -0.2806    0.0891   -0.0265   -0.0341   -0.0157    0.0054
          12   -0.0830   -0.1149   -0.1204   -0.2578   -0.2794   -0.2135    0.0686    0.1751
          13    0.1488    0.0070   -0.1678   -0.0617   -0.0562    0.0323    0.0840   -0.0038
          14    0.1782   -0.1393   -0.0596    0.0054    0.0725    0.0811   -0.0068    0.1048
          15    0.1046   -0.0297   -0.0784    0.0378   -0.1104    0.0176   -0.1159   -0.1475
          16   -0.0538   -0.0750    0.0505   -0.0256   -0.0245    0.0007    0.0098   -0.0226
          17    0.2638    0.0362    0.3692    0.3179    0.1047   -0.1209    0.0432   -0.0548
          18   -0.0972   -0.2184   -0.1139    0.0073   -0.0391    0.0501   -0.0573   -0.0420
          19   -0.0818    0.2657   -0.2325    0.1966    0.1555   -0.0838    0.0906   -0.1261
          20   -0.0165    0.3315    0.0371   -0.0255    0.0175    0.1421   -0.0209    0.0160
          21    0.0914    0.0235   -0.0256    0.4558    0.1054   -0.1468   -0.0228    0.0319
          22    0.0591   -0.0144   -0.1406   -0.0323    0.0673   -0.1428    0.0019   -0.0648
          23    0.0800   -0.0683    0.0107    0.0572   -0.1638    0.0377   -0.1488   -0.0392
          24   -0.0753    0.0209    0.0101    0.0424   -0.0570   -0.0468   -0.0602   -0.0301
          25   -0.1188    0.0097    0.1762   -0.0347    0.0520    0.0225   -0.2233    0.0722
          26   -0.0658    0.0526    0.0868   -0.1381   -0.0202   -0.0648   -0.0328    0.0020
          27    0.1005    0.1345    0.1134   -0.1673    0.1094    0.4414   -0.1236   -0.1968
          28   -0.1993   -0.1203   -0.0273   -0.1365    0.2703    0.1878    0.0986   -0.3055
          29   -0.0524    0.0102   -0.0939   -0.0290   -0.1951    0.0616   -0.2290   -0.4090
          30    0.0766    0.0204   -0.0014    0.0605   -0.1630   -0.0227   -0.0863    0.0026
          31    0.0176    0.0910    0.0829    0.1369   -0.3757    0.0345   -0.0217    0.3196
          32   -0.2241    0.1107    0.0591   -0.0180    0.1795   -0.0221    0.2252    0.4352
          33    0.0642    0.0328   -0.0059    0.0588   -0.1767   -0.0041   -0.0746    0.0097
          34    0.0510    0.1029   -0.0451    0.0135   -0.1337    0.0527    0.1118    0.0146
          35   -0.0617    0.0226   -0.2817   -0.0739    0.2148   -0.0691   -0.4703    0.1991
          36    0.0083    0.0362   -0.0994   -0.0694   -0.1203   -0.0068    0.0184    0.0788
          37    0.0312    0.0561   -0.0282   -0.0675    0.0266   -0.0947   -0.1023    0.0435
          38   -0.1677   -0.1608    0.0001    0.2437   -0.2545    0.3008    0.4719   -0.0915
          39   -0.0718   -0.1556    0.1309   -0.0997   -0.0027   -0.1752    0.0091   -0.0026
          40    0.0439    0.0065   -0.0540   -0.0198   -0.0221    0.0079    0.0251   -0.0064
          41    0.0749    0.0809   -0.1025   -0.0569   -0.0990   -0.0055    0.0530   -0.0525
          42    0.2329    0.0519   -0.1923   -0.1369   -0.0373    0.0667    0.1631    0.0525
          43   -0.1167   -0.0043    0.0499    0.0834   -0.0668   -0.0467   -0.1358   -0.1260
          44   -0.1108    0.0831    0.0234    0.0584   -0.1596   -0.0655   -0.1239   -0.1862
          45   -0.1015    0.0470    0.0310    0.0725   -0.1337   -0.0547   -0.1469   -0.1877
          46    0.0240   -0.1241    0.0258    0.0473    0.0790    0.0383   -0.0546    0.0500
          47    0.0426   -0.0655    0.0016    0.0187    0.0347    0.0268   -0.0256    0.0334
          48    0.1861   -0.2137   -0.0242   -0.0054    0.1829    0.1201    0.0190    0.1804
          49   -0.0150   -0.2328    0.2615   -0.3765   -0.1066   -0.0026   -0.0314    0.0480
          50   -0.1448    0.0094   -0.0923   -0.0054   -0.1031    0.5139   -0.2499    0.2910
          51    0.0197   -0.0467    0.0379    0.0629    0.0003   -0.0105   -0.0309    0.0405


   Root No.      17        18        19        20        21        22        23        24

                17 A      18 A      19 A      20 A      21 A      22 A      23 A      24 A   

                 997.1    1029.4    1052.4    1066.3    1123.4    1128.5    1162.4    1165.4
  
           1   -0.0743    0.1840    0.1082    0.1840    0.2946   -0.0022   -0.0665   -0.0785
           2    0.0620    0.0375   -0.2719    0.2167   -0.0311    0.0522    0.1924    0.0977
           3    0.0383   -0.0677    0.0409   -0.1073   -0.0859    0.0445   -0.3106    0.2453
           4    0.0572   -0.0812   -0.1234    0.1147   -0.2911   -0.0041   -0.2356   -0.1746
           5   -0.1159    0.0309   -0.0642   -0.1038   -0.1875    0.0689    0.0048   -0.0150
           6    0.0710   -0.1039    0.2299    0.2393   -0.0190    0.1272    0.1238    0.0249
           7   -0.1556   -0.1395    0.0200    0.0722   -0.0288   -0.0457   -0.0697   -0.0744
           8   -0.0032    0.0860    0.1270   -0.0559    0.0950    0.0715   -0.1046   -0.0686
           9    0.0279   -0.0409   -0.1421    0.1764    0.1101    0.1009    0.0279   -0.0524
          10    0.3332    0.1410    0.2135   -0.1007    0.1328   -0.0661    0.1069    0.0521
          11    0.0626    0.0642   -0.0605   -0.1951    0.0484    0.0329   -0.0974   -0.1395
          12   -0.1205    0.0831    0.0002    0.0930    0.0162    0.1724   -0.1293   -0.0876
          13    0.1620   -0.1854   -0.1254   -0.1326   -0.1100   -0.0172    0.0326    0.0313
          14   -0.1470   -0.0207    0.2162   -0.1621    0.0135   -0.0337   -0.0531   -0.0178
          15   -0.0398    0.0188    0.0237   -0.0106    0.0169   -0.0300    0.2367   -0.2879
          16    0.0237    0.0542   -0.0450   -0.0189    0.0437    0.0876    0.0473    0.0869
          17    0.0177    0.0265   -0.0276    0.0023   -0.0562    0.1766   -0.0533   -0.0067
          18   -0.0286    0.0153   -0.1090   -0.1093    0.0174   -0.3100    0.0213    0.0217
          19   -0.0093    0.0019   -0.0420   -0.1182    0.0441    0.0786   -0.0078    0.0226
          20    0.0222   -0.0940    0.1370    0.1364    0.0810   -0.3439   -0.1074   -0.0428
          21    0.0184   -0.0332   -0.0276   -0.1131   -0.0579    0.0023    0.0976    0.0485
          22   -0.1938    0.4113    0.0325    0.1624   -0.3281   -0.0027    0.1580    0.5157
          23    0.0849   -0.1205   -0.2521    0.2050    0.4376   -0.0307   -0.3459    0.2250
          24   -0.0256    0.0607   -0.0732    0.0846    0.0324   -0.0112   -0.2219    0.4018
          25   -0.2598   -0.2679   -0.1273   -0.2714    0.3535    0.1003    0.3591    0.2567
          26   -0.1812   -0.1478   -0.0550   -0.1807    0.1805    0.0881    0.2411    0.1626
          27   -0.0274    0.4489   -0.2926   -0.2946    0.0285   -0.2950   -0.1198    0.0173
          28   -0.0492   -0.1880    0.0476    0.1019   -0.1495    0.0278    0.0477    0.0001
          29   -0.0012   -0.1754    0.2413   -0.1220   -0.2908   -0.0226    0.0009    0.1500
          30    0.0077    0.0014    0.0173   -0.0444   -0.0037   -0.0167   -0.0273    0.0378
          31   -0.0825    0.0067   -0.0383   -0.0819   -0.1891   -0.2784    0.1021    0.0088
          32    0.0064    0.0979   -0.2524    0.0751   -0.1029   -0.2380    0.2479   -0.0402
          33   -0.0151   -0.0113    0.0367   -0.0500   -0.0313   -0.0417   -0.0229    0.0175
          34   -0.3013   -0.0206   -0.1384    0.0284   -0.0544    0.1597   -0.1028   -0.0646
          35    0.0295   -0.2251    0.0809    0.3189   -0.1027   -0.2421    0.0740    0.1009
          36   -0.2491   -0.0420   -0.0943    0.1135   -0.0617    0.1128   -0.0988   -0.0460
          37   -0.0248    0.0148   -0.0393   -0.0562   -0.0208    0.0410   -0.0389   -0.0595
          38    0.0357   -0.0359    0.2007    0.2249    0.1169   -0.1333    0.1906    0.2010
          39    0.4173    0.1683    0.2089   -0.1001    0.1421   -0.0625    0.0509    0.0669
          40    0.0534   -0.0563   -0.0444   -0.0375   -0.0345   -0.0064    0.0168    0.0084
          41    0.1807   -0.1380   -0.1678   -0.0435   -0.0746   -0.0114    0.0723   -0.0102
          42    0.2479   -0.2839   -0.1422   -0.1961   -0.1405   -0.0206    0.0312    0.0263
          43   -0.1065    0.1505    0.0271    0.1073    0.0597   -0.0116    0.1353   -0.1361
          44    0.0313    0.0693   -0.1184    0.1276    0.0363   -0.0092    0.1701   -0.1488
          45   -0.0312    0.1104   -0.0521    0.1258    0.0501   -0.0115    0.2031   -0.2067
          46   -0.1907    0.0884    0.1973   -0.0439    0.0528   -0.0234    0.0051   -0.0555
          47   -0.0940    0.0291    0.1072   -0.0411    0.0258   -0.0146   -0.0086   -0.0240
          48   -0.2284   -0.0026    0.3328   -0.2034    0.0148   -0.0372   -0.0651   -0.0294
          49   -0.0077   -0.0526    0.0627    0.0890    0.0157   -0.1132   -0.0163   -0.0097
          50    0.2590    0.1959    0.0222   -0.0061   -0.0990    0.5295    0.1118    0.0486
          51    0.0193   -0.0065    0.0036   -0.0169   -0.0236    0.0132    0.0377    0.0168


   Root No.      25        26        27        28        29        30        31        32

                25 A      26 A      27 A      28 A      29 A      30 A      31 A      32 A   

                1172.1    1242.5    1257.3    1271.9    1300.6    1397.3    1405.7    1411.1
  
           1   -0.1985    0.0562   -0.0126   -0.2432    0.3282    0.0388    0.0032    0.0319
           2    0.0184    0.0015   -0.1902    0.1900    0.3453    0.0413    0.0081    0.0483
           3    0.0790   -0.0173   -0.1106   -0.0180    0.3663    0.0675    0.0104    0.0593
           4    0.0999    0.0142   -0.0308   -0.0453   -0.0653   -0.0003    0.0135   -0.0218
           5   -0.0249    0.4255    0.3450   -0.2229    0.0547   -0.0014   -0.0062    0.0182
           6   -0.1062    0.1993   -0.3087   -0.0392   -0.1362   -0.0064    0.0028   -0.0199
           7   -0.1241    0.2266    0.1405    0.4424    0.0366    0.0005   -0.1588    0.3754
           8    0.2025    0.1398    0.0070    0.1864   -0.0313    0.0019    0.0352   -0.1074
           9   -0.0760   -0.0481    0.0642    0.0013   -0.0836   -0.0092   -0.0012   -0.0096
          10   -0.0527   -0.1016    0.1581    0.0997    0.0215   -0.0020   -0.0122    0.0292
          11   -0.1895    0.0205   -0.3421    0.0750   -0.0874   -0.0030   -0.0017   -0.0034
          12    0.0575   -0.4106    0.1422    0.1157    0.0056    0.0007   -0.0141    0.0468
          13    0.0575   -0.0313    0.0123    0.0619   -0.0309   -0.1389   -0.2024   -0.1101
          14   -0.0109    0.0024    0.0452   -0.0428   -0.0348   -0.2292    0.1233    0.0008
          15    0.0265   -0.0144    0.0269    0.0060    0.0365    0.0706    0.0143   -0.0706
          16    0.3743   -0.0460   -0.2471   -0.3723   -0.1466   -0.0061    0.0541   -0.1343
          17    0.0794   -0.2661    0.1311   -0.0909   -0.0362   -0.0046    0.0190   -0.0405
          18    0.1442    0.3176   -0.1831   -0.1959    0.0022    0.0025    0.0156   -0.0343
          19    0.0269   -0.0046    0.0076   -0.0653    0.0027    0.0015    0.0103   -0.0241
          20    0.0153   -0.2142   -0.2606    0.1885   -0.0723   -0.0006   -0.0070    0.0101
          21   -0.1240    0.0908    0.2049    0.0702    0.0640    0.0011   -0.0165    0.0414
          22   -0.0299    0.0381   -0.1252    0.2247   -0.2306   -0.0209   -0.0240   -0.0038
          23   -0.2767    0.0794    0.1750   -0.1511   -0.2433   -0.0278    0.0176   -0.0492
          24   -0.1114    0.0428    0.0323    0.0115   -0.2059   -0.0123    0.0006   -0.0196
          25    0.0249   -0.1489   -0.0754    0.1044    0.0497    0.0044    0.0030   -0.0021
          26   -0.0168    0.0550    0.0507   -0.0013    0.0479    0.0012   -0.0028    0.0080
          27    0.1230   -0.1729    0.2037    0.0594    0.0762    0.0041   -0.0036    0.0140
          28   -0.3360   -0.1328    0.1163    0.0491    0.0601   -0.0015    0.1534   -0.3726
          29   -0.2502   -0.2906   -0.0481   -0.3110    0.1037    0.0141   -0.0814    0.2463
          30    0.0411   -0.0100   -0.0442   -0.0863   -0.0091    0.0032   -0.1399    0.3570
          31   -0.2616    0.0304    0.0302    0.0112    0.0850    0.0015    0.1526   -0.3680
          32   -0.2939   -0.1909   -0.0231   -0.3301   -0.0642   -0.0087   -0.0874    0.2126
          33   -0.0271    0.0496    0.0154    0.0624    0.0443    0.0024    0.1471   -0.3573
          34    0.0284   -0.1520   -0.0430    0.0080   -0.0528   -0.0076    0.0315   -0.1029
          35    0.2777   -0.0160    0.3363   -0.0425    0.0856    0.0015    0.0074   -0.0164
          36    0.0844   -0.1906    0.0497    0.0146   -0.0179   -0.0038    0.0194   -0.0598
          37   -0.0533   -0.0154   -0.0229    0.0309   -0.0058    0.0008   -0.0095    0.0283
          38    0.2938   -0.0672    0.2017   -0.1015    0.0324   -0.0006    0.0047   -0.0079
          39   -0.1111   -0.1195    0.0580    0.1196   -0.0174   -0.0084    0.0265   -0.0965
          40    0.0158   -0.0102    0.0097    0.0216   -0.0414    0.0164   -0.0213   -0.0113
          41    0.0338   -0.0178    0.0384    0.0505   -0.1994    0.6547   -0.0829   -0.0247
          42    0.0697   -0.0326    0.0634    0.0704   -0.3257   -0.2085    0.3542    0.1925
          43   -0.0263    0.0065    0.0377   -0.0008   -0.1549   -0.2138    0.4987    0.2350
          44   -0.0096   -0.0041    0.0396    0.0111   -0.1770   -0.0959   -0.4516   -0.1330
          45   -0.0095   -0.0026    0.0365    0.0051   -0.1428   -0.1060   -0.0338    0.0196
          46   -0.0354    0.0051    0.0614   -0.0348   -0.1913    0.5869    0.2247    0.0967
          47   -0.0167    0.0042    0.0299   -0.0233   -0.0699    0.1357    0.0855    0.0260
          48   -0.0252   -0.0088    0.0946   -0.0675   -0.2992   -0.1095   -0.4032   -0.1084
          49    0.0408   -0.0126   -0.0849    0.0076   -0.0224    0.0018    0.0002   -0.0043
          50   -0.0532    0.0701    0.1127   -0.0787    0.0076    0.0012    0.0018   -0.0061
          51   -0.0371    0.0397    0.0576    0.0180    0.0182    0.0009   -0.0059    0.0133


   Root No.      33        34        35        36        37        38        39        40

                33 A      34 A      35 A      36 A      37 A      38 A      39 A      40 A   

                1422.4    1441.1    1582.1    2954.2    3040.8    3069.5    3071.3    3083.7
  
           1   -0.2031    0.0384    0.0427    0.0935    0.0046    0.0018    0.0043   -0.0014
           2   -0.2310    0.0314    0.0145    0.1141    0.0064    0.0013    0.0056    0.0004
           3   -0.2949    0.0322    0.0100   -0.2290   -0.0131    0.0036   -0.0113    0.0009
           4    0.0087   -0.0148    0.0139    0.0058    0.0004    0.0008   -0.0010    0.0009
           5    0.0093    0.0302    0.1329    0.0016   -0.0001   -0.0070    0.0010    0.0010
           6    0.0370    0.0118   -0.1043   -0.0015   -0.0005    0.0004   -0.0006    0.0008
           7    0.0621    0.0833   -0.0561    0.0001   -0.0015   -0.0023   -0.0030    0.0023
           8   -0.0141   -0.0110   -0.0245    0.0061    0.0031    0.0016    0.0013   -0.0027
           9    0.0438   -0.0164    0.0195    0.0173   -0.3076    0.0110   -0.0036   -0.0039
          10    0.0049   -0.1277   -0.0652   -0.0003   -0.0067   -0.2776   -0.0025    0.0008
          11    0.0165   -0.0118    0.0443    0.0004   -0.0028   -0.0621   -0.0005    0.0002
          12   -0.0132   -0.3233   -0.0904   -0.0002    0.0034    0.1162    0.0010   -0.0004
          13    0.2044   -0.0260   -0.0073   -0.0077    0.0005   -0.0018    0.1243   -0.2390
          14    0.2553   -0.0252   -0.0049   -0.0094   -0.0030   -0.0013    0.1927    0.1739
          15    0.4618   -0.0360   -0.0073    0.0080    0.0023    0.0014   -0.1851    0.0202
          16    0.0212   -0.0711    0.4038   -0.0015   -0.0005   -0.0032   -0.0003    0.0002
          17    0.0109   -0.0046   -0.3804   -0.0025   -0.0005    0.0003   -0.0001   -0.0000
          18   -0.0187    0.1027   -0.4067   -0.0005   -0.0031    0.0008    0.0000    0.0000
          19   -0.0079    0.0395   -0.3260   -0.0025   -0.0026   -0.0016   -0.0002    0.0000
          20    0.0151   -0.0570    0.2385   -0.0018    0.0010   -0.0006   -0.0003    0.0002
          21    0.0011   -0.0361    0.5020    0.0008    0.0006   -0.0018   -0.0017   -0.0000
          22    0.0958   -0.0284   -0.0256   -0.3355   -0.0166    0.0030   -0.0122   -0.0007
          23    0.1098   -0.0375    0.0074   -0.4105   -0.0276    0.0033   -0.0145    0.0023
          24    0.0675   -0.0333   -0.0138    0.7996    0.0412   -0.0031    0.0407   -0.0033
          25   -0.0217   -0.0015   -0.0449    0.0011   -0.0005   -0.0114    0.0025    0.0011
          26   -0.0085    0.0109    0.0188   -0.0005    0.0008    0.0190   -0.0040   -0.0008
          27   -0.0151   -0.0199    0.0516   -0.0009   -0.0000   -0.0002   -0.0002    0.0003
          28   -0.0747   -0.0721    0.0056   -0.0190    0.3490   -0.0024    0.0089   -0.0018
[...]
 EFF. MASS   4.7838

 VIBRATION   24   24A         ATOM PAIR      ENERGY CONTRIBUTION    RADIAL
 FREQ.      1165.39         C  1 -- H  8         +30.7% ( 68.7%)      4.1%
 T-DIPOLE    0.1101         C  1 -- C  5         +12.2% ( 43.3%)     61.2%
 TRAVEL      0.1254         C  2 -- H  9          +7.1% ( 32.9%)      1.2%
 RED. MASS   0.4291         C  5 -- H 15          +6.5% ( 31.6%)     60.1%
 EFF. MASS   3.6778

 VIBRATION   25   25A         ATOM PAIR      ENERGY CONTRIBUTION    RADIAL
 FREQ.      1172.05         C  3 -- C  6         +10.7% ( 43.6%)     68.5%
 T-DIPOLE    0.0900         C  3 -- H 10         +10.3% ( 42.8%)      6.3%
 TRAVEL      0.1122         C  3 -- H 11         +10.2% ( 42.5%)      0.6%
 RED. MASS   0.5200         C  1 -- C  6          +8.2% ( 38.2%)     37.1%
 EFF. MASS   4.5715

 VIBRATION   26   26A         ATOM PAIR      ENERGY CONTRIBUTION    RADIAL
 FREQ.      1242.45         C  2 -- C  4         +14.2% ( 64.4%)     97.0%
 T-DIPOLE    0.2765         C  4 -- C  6         +11.6% ( 58.2%)     81.9%
 TRAVEL      0.0764         C  2 -- C  6         +10.9% ( 56.4%)     88.4%
 RED. MASS   1.4551         C  2 -- C  7          +8.9% ( 51.0%)     41.0%
 EFF. MASS   9.2871

 VIBRATION   27   27A         ATOM PAIR      ENERGY CONTRIBUTION    RADIAL
 FREQ.      1257.29         C  2 -- C  7         +12.9% ( 57.8%)     97.1%
 T-DIPOLE    0.0564         C  2 -- C  4         +10.7% ( 52.7%)      2.0%
 TRAVEL      0.0802         C  2 -- C  6          +8.3% ( 46.5%)     24.3%
 RED. MASS   1.2253         C  4 -- C  6          +8.1% ( 45.9%)     89.2%
 EFF. MASS   8.3338

 VIBRATION   28   28A         ATOM PAIR      ENERGY CONTRIBUTION    RADIAL
 FREQ.      1271.95         C  3 -- C  6         +16.8% ( 62.1%)     94.6%
 T-DIPOLE    0.1867         C  3 -- H 11         +10.9% ( 50.1%)      2.8%
 TRAVEL      0.0820         C  3 -- H 10         +10.5% ( 49.2%)      3.2%
 RED. MASS   1.2593         C  1 -- C  3          +9.1% ( 45.7%)      3.0%
 EFF. MASS   7.8915

 VIBRATION   29   29A         ATOM PAIR      ENERGY CONTRIBUTION    RADIAL
 FREQ.      1300.63         C  1 -- H  8         +22.4% ( 68.0%)      0.2%
 T-DIPOLE    0.1283         C  1 -- C  6         +14.1% ( 53.9%)     66.2%
 TRAVEL      0.0984         C  1 -- C  2         +14.1% ( 53.9%)     31.5%
 RED. MASS   1.6531         C  1 -- C  3         +13.5% ( 52.9%)     24.2%
 EFF. MASS   5.3584         C  1 -- C  5         +13.1% ( 51.9%)     87.3%

 VIBRATION   30   30A         ATOM PAIR      ENERGY CONTRIBUTION    RADIAL
 FREQ.      1397.34         C  5 -- H 14         +45.3% ( 60.2%)      1.4%
 T-DIPOLE    0.0773         C  5 -- H 16         +36.3% ( 53.9%)      3.9%
 TRAVEL      0.1649         C  5 -- H 15          +8.3% ( 25.8%)     61.0%
 RED. MASS   0.4425         C  1 -- C  5          +7.2% ( 23.9%)     34.6%
 EFF. MASS   1.7753

 VIBRATION   31   31A         ATOM PAIR      ENERGY CONTRIBUTION    RADIAL
 FREQ.      1405.68         C  5 -- H 15         +41.9% ( 58.5%)      0.1%
 T-DIPOLE    0.0223         C  5 -- H 16         +20.6% ( 41.0%)      6.8%
 TRAVEL      0.1628         C  5 -- H 14         +12.7% ( 32.2%)     18.7%
 RED. MASS   0.3263         C  3 -- H 11          +7.0% ( 23.9%)      4.3%
 EFF. MASS   1.8105

 VIBRATION   32   32A         ATOM PAIR      ENERGY CONTRIBUTION    RADIAL
 FREQ.      1411.05         C  3 -- H 10         +29.8% ( 59.0%)      3.9%
 T-DIPOLE    0.0986         C  3 -- H 11         +28.0% ( 57.2%)      4.9%
 TRAVEL      0.1247         C  3 -- C  6         +12.5% ( 38.2%)     88.0%
 RED. MASS   0.5003         C  1 -- C  3          +9.6% ( 33.4%)     30.4%
 EFF. MASS   3.0726

 VIBRATION   33   33A         ATOM PAIR      ENERGY CONTRIBUTION    RADIAL
 FREQ.      1422.38         C  1 -- C  5         +23.0% ( 66.9%)     99.7%
 T-DIPOLE    0.1473         C  5 -- H 15         +18.7% ( 60.3%)      4.1%
 TRAVEL      0.0867         C  5 -- H 16         +15.8% ( 55.5%)      3.9%
 RED. MASS   1.6941         C  5 -- H 14         +14.9% ( 53.9%)      3.3%
 EFF. MASS   6.3039

 VIBRATION   34   34A         ATOM PAIR      ENERGY CONTRIBUTION    RADIAL
 FREQ.      1441.07         C  4 -- H 12         +34.1% ( 62.9%)      3.6%
 T-DIPOLE    0.0676         C  4 -- H 13         +32.4% ( 61.3%)      3.3%
 TRAVEL      0.1352         C  4 -- C  6          +8.6% ( 31.6%)     58.1%
 RED. MASS   0.5180         C  2 -- C  4          +7.5% ( 29.5%)     63.9%
 EFF. MASS   2.5591

 VIBRATION   35   35A         ATOM PAIR      ENERGY CONTRIBUTION    RADIAL
 FREQ.      1582.11         C  6 -- C  7         +30.6% ( 97.3%)     97.6%
 T-DIPOLE    0.9074         C  2 -- C  7         +11.4% ( 59.4%)     25.1%
 TRAVEL      0.0599         C  4 -- C  7         +11.0% ( 58.2%)     74.4%
 RED. MASS   4.7743         C  2 -- C  6          +9.6% ( 54.5%)     68.0%
 EFF. MASS  11.8770

 VIBRATION   36   36A         ATOM PAIR      ENERGY CONTRIBUTION    RADIAL
 FREQ.      2954.15         C  1 -- H  8         +95.3% ( 99.7%)    100.0%
 T-DIPOLE    0.0735         C  1 -- C  3          +1.0% ( 10.4%)     10.2%
 TRAVEL      0.1257         C  1 -- C  5          +1.0% ( 10.4%)     10.7%
 RED. MASS   0.9199         C  1 -- C  6          +1.0% ( 10.3%)     28.8%
 EFF. MASS   1.4437

 VIBRATION   37   37A         ATOM PAIR      ENERGY CONTRIBUTION    RADIAL
 FREQ.      3040.76         C  3 -- H 10         +50.9% ( 73.9%)     97.2%
 T-DIPOLE    0.0845         C  3 -- H 11         +46.3% ( 70.5%)     96.6%
 TRAVEL      0.1195         C  3 -- C  6          +1.2% ( 11.3%)      0.0%
 RED. MASS   0.5179         C  1 -- C  3          +1.2% ( 11.2%)      0.0%
 EFF. MASS   1.5532

 VIBRATION   38   38A         ATOM PAIR      ENERGY CONTRIBUTION    RADIAL
 FREQ.      3069.47         C  4 -- H 13         +50.7% ( 74.2%)     97.3%
 T-DIPOLE    0.1196         C  4 -- H 12         +45.6% ( 70.3%)     96.9%
 TRAVEL      0.1189         C  4 -- C  7          +1.2% ( 11.4%)     14.7%
 RED. MASS   0.5196         C  2 -- C  4          +1.2% ( 11.4%)      0.1%
 EFF. MASS   1.5543

 VIBRATION   39   39A         ATOM PAIR      ENERGY CONTRIBUTION    RADIAL
 FREQ.      3071.26         C  5 -- H 15         +70.2% ( 86.4%)     99.1%
 T-DIPOLE    0.0422         C  5 -- H 16         +17.9% ( 43.7%)     86.2%
 TRAVEL      0.1209         C  5 -- H 14         +10.7% ( 33.7%)     76.1%
 RED. MASS   0.5634         C  1 -- C  5          +1.0% ( 10.3%)      0.1%
 EFF. MASS   1.5027

 VIBRATION   40   40A         ATOM PAIR      ENERGY CONTRIBUTION    RADIAL
 FREQ.      3083.73         C  5 -- H 14         +51.9% ( 74.3%)     97.5%
 T-DIPOLE    0.0416         C  5 -- H 16         +45.7% ( 69.7%)     96.5%
 TRAVEL      0.1204         C  5 -- H 15          +1.4% ( 12.1%)      9.7%
 RED. MASS   0.5080         C  1 -- C  5          +1.0% ( 10.4%)      0.0%
 EFF. MASS   1.5079

 VIBRATION   41   41A         ATOM PAIR      ENERGY CONTRIBUTION    RADIAL
 FREQ.      3093.48         C  3 -- H 11         +51.6% ( 71.1%)     97.3%
 T-DIPOLE    0.0652         C  3 -- H 10         +46.8% ( 67.7%)     96.6%
 TRAVEL      0.1306         C  3 -- C  6          +0.7% (  8.1%)     54.7%
 RED. MASS   0.4830         C  1 -- C  3          +0.7% (  8.0%)     37.6%
 EFF. MASS   1.2780

 VIBRATION   42   42A         ATOM PAIR      ENERGY CONTRIBUTION    RADIAL
 FREQ.      3117.14         C  2 -- H  9         +94.1% ( 99.5%)    100.0%
 T-DIPOLE    0.1604         C  2 -- C  4          +1.2% ( 11.4%)     39.7%
 TRAVEL      0.1212         C  2 -- C  6          +1.2% ( 11.3%)     93.1%
 RED. MASS   0.9098         C  2 -- C  7          +1.2% ( 11.3%)     35.2%
 EFF. MASS   1.4717

 VIBRATION   43   43A         ATOM PAIR      ENERGY CONTRIBUTION    RADIAL
 FREQ.      3123.52         C  4 -- H 12         +51.5% ( 71.3%)     97.1%
 T-DIPOLE    0.1487         C  4 -- H 13         +45.5% ( 67.0%)     96.4%
 TRAVEL      0.1298         C  2 -- H  9          +0.9% (  9.4%)     99.8%
 RED. MASS   0.4771         C  4 -- C  7          +0.7% (  8.3%)     87.6%
 EFF. MASS   1.2814

 VIBRATION   44   44A         ATOM PAIR      ENERGY CONTRIBUTION    RADIAL
 FREQ.      3174.53         C  5 -- H 14         +37.1% ( 58.6%)     97.6%
 T-DIPOLE    0.0503         C  5 -- H 16         +35.9% ( 57.7%)     97.4%
 TRAVEL      0.1366         C  5 -- H 15         +26.7% ( 49.8%)     95.7%
 RED. MASS   0.3321         C  1 -- C  5          +0.3% (  5.2%)     98.3%
 EFF. MASS   1.1384

 VIBRATION   45   45A         ATOM PAIR      ENERGY CONTRIBUTION    RADIAL
 FREQ.      3225.02         C  7 -- H 17         +94.9% ( 99.9%)    100.0%
 T-DIPOLE    0.5491         C  6 -- C  7          +1.7% ( 13.5%)     63.3%
 TRAVEL      0.1158         C  2 -- C  7          +1.7% ( 13.2%)     49.8%
 RED. MASS   0.9291         C  4 -- C  7          +1.7% ( 13.2%)     96.3%
 EFF. MASS   1.5589

      SYMMETRY NUMBER FOR POINT-GROUP C1  =  1


          SYSTEM IS A GROUND STATE



 InChI=1S/C7H10/c1-5-2-6-3-7(5)4-6/h3,5,7H,2,4H2,1H3


          MOLECULE IS NOT LINEAR

          THERE ARE 45 GENUINE VIBRATIONS IN THIS SYSTEM
          THIS THERMODYNAMICS CALCULATION IS LIMITED TO
          MOLECULES WHICH HAVE NO INTERNAL ROTATIONS




                    CALCULATED THERMODYNAMIC PROPERTIES
                                          *
   TEMP. (K)   PARTITION FUNCTION   H.O.F.    ENTHALPY  HEAT CAPACITY ENTROPY
                                   KCAL/MOL   CAL/MOLE    CAL/K/MOL  CAL/K/MOL


 298.00  VIB.     0.6001D+01                  2056.1933    18.9059    10.4609
         ROT.     0.1523D+06                   888.2813     2.9808    26.6955
         INT.     0.9140D+06                  2944.4746    21.8867    37.1565
         TRA.     0.8833D+27                  1480.4688     4.9680    39.5363
         TOT.                      123.309    4424.9435    26.8547    76.6927

 200.00  VIB.     0.2221D+01                   680.0239     9.5178     4.9855
         ROT.     0.8374D+05                   596.1620     2.9808    25.5068
         INT.     0.1860D+06                  1276.1859    12.4986    30.4924
         TRA.     0.4856D+27                   993.6033     4.9680    37.5551
         TOT.                      121.154    2269.7891    17.4666    68.0475

 210.00  VIB.     0.2423D+01                   779.4034    10.3639     5.4702
         ROT.     0.9010D+05                   625.9700     2.9808    25.6523
         INT.     0.2183D+06                  1405.3735    13.3447    31.1225
         TRA.     0.5225D+27                  1043.2834     4.9680    37.7975
         TOT.                      121.333    2448.6569    18.3127    68.9200

 220.00  VIB.     0.2653D+01                   887.4127    11.2433     5.9725
         ROT.     0.9662D+05                   655.7781     2.9808    25.7909
         INT.     0.2563D+06                  1543.1908    14.2241    31.7635
         TRA.     0.5603D+27                  1092.9636     4.9680    38.0286
         TOT.                      121.520    2636.1544    19.1922    69.7921

 230.00  VIB.     0.2914D+01                  1004.3728    12.1536     6.4923
         ROT.     0.1033D+06                   685.5862     2.9808    25.9235
         INT.     0.3010D+06                  1689.9591    15.1344    32.4157
         TRA.     0.5989D+27                  1142.6437     4.9680    38.2495
         TOT.                      121.717    2832.6028    20.1024    70.6652

 240.00  VIB.     0.3211D+01                  1130.5780    13.0918     7.0293
         ROT.     0.1101D+06                   715.3943     2.9808    26.0503
         INT.     0.3535D+06                  1845.9724    16.0726    33.0796
         TRA.     0.6384D+27                  1192.3239     4.9680    38.4609
         TOT.                      121.922    3038.2963    21.0406    71.5405

 250.00  VIB.     0.3551D+01                  1266.2909    14.0546     7.5832
         ROT.     0.1170D+06                   745.2024     2.9808    26.1720
         INT.     0.4155D+06                  2011.4933    17.0354    33.7551
         TRA.     0.6787D+27                  1242.0041     4.9680    38.6637
         TOT.                      122.137    3253.4974    22.0034    72.4189

 260.00  VIB.     0.3938D+01                  1411.7399    15.0384     8.1535
         ROT.     0.1241D+06                   775.0105     2.9808    26.2889
         INT.     0.4888D+06                  2186.7505    18.0192    34.4424
         TRA.     0.7198D+27                  1291.6842     4.9680    38.8586
         TOT.                      122.362    3478.4347    22.9873    73.3010

 270.00  VIB.     0.4381D+01                  1567.1179    16.0398     8.7398
         ROT.     0.1314D+06                   804.8186     2.9808    26.4014
         INT.     0.5755D+06                  2371.9365    19.0206    35.1412
         TRA.     0.7618D+27                  1341.3644     4.9680    39.0461
         TOT.                      122.597    3713.3009    23.9886    74.1872

 280.00  VIB.     0.4889D+01                  1732.5813    17.0549     9.3414
         ROT.     0.1387D+06                   834.6267     2.9808    26.5098
         INT.     0.6782D+06                  2567.2080    20.0357    35.8512
         TRA.     0.8045D+27                  1391.0445     4.9680    39.2267
         TOT.                      122.842    3958.2526    25.0038    75.0780

 290.00  VIB.     0.5472D+01                  1908.2507    18.0804     9.9578
         ROT.     0.1462D+06                   864.4348     2.9808    26.6144
         INT.     0.8001D+06                  2772.6856    21.0612    36.5722
         TRA.     0.8479D+27                  1440.7247     4.9680    39.4011
         TOT.                      123.097    4213.4103    26.0292    75.9732

 300.00  VIB.     0.6143D+01                  2094.2119    19.1127    10.5881
         ROT.     0.1538D+06                   894.2429     2.9808    26.7155
         INT.     0.9451D+06                  2988.4548    22.0935    37.3036
         TRA.     0.8922D+27                  1490.4049     4.9680    39.5695
         TOT.                      123.363    4478.8597    27.0615    76.8731

 310.00  VIB.     0.6916D+01                  2290.5173    20.1487    11.2317
         ROT.     0.1616D+06                   924.0510     2.9808    26.8132
         INT.     0.1118D+07                  3214.5683    23.1295    38.0449
         TRA.     0.9372D+27                  1540.0850     4.9680    39.7324
         TOT.                      123.639    4754.6533    28.0975    77.7773

 320.00  VIB.     0.7808D+01                  2497.1882    21.1853    11.8877
         ROT.     0.1695D+06                   953.8591     2.9808    26.9078
         INT.     0.1323D+07                  3451.0473    24.1661    38.7956
         TRA.     0.9829D+27                  1589.7652     4.9680    39.8901
         TOT.                      123.925    5040.8125    29.1342    78.6857

 330.00  VIB.     0.8840D+01                  2714.2169    22.2198    12.5555
         ROT.     0.1775D+06                   983.6672     2.9808    26.9996
         INT.     0.1569D+07                  3697.8842    25.2007    39.5551
         TRA.     0.1029D+28                  1639.4454     4.9680    40.0430
         TOT.                      124.221    5337.3295    30.1687    79.5981

 340.00  VIB.     0.1003D+02                  2941.5697    23.2497    13.2341
         ROT.     0.1856D+06                  1013.4753     2.9808    27.0885
         INT.     0.1863D+07                  3955.0450    26.2305    40.3227
         TRA.     0.1076D+28                  1689.1255     4.9680    40.1913
         TOT.                      124.528    5644.1705    31.1986    80.5140

 350.00  VIB.     0.1142D+02                  3179.1885    24.2727    13.9229
         ROT.     0.1939D+06                  1043.2834     2.9808    27.1750
         INT.     0.2214D+07                  4222.4720    27.2535    41.0978
         TRA.     0.1124D+28                  1738.8057     4.9680    40.3353
         TOT.                      124.845    5961.2776    32.2215    81.4332

 360.00  VIB.     0.1303D+02                  3426.9945    25.2868    14.6209
         ROT.     0.2022D+06                  1073.0915     2.9808    27.2589
         INT.     0.2635D+07                  4500.0860    28.2677    41.8798
         TRA.     0.1173D+28                  1788.4859     4.9680    40.4753
         TOT.                      125.173    6288.5719    33.2357    82.3551

 370.00  VIB.     0.1490D+02                  3684.8900    26.2903    15.3274
         ROT.     0.2107D+06                  1102.8996     2.9808    27.3406
         INT.     0.3140D+07                  4787.7896    29.2712    42.6680
         TRA.     0.1222D+28                  1838.1660     4.9680    40.6114
         TOT.                      125.510    6625.9556    34.2392    83.2794

 380.00  VIB.     0.1708D+02                  3952.7611    27.2817    16.0417
         ROT.     0.2193D+06                  1132.7077     2.9808    27.4201
         INT.     0.3746D+07                  5085.4688    30.2625    43.4618
         TRA.     0.1272D+28                  1887.8462     4.9680    40.7439
         TOT.                      125.857    6973.3150    35.2306    84.2057

 390.00  VIB.     0.1963D+02                  4230.4800    28.2597    16.7631
         ROT.     0.2280D+06                  1162.5158     2.9808    27.4975
         INT.     0.4476D+07                  5392.9958    31.2405    44.2606
         TRA.     0.1322D+28                  1937.5263     4.9680    40.8729
         TOT.                      126.215    7330.5222    36.2086    85.1335

 400.00  VIB.     0.2260D+02                  4517.9074    29.2233    17.4907
         ROT.     0.2369D+06                  1192.3239     2.9808    27.5730
         INT.     0.5353D+07                  5710.2313    32.2041    45.0637
         TRA.     0.1374D+28                  1987.2065     4.9680    40.9987
         TOT.                      126.581    7697.4378    37.1721    86.0624

   *: NOTE: HEATS OF FORMATION ARE RELATIVE TO THE
            ELEMENTS IN THEIR STANDARD STATE AT 298K
              (=  Standard Enthalpy of Formation).

            Hvib:  Zero-point energy is not included.
                   frequencies of less than zero cm-1 are not included.
            Hrot = (3/2)RT
            Htra = (3/2)RT + pV = (5/2)RT

            Heat capacity is Cp, not Cv

          For more information, see: HTTP://OpenMOPAC.net/Manual/thermochemistry.html


           FORCE CONSTANT IN CARTESIAN COORDINATES (Millidynes/A)

    ATOM   CHEMICAL       X               Y               Z
   NUMBER   SYMBOL  FORCE CONSTANT  FORCE CONSTANT  FORCE CONSTANT

      1       C        6.468624        6.714698        9.004593
      2       C        5.297687       10.749608        4.839482
      3       C        9.573966        4.460357        8.783299
      4       C        9.016298        4.191350       10.098186
      5       C        8.391661        8.386212        8.323207
      6       C        7.883773        6.455261        6.894810
      7       C        4.436139        5.312146       13.458571
      8       H        1.212412        1.479054        3.588961
      9       H        1.721471        4.276862        0.592928
     10       H        1.752403        1.108881        3.727443
     11       H        1.820395        1.089546        3.678524
     12       H        1.937209        0.673860        4.117132
     13       H        4.892771        0.760179        0.999323
     14       H        5.366346        0.680349        0.702063
     15       H        1.175580        1.543832        4.006970
     16       H        0.992930        5.051570        0.695547
     17       H        0.408314        0.582931        5.546930

 **********************
 *                    *
 * JOB ENDED NORMALLY *
 *                    *
 **********************



 TOTAL JOB TIME:             4.60 SECONDS

 == MOPAC DONE ==
