 *******************************************************************************
 ** Site#: 14399        For non-commercial use only    Version 18.184L 64BITS **
 *******************************************************************************
 ** Cite this program as: MOPAC2016, Version: 18.184L, James J. P. Stewart,   **
 ** Stewart Computational Chemistry, web: HTTP://OpenMOPAC.net. Days left:  20**
 *******************************************************************************
 **                                                                           **
 **                                MOPAC2016                                  **
 **                                                                           **
 *******************************************************************************

                              PM3 CALCULATION RESULTS

 *******************************************************************************
 *  CALCULATION DONE:                                Thu Jun 13 15:42:03 2019  *
 *  PM3        - The PM3 Hamiltonian to be used
 *  PRECISE    - CRITERIA TO BE INCREASED BY 100 TIMES
 *  NOSYM      - POINT-GROUP SYMMETRY SET TO C1
 *  THREADS=1  - MULTI-THREADING NOT USED
 *  T=         - A TIME OF 172800.0 SECONDS REQUESTED
 *  DUMP=N     - RESTART FILE WRITTEN EVERY  7200.000 SECONDS
 *******************************************************************************
pm3  precise nosym THREADS=1
 InChI=1S/C7H10/c1-7-5-3-2-4-6-7/h3-7H,2H2,1H3

   ATOM   CHEMICAL          X               Y               Z
  NUMBER   SYMBOL      (ANGSTROMS)     (ANGSTROMS)     (ANGSTROMS)
 
     1       C          0.82060000  *   0.01860000  *  -0.67450000  *
     2       C         -1.89270000  *  -0.00780000  *   0.56780000  *
     3       C          2.12840000  *  -0.01800000  *   0.11740000  *
     4       C          0.03700000  *  -1.24950000  *  -0.42790000  *
     5       C          0.05340000  *   1.27610000  *  -0.33850000  *
     6       C         -1.16200000  *   1.26250000  *   0.22490000  *
     7       C         -1.17840000  *  -1.26010000  *   0.13550000  *
     8       H          1.06670000  *   0.05530000  *  -1.75740000  *
     9       H         -2.05220000  *  -0.04570000  *   1.66570000  *
    10       H         -2.88580000  *   0.01620000  *   0.07240000  *
    11       H          1.92190000  *  -0.05530000  *   1.20910000  *
    12       H          2.73640000  *   0.88580000  *  -0.10290000  *
    13       H          2.72470000  *  -0.91170000  *  -0.16650000  *
    14       H          0.51500000  *   2.23510000  *  -0.55660000  *
    15       H          0.48620000  *  -2.19660000  *  -0.71360000  *
    16       H         -1.64520000  *   2.20830000  *   0.45090000  *
    17       H         -1.67390000  *  -2.21310000  *   0.29420000  *
 


          CARTESIAN COORDINATES 

    NO.       ATOM           X           Y           Z

     1         C          0.8206      0.0186     -0.6745
     2         C         -1.8927     -0.0078      0.5678
     3         C          2.1284     -0.0180      0.1174
     4         C          0.0370     -1.2495     -0.4279
     5         C          0.0534      1.2761     -0.3385
     6         C         -1.1620      1.2625      0.2249
     7         C         -1.1784     -1.2601      0.1355
     8         H          1.0667      0.0553     -1.7574
     9         H         -2.0522     -0.0457      1.6657
    10         H         -2.8858      0.0162      0.0724
    11         H          1.9219     -0.0553      1.2091
    12         H          2.7364      0.8858     -0.1029
    13         H          2.7247     -0.9117     -0.1665
    14         H          0.5150      2.2351     -0.5566
    15         H          0.4862     -2.1966     -0.7136
    16         H         -1.6452      2.2083      0.4509
    17         H         -1.6739     -2.2131      0.2942

  H: (PM3): J. J. P. STEWART, J. COMP. CHEM. 10, 209 (1989).
  C: (PM3): J. J. P. STEWART, J. COMP. CHEM. 10, 209 (1989).

           Empirical Formula: C7 H10  =    17 atoms



      MOLECULAR POINT GROUP   :   C1  


      RHF CALCULATION, NO. OF DOUBLY OCCUPIED LEVELS = 19


          Geometry optimization using EF

          DIAGONAL MATRIX USED AS START HESSIAN

 CYCLE:     1 TIME:   0.016 TIME LEFT:  2.00D  GRAD.:    59.776 HEAT:  16.53084
 CYCLE:     2 TIME:   0.043 TIME LEFT:  2.00D  GRAD.:    32.787 HEAT:  15.53746
 CYCLE:     3 TIME:   0.027 TIME LEFT:  2.00D  GRAD.:    30.336 HEAT:  15.26168
 CYCLE:     4 TIME:   0.023 TIME LEFT:  2.00D  GRAD.:    15.971 HEAT:  15.01175
 CYCLE:     5 TIME:   0.027 TIME LEFT:  2.00D  GRAD.:    15.604 HEAT:  14.91843
 CYCLE:     6 TIME:   0.023 TIME LEFT:  2.00D  GRAD.:    16.922 HEAT:  14.83893
 CYCLE:     7 TIME:   0.027 TIME LEFT:  2.00D  GRAD.:    10.465 HEAT:  14.75879
 CYCLE:     8 TIME:   0.027 TIME LEFT:  2.00D  GRAD.:     6.162 HEAT:  14.72223
 CYCLE:     9 TIME:   0.020 TIME LEFT:  2.00D  GRAD.:     7.611 HEAT:  14.69897
 CYCLE:    10 TIME:   0.023 TIME LEFT:  2.00D  GRAD.:     7.479 HEAT:  14.68354
 CYCLE:    11 TIME:   0.023 TIME LEFT:  2.00D  GRAD.:     3.685 HEAT:  14.66419
 CYCLE:    12 TIME:   0.020 TIME LEFT:  2.00D  GRAD.:     6.152 HEAT:  14.66414
 CYCLE:    13 TIME:   0.023 TIME LEFT:  2.00D  GRAD.:     5.812 HEAT:  14.65907
 CYCLE:    14 TIME:   0.031 TIME LEFT:  2.00D  GRAD.:     5.590 HEAT:  14.65622
 CYCLE:    15 TIME:   0.023 TIME LEFT:  2.00D  GRAD.:     3.557 HEAT:  14.65232
 CYCLE:    16 TIME:   0.023 TIME LEFT:  2.00D  GRAD.:     2.150 HEAT:  14.64795
 CYCLE:    17 TIME:   0.023 TIME LEFT:  2.00D  GRAD.:     3.510 HEAT:  14.64689
 CYCLE:    18 TIME:   0.023 TIME LEFT:  2.00D  GRAD.:     1.532 HEAT:  14.64153
 CYCLE:    19 TIME:   0.023 TIME LEFT:  2.00D  GRAD.:     1.612 HEAT:  14.63859
 CYCLE:    20 TIME:   0.023 TIME LEFT:  2.00D  GRAD.:     2.121 HEAT:  14.63679
 CYCLE:    21 TIME:   0.023 TIME LEFT:  2.00D  GRAD.:     1.796 HEAT:  14.63516
 CYCLE:    22 TIME:   0.023 TIME LEFT:  2.00D  GRAD.:     1.715 HEAT:  14.63264
 CYCLE:    23 TIME:   0.023 TIME LEFT:  2.00D  GRAD.:     1.948 HEAT:  14.63082
 CYCLE:    24 TIME:   0.020 TIME LEFT:  2.00D  GRAD.:     1.250 HEAT:  14.62843
 CYCLE:    25 TIME:   0.023 TIME LEFT:  2.00D  GRAD.:     1.115 HEAT:  14.62679
 CYCLE:    26 TIME:   0.023 TIME LEFT:  2.00D  GRAD.:     1.674 HEAT:  14.62403
 CYCLE:    27 TIME:   0.023 TIME LEFT:  2.00D  GRAD.:     1.807 HEAT:  14.62031
 CYCLE:    28 TIME:   0.027 TIME LEFT:  2.00D  GRAD.:     1.419 HEAT:  14.61624
 CYCLE:    29 TIME:   0.027 TIME LEFT:  2.00D  GRAD.:     1.512 HEAT:  14.61238
 CYCLE:    30 TIME:   0.023 TIME LEFT:  2.00D  GRAD.:     2.143 HEAT:  14.60757
 CYCLE:    31 TIME:   0.023 TIME LEFT:  2.00D  GRAD.:     2.266 HEAT:  14.60112
 CYCLE:    32 TIME:   0.023 TIME LEFT:  2.00D  GRAD.:     1.561 HEAT:  14.59393
 CYCLE:    33 TIME:   0.023 TIME LEFT:  2.00D  GRAD.:     1.214 HEAT:  14.59041
 CYCLE:    34 TIME:   0.023 TIME LEFT:  2.00D  GRAD.:     1.469 HEAT:  14.58766
 CYCLE:    35 TIME:   0.023 TIME LEFT:  2.00D  GRAD.:     2.074 HEAT:  14.58290
 CYCLE:    36 TIME:   0.020 TIME LEFT:  2.00D  GRAD.:     2.810 HEAT:  14.57324
 CYCLE:    37 TIME:   0.023 TIME LEFT:  2.00D  GRAD.:     4.456 HEAT:  14.55614
 CYCLE:    38 TIME:   0.023 TIME LEFT:  2.00D  GRAD.:     2.808 HEAT:  14.54140
 CYCLE:    39 TIME:   0.023 TIME LEFT:  2.00D  GRAD.:     1.793 HEAT:  14.52516
 CYCLE:    40 TIME:   0.023 TIME LEFT:  2.00D  GRAD.:     1.289 HEAT:  14.52183
 CYCLE:    41 TIME:   0.023 TIME LEFT:  2.00D  GRAD.:     1.034 HEAT:  14.51941
 CYCLE:    42 TIME:   0.020 TIME LEFT:  2.00D  GRAD.:     0.884 HEAT:  14.51731
 CYCLE:    43 TIME:   0.023 TIME LEFT:  2.00D  GRAD.:     0.678 HEAT:  14.51625
 CYCLE:    44 TIME:   0.023 TIME LEFT:  2.00D  GRAD.:     0.442 HEAT:  14.51579
 CYCLE:    45 TIME:   0.023 TIME LEFT:  2.00D  GRAD.:     0.319 HEAT:  14.51541
 CYCLE:    46 TIME:   0.023 TIME LEFT:  2.00D  GRAD.:     0.175 HEAT:  14.51526
 CYCLE:    47 TIME:   0.023 TIME LEFT:  2.00D  GRAD.:     0.115 HEAT:  14.51522
 CYCLE:    48 TIME:   0.023 TIME LEFT:  2.00D  GRAD.:     0.066 HEAT:  14.51521
 CYCLE:    49 TIME:   0.020 TIME LEFT:  2.00D  GRAD.:     0.060 HEAT:  14.51520
 CYCLE:    50 TIME:   0.023 TIME LEFT:  2.00D  GRAD.:     0.044 HEAT:  14.51520

     GRADIENT =  0.04386  IS LESS THAN CUTOFF =  0.05000



 -------------------------------------------------------------------------------
 pm3  precise nosym THREADS=1
 InChI=1S/C7H10/c1-7-5-3-2-4-6-7/h3-7H,2H2,1H3



     GEOMETRY OPTIMISED USING EIGENVECTOR FOLLOWING (EF).     
     SCF FIELD WAS ACHIEVED                                   


                              PM3 CALCULATION
                                                       MOPAC2016 (Version: 18.184L)
                                                       Thu Jun 13 15:42:05 2019
                                                       No. of days remaining =  20




          FINAL HEAT OF FORMATION =         14.51520 KCAL/MOL =      60.73159 KJ/MOL


          TOTAL ENERGY            =       -983.18026 EV
          ELECTRONIC ENERGY       =      -4573.36416 EV  POINT GROUP:     C1  
          CORE-CORE REPULSION     =       3590.18390 EV
          COSMO AREA              =        141.59 SQUARE ANGSTROMS
          COSMO VOLUME            =        134.62 CUBIC ANGSTROMS

          GRADIENT NORM           =          0.04386 = 0.01064 PER ATOM
          IONIZATION POTENTIAL    =          9.299118 EV
          HOMO LUMO ENERGIES (EV) =         -9.299  1.073
          NO. OF FILLED LEVELS    =         19
          MOLECULAR WEIGHT        =         94.1560

          MOLECULAR DIMENSIONS (Angstroms)

            Atom       Atom       Distance
            H    13    H    10     5.68569
            H    17    H    14     4.75099
            H     9    H     8     3.05360


          SCF CALCULATIONS        =         58
 
          WALL-CLOCK TIME         =          1.250 SECONDS
          COMPUTATION TIME        =          0.511 SECONDS




   ATOM   CHEMICAL          X               Y               Z
  NUMBER   SYMBOL      (ANGSTROMS)     (ANGSTROMS)     (ANGSTROMS)
 
     1       C          0.80258397  *   0.01743137  *  -0.64009785  *
     2       C         -1.95206916  *  -0.00346903  *   0.45608850  *
     3       C          2.18184497  *  -0.01429085  *   0.00513034  *
     4       C          0.05462726  *  -1.23558919  *  -0.32084723  *
     5       C          0.07081661  *   1.25434137  *  -0.23270097  *
     6       C         -1.16980197  *   1.24311004  *   0.25400070  *
     7       C         -1.18605744  *  -1.24269511  *   0.16579194  *
     8       H          0.92100280  *   0.05606139  *  -1.75291526  *
     9       H         -2.32113872  *  -0.03812555  *   1.50145712  *
    10       H         -2.85577620  *   0.02525816  *  -0.18704015  *
    11       H          2.11402566  *  -0.05239402  *   1.09980804  *
    12       H          2.76520488  *   0.87758938  *  -0.25816294  *
    13       H          2.75369703  *  -0.89293019  *  -0.32052775  *
    14       H          0.61788654  *   2.19561682  *  -0.36101176  *
    15       H          0.58954762  *  -2.17244609  *  -0.51548804  *
    16       H         -1.67350698  *   2.17649059  *   0.52939135  *
    17       H         -1.70210620  *  -2.18659752  *   0.37442174  *

                             CARTESIAN COORDINATES

   1    C        0.802583966     0.017431369    -0.640097847
   2    C       -1.952069162    -0.003469027     0.456088501
   3    C        2.181844971    -0.014290854     0.005130337
   4    C        0.054627263    -1.235589186    -0.320847230
   5    C        0.070816606     1.254341369    -0.232700968
   6    C       -1.169801967     1.243110045     0.254000695
   7    C       -1.186057436    -1.242695112     0.165791936
   8    H        0.921002801     0.056061393    -1.752915258
   9    H       -2.321138725    -0.038125548     1.501457122
  10    H       -2.855776197     0.025258161    -0.187040146
  11    H        2.114025658    -0.052394016     1.099808038
  12    H        2.765204880     0.877589377    -0.258162942
  13    H        2.753697030    -0.892930194    -0.320527755
  14    H        0.617886540     2.195616818    -0.361011763
  15    H        0.589547622    -2.172446088    -0.515488043
  16    H       -1.673506984     2.176490593     0.529391346
  17    H       -1.702106198    -2.186597516     0.374421740


           Empirical Formula: C7 H10  =    17 atoms



      MOLECULAR POINT GROUP   :   C1  


                  EIGENVALUES  
 -40.09767 -32.84442 -29.87242 -25.90025 -21.55289 -20.75926 -17.64758 -16.18790
 -15.88793 -15.27684 -14.53542 -14.35979 -13.65470 -13.12613 -12.93844 -12.08340
 -11.50482 -10.35964  -9.29912   1.07278   1.17802   3.36887   3.46792   3.51132
   3.74649   3.78710   3.96514   4.15651   4.30771   4.41521   4.50403   4.73154
   4.82122   4.89526   5.37041   5.39704   5.98064   6.21351


              NET ATOMIC CHARGES AND DIPOLE CONTRIBUTIONS

  ATOM NO.   TYPE          CHARGE      No. of ELECS.   s-Pop       p-Pop       
    1          C          -0.001005        4.0010     1.14755     2.85345
    2          C          -0.021359        4.0214     1.13127     2.89009
    3          C          -0.102877        4.1029     1.14019     2.96268
    4          C          -0.145263        4.1453     1.19563     2.94963
    5          C          -0.145273        4.1453     1.19563     2.94964
    6          C          -0.144899        4.1449     1.19284     2.95206
    7          C          -0.144899        4.1449     1.19285     2.95205
    8          H           0.069609        0.9304     0.93039
    9          H           0.059547        0.9405     0.94045
   10          H           0.060911        0.9391     0.93909
   11          H           0.043859        0.9561     0.95614
   12          H           0.038416        0.9616     0.96158
   13          H           0.038420        0.9616     0.96158
   14          H           0.099994        0.9000     0.90001
   15          H           0.099994        0.9000     0.90001
   16          H           0.097411        0.9026     0.90259
   17          H           0.097413        0.9026     0.90259
 DIPOLE           X         Y         Z       TOTAL
 POINT-CHG.    -0.057     0.002    -0.037     0.068
 HYBRID        -0.004    -0.001     0.035     0.035
 SUM           -0.061     0.000    -0.002     0.061


          ATOMIC ORBITAL ELECTRON POPULATIONS

     Atom    s        px        py        pz   
    1  C   1.14755   0.94264   0.92054   0.99027
    2  C   1.13127   0.96751   0.92072   1.00186
    3  C   1.14019   0.95058   1.00692   1.00518
    4  C   1.19563   0.96464   0.97803   1.00696
    5  C   1.19563   0.96500   0.97853   1.00611
    6  C   1.19284   0.96675   0.97873   1.00658
    7  C   1.19285   0.96705   0.97896   1.00604
    8  H   0.93039
    9  H   0.94045
   10  H   0.93909
   11  H   0.95614
   12  H   0.96158
   13  H   0.96158
   14  H   0.90001
   15  H   0.90001
   16  H   0.90259
   17  H   0.90259
 *******************************************************************************
 ** Site#: 14399        For non-commercial use only    Version 18.184L 64BITS **
 *******************************************************************************
 ** Cite this program as: MOPAC2016, Version: 18.184L, James J. P. Stewart,   **
 ** Stewart Computational Chemistry, web: HTTP://OpenMOPAC.net. Days left:  20**
 *******************************************************************************
 **                                                                           **
 **                                MOPAC2016                                  **
 **                                                                           **
 *******************************************************************************

                              PM3 CALCULATION RESULTS

 *******************************************************************************
 *  CALCULATION DONE:                                Thu Jun 13 15:42:05 2019  *
 *  PM3        - The PM3 Hamiltonian to be used
 *  OLDGEO     - PREVIOUS GEOMETRY TO BE USED
 *  PRECISE    - CRITERIA TO BE INCREASED BY 100 TIMES
 *  NOSYM      - POINT-GROUP SYMMETRY SET TO C1
 *  THREADS=1  - MULTI-THREADING NOT USED
 *  T=         - A TIME OF 172800.0 SECONDS REQUESTED
 *  DUMP=N     - RESTART FILE WRITTEN EVERY  7200.000 SECONDS
 *  THERMO     - THERMODYNAMIC QUANTITIES TO BE CALCULATED
 *******************************************************************************
oldgeo thermo nosym precise THREADS=1  pm3
 InChI=1S/C7H10/c1-7-5-3-2-4-6-7/h3-7H,2H2,1H3

   ATOM   CHEMICAL          X               Y               Z
  NUMBER   SYMBOL      (ANGSTROMS)     (ANGSTROMS)     (ANGSTROMS)
 
     1       C          0.80258397  *   0.01743137  *  -0.64009785  *
     2       C         -1.95206916  *  -0.00346903  *   0.45608850  *
     3       C          2.18184497  *  -0.01429085  *   0.00513034  *
     4       C          0.05462726  *  -1.23558919  *  -0.32084723  *
     5       C          0.07081661  *   1.25434137  *  -0.23270097  *
     6       C         -1.16980197  *   1.24311004  *   0.25400070  *
     7       C         -1.18605744  *  -1.24269511  *   0.16579194  *
     8       H          0.92100280  *   0.05606139  *  -1.75291526  *
     9       H         -2.32113872  *  -0.03812555  *   1.50145712  *
    10       H         -2.85577620  *   0.02525816  *  -0.18704015  *
    11       H          2.11402566  *  -0.05239402  *   1.09980804  *
    12       H          2.76520488  *   0.87758938  *  -0.25816294  *
    13       H          2.75369703  *  -0.89293019  *  -0.32052775  *
    14       H          0.61788654  *   2.19561682  *  -0.36101176  *
    15       H          0.58954762  *  -2.17244609  *  -0.51548804  *
    16       H         -1.67350698  *   2.17649059  *   0.52939135  *
    17       H         -1.70210620  *  -2.18659752  *   0.37442174  *
 


          CARTESIAN COORDINATES 

    NO.       ATOM           X           Y           Z

     1         C          0.8026      0.0174     -0.6401
     2         C         -1.9521     -0.0035      0.4561
     3         C          2.1818     -0.0143      0.0051
     4         C          0.0546     -1.2356     -0.3208
     5         C          0.0708      1.2543     -0.2327
     6         C         -1.1698      1.2431      0.2540
     7         C         -1.1861     -1.2427      0.1658
     8         H          0.9210      0.0561     -1.7529
     9         H         -2.3211     -0.0381      1.5015
    10         H         -2.8558      0.0253     -0.1870
    11         H          2.1140     -0.0524      1.0998
    12         H          2.7652      0.8776     -0.2582
    13         H          2.7537     -0.8929     -0.3205
    14         H          0.6179      2.1956     -0.3610
    15         H          0.5895     -2.1724     -0.5155
    16         H         -1.6735      2.1765      0.5294
    17         H         -1.7021     -2.1866      0.3744

  H: (PM3): J. J. P. STEWART, J. COMP. CHEM. 10, 209 (1989).
  C: (PM3): J. J. P. STEWART, J. COMP. CHEM. 10, 209 (1989).

           Empirical Formula: C7 H10  =    17 atoms



      MOLECULAR POINT GROUP   :   C1  


      RHF CALCULATION, NO. OF DOUBLY OCCUPIED LEVELS = 19



          HEAT OF FORMATION =      14.515198 KCALS/MOLE


          CARTESIAN COORDINATE DERIVATIVES

   NUMBER  ATOM         X            Y            Z

     1       C      0.003262    -0.000488    -0.001638
     2       C      0.001505    -0.005922    -0.004211
     3       C     -0.018868     0.002725     0.000764
     4       C     -0.010915    -0.001263    -0.000635
     5       C     -0.001267    -0.004093    -0.009758
     6       C      0.002287     0.006781    -0.006645
     7       C      0.015897    -0.004513     0.013471
     8       H     -0.006414     0.001304     0.003521
     9       H     -0.003442     0.007562     0.004036
    10       H      0.009566    -0.008192    -0.001988
    11       H      0.011936    -0.003422     0.002197
    12       H      0.000486    -0.001006    -0.000688
    13       H     -0.000852    -0.000029     0.002749
    14       H     -0.005296    -0.001504     0.000810
    15       H     -0.001829     0.006398     0.005671
    16       H     -0.000959     0.006573    -0.000776
    17       H      0.004903    -0.000910    -0.006879
 


          GRADIENT NORM =   0.04375


          TIME FOR SCF CALCULATION =    0.02

          TIME FOR DERIVATIVES     =    0.01

          MOLECULAR WEIGHT =   94.16



          ROTATIONAL CONSTANTS IN CM(-1)

          A =    0.15620250   B =    0.08391588   C =    0.05946806



           PRINCIPAL MOMENTS OF INERTIA IN UNITS OF 10**(-40)*GRAM-CM**2

          A =      179.2082   B =      333.5814   C =      470.7195


          ORIENTATION OF MOLECULE IN FORCE CALCULATION

    NO.       ATOM         X         Y         Z

     1          C      -1.0981   -0.2104    0.0000
     2          C       1.8667   -0.2104    0.0000
     3          C      -2.1408    0.8997    0.0000
     4          C      -0.2763   -0.1465   -1.2458
     5          C      -0.2763   -0.1463    1.2458
     6          C       1.0564   -0.1527    1.2437
     7          C       1.0564   -0.1531   -1.2437
     8          H      -1.6199   -1.2012    0.0001
     9          H       2.5964    0.6249   -0.0001
    10          H       2.4684   -1.1427    0.0002
    11          H      -1.6728    1.8924    0.0001
    12          H      -2.7865    0.8396    0.8858
    13          H      -2.7864    0.8397   -0.8859
    14          H      -0.8387   -0.0963    2.1854
    15          H      -0.8387   -0.0964   -2.1854
    16          H       1.6196   -0.1161    2.1829
    17          H       1.6197   -0.1170   -2.1830


    FIRST DERIVATIVES WILL BE USED IN THE CALCULATION OF SECOND DERIVATIVES

          ESTIMATED TIME TO COMPLETE CALCULATION =        7.17 SECONDS

    FOR POINT-GROUP C1   THERE ARE   1 UNIQUE SYMMETRY FUNCTIONS.

 STEP:   1 TIME =     0.04 SECS, INTEGRAL =      0.04 TIME LEFT: 172799.92
 STEP:   2 TIME =     0.03 SECS, INTEGRAL =      0.07 TIME LEFT: 172799.89
 STEP:   3 TIME =     0.03 SECS, INTEGRAL =      0.10 TIME LEFT: 172799.86
 STEP:   4 TIME =     0.03 SECS, INTEGRAL =      0.13 TIME LEFT: 172799.84
 STEP:   5 TIME =     0.03 SECS, INTEGRAL =      0.16 TIME LEFT: 172799.81
 STEP:   6 TIME =     0.03 SECS, INTEGRAL =      0.19 TIME LEFT: 172799.78
 STEP:   7 TIME =     0.03 SECS, INTEGRAL =      0.21 TIME LEFT: 172799.75
 STEP:   8 TIME =     0.03 SECS, INTEGRAL =      0.24 TIME LEFT: 172799.72
 STEP:   9 TIME =     0.03 SECS, INTEGRAL =      0.27 TIME LEFT: 172799.70
 STEP:  10 TIME =     0.03 SECS, INTEGRAL =      0.30 TIME LEFT: 172799.67
 STEP:  11 TIME =     0.04 SECS, INTEGRAL =      0.34 TIME LEFT: 172799.63
 STEP:  12 TIME =     0.04 SECS, INTEGRAL =      0.37 TIME LEFT: 172799.59
 STEP:  13 TIME =     0.04 SECS, INTEGRAL =      0.41 TIME LEFT: 172799.56
 STEP:  14 TIME =     0.04 SECS, INTEGRAL =      0.44 TIME LEFT: 172799.52
 STEP:  15 TIME =     0.04 SECS, INTEGRAL =      0.48 TIME LEFT: 172799.49
 STEP:  16 TIME =     0.04 SECS, INTEGRAL =      0.51 TIME LEFT: 172799.45
 STEP:  17 TIME =     0.04 SECS, INTEGRAL =      0.55 TIME LEFT: 172799.42
 STEP:  18 TIME =     0.04 SECS, INTEGRAL =      0.58 TIME LEFT: 172799.38
 STEP:  19 TIME =     0.04 SECS, INTEGRAL =      0.62 TIME LEFT: 172799.35
 STEP:  20 TIME =     0.04 SECS, INTEGRAL =      0.65 TIME LEFT: 172799.31
 STEP:  21 TIME =     0.04 SECS, INTEGRAL =      0.69 TIME LEFT: 172799.27
 STEP:  22 TIME =     0.04 SECS, INTEGRAL =      0.73 TIME LEFT: 172799.23
 STEP:  23 TIME =     0.04 SECS, INTEGRAL =      0.77 TIME LEFT: 172799.20
 STEP:  24 TIME =     0.03 SECS, INTEGRAL =      0.80 TIME LEFT: 172799.16
 STEP:  25 TIME =     0.03 SECS, INTEGRAL =      0.83 TIME LEFT: 172799.13
 STEP:  26 TIME =     0.03 SECS, INTEGRAL =      0.86 TIME LEFT: 172799.11
 STEP:  27 TIME =     0.03 SECS, INTEGRAL =      0.89 TIME LEFT: 172799.08
 STEP:  28 TIME =     0.02 SECS, INTEGRAL =      0.91 TIME LEFT: 172799.05
 STEP:  29 TIME =     0.03 SECS, INTEGRAL =      0.94 TIME LEFT: 172799.03
 STEP:  30 TIME =     0.03 SECS, INTEGRAL =      0.96 TIME LEFT: 172799.00
 STEP:  31 TIME =     0.03 SECS, INTEGRAL =      0.99 TIME LEFT: 172798.97
 STEP:  32 TIME =     0.03 SECS, INTEGRAL =      1.02 TIME LEFT: 172798.95
 STEP:  33 TIME =     0.02 SECS, INTEGRAL =      1.04 TIME LEFT: 172798.92
 STEP:  34 TIME =     0.03 SECS, INTEGRAL =      1.07 TIME LEFT: 172798.89
 STEP:  35 TIME =     0.04 SECS, INTEGRAL =      1.11 TIME LEFT: 172798.86
 STEP:  36 TIME =     0.04 SECS, INTEGRAL =      1.14 TIME LEFT: 172798.82
 STEP:  37 TIME =     0.03 SECS, INTEGRAL =      1.18 TIME LEFT: 172798.79
 STEP:  38 TIME =     0.03 SECS, INTEGRAL =      1.21 TIME LEFT: 172798.76
 STEP:  39 TIME =     0.03 SECS, INTEGRAL =      1.23 TIME LEFT: 172798.73
 STEP:  40 TIME =     0.03 SECS, INTEGRAL =      1.26 TIME LEFT: 172798.70
 STEP:  41 TIME =     0.06 SECS, INTEGRAL =      1.32 TIME LEFT: 172798.64
 STEP:  42 TIME =     0.04 SECS, INTEGRAL =      1.36 TIME LEFT: 172798.60
 STEP:  43 TIME =     0.04 SECS, INTEGRAL =      1.40 TIME LEFT: 172798.56
 STEP:  44 TIME =     0.04 SECS, INTEGRAL =      1.44 TIME LEFT: 172798.53
 STEP:  45 TIME =     0.05 SECS, INTEGRAL =      1.48 TIME LEFT: 172798.48
 STEP:  46 TIME =     0.04 SECS, INTEGRAL =      1.52 TIME LEFT: 172798.44
 STEP:  47 TIME =     0.04 SECS, INTEGRAL =      1.56 TIME LEFT: 172798.40
 STEP:  48 TIME =     0.03 SECS, INTEGRAL =      1.59 TIME LEFT: 172798.37
 STEP:  49 TIME =     0.04 SECS, INTEGRAL =      1.63 TIME LEFT: 172798.34
 STEP:  50 TIME =     0.03 SECS, INTEGRAL =      1.66 TIME LEFT: 172798.30
 STEP:  51 TIME =     0.03 SECS, INTEGRAL =      1.69 TIME LEFT: 172798.28

(To convert to Hartree/Bohr^2, multiply by (10^(-21) x N x a0^2)/(4.184 x 627.51) =  0.0642)


           FORCE MATRIX IN MILLIDYNES/ANGSTROM


                  C  1       C  2       C  3       C  4       C  5       C  6
 ------------------------------------------------------------------------------
     C    1  15.091198
     C    2   0.197856  15.148689
     C    3   4.070373   0.014037  14.320683
     C    4   4.752733   0.847524   0.708662  18.306063
     C    5   4.753054   0.847637   0.708746   0.712939  18.306643
     C    6   0.814470   5.035987   0.043186   0.056542  10.749215  18.284686
     C    7   0.814287   5.036081   0.043125  10.748694   0.056533   0.741307
     H    8   4.123319   0.012527   0.433411   0.394330   0.394365   0.034399
     H    9   0.014521   4.400486   0.001955   0.039187   0.039194   0.421719
     H   10   0.013671   4.380099   0.003254   0.035617   0.035669   0.421149
     H   11   0.463531   0.000980   4.757083   0.016196   0.016157   0.002820
     H   12   0.455415   0.001448   4.737887   0.050730   0.032695   0.002497
     H   13   0.455380   0.001444   4.737936   0.032694   0.050728   0.007722
     H   14   0.429962   0.123649   0.028562   0.043624   4.806383   0.444543
     H   15   0.430016   0.123668   0.028460   4.806678   0.043651   0.003393
     H   16   0.122644   0.424389   0.016471   0.003976   0.444431   4.821535
     H   17   0.122617   0.424443   0.016480   0.444423   0.003979   0.045861


                  C  7       H  8       H  9       H 10       H 11       H 12
 ------------------------------------------------------------------------------
     C    7  18.284127
     H    8   0.034364   4.574000
     H    9   0.421778   0.002435   4.983609
     H   10   0.421136   0.002316   0.564126   4.966527
     H   11   0.002771   0.045581   0.000513   0.000464   5.490627
     H   12   0.007719   0.027496   0.000273   0.000611   0.572729   5.477440
     H   13   0.002502   0.027489   0.000283   0.000598   0.572694   0.567461
     H   14   0.003356   0.023214   0.015562   0.016634   0.002610   0.022794
     H   15   0.444545   0.023226   0.015537   0.016655   0.002603   0.001884
     H   16   0.045821   0.015608   0.030797   0.024645   0.000620   0.000723
     H   17   4.821235   0.015586   0.030776   0.024647   0.000624   0.002728


                  H 13       H 14       H 15       H 16       H 17
 ------------------------------------------------------------------
     H   13   5.477532
     H   14   0.001879   5.186540
     H   15   0.022803   0.006195   5.186767
     H   16   0.002724   0.070388   0.000896   5.198569
     H   17   0.000730   0.000905   0.070397   0.006483   5.198244


          HEAT OF FORMATION =      14.515198 KCALS/MOLE

          ZERO POINT ENERGY      93.132 KCAL/MOL


           NORMAL COORDINATE ANALYSIS (Total motion = 1 Angstrom)


   Root No.       1         2         3         4         5         6         7         8

                 1 A       2 A       3 A       4 A       5 A       6 A       7 A       8 A   

                  67.6     182.4     274.8     303.1     437.2     485.0     556.8     591.2
  
           1   -0.0088   -0.0000   -0.0038    0.0000    0.0000   -0.0411    0.0339   -0.0000
           2   -0.0094   -0.0000   -0.0391    0.0000   -0.0000    0.0189    0.0466   -0.0000
           3   -0.0000   -0.0019   -0.0000   -0.0303   -0.0232   -0.0000   -0.0000   -0.0434
           4   -0.0048   -0.0000   -0.0124    0.0000   -0.0000    0.0536   -0.0300    0.0000
           5    0.0553   -0.0000   -0.0213    0.0000   -0.0000   -0.0035    0.0058   -0.0000
           6   -0.0000   -0.0027    0.0000    0.0103    0.0093    0.0000    0.0000    0.0453
           7    0.0396    0.0000    0.0397   -0.0001    0.0000   -0.0506   -0.0113    0.0000
           8    0.0367    0.0000    0.0037   -0.0000   -0.0000    0.0273    0.0041   -0.0000
           9    0.0000    0.0129    0.0001    0.0537    0.0397    0.0000    0.0000   -0.0143
          10   -0.0080   -0.0003   -0.0072    0.0146    0.0079    0.0092    0.0050   -0.0741
          11   -0.0398   -0.0070   -0.0169    0.0170   -0.0503   -0.0298   -0.0199    0.0083
          12   -0.0009   -0.0024   -0.0018   -0.0210   -0.0227    0.0314   -0.0253   -0.0681
          13   -0.0080    0.0003   -0.0073   -0.0146   -0.0079    0.0092    0.0050    0.0741
          14   -0.0398    0.0069   -0.0169   -0.0170    0.0503   -0.0297   -0.0199   -0.0083
          15    0.0008   -0.0024    0.0018   -0.0210   -0.0227   -0.0314    0.0253   -0.0682
          16   -0.0079    0.0003   -0.0075   -0.0155   -0.0105    0.0138    0.0037    0.0758
          17   -0.0079    0.0144    0.0437    0.0426   -0.0295    0.0129    0.0104    0.0041
          18    0.0007   -0.0031    0.0002   -0.0029    0.0014   -0.0293    0.0244    0.0758
          19   -0.0079   -0.0003   -0.0075    0.0156    0.0105    0.0138    0.0037   -0.0758
          20   -0.0079   -0.0144    0.0436   -0.0427    0.0295    0.0130    0.0104   -0.0041
          21   -0.0007   -0.0031   -0.0002   -0.0029    0.0014    0.0293   -0.0244    0.0758
          22   -0.0504   -0.0000   -0.0231    0.0000    0.0000   -0.0805    0.0323   -0.0000
          23    0.0128   -0.0000   -0.0269    0.0000   -0.0000    0.0388    0.0446   -0.0000
          24   -0.0000   -0.0063   -0.0001   -0.0705    0.0113    0.0000    0.0000   -0.0038
          25   -0.0711    0.0000    0.0783   -0.0001   -0.0000    0.1050    0.0356    0.0000
          26    0.1135   -0.0000   -0.1021    0.0001   -0.0000   -0.0496   -0.0543   -0.0000
          27   -0.0000   -0.0137   -0.0000   -0.0187    0.0544    0.0000   -0.0000   -0.0230
          28    0.0692   -0.0000   -0.1141    0.0001   -0.0000    0.0012   -0.1071    0.0000
          29    0.1033   -0.0000   -0.0882    0.0001   -0.0000   -0.0390   -0.0462   -0.0000
          30   -0.0000    0.0090    0.0001    0.0621   -0.0246    0.0000    0.0000    0.0020
          31    0.0833    0.0000    0.0874   -0.0001    0.0001   -0.0675   -0.0836    0.0001
          32    0.0162   -0.0000   -0.0182    0.0000   -0.0000    0.0343    0.0367   -0.0000
          33   -0.0000    0.2928   -0.0000    0.0395    0.0556    0.0000    0.0000   -0.0036
          34    0.0373   -0.1629    0.0374    0.0640    0.0435   -0.0499   -0.0084    0.0087
          35    0.0650   -0.1720    0.0347   -0.0158   -0.0310    0.0182   -0.0429   -0.0146
          36    0.0002   -0.1175    0.0002    0.1005    0.0712    0.0002   -0.0003   -0.0096
          37    0.0373    0.1629    0.0372   -0.0641   -0.0434   -0.0499   -0.0084   -0.0087
          38    0.0650    0.1721    0.0346    0.0157    0.0310    0.0182   -0.0429    0.0147
          39   -0.0002   -0.1175    0.0001    0.1005    0.0712   -0.0002    0.0003   -0.0096
          40   -0.0089   -0.0011   -0.0099   -0.0267   -0.0168    0.0343   -0.0139    0.0336
          41   -0.0858    0.0138   -0.0154   -0.0453    0.1305   -0.0906   -0.1355   -0.0257
          42    0.0028   -0.0038    0.0002   -0.0263   -0.0315   -0.0128    0.0198   -0.0905
          43   -0.0089    0.0011   -0.0098    0.0268    0.0167    0.0343   -0.0139   -0.0336
          44   -0.0858   -0.0138   -0.0153    0.0454   -0.1305   -0.0907   -0.1355    0.0258
          45   -0.0028   -0.0038   -0.0002   -0.0263   -0.0315    0.0128   -0.0198   -0.0905
          46   -0.0093    0.0006   -0.0062   -0.0303   -0.0256   -0.0104    0.0244    0.0382
          47   -0.0264    0.0293    0.1173    0.0973   -0.0745    0.0259   -0.0355    0.0063
          48    0.0023   -0.0039   -0.0037    0.0037    0.0120   -0.0149    0.0136    0.0971
          49   -0.0093   -0.0006   -0.0061    0.0303    0.0256   -0.0104    0.0244   -0.0382
          50   -0.0264   -0.0292    0.1170   -0.0976    0.0745    0.0260   -0.0355   -0.0063
          51   -0.0023   -0.0038    0.0036    0.0038    0.0120    0.0148   -0.0136    0.0972


   Root No.       9        10        11        12        13        14        15        16

                 9 A      10 A      11 A      12 A      13 A      14 A      15 A      16 A   

                 750.2     780.8     853.3     906.9     947.5     965.6     972.7     994.5
  
           1    0.0061   -0.0000   -0.0304    0.0126    0.0069   -0.0000   -0.0000    0.0110
           2    0.0124   -0.0000   -0.0309    0.0105    0.0082   -0.0000   -0.0000    0.0107
           3   -0.0000   -0.0007    0.0000   -0.0000   -0.0000   -0.0207   -0.0037   -0.0000
           4   -0.0116   -0.0000   -0.0307    0.0117   -0.0280    0.0000   -0.0000    0.0264
           5   -0.0247    0.0000    0.0241    0.0430   -0.0064    0.0000   -0.0000    0.0205
           6    0.0000    0.0005   -0.0000   -0.0000   -0.0000   -0.0110   -0.0027   -0.0000
           7   -0.0147   -0.0000   -0.0340    0.0144    0.0308   -0.0000    0.0000   -0.0111
           8    0.0157    0.0000    0.0133    0.0037   -0.0023    0.0000   -0.0000   -0.0042
           9   -0.0000   -0.0002    0.0000   -0.0000   -0.0000   -0.0388    0.0008    0.0000
          10    0.0065    0.0009    0.0226   -0.0070    0.0087    0.0031    0.0005   -0.0066
          11   -0.0222   -0.0263   -0.0058   -0.0234    0.0021   -0.0066    0.0270    0.0072
          12   -0.0099   -0.0023    0.0101   -0.0053    0.0618    0.0254    0.0064    0.0067
          13    0.0065   -0.0009    0.0226   -0.0070    0.0087   -0.0031   -0.0005   -0.0066
          14   -0.0222    0.0263   -0.0058   -0.0234    0.0021    0.0066   -0.0270    0.0072
          15    0.0099   -0.0024   -0.0101    0.0053   -0.0617    0.0255    0.0064   -0.0067
          16    0.0074   -0.0019    0.0263   -0.0077    0.0003    0.0067    0.0028   -0.0041
          17   -0.0060    0.0237   -0.0023   -0.0133    0.0032   -0.0020    0.0240   -0.0247
          18    0.0142   -0.0022    0.0429   -0.0101    0.0137    0.0119    0.0020    0.0197
          19    0.0074    0.0019    0.0263   -0.0078    0.0003   -0.0067   -0.0028   -0.0041
          20   -0.0060   -0.0237   -0.0023   -0.0133    0.0032    0.0020   -0.0240   -0.0247
          21   -0.0142   -0.0022   -0.0429    0.0101   -0.0137    0.0119    0.0020   -0.0197
          22   -0.0308   -0.0000   -0.0499   -0.0312   -0.0407    0.0001   -0.0001    0.1088
          23    0.0320    0.0000   -0.0185    0.0324    0.0291   -0.0001    0.0000   -0.0405
          24   -0.0000    0.0455   -0.0000   -0.0001   -0.0001   -0.1129   -0.0957    0.0001
          25   -0.1011   -0.0000    0.0187    0.1156   -0.0566    0.0000   -0.0001    0.0831
          26    0.0566   -0.0000   -0.0223   -0.0504    0.0161   -0.0000    0.0000   -0.0303
          27    0.0000   -0.0377    0.0000   -0.0000   -0.0000   -0.0477   -0.0877   -0.0001
          28    0.0865   -0.0000   -0.1007   -0.0999   -0.0208    0.0000    0.0000   -0.0181
          29    0.0419    0.0000   -0.0216   -0.0322    0.0010   -0.0000    0.0000   -0.0092
          30   -0.0000    0.0545    0.0000    0.0001   -0.0001   -0.0676    0.0718    0.0001
          31   -0.0613   -0.0000    0.0492   -0.0777   -0.0857    0.0001   -0.0000    0.0707
          32    0.0365    0.0000   -0.0244    0.0449    0.0497   -0.0001    0.0000   -0.0405
          33   -0.0000    0.0106   -0.0000    0.0000    0.0001    0.0547   -0.0077   -0.0000
          34   -0.0159    0.0104   -0.0403    0.0148    0.0364    0.1337   -0.0064   -0.0122
          35   -0.0099   -0.0120    0.0783   -0.0573   -0.0899   -0.1337    0.0071    0.0486
          36   -0.0017    0.0070   -0.0009   -0.0022   -0.0003    0.0540   -0.0039    0.0012
          37   -0.0159   -0.0104   -0.0402    0.0148    0.0362   -0.1338    0.0065   -0.0122
          38   -0.0099    0.0120    0.0782   -0.0573   -0.0897    0.1339   -0.0072    0.0486
          39    0.0017    0.0070    0.0009    0.0022    0.0004    0.0540   -0.0039   -0.0012
          40    0.0032   -0.0041    0.0213   -0.0059   -0.0394   -0.0070   -0.0013   -0.0683
          41    0.0662   -0.1719    0.0751    0.1587   -0.0160   -0.0118    0.1541   -0.0407
          42    0.0032    0.0063   -0.0154   -0.0034   -0.0899    0.0240   -0.0040   -0.0395
          43    0.0032    0.0041    0.0213   -0.0059   -0.0394    0.0070    0.0014   -0.0684
          44    0.0662    0.1720    0.0750    0.1586   -0.0161    0.0117   -0.1541   -0.0409
          45   -0.0032    0.0063    0.0154    0.0034    0.0900    0.0239   -0.0040    0.0395
          46    0.0212   -0.0033    0.0446   -0.0168   -0.0604    0.0547    0.0165   -0.0702
          47    0.1761   -0.1852   -0.0520   -0.0021   -0.0019    0.0136   -0.1475    0.1002
          48   -0.0008    0.0068    0.0351   -0.0056    0.0485   -0.0168    0.0006    0.0538
          49    0.0213    0.0034    0.0446   -0.0168   -0.0605   -0.0546   -0.0163   -0.0702
          50    0.1761    0.1852   -0.0521   -0.0021   -0.0020   -0.0136    0.1474    0.1004
          51    0.0008    0.0067   -0.0351    0.0055   -0.0485   -0.0167    0.0007   -0.0539


   Root No.      17        18        19        20        21        22        23        24

                17 A      18 A      19 A      20 A      21 A      22 A      23 A      24 A   

                1011.4    1032.6    1049.9    1066.8    1078.8    1107.1    1152.0    1158.8
  
           1    0.0016    0.0000    0.0292   -0.0000   -0.0000    0.0013    0.0000   -0.0128
           2   -0.0116    0.0000    0.0219   -0.0000   -0.0000   -0.0686   -0.0000    0.0069
           3   -0.0000    0.0083   -0.0000    0.0037    0.0027    0.0000    0.0130    0.0001
           4    0.0504    0.0000   -0.0162    0.0000    0.0000    0.0018    0.0000   -0.0046
           5   -0.0280   -0.0000   -0.0137    0.0000   -0.0000    0.0048    0.0000   -0.0021
           6    0.0000    0.0165   -0.0000    0.0096   -0.0142    0.0000    0.0006    0.0000
           7   -0.0008   -0.0000   -0.0203    0.0000    0.0000   -0.0013   -0.0000    0.0042
           8    0.0085    0.0000    0.0043   -0.0000    0.0000    0.0686   -0.0000    0.0022
           9    0.0000   -0.0222    0.0000   -0.0057   -0.0063    0.0000   -0.0039   -0.0000
          10   -0.0125   -0.0081    0.0026   -0.0059    0.0100   -0.0014   -0.0016    0.0042
          11   -0.0114    0.0129   -0.0293    0.0107    0.0159    0.0115   -0.0029   -0.0036
          12   -0.0177   -0.0077    0.0163   -0.0019   -0.0033   -0.0039   -0.0044   -0.0004
          13   -0.0125    0.0081    0.0026    0.0059   -0.0100   -0.0014    0.0016    0.0043
          14   -0.0114   -0.0129   -0.0292   -0.0107   -0.0159    0.0115    0.0029   -0.0036
          15    0.0177   -0.0077   -0.0163   -0.0019   -0.0033    0.0039   -0.0044    0.0003
          16   -0.0018   -0.0019   -0.0044    0.0016   -0.0064    0.0002   -0.0026   -0.0034
          17    0.0294   -0.0032    0.0197    0.0328    0.0091   -0.0068   -0.0012    0.0017
          18    0.0337   -0.0171   -0.0175   -0.0086    0.0123   -0.0018   -0.0022    0.0053
          19   -0.0018    0.0019   -0.0044   -0.0016    0.0064    0.0002    0.0027   -0.0034
          20    0.0293    0.0032    0.0197   -0.0328   -0.0091   -0.0068    0.0012    0.0017
          21   -0.0337   -0.0170    0.0175   -0.0086    0.0123    0.0018   -0.0022   -0.0053
          22   -0.0496    0.0001    0.2141   -0.0002    0.0000    0.2124   -0.0003    0.0733
          23    0.0148   -0.0000   -0.0734    0.0001   -0.0000   -0.1780    0.0002   -0.0366
          24   -0.0002    0.1652   -0.0002   -0.0179    0.2548   -0.0002   -0.0832   -0.0004
          25    0.0201   -0.0001   -0.0557    0.0001   -0.0000    0.0133    0.0001   -0.0187
          26    0.0010    0.0000    0.0203    0.0000   -0.0000   -0.0047   -0.0000    0.0068
          27    0.0000    0.0635    0.0002    0.3518   -0.1092   -0.0000   -0.1163   -0.0004
          28    0.1318    0.0001    0.0084   -0.0001   -0.0000   -0.0068    0.0000   -0.0113
          29    0.0245    0.0000    0.0034   -0.0001   -0.0000   -0.0014   -0.0000   -0.0037
          30   -0.0001    0.1842   -0.0003   -0.2390   -0.1685    0.0000   -0.0817   -0.0003
          31   -0.0429    0.0000    0.0669   -0.0001   -0.0001   -0.2184    0.0001   -0.0043
          32    0.0273   -0.0000   -0.0339    0.0000    0.0001    0.1685   -0.0001    0.0061
          33   -0.0000    0.0343   -0.0000    0.0043    0.0189   -0.0000    0.0008    0.0000
          34   -0.0060    0.0712   -0.0222    0.0142    0.0269   -0.0114    0.0078    0.0151
          35   -0.0113   -0.0728    0.0644   -0.0152   -0.0259   -0.0416   -0.0091   -0.0160
          36   -0.0038    0.0276    0.0006    0.0039    0.0136   -0.0128    0.0009    0.0054
          37   -0.0059   -0.0713   -0.0220   -0.0142   -0.0269   -0.0114   -0.0079    0.0150
          38   -0.0114    0.0728    0.0643    0.0151    0.0259   -0.0416    0.0092   -0.0159
          39    0.0038    0.0276   -0.0006    0.0039    0.0136    0.0128    0.0010   -0.0054
          40   -0.0821    0.0759   -0.0221    0.0496   -0.0743   -0.0143    0.1157    0.1862
          41    0.0490    0.0294    0.0754    0.0202    0.0278   -0.0394   -0.0022    0.0080
          42   -0.0240    0.0300   -0.0376    0.0218   -0.0413   -0.0012    0.0636    0.1074
          43   -0.0821   -0.0760   -0.0220   -0.0496    0.0743   -0.0144   -0.1170    0.1853
          44    0.0489   -0.0293    0.0754   -0.0204   -0.0277   -0.0393    0.0021    0.0080
          45    0.0240    0.0300    0.0376    0.0217   -0.0413    0.0013    0.0644   -0.1069
          46   -0.0761   -0.0260   -0.0082   -0.0135   -0.0354    0.0295   -0.1703   -0.1520
          47   -0.1006    0.0009   -0.0583   -0.0569   -0.0152    0.0037    0.0029    0.0029
          48    0.0839   -0.0020   -0.0138    0.0048    0.0284   -0.0196    0.0961    0.0941
          49   -0.0762    0.0260   -0.0083    0.0135    0.0354    0.0295    0.1713   -0.1506
          50   -0.1005   -0.0011   -0.0583    0.0570    0.0151    0.0037   -0.0030    0.0029
          51   -0.0838   -0.0020    0.0138    0.0047    0.0284    0.0197    0.0967   -0.0933


   Root No.      25        26        27        28        29        30        31        32

                25 A      26 A      27 A      28 A      29 A      30 A      31 A      32 A   

                1229.3    1246.3    1346.8    1389.2    1390.4    1407.5    1408.7    1410.1
  
           1    0.0000    0.0558    0.0380   -0.0126    0.0000    0.0405   -0.0004    0.0235
           2   -0.0000   -0.0345   -0.0101   -0.0029    0.0000   -0.0149    0.0002   -0.0150
           3   -0.0219    0.0000   -0.0000    0.0002    0.0827   -0.0000   -0.0085   -0.0000
           4   -0.0000   -0.0125   -0.0230   -0.0348    0.0002    0.0254   -0.0002    0.0069
           5    0.0000    0.0020    0.0021    0.0023    0.0000   -0.0012    0.0000   -0.0000
           6    0.0222   -0.0000   -0.0000    0.0002    0.0660   -0.0000   -0.0119   -0.0000
           7   -0.0000   -0.0204   -0.0043   -0.0133    0.0001   -0.0191    0.0005   -0.0625
           8    0.0000    0.0067   -0.0052    0.0277   -0.0002    0.0349   -0.0003    0.0126
           9    0.0074   -0.0000    0.0000   -0.0001   -0.0173   -0.0001   -0.0370   -0.0003
          10    0.0153    0.0139   -0.0081    0.0139   -0.0059   -0.0132    0.0020   -0.0037
          11    0.0013    0.0072    0.0009    0.0006    0.0001    0.0013    0.0002    0.0011
          12   -0.0116   -0.0095    0.0182   -0.0133   -0.0282    0.0150    0.0019    0.0037
          13   -0.0153    0.0139   -0.0081    0.0139    0.0058   -0.0132   -0.0017   -0.0038
          14   -0.0013    0.0072    0.0009    0.0006   -0.0001    0.0012   -0.0002    0.0011
          15   -0.0116    0.0095   -0.0182    0.0132   -0.0283   -0.0150    0.0022   -0.0037
          16   -0.0148    0.0026   -0.0147    0.0120   -0.0111   -0.0153    0.0014   -0.0049
          17    0.0009   -0.0031   -0.0000   -0.0009   -0.0007    0.0003    0.0002   -0.0002
          18    0.0115   -0.0262    0.0093   -0.0163   -0.0195    0.0138    0.0043    0.0027
          19    0.0148    0.0026   -0.0147    0.0120    0.0110   -0.0153   -0.0011   -0.0049
          20   -0.0009   -0.0031   -0.0000   -0.0009    0.0007    0.0003   -0.0002   -0.0002
          21    0.0116    0.0262   -0.0093    0.0162   -0.0196   -0.0138    0.0045   -0.0027
          22   -0.0000   -0.1280   -0.0354    0.0001    0.0000   -0.0359    0.0004   -0.0294
          23    0.0000    0.0632    0.0287   -0.0093    0.0000    0.0258   -0.0002    0.0121
          24    0.0569   -0.0000    0.0000   -0.0003   -0.0952   -0.0000    0.0010   -0.0001
          25   -0.0000   -0.0527    0.1552    0.0795   -0.0003   -0.0410    0.0003   -0.0098
          26    0.0000    0.0312   -0.1330   -0.0846    0.0004    0.0493   -0.0004    0.0126
          27   -0.0794    0.0000    0.0000   -0.0003   -0.0959    0.0000    0.0158    0.0001
          28   -0.0000   -0.0622    0.1709    0.0914   -0.0004   -0.0499    0.0004   -0.0131
          29   -0.0000   -0.0251    0.1088    0.0718   -0.0003   -0.0426    0.0004   -0.0111
          30   -0.0772    0.0000   -0.0000   -0.0003   -0.0886    0.0001    0.0145    0.0000
          31   -0.0000   -0.0378   -0.0419    0.1254   -0.0006    0.1444   -0.0011    0.0074
          32    0.0000    0.0178    0.0175   -0.0525    0.0003   -0.0602    0.0004   -0.0087
          33   -0.0079   -0.0000   -0.0000    0.0002    0.0533    0.0014    0.3784    0.0027
          34   -0.0220   -0.0495   -0.0203    0.0058    0.0422   -0.0501    0.0510    0.3000
          35    0.0203    0.0762    0.0619   -0.1220   -0.0121   -0.1103    0.2274    0.0039
          36   -0.0084   -0.0134   -0.0047   -0.0028    0.0174   -0.0368    0.0417    0.2353
          37    0.0220   -0.0496   -0.0203    0.0055   -0.0425   -0.0505   -0.0537    0.2992
          38   -0.0203    0.0762    0.0619   -0.1219    0.0133   -0.1120   -0.2258    0.0008
          39   -0.0084    0.0134    0.0047    0.0029    0.0176    0.0372    0.0438   -0.2347
          40    0.1431   -0.0289    0.0687   -0.0474   -0.0457    0.0564    0.0096    0.0068
          41    0.0012   -0.0145   -0.0030   -0.0000   -0.0031   -0.0027    0.0008    0.0009
          42    0.0809   -0.0157    0.0256   -0.0229   -0.0601    0.0256    0.0090    0.0030
          43   -0.1430   -0.0289    0.0687   -0.0471    0.0462    0.0563   -0.0104    0.0067
          44   -0.0012   -0.0145   -0.0030   -0.0000    0.0031   -0.0027   -0.0007    0.0009
          45    0.0808    0.0157   -0.0256    0.0226   -0.0603   -0.0255    0.0094   -0.0029
          46    0.1132   -0.1140    0.0345   -0.0535    0.0493    0.0456   -0.0042    0.0111
          47   -0.0025   -0.0005   -0.0018    0.0008   -0.0044   -0.0027    0.0005   -0.0023
          48   -0.0638    0.0407   -0.0208    0.0214   -0.0579   -0.0219    0.0082   -0.0069
          49   -0.1133   -0.1140    0.0346   -0.0538   -0.0488    0.0456    0.0035    0.0110
          50    0.0026   -0.0005   -0.0018    0.0008    0.0044   -0.0027   -0.0004   -0.0023
          51   -0.0638   -0.0407    0.0208   -0.0217   -0.0577    0.0220    0.0078    0.0070


   Root No.      33        34        35        36        37        38        39        40

                33 A      34 A      35 A      36 A      37 A      38 A      39 A      40 A   

                1468.9    1875.7    1894.9    2845.9    2932.0    3009.9    3042.5    3043.8
  
           1   -0.0000    0.0000   -0.0297   -0.0330    0.0001    0.0002    0.0000   -0.0001
           2   -0.0000   -0.0000    0.0001   -0.0619    0.0003    0.0001    0.0000   -0.0003
           3   -0.0838   -0.0273   -0.0000    0.0000   -0.0000    0.0000   -0.0003   -0.0000
           4   -0.0000   -0.0000    0.0288   -0.0000   -0.0032    0.0383   -0.0000   -0.0019
           5    0.0000   -0.0000   -0.0012   -0.0000   -0.0607   -0.0011    0.0000   -0.0001
           6    0.1051   -0.0294   -0.0000   -0.0000    0.0000    0.0000    0.0002    0.0000
           7    0.0000    0.0000   -0.0018    0.0019   -0.0000   -0.0000   -0.0000   -0.0004
           8   -0.0000    0.0000    0.0008    0.0006   -0.0000   -0.0000   -0.0000   -0.0003
           9    0.0078   -0.0019   -0.0000    0.0000    0.0000    0.0000   -0.0003   -0.0000
          10   -0.0259   -0.1358    0.1366   -0.0003   -0.0001   -0.0001   -0.0111   -0.0107
          11   -0.0009    0.0004   -0.0005   -0.0000   -0.0003   -0.0000    0.0009    0.0009
          12    0.0473    0.0218   -0.0189    0.0013    0.0000   -0.0000   -0.0179   -0.0175
          13    0.0259    0.1355    0.1369   -0.0003   -0.0001   -0.0001    0.0112   -0.0107
          14    0.0009   -0.0004   -0.0004   -0.0000   -0.0003   -0.0000   -0.0010    0.0009
          15    0.0473    0.0218    0.0190   -0.0013   -0.0000    0.0000   -0.0180    0.0175
          16    0.0228   -0.1355   -0.1367    0.0006    0.0002   -0.0021    0.0084   -0.0077
          17   -0.0020    0.0016    0.0017   -0.0003   -0.0000   -0.0002    0.0006   -0.0005
          18   -0.0550    0.0233    0.0200   -0.0000    0.0001   -0.0042    0.0146   -0.0138
          19   -0.0228    0.1359   -0.1363    0.0006    0.0002   -0.0021   -0.0084   -0.0078
          20    0.0020   -0.0016    0.0017   -0.0003   -0.0000   -0.0002   -0.0006   -0.0005
          21   -0.0550    0.0233   -0.0199    0.0000   -0.0001    0.0042    0.0147    0.0139
          22   -0.0000    0.0000   -0.0043    0.3956   -0.0005   -0.0005   -0.0000    0.0022
          23    0.0000   -0.0000   -0.0061    0.7607   -0.0013   -0.0009   -0.0000    0.0041
          24    0.0655   -0.0216   -0.0000   -0.0000    0.0000    0.0000   -0.0020   -0.0000
          25   -0.0000   -0.0000    0.0181    0.0006    0.3019   -0.2624    0.0000    0.0152
          26   -0.0000   -0.0000    0.0019    0.0002    0.3339   -0.3449    0.0000    0.0192
          27   -0.0994   -0.0284   -0.0000   -0.0000   -0.0000    0.0000    0.0022    0.0000
          28   -0.0000   -0.0000    0.0130   -0.0014   -0.2644   -0.1965    0.0000    0.0104
          29   -0.0000    0.0000   -0.0046    0.0019    0.3995    0.3589   -0.0000   -0.0186
          30   -0.0940   -0.0242   -0.0000    0.0000   -0.0001   -0.0001    0.0019    0.0000
          31   -0.0000    0.0000   -0.0015   -0.0112   -0.0000    0.0001    0.0000    0.0013
          32    0.0000    0.0000   -0.0001   -0.0125   -0.0000    0.0002    0.0000    0.0030
          33    0.0084    0.0007    0.0000   -0.0000    0.0000   -0.0000   -0.0001   -0.0000
          34   -0.0245   -0.0006   -0.0003   -0.0036   -0.0000   -0.0000   -0.0009    0.0023
          35    0.0391    0.0040   -0.0015   -0.0038    0.0000    0.0000    0.0001   -0.0001
          36   -0.0079   -0.0044    0.0019    0.0087    0.0000    0.0000    0.0004   -0.0027
          37    0.0245    0.0006   -0.0003   -0.0036   -0.0000   -0.0000    0.0009    0.0024
          38   -0.0391   -0.0040   -0.0015   -0.0038    0.0000    0.0000   -0.0001   -0.0001
          39   -0.0079   -0.0044   -0.0019   -0.0087   -0.0000   -0.0000    0.0004    0.0027
          40   -0.0549    0.0196    0.0066   -0.0071    0.0000   -0.0017   -0.1271    0.1212
          41    0.0010   -0.0022   -0.0034   -0.0016   -0.0008    0.0001    0.0114   -0.0109
          42   -0.0017   -0.0742   -0.0858    0.0070    0.0001    0.0019    0.2186   -0.2080
          43    0.0549   -0.0196    0.0065   -0.0070    0.0000   -0.0017    0.1262    0.1213
          44   -0.0010    0.0022   -0.0034   -0.0016   -0.0008    0.0001   -0.0113   -0.0109
          45   -0.0017   -0.0744    0.0856   -0.0070   -0.0001   -0.0019    0.2170    0.2081
          46   -0.0515   -0.0185   -0.0056    0.0017   -0.0015    0.0287   -0.1032    0.0953
          47   -0.0006   -0.0027   -0.0041   -0.0009   -0.0018    0.0015   -0.0069    0.0064
          48   -0.0117   -0.0729   -0.0846    0.0023   -0.0016    0.0425   -0.1773    0.1640
          49    0.0514    0.0186   -0.0056    0.0017   -0.0015    0.0288    0.1032    0.0963
          50    0.0006    0.0027   -0.0040   -0.0009   -0.0018    0.0015    0.0069    0.0064
          51   -0.0117   -0.0731    0.0845   -0.0023    0.0016   -0.0426   -0.1774   -0.1656


   Root No.      41        42        43        44        45

                41 A      42 A      43 A      44 A      45 A   

                3062.3    3065.0    3083.6    3085.4    3181.5
  
           1   -0.0000    0.0007    0.0000   -0.0006    0.0006
           2   -0.0000    0.0003    0.0000   -0.0010   -0.0004
           3   -0.0001    0.0000   -0.0004   -0.0000    0.0000
           4    0.0000   -0.0032    0.0000   -0.0001   -0.0000
           5    0.0000   -0.0000   -0.0000   -0.0000    0.0000
           6   -0.0000   -0.0000   -0.0000    0.0000    0.0000
           7   -0.0000    0.0005    0.0003   -0.0363    0.0159
           8   -0.0000    0.0005    0.0003   -0.0333   -0.0187
           9   -0.0001   -0.0000   -0.0575   -0.0004    0.0000
          10   -0.0120    0.0110   -0.0004    0.0006   -0.0002
          11    0.0008   -0.0007    0.0002   -0.0002    0.0000
          12   -0.0146    0.0135    0.0002    0.0006   -0.0001
          13    0.0119    0.0111    0.0004    0.0006   -0.0002
          14   -0.0008   -0.0007   -0.0002   -0.0002    0.0000
          15   -0.0144   -0.0136    0.0002   -0.0006    0.0001
          16   -0.0139   -0.0131   -0.0001   -0.0002    0.0000
          17   -0.0007   -0.0006   -0.0000   -0.0000   -0.0000
          18   -0.0178   -0.0170   -0.0000   -0.0002    0.0000
          19    0.0140   -0.0130    0.0001   -0.0002    0.0000
          20    0.0007   -0.0006    0.0000   -0.0000   -0.0000
          21   -0.0179    0.0168   -0.0000    0.0002   -0.0000
          22    0.0000   -0.0024   -0.0000    0.0027    0.0001
          23    0.0000   -0.0049   -0.0001    0.0135   -0.0012
          24   -0.0014   -0.0000   -0.0013   -0.0000    0.0000
          25   -0.0001    0.0201   -0.0000    0.0004    0.0000
          26   -0.0001    0.0253   -0.0000    0.0005    0.0000
          27   -0.0025   -0.0000    0.0000   -0.0000   -0.0000
          28   -0.0001    0.0138   -0.0000    0.0002    0.0000
          29    0.0001   -0.0248    0.0000   -0.0004   -0.0001
          30   -0.0020   -0.0000    0.0000   -0.0000    0.0000
          31    0.0000   -0.0025   -0.0017    0.1892    0.1590
          32    0.0000   -0.0055   -0.0036    0.3967    0.2945
          33   -0.0001   -0.0000   -0.0296   -0.0002    0.0000
          34   -0.0002   -0.0029   -0.2756    0.1209   -0.1775
          35    0.0001    0.0001   -0.0355    0.0009   -0.0322
          36   -0.0004    0.0038    0.3597   -0.1968    0.2602
          37    0.0002   -0.0029    0.2732    0.1246   -0.1775
          38   -0.0001    0.0001    0.0354    0.0013   -0.0322
          39   -0.0004   -0.0038    0.3560    0.2017   -0.2603
          40   -0.1036   -0.0954    0.0015   -0.0049    0.0015
          41    0.0091    0.0084   -0.0005    0.0004   -0.0003
          42    0.1736    0.1595   -0.0004    0.0076   -0.0017
          43    0.1051   -0.0951   -0.0014   -0.0050    0.0015
          44   -0.0092    0.0083    0.0005    0.0004   -0.0003
          45    0.1761   -0.1589   -0.0003   -0.0077    0.0017
          46    0.1283    0.1197    0.0004    0.0017   -0.0001
          47    0.0084    0.0078    0.0001    0.0001   -0.0000
          48    0.2150    0.2004    0.0007    0.0027   -0.0001
          49   -0.1290    0.1183   -0.0005    0.0017   -0.0001
          50   -0.0083    0.0076   -0.0001    0.0001   -0.0000
          51    0.2160   -0.1981    0.0008   -0.0027    0.0001


           MASS-WEIGHTED COORDINATE ANALYSIS (NORMAL COORDINATES)


   Root No.       1         2         3         4         5         6         7         8

                 1 A       2 A       3 A       4 A       5 A       6 A       7 A       8 A   

                  67.6     182.4     274.8     303.1     437.2     485.0     556.8     591.2
  
           1   -0.0704   -0.0000   -0.0307    0.0000    0.0000   -0.2963    0.2837   -0.0001
           2   -0.0747   -0.0001   -0.3184    0.0004   -0.0001    0.1362    0.3901   -0.0001
           3   -0.0000   -0.0132   -0.0002   -0.2429   -0.1811   -0.0000   -0.0001   -0.1920
           4   -0.0384   -0.0000   -0.1009    0.0001   -0.0001    0.3867   -0.2517    0.0001
           5    0.4420   -0.0000   -0.1738    0.0001   -0.0000   -0.0251    0.0483   -0.0000
           6   -0.0000   -0.0193    0.0001    0.0821    0.0725    0.0000    0.0000    0.2002
           7    0.3162    0.0001    0.3235   -0.0005    0.0002   -0.3646   -0.0945    0.0000
           8    0.2934    0.0000    0.0300   -0.0001   -0.0000    0.1970    0.0346   -0.0000
           9    0.0000    0.0915    0.0004    0.4302    0.3097    0.0000    0.0000   -0.0632
          10   -0.0635   -0.0023   -0.0590    0.1170    0.0617    0.0661    0.0417   -0.3276
          11   -0.3177   -0.0493   -0.1374    0.1363   -0.3928   -0.2146   -0.1667    0.0368
          12   -0.0068   -0.0169   -0.0150   -0.1683   -0.1771    0.2262   -0.2121   -0.3012
          13   -0.0636    0.0022   -0.0593   -0.1167   -0.0618    0.0661    0.0418    0.3276
          14   -0.3178    0.0493   -0.1379   -0.1359    0.3928   -0.2144   -0.1667   -0.0367
          15    0.0068   -0.0168    0.0148   -0.1684   -0.1770   -0.2262    0.2120   -0.3013
          16   -0.0635    0.0022   -0.0613   -0.1244   -0.0816    0.0993    0.0313    0.3349
          17   -0.0632    0.1023    0.3563    0.3413   -0.2300    0.0931    0.0873    0.0181
          18    0.0054   -0.0221    0.0017   -0.0230    0.0111   -0.2114    0.2047    0.3350
          19   -0.0634   -0.0023   -0.0609    0.1246    0.0816    0.0994    0.0311   -0.3349
          20   -0.0633   -0.1021    0.3555   -0.3422    0.2301    0.0934    0.0872   -0.0180
          21   -0.0054   -0.0221   -0.0019   -0.0229    0.0109    0.2114   -0.2045    0.3351
          22   -0.1167   -0.0000   -0.0545    0.0000    0.0000   -0.1682    0.0784   -0.0000
          23    0.0297   -0.0000   -0.0634    0.0001   -0.0000    0.0810    0.1082   -0.0000
          24   -0.0000   -0.0129   -0.0002   -0.1635    0.0255    0.0000    0.0000   -0.0048
          25   -0.1645    0.0000    0.1849   -0.0002   -0.0000    0.2193    0.0865    0.0000
          26    0.2626   -0.0000   -0.2410    0.0002   -0.0000   -0.1036   -0.1318   -0.0000
          27   -0.0001   -0.0281   -0.0000   -0.0433    0.1230    0.0000   -0.0000   -0.0294
          28    0.1602   -0.0001   -0.2694    0.0003   -0.0001    0.0026   -0.2600    0.0000
          29    0.2389   -0.0000   -0.2081    0.0002   -0.0000   -0.0814   -0.1121   -0.0000
          30   -0.0000    0.0186    0.0003    0.1440   -0.0557    0.0000    0.0001    0.0026
          31    0.1928    0.0000    0.2064   -0.0003    0.0001   -0.1409   -0.2028    0.0001
          32    0.0374   -0.0001   -0.0430    0.0001   -0.0000    0.0717    0.0892   -0.0000
          33   -0.0000    0.6019   -0.0001    0.0916    0.1258    0.0001    0.0000   -0.0046
          34    0.0864   -0.3349    0.0883    0.1484    0.0983   -0.1042   -0.0204    0.0111
          35    0.1504   -0.3536    0.0819   -0.0365   -0.0700    0.0379   -0.1041   -0.0187
          36    0.0005   -0.2416    0.0004    0.2331    0.1609    0.0004   -0.0007   -0.0122
          37    0.0863    0.3350    0.0878   -0.1487   -0.0982   -0.1042   -0.0204   -0.0111
          38    0.1504    0.3537    0.0817    0.0364    0.0701    0.0380   -0.1041    0.0188
          39   -0.0004   -0.2415    0.0002    0.2330    0.1609   -0.0004    0.0007   -0.0122
          40   -0.0205   -0.0023   -0.0233   -0.0619   -0.0379    0.0716   -0.0336    0.0431
          41   -0.1986    0.0284   -0.0364   -0.1050    0.2952   -0.1893   -0.3287   -0.0329
          42    0.0064   -0.0077    0.0004   -0.0610   -0.0713   -0.0268    0.0481   -0.1159
          43   -0.0205    0.0023   -0.0232    0.0621    0.0378    0.0716   -0.0336   -0.0430
          44   -0.1986   -0.0284   -0.0360    0.1052   -0.2952   -0.1894   -0.3288    0.0330
          45   -0.0065   -0.0078   -0.0005   -0.0610   -0.0713    0.0268   -0.0482   -0.1159
          46   -0.0215    0.0012   -0.0145   -0.0703   -0.0578   -0.0217    0.0592    0.0489
          47   -0.0611    0.0601    0.2768    0.2257   -0.1684    0.0542   -0.0862    0.0081
          48    0.0053   -0.0080   -0.0086    0.0087    0.0271   -0.0310    0.0331    0.1244
          49   -0.0215   -0.0012   -0.0143    0.0703    0.0579   -0.0216    0.0591   -0.0489
          50   -0.0612   -0.0600    0.2762   -0.2263    0.1685    0.0543   -0.0863   -0.0080
          51   -0.0052   -0.0079    0.0085    0.0087    0.0271    0.0310   -0.0330    0.1244


   Root No.       9        10        11        12        13        14        15        16

                 9 A      10 A      11 A      12 A      13 A      14 A      15 A      16 A   

                 750.2     780.8     853.3     906.9     947.5     965.6     972.7     994.5
  
           1    0.0561   -0.0000   -0.2412    0.1128    0.0553   -0.0001   -0.0001    0.1050
           2    0.1137   -0.0000   -0.2452    0.0945    0.0653   -0.0001   -0.0000    0.1024
           3   -0.0000   -0.0057    0.0000   -0.0001   -0.0002   -0.1816   -0.0335   -0.0000
           4   -0.1071   -0.0001   -0.2436    0.1051   -0.2236    0.0002   -0.0003    0.2526
           5   -0.2274    0.0000    0.1909    0.3867   -0.0510    0.0000   -0.0002    0.1965
           6    0.0000    0.0044   -0.0000   -0.0001   -0.0001   -0.0968   -0.0245   -0.0000
           7   -0.1355   -0.0001   -0.2696    0.1296    0.2461   -0.0003    0.0000   -0.1065
           8    0.1448    0.0001    0.1052    0.0328   -0.0181    0.0000   -0.0000   -0.0402
           9   -0.0000   -0.0020    0.0000   -0.0001   -0.0002   -0.3409    0.0076    0.0000
          10    0.0600    0.0075    0.1789   -0.0630    0.0695    0.0268    0.0044   -0.0633
          11   -0.2038   -0.2234   -0.0456   -0.2101    0.0168   -0.0583    0.2434    0.0688
          12   -0.0912   -0.0199    0.0800   -0.0473    0.4932    0.2233    0.0576    0.0638
          13    0.0601   -0.0073    0.1790   -0.0629    0.0695   -0.0269   -0.0042   -0.0633
          14   -0.2038    0.2232   -0.0458   -0.2101    0.0168    0.0584   -0.2433    0.0684
          15    0.0913   -0.0200   -0.0800    0.0474   -0.4928    0.2240    0.0576   -0.0639
          16    0.0678   -0.0160    0.2086   -0.0696    0.0026    0.0587    0.0253   -0.0393
          17   -0.0555    0.2013   -0.0182   -0.1198    0.0252   -0.0177    0.2167   -0.2361
          18    0.1307   -0.0185    0.3402   -0.0906    0.1097    0.1048    0.0179    0.1885
          19    0.0677    0.0161    0.2086   -0.0697    0.0025   -0.0587   -0.0253   -0.0393
          20   -0.0554   -0.2013   -0.0182   -0.1197    0.0252    0.0178   -0.2164   -0.2365
          21   -0.1307   -0.0187   -0.3402    0.0907   -0.1095    0.1047    0.0184   -0.1885
          22   -0.0822   -0.0001   -0.1145   -0.0812   -0.0940    0.0002   -0.0002    0.3014
          23    0.0851    0.0000   -0.0426    0.0843    0.0674   -0.0002    0.0000   -0.1121
          24   -0.0001    0.1118   -0.0000   -0.0003   -0.0003   -0.2875   -0.2502    0.0002
          25   -0.2692   -0.0000    0.0429    0.3009   -0.1309    0.0001   -0.0003    0.2301
          26    0.1507   -0.0000   -0.0511   -0.1313    0.0373   -0.0000    0.0001   -0.0839
          27    0.0001   -0.0928    0.0000   -0.0000   -0.0000   -0.1214   -0.2291   -0.0002
          28    0.2305   -0.0001   -0.2312   -0.2601   -0.0482    0.0001    0.0000   -0.0501
          29    0.1116    0.0000   -0.0496   -0.0838    0.0024   -0.0000    0.0001   -0.0255
          30   -0.0000    0.1340    0.0001    0.0001   -0.0002   -0.1721    0.1878    0.0002
          31   -0.1633   -0.0000    0.1130   -0.2023   -0.1983    0.0003   -0.0001    0.1957
          32    0.0972    0.0000   -0.0560    0.1170    0.1149   -0.0002    0.0000   -0.1121
          33   -0.0000    0.0262   -0.0001    0.0000    0.0001    0.1395   -0.0202   -0.0000
          34   -0.0424    0.0255   -0.0925    0.0387    0.0843    0.3407   -0.0168   -0.0339
          35   -0.0265   -0.0294    0.1796   -0.1492   -0.2080   -0.3406    0.0187    0.1345
          36   -0.0045    0.0173   -0.0020   -0.0057   -0.0008    0.1377   -0.0101    0.0032
          37   -0.0424   -0.0255   -0.0924    0.0385    0.0838   -0.3409    0.0169   -0.0338
          38   -0.0265    0.0295    0.1795   -0.1491   -0.2075    0.3411   -0.0188    0.1345
          39    0.0045    0.0173    0.0020    0.0057    0.0010    0.1377   -0.0101   -0.0033
          40    0.0086   -0.0101    0.0490   -0.0154   -0.0912   -0.0178   -0.0035   -0.1893
          41    0.1763   -0.4227    0.1724    0.4131   -0.0371   -0.0300    0.4027   -0.1128
          42    0.0086    0.0154   -0.0355   -0.0088   -0.2080    0.0611   -0.0104   -0.1095
          43    0.0086    0.0101    0.0489   -0.0153   -0.0912    0.0179    0.0037   -0.1894
          44    0.1763    0.4229    0.1721    0.4129   -0.0372    0.0298   -0.4027   -0.1134
          45   -0.0085    0.0155    0.0354    0.0088    0.2081    0.0608   -0.0105    0.1095
          46    0.0565   -0.0082    0.1024   -0.0438   -0.1398    0.1393    0.0432   -0.1945
          47    0.4692   -0.4554   -0.1194   -0.0054   -0.0044    0.0347   -0.3854    0.2776
          48   -0.0022    0.0167    0.0805   -0.0145    0.1122   -0.0427    0.0017    0.1491
          49    0.0567    0.0084    0.1024   -0.0439   -0.1400   -0.1391   -0.0427   -0.1944
          50    0.4691    0.4555   -0.1197   -0.0054   -0.0046   -0.0347    0.3852    0.2782
          51    0.0021    0.0165   -0.0805    0.0144   -0.1123   -0.0426    0.0019   -0.1492


   Root No.      17        18        19        20        21        22        23        24

                17 A      18 A      19 A      20 A      21 A      22 A      23 A      24 A   

                1011.4    1032.6    1049.9    1066.8    1078.8    1107.1    1152.0    1158.8
  
           1    0.0127    0.0002    0.2502   -0.0002   -0.0000    0.0084    0.0004   -0.1074
           2   -0.0912    0.0000    0.1876   -0.0001   -0.0002   -0.4470   -0.0001    0.0576
           3   -0.0000    0.0799   -0.0001    0.0269    0.0244    0.0001    0.1186    0.0005
           4    0.3958    0.0000   -0.1386    0.0001    0.0000    0.0116    0.0001   -0.0387
           5   -0.2196   -0.0002   -0.1174    0.0002   -0.0001    0.0313    0.0001   -0.0174
           6    0.0000    0.1581   -0.0000    0.0692   -0.1279    0.0000    0.0055    0.0000
           7   -0.0061   -0.0001   -0.1742    0.0001    0.0000   -0.0083   -0.0002    0.0350
           8    0.0666    0.0001    0.0367   -0.0000    0.0002    0.4473   -0.0002    0.0186
           9    0.0001   -0.2133    0.0002   -0.0410   -0.0566    0.0000   -0.0353   -0.0002
          10   -0.0984   -0.0781    0.0226   -0.0430    0.0899   -0.0092   -0.0145    0.0355
          11   -0.0891    0.1236   -0.2506    0.0776    0.1429    0.0750   -0.0265   -0.0302
          12   -0.1389   -0.0736    0.1395   -0.0138   -0.0294   -0.0253   -0.0404   -0.0030
          13   -0.0984    0.0781    0.0226    0.0429   -0.0899   -0.0092    0.0143    0.0358
          14   -0.0891   -0.1241   -0.2505   -0.0772   -0.1431    0.0751    0.0267   -0.0300
          15    0.1389   -0.0737   -0.1394   -0.0135   -0.0294    0.0252   -0.0404    0.0027
          16   -0.0143   -0.0184   -0.0376    0.0115   -0.0579    0.0012   -0.0241   -0.0288
          17    0.2305   -0.0306    0.1687    0.2367    0.0818   -0.0444   -0.0114    0.0139
          18    0.2648   -0.1637   -0.1498   -0.0623    0.1104   -0.0118   -0.0204    0.0445
          19   -0.0143    0.0184   -0.0376   -0.0114    0.0578    0.0012    0.0243   -0.0287
          20    0.2302    0.0311    0.1684   -0.2371   -0.0816   -0.0443    0.0113    0.0139
          21   -0.2647   -0.1636    0.1499   -0.0624    0.1103    0.0118   -0.0200   -0.0448
          22   -0.1127    0.0003    0.5312   -0.0004    0.0001    0.4010   -0.0008    0.1786
          23    0.0337   -0.0001   -0.1821    0.0001   -0.0000   -0.3360    0.0004   -0.0891
          24   -0.0004    0.4595   -0.0004   -0.0374    0.6635   -0.0003   -0.2200   -0.0009
          25    0.0458   -0.0002   -0.1381    0.0002   -0.0000    0.0251    0.0002   -0.0455
          26    0.0023    0.0001    0.0504    0.0000   -0.0000   -0.0089   -0.0001    0.0166
          27    0.0000    0.1765    0.0005    0.7359   -0.2844   -0.0000   -0.3078   -0.0011
          28    0.2995    0.0002    0.0208   -0.0001   -0.0000   -0.0129    0.0001   -0.0276
          29    0.0557    0.0001    0.0084   -0.0001   -0.0001   -0.0027   -0.0000   -0.0091
          30   -0.0002    0.5124   -0.0008   -0.5000   -0.4387    0.0001   -0.2162   -0.0006
          31   -0.0975    0.0000    0.1661   -0.0001   -0.0002   -0.4125    0.0001   -0.0104
          32    0.0621   -0.0000   -0.0841    0.0001    0.0001    0.3181   -0.0001    0.0148
          33   -0.0001    0.0955   -0.0001    0.0091    0.0491   -0.0000    0.0022    0.0000
          34   -0.0136    0.1981   -0.0550    0.0298    0.0700   -0.0215    0.0205    0.0367
          35   -0.0256   -0.2024    0.1599   -0.0318   -0.0675   -0.0785   -0.0241   -0.0390
          36   -0.0087    0.0767    0.0014    0.0081    0.0355   -0.0242    0.0025    0.0131
          37   -0.0133   -0.1982   -0.0546   -0.0298   -0.0700   -0.0214   -0.0208    0.0365
          38   -0.0259    0.2025    0.1596    0.0315    0.0673   -0.0786    0.0245   -0.0388
          39    0.0085    0.0767   -0.0016    0.0081    0.0355    0.0242    0.0026   -0.0131
          40   -0.1867    0.2110   -0.0548    0.1038   -0.1933   -0.0270    0.3060    0.4534
          41    0.1113    0.0819    0.1870    0.0423    0.0723   -0.0743   -0.0057    0.0194
          42   -0.0545    0.0833   -0.0933    0.0455   -0.1074   -0.0024    0.1683    0.2615
          43   -0.1867   -0.2113   -0.0546   -0.1037    0.1934   -0.0272   -0.3095    0.4512
          44    0.1111   -0.0814    0.1871   -0.0426   -0.0720   -0.0743    0.0056    0.0194
          45    0.0545    0.0836    0.0933    0.0454   -0.1075    0.0025    0.1703   -0.2603
          46   -0.1730   -0.0723   -0.0204   -0.0282   -0.0923    0.0557   -0.4505   -0.3703
          47   -0.2287    0.0024   -0.1446   -0.1190   -0.0395    0.0071    0.0077    0.0070
          48    0.1907   -0.0054   -0.0341    0.0099    0.0740   -0.0371    0.2542    0.2292
          49   -0.1732    0.0723   -0.0206    0.0283    0.0922    0.0558    0.4533   -0.3667
          50   -0.2285   -0.0031   -0.1445    0.1193    0.0394    0.0070   -0.0079    0.0071
          51   -0.1906   -0.0054    0.0342    0.0099    0.0739    0.0371    0.2559   -0.2272


   Root No.      25        26        27        28        29        30        31        32

                25 A      26 A      27 A      28 A      29 A      30 A      31 A      32 A   

                1229.3    1246.3    1346.8    1389.2    1390.4    1407.5    1408.7    1410.1
  
           1    0.0001    0.4776    0.3369   -0.1187    0.0003    0.3624   -0.0027    0.1369
           2   -0.0000   -0.2954   -0.0899   -0.0276    0.0002   -0.1339    0.0012   -0.0872
           3   -0.2060    0.0001   -0.0001    0.0022    0.6017   -0.0002   -0.0557   -0.0000
           4   -0.0001   -0.1070   -0.2039   -0.3285    0.0011    0.2277   -0.0014    0.0399
           5    0.0000    0.0173    0.0190    0.0218    0.0000   -0.0106    0.0000   -0.0000
           6    0.2083   -0.0001   -0.0000    0.0018    0.4798   -0.0003   -0.0784   -0.0002
           7   -0.0000   -0.1748   -0.0379   -0.1254    0.0007   -0.1707    0.0032   -0.3637
           8    0.0000    0.0577   -0.0463    0.2617   -0.0011    0.3129   -0.0021    0.0731
           9    0.0698   -0.0000    0.0000   -0.0005   -0.1260   -0.0012   -0.2433   -0.0016
          10    0.1440    0.1189   -0.0718    0.1309   -0.0431   -0.1184    0.0129   -0.0218
          11    0.0120    0.0615    0.0083    0.0060    0.0005    0.0112    0.0011    0.0064
          12   -0.1090   -0.0814    0.1616   -0.1258   -0.2048    0.1340    0.0127    0.0214
          13   -0.1439    0.1189   -0.0718    0.1312    0.0421   -0.1185   -0.0115   -0.0219
          14   -0.0121    0.0615    0.0082    0.0060   -0.0005    0.0112   -0.0013    0.0064
          15   -0.1089    0.0814   -0.1616    0.1243   -0.2058   -0.1339    0.0142   -0.0215
          16   -0.1396    0.0224   -0.1301    0.1131   -0.0808   -0.1366    0.0092   -0.0288
          17    0.0081   -0.0266   -0.0004   -0.0086   -0.0051    0.0026    0.0014   -0.0010
          18    0.1085   -0.2243    0.0826   -0.1540   -0.1415    0.1237    0.0284    0.0158
          19    0.1396    0.0223   -0.1301    0.1136    0.0800   -0.1367   -0.0075   -0.0288
          20   -0.0082   -0.0265   -0.0004   -0.0085    0.0051    0.0026   -0.0013   -0.0010
          21    0.1086    0.2243   -0.0826    0.1529   -0.1427   -0.1235    0.0298   -0.0156
          22   -0.0001   -0.3176   -0.0910    0.0003    0.0000   -0.0933    0.0008   -0.0496
          23    0.0000    0.1567    0.0738   -0.0255    0.0001    0.0670   -0.0005    0.0203
          24    0.1551   -0.0000    0.0000   -0.0008   -0.2005   -0.0000    0.0019   -0.0001
          25   -0.0001   -0.1307    0.3988    0.2173   -0.0007   -0.1063    0.0006   -0.0165
          26    0.0000    0.0775   -0.3416   -0.2313    0.0008    0.1279   -0.0008    0.0213
          27   -0.2163    0.0001    0.0000   -0.0007   -0.2020    0.0001    0.0302    0.0001
          28   -0.0001   -0.1543    0.4391    0.2499   -0.0009   -0.1294    0.0008   -0.0222
          29   -0.0001   -0.0623    0.2795    0.1962   -0.0007   -0.1106    0.0007   -0.0187
          30   -0.2102    0.0000   -0.0000   -0.0008   -0.1866    0.0001    0.0276    0.0001
          31   -0.0000   -0.0938   -0.1076    0.3425   -0.0013    0.3746   -0.0021    0.0125
          32    0.0000    0.0441    0.0450   -0.1434    0.0005   -0.1561    0.0008   -0.0147
          33   -0.0216   -0.0000   -0.0001    0.0006    0.1122    0.0037    0.7208    0.0046
          34   -0.0599   -0.1229   -0.0521    0.0158    0.0889   -0.1301    0.0972    0.5057
          35    0.0554    0.1889    0.1590   -0.3332   -0.0254   -0.2861    0.4332    0.0066
          36   -0.0228   -0.0332   -0.0120   -0.0077    0.0367   -0.0956    0.0795    0.3968
          37    0.0599   -0.1229   -0.0521    0.0151   -0.0895   -0.1311   -0.1022    0.5044
          38   -0.0554    0.1889    0.1591   -0.3332    0.0280   -0.2906   -0.4301    0.0013
          39   -0.0228    0.0333    0.0120    0.0080    0.0371    0.0964    0.0834   -0.3956
          40    0.3898   -0.0718    0.1765   -0.1296   -0.0963    0.1463    0.0182    0.0114
          41    0.0032   -0.0360   -0.0076   -0.0001   -0.0065   -0.0071    0.0014    0.0015
          42    0.2203   -0.0390    0.0658   -0.0627   -0.1265    0.0663    0.0171    0.0050
          43   -0.3896   -0.0716    0.1764   -0.1288    0.0973    0.1461   -0.0198    0.0112
          44   -0.0032   -0.0360   -0.0076   -0.0000    0.0065   -0.0071   -0.0014    0.0015
          45    0.2201    0.0388   -0.0657    0.0617   -0.1269   -0.0661    0.0179   -0.0050
          46    0.3082   -0.2828    0.0887   -0.1463    0.1039    0.1183   -0.0081    0.0186
          47   -0.0069   -0.0013   -0.0045    0.0022   -0.0093   -0.0070    0.0009   -0.0039
          48   -0.1737    0.1010   -0.0534    0.0585   -0.1219   -0.0569    0.0155   -0.0117
          49   -0.3085   -0.2827    0.0888   -0.1471   -0.1028    0.1184    0.0067    0.0186
          50    0.0070   -0.0013   -0.0045    0.0023    0.0093   -0.0070   -0.0008   -0.0039
          51   -0.1738   -0.1009    0.0535   -0.0594   -0.1215    0.0570    0.0148    0.0118


   Root No.      33        34        35        36        37        38        39        40

                33 A      34 A      35 A      36 A      37 A      38 A      39 A      40 A   

                1468.9    1875.7    1894.9    2845.9    2932.0    3009.9    3042.5    3043.8
  
           1   -0.0000    0.0001   -0.1048   -0.1278    0.0004    0.0009    0.0000   -0.0007
           2   -0.0000   -0.0000    0.0003   -0.2398    0.0013    0.0005    0.0000   -0.0020
           3   -0.4526   -0.0968   -0.0001    0.0000   -0.0000    0.0000   -0.0024   -0.0000
           4   -0.0000   -0.0001    0.1016   -0.0001   -0.0163    0.2151   -0.0000   -0.0144
           5    0.0001   -0.0000   -0.0042   -0.0000   -0.3034   -0.0063    0.0000   -0.0005
           6    0.5671   -0.1042   -0.0001   -0.0000    0.0000    0.0000    0.0013    0.0000
           7    0.0000    0.0000   -0.0062    0.0073   -0.0000   -0.0001   -0.0000   -0.0027
           8   -0.0000    0.0000    0.0029    0.0024   -0.0000   -0.0001   -0.0000   -0.0023
           9    0.0420   -0.0069   -0.0000    0.0000    0.0000    0.0000   -0.0018   -0.0000
          10   -0.1399   -0.4821    0.4816   -0.0013   -0.0003   -0.0008   -0.0799   -0.0811
          11   -0.0046    0.0014   -0.0016   -0.0001   -0.0013   -0.0000    0.0068    0.0070
          12    0.2553    0.0774   -0.0668    0.0051    0.0001   -0.0002   -0.1290   -0.1330
          13    0.1399    0.4809    0.4828   -0.0013   -0.0003   -0.0008    0.0806   -0.0812
          14    0.0047   -0.0013   -0.0015   -0.0001   -0.0013   -0.0000   -0.0069    0.0069
          15    0.2553    0.0773    0.0669   -0.0051   -0.0001    0.0002   -0.1300    0.1330
          16    0.1233   -0.4810   -0.4820    0.0022    0.0011   -0.0117    0.0606   -0.0589
          17   -0.0107    0.0057    0.0060   -0.0011   -0.0002   -0.0009    0.0042   -0.0040
          18   -0.2968    0.0826    0.0705   -0.0001    0.0006   -0.0235    0.1057   -0.1049
          19   -0.1232    0.4822   -0.4808    0.0022    0.0011   -0.0117   -0.0608   -0.0596
          20    0.0106   -0.0057    0.0060   -0.0011   -0.0002   -0.0009   -0.0041   -0.0040
          21   -0.2968    0.0828   -0.0703    0.0001   -0.0006    0.0235    0.1057    0.1059
          22   -0.0000    0.0000   -0.0044    0.4438   -0.0007   -0.0008   -0.0000    0.0049
          23    0.0000   -0.0000   -0.0062    0.8533   -0.0019   -0.0015   -0.0000    0.0090
          24    0.1024   -0.0222   -0.0000   -0.0001    0.0000    0.0000   -0.0043   -0.0000
[...]
 RED. MASS   0.1931         C  5 -- H 14         +12.0% ( 35.1%)      0.6%
 EFF. MASS   1.3044

 VIBRATION   24   24A         ATOM PAIR      ENERGY CONTRIBUTION    RADIAL
 FREQ.      1158.79         C  5 -- H 14         +25.8% ( 51.3%)      0.0%
 T-DIPOLE    0.0178         C  4 -- H 15         +25.5% ( 51.0%)      0.0%
 TRAVEL      0.2059         C  6 -- H 16         +17.3% ( 42.1%)      0.2%
 RED. MASS   0.2262         C  7 -- H 17         +17.0% ( 41.7%)      0.2%
 EFF. MASS   1.3727

 VIBRATION   25   25A         ATOM PAIR      ENERGY CONTRIBUTION    RADIAL
 FREQ.      1229.30         C  5 -- H 14         +17.0% ( 49.5%)      0.0%
 T-DIPOLE    0.0097         C  4 -- H 15         +17.0% ( 49.5%)      0.0%
 TRAVEL      0.1492         C  7 -- H 17         +11.8% ( 41.2%)      0.1%
 RED. MASS   0.2113         C  6 -- H 16         +11.8% ( 41.2%)      0.1%
 EFF. MASS   2.4634

 VIBRATION   26   26A         ATOM PAIR      ENERGY CONTRIBUTION    RADIAL
 FREQ.      1246.35         C  1 -- H  8         +20.5% ( 63.8%)      0.1%
 T-DIPOLE    0.1120         C  1 -- C  3         +16.8% ( 57.8%)     90.1%
 TRAVEL      0.0917         C  1 -- C  4         +12.4% ( 49.6%)      5.0%
 RED. MASS   1.3274         C  1 -- C  5         +12.4% ( 49.6%)      5.0%
 EFF. MASS   6.4383

 VIBRATION   27   27A         ATOM PAIR      ENERGY CONTRIBUTION    RADIAL
 FREQ.      1346.79         C  2 -- H  9         +16.9% ( 46.4%)      3.2%
 T-DIPOLE    0.1044         C  2 -- H 10         +16.6% ( 46.0%)      3.5%
 TRAVEL      0.1167         C  1 -- C  4         +10.1% ( 35.8%)     62.3%
 RED. MASS   0.3912         C  1 -- C  5         +10.1% ( 35.8%)     62.3%
 EFF. MASS   3.6736

 VIBRATION   28   28A         ATOM PAIR      ENERGY CONTRIBUTION    RADIAL
 FREQ.      1389.22         C  3 -- H 11         +10.8% ( 39.3%)      7.3%
 T-DIPOLE    0.0143         C  3 -- H 12         +10.2% ( 38.2%)      0.8%
 TRAVEL      0.1049         C  3 -- H 13         +10.2% ( 38.2%)      0.9%
 RED. MASS   0.3536         C  2 -- H 10          +9.9% ( 37.7%)      7.6%
 EFF. MASS   4.4145

 VIBRATION   29   29A         ATOM PAIR      ENERGY CONTRIBUTION    RADIAL
 FREQ.      1390.44         C  1 -- C  5         +14.3% ( 58.2%)     64.7%
 T-DIPOLE    0.0506         C  1 -- C  4         +14.3% ( 58.2%)     64.5%
 TRAVEL      0.0735         C  1 -- H  8         +13.0% ( 55.5%)      0.0%
 RED. MASS   2.2851         C  1 -- C  3         +11.5% ( 52.1%)      0.0%
 EFF. MASS   8.9866

 VIBRATION   30   30A         ATOM PAIR      ENERGY CONTRIBUTION    RADIAL
 FREQ.      1407.53         C  1 -- C  3         +13.6% ( 47.7%)     98.6%
 T-DIPOLE    0.0623         C  3 -- H 11         +11.9% ( 44.7%)      7.1%
 TRAVEL      0.0912         C  3 -- H 13          +9.3% ( 39.5%)      1.3%
 RED. MASS   0.6016         C  3 -- H 12          +9.2% ( 39.3%)      1.2%
 EFF. MASS   5.7575

 VIBRATION   31   31A         ATOM PAIR      ENERGY CONTRIBUTION    RADIAL
 FREQ.      1408.68         C  3 -- H 11         +50.5% ( 62.0%)      0.0%
 T-DIPOLE    0.0530         C  3 -- H 12         +20.2% ( 39.2%)     10.9%
 TRAVEL      0.1716         C  3 -- H 13         +20.1% ( 39.1%)     10.6%
 RED. MASS   0.3978         C  1 -- C  3          +4.7% ( 18.9%)      0.1%
 EFF. MASS   1.6263

 VIBRATION   32   32A         ATOM PAIR      ENERGY CONTRIBUTION    RADIAL
 FREQ.      1410.06         C  3 -- H 12         +36.5% ( 61.1%)      3.8%
 T-DIPOLE    0.0302         C  3 -- H 13         +36.4% ( 60.9%)      3.9%
 TRAVEL      0.1349         C  1 -- C  3         +12.0% ( 35.1%)     76.4%
 RED. MASS   0.5782         C  3 -- H 11          +8.0% ( 28.5%)      4.4%
 EFF. MASS   2.6270

 VIBRATION   33   33A         ATOM PAIR      ENERGY CONTRIBUTION    RADIAL
 FREQ.      1468.86         C  2 -- C  6         +14.8% ( 60.5%)     82.1%
 T-DIPOLE    0.0482         C  2 -- C  7         +14.8% ( 60.5%)     82.1%
 TRAVEL      0.0649         C  1 -- C  5         +10.1% ( 50.1%)     85.6%
 RED. MASS   2.1768         C  1 -- C  4         +10.1% ( 50.1%)     85.6%
 EFF. MASS  10.9109

 VIBRATION   34   34A         ATOM PAIR      ENERGY CONTRIBUTION    RADIAL
 FREQ.      1875.71         C  4 -- C  7         +22.3% ( 69.9%)    100.0%
 T-DIPOLE    0.0669         C  5 -- C  6         +22.1% ( 69.7%)    100.0%
 TRAVEL      0.0550         C  2 -- C  7          +7.2% ( 39.9%)     65.9%
 RED. MASS   2.7308         C  2 -- C  6          +7.2% ( 39.8%)     65.9%
 EFF. MASS  11.9027

 VIBRATION   35   35A         ATOM PAIR      ENERGY CONTRIBUTION    RADIAL
 FREQ.      1894.91         C  5 -- C  6         +22.2% ( 69.2%)    100.0%
 T-DIPOLE    0.1603         C  4 -- C  7         +22.1% ( 69.0%)    100.0%
 TRAVEL      0.0548         C  1 -- C  5          +7.2% ( 39.5%)     41.1%
 RED. MASS   2.6990         C  1 -- C  4          +7.2% ( 39.4%)     41.0%
 EFF. MASS  11.8558

 VIBRATION   36   36A         ATOM PAIR      ENERGY CONTRIBUTION    RADIAL
 FREQ.      2845.87         C  1 -- H  8         +96.9% ( 99.9%)    100.0%
 T-DIPOLE    0.0607         C  1 -- C  3          +1.0% ( 10.2%)      9.2%
 TRAVEL      0.1285         C  1 -- C  5          +1.0% ( 10.1%)      7.8%
 RED. MASS   0.9281         C  1 -- C  4          +1.0% ( 10.1%)      7.8%
 EFF. MASS   1.4357

 VIBRATION   37   37A         ATOM PAIR      ENERGY CONTRIBUTION    RADIAL
 FREQ.      2932.03         C  2 -- H 10         +51.7% ( 74.6%)     96.8%
 T-DIPOLE    0.0318         C  2 -- H  9         +46.1% ( 70.5%)     96.2%
 TRAVEL      0.1224         C  2 -- C  7          +1.1% ( 10.8%)      0.0%
 RED. MASS   0.5191         C  2 -- C  6          +1.1% ( 10.8%)      0.0%
 EFF. MASS   1.5350

 VIBRATION   38   38A         ATOM PAIR      ENERGY CONTRIBUTION    RADIAL
 FREQ.      3009.87         C  2 -- H  9         +51.5% ( 70.8%)     98.0%
 T-DIPOLE    0.0826         C  2 -- H 10         +45.5% ( 66.6%)     97.4%
 TRAVEL      0.1321         C  7 -- H 17          +0.8% (  8.9%)     99.9%
 RED. MASS   0.4710         C  6 -- H 16          +0.8% (  8.9%)     99.9%
 EFF. MASS   1.2837

 VIBRATION   39   39A         ATOM PAIR      ENERGY CONTRIBUTION    RADIAL
 FREQ.      3042.51         C  5 -- H 14         +29.6% ( 55.2%)    100.0%
 T-DIPOLE    0.0385         C  4 -- H 15         +29.2% ( 54.8%)    100.0%
 TRAVEL      0.1238         C  7 -- H 17         +19.5% ( 44.8%)    100.0%
 RED. MASS   0.2421         C  6 -- H 16         +19.5% ( 44.8%)    100.0%
 EFF. MASS   1.4472

 VIBRATION   40   40A         ATOM PAIR      ENERGY CONTRIBUTION    RADIAL
 FREQ.      3043.80         C  4 -- H 15         +29.9% ( 55.5%)    100.0%
 T-DIPOLE    0.3844         C  5 -- H 14         +29.8% ( 55.4%)    100.0%
 TRAVEL      0.1229         C  7 -- H 17         +18.9% ( 44.1%)    100.0%
 RED. MASS   0.2422         C  6 -- H 16         +18.5% ( 43.6%)    100.0%
 EFF. MASS   1.4671

 VIBRATION   41   41A         ATOM PAIR      ENERGY CONTRIBUTION    RADIAL
 FREQ.      3062.29         C  7 -- H 17         +29.2% ( 54.8%)     99.9%
 T-DIPOLE    0.3845         C  6 -- H 16         +28.9% ( 54.6%)     99.9%
 TRAVEL      0.1183         C  4 -- H 15         +19.4% ( 44.7%)     99.9%
 RED. MASS   0.2426         C  5 -- H 14         +18.9% ( 44.1%)     99.9%
 EFF. MASS   1.5724

 VIBRATION   42   42A         ATOM PAIR      ENERGY CONTRIBUTION    RADIAL
 FREQ.      3065.04         C  6 -- H 16         +29.4% ( 55.0%)     99.9%
 T-DIPOLE    0.0584         C  7 -- H 17         +28.7% ( 54.4%)     99.9%
 TRAVEL      0.1172         C  5 -- H 14         +18.7% ( 43.8%)     99.9%
 RED. MASS   0.2392         C  4 -- H 15         +18.5% ( 43.7%)     99.9%
 EFF. MASS   1.6027

 VIBRATION   43   43A         ATOM PAIR      ENERGY CONTRIBUTION    RADIAL
 FREQ.      3083.61         C  3 -- H 12         +49.5% ( 72.6%)     97.2%
 T-DIPOLE    0.0002         C  3 -- H 13         +48.5% ( 71.9%)     97.0%
 TRAVEL      0.1204         C  1 -- C  3          +1.0% ( 10.5%)      0.0%
 RED. MASS   0.5099         C  3 -- H 11          +1.0% ( 10.2%)      0.1%
 EFF. MASS   1.5078

 VIBRATION   44   44A         ATOM PAIR      ENERGY CONTRIBUTION    RADIAL
 FREQ.      3085.42         C  3 -- H 11         +62.6% ( 81.7%)     98.8%
 T-DIPOLE    0.0279         C  3 -- H 13         +18.6% ( 44.5%)     85.8%
 TRAVEL      0.1205         C  3 -- H 12         +17.7% ( 43.4%)     85.0%
 RED. MASS   0.4872         C  1 -- C  3          +1.0% ( 10.3%)      0.0%
 EFF. MASS   1.5043

 VIBRATION   45   45A         ATOM PAIR      ENERGY CONTRIBUTION    RADIAL
 FREQ.      3181.47         C  3 -- H 11         +35.9% ( 57.7%)     97.5%
 T-DIPOLE    0.0345         C  3 -- H 13         +31.9% ( 54.3%)     96.9%
 TRAVEL      0.1367         C  3 -- H 12         +31.9% ( 54.3%)     96.9%
 RED. MASS   0.3280         C  1 -- C  3          +0.3% (  5.0%)     99.7%
 EFF. MASS   1.1341

      SYMMETRY NUMBER FOR POINT-GROUP C1  =  1


          SYSTEM IS A GROUND STATE



 InChI=1S/C7H10/c1-7-5-3-2-4-6-7/h3-7H,2H2,1H3


          MOLECULE IS NOT LINEAR

          THERE ARE 45 GENUINE VIBRATIONS IN THIS SYSTEM
          THIS THERMODYNAMICS CALCULATION IS LIMITED TO
          MOLECULES WHICH HAVE NO INTERNAL ROTATIONS




                    CALCULATED THERMODYNAMIC PROPERTIES
                                          *
   TEMP. (K)   PARTITION FUNCTION   H.O.F.    ENTHALPY  HEAT CAPACITY ENTROPY
                                   KCAL/MOL   CAL/MOLE    CAL/K/MOL  CAL/K/MOL


 298.00  VIB.     0.1853D+02                  2430.5507    19.7036    13.9574
         ROT.     0.1892D+06                   888.2813     2.9808    27.1268
         INT.     0.3506D+07                  3318.8320    22.6844    41.0843
         TRA.     0.8833D+27                  1480.4688     4.9680    39.5363
         TOT.                       14.515    4799.3009    27.6524    80.6206

 200.00  VIB.     0.5279D+01                   941.5727    10.9795     8.0141
         ROT.     0.1040D+06                   596.1620     2.9808    25.9382
         INT.     0.5493D+06                  1537.7347    13.9603    33.9523
         TRA.     0.4856D+27                   993.6033     4.9680    37.5551
         TOT.                       12.247    2531.3379    18.9283    71.5074

 210.00  VIB.     0.5949D+01                  1055.3157    11.7738     8.5689
         ROT.     0.1119D+06                   625.9700     2.9808    26.0836
         INT.     0.6660D+06                  1681.2857    14.7546    34.6525
         TRA.     0.5225D+27                  1043.2834     4.9680    37.7975
         TOT.                       12.440    2724.5691    19.7227    72.4501

 220.00  VIB.     0.6717D+01                  1177.1417    12.5959     9.1355
         ROT.     0.1200D+06                   655.7781     2.9808    26.2223
         INT.     0.8063D+06                  1832.9199    15.5767    35.3578
         TRA.     0.5603D+27                  1092.9636     4.9680    38.0286
         TOT.                       12.642    2925.8834    20.5447    73.3864

 230.00  VIB.     0.7599D+01                  1307.3196    13.4439     9.7140
         ROT.     0.1283D+06                   685.5862     2.9808    26.3548
         INT.     0.9750D+06                  1992.9058    16.4247    36.0688
         TRA.     0.5989D+27                  1142.6437     4.9680    38.2495
         TOT.                       12.851    3135.5496    21.3927    74.3183

 240.00  VIB.     0.8614D+01                  1446.0991    14.3158    10.3045
         ROT.     0.1368D+06                   715.3943     2.9808    26.4816
         INT.     0.1178D+07                  2161.4935    17.2966    36.7862
         TRA.     0.6384D+27                  1192.3239     4.9680    38.4609
         TOT.                       13.070    3353.8174    22.2646    75.2471

 250.00  VIB.     0.9783D+01                  1593.7069    15.2091    10.9070
         ROT.     0.1454D+06                   745.2024     2.9808    26.6033
         INT.     0.1423D+07                  2338.9093    18.1899    37.5103
         TRA.     0.6787D+27                  1242.0041     4.9680    38.6637
         TOT.                       13.297    3580.9134    23.1579    76.1740

 260.00  VIB.     0.1113D+02                  1750.3428    16.1210    11.5212
         ROT.     0.1542D+06                   775.0105     2.9808    26.7202
         INT.     0.1717D+07                  2525.3533    19.1018    38.2414
         TRA.     0.7198D+27                  1291.6842     4.9680    38.8586
         TOT.                       13.533    3817.0376    24.0698    77.1000

 270.00  VIB.     0.1270D+02                  1916.1782    17.0485    12.1470
         ROT.     0.1632D+06                   804.8186     2.9808    26.8327
         INT.     0.2072D+07                  2720.9968    20.0293    38.9797
         TRA.     0.7618D+27                  1341.3644     4.9680    39.0461
         TOT.                       13.778    4062.3612    24.9973    78.0258

 280.00  VIB.     0.1451D+02                  2091.3547    17.9887    12.7839
         ROT.     0.1724D+06                   834.6267     2.9808    26.9411
         INT.     0.2500D+07                  2925.9815    20.9695    39.7251
         TRA.     0.8045D+27                  1391.0445     4.9680    39.2267
         TOT.                       14.033    4317.0260    25.9375    78.9518

 290.00  VIB.     0.1661D+02                  2275.9844    18.9386    13.4317
         ROT.     0.1817D+06                   864.4348     2.9808    27.0457
         INT.     0.3017D+07                  3140.4192    21.9194    40.4775
         TRA.     0.8479D+27                  1440.7247     4.9680    39.4011
         TOT.                       14.297    4581.1439    26.8874    79.8785

 300.00  VIB.     0.1905D+02                  2470.1496    19.8954    14.0899
         ROT.     0.1911D+06                   894.2429     2.9808    27.1468
         INT.     0.3641D+07                  3364.3926    22.8762    41.2367
         TRA.     0.8922D+27                  1490.4049     4.9680    39.5695
         TOT.                       14.571    4854.7974    27.8442    80.8062

 310.00  VIB.     0.2189D+02                  2673.9050    20.8562    14.7579
         ROT.     0.2008D+06                   924.0510     2.9808    27.2445
         INT.     0.4395D+07                  3597.9561    23.8370    42.0024
         TRA.     0.9372D+27                  1540.0850     4.9680    39.7324
         TOT.                       14.854    5138.0411    28.8050    81.7348

 320.00  VIB.     0.2520D+02                  2887.2784    21.8185    15.4353
         ROT.     0.2106D+06                   953.8591     2.9808    27.3392
         INT.     0.5307D+07                  3841.1375    24.7993    42.7744
         TRA.     0.9829D+27                  1589.7652     4.9680    39.8901
         TOT.                       15.147    5430.9027    29.7673    82.6646

 330.00  VIB.     0.2907D+02                  3110.2725    22.7800    16.1214
         ROT.     0.2205D+06                   983.6672     2.9808    27.4309
         INT.     0.6411D+07                  4093.9397    25.7608    43.5523
         TRA.     0.1029D+28                  1639.4454     4.9680    40.0430
         TOT.                       15.449    5733.3851    30.7288    83.5953

 340.00  VIB.     0.3359D+02                  3342.8677    23.7384    16.8157
         ROT.     0.2306D+06                  1013.4753     2.9808    27.5199
         INT.     0.7747D+07                  4356.3430    26.7192    44.3355
         TRA.     0.1076D+28                  1689.1255     4.9680    40.1913
         TOT.                       15.761    6045.4686    31.6872    84.5269

 350.00  VIB.     0.3889D+02                  3585.0233    24.6918    17.5175
         ROT.     0.2409D+06                  1043.2834     2.9808    27.6063
         INT.     0.9367D+07                  4628.3067    27.6726    45.1238
         TRA.     0.1124D+28                  1738.8057     4.9680    40.3353
         TOT.                       16.083    6367.1124    32.6406    85.4592

 360.00  VIB.     0.4510D+02                  3836.6802    25.6384    18.2264
         ROT.     0.2513D+06                  1073.0915     2.9808    27.6903
         INT.     0.1133D+08                  4909.7717    28.6192    45.9167
         TRA.     0.1173D+28                  1788.4859     4.9680    40.4753
         TOT.                       16.414    6698.2575    33.5872    86.3920

 370.00  VIB.     0.5239D+02                  4097.7627    26.5767    18.9417
         ROT.     0.2618D+06                  1102.8996     2.9808    27.7719
         INT.     0.1372D+08                  5200.6623    29.5575    46.7136
         TRA.     0.1222D+28                  1838.1660     4.9680    40.6114
         TOT.                       16.755    7038.8284    34.5255    87.3250

 380.00  VIB.     0.6095D+02                  4368.1810    27.5053    19.6628
         ROT.     0.2725D+06                  1132.7077     2.9808    27.8514
         INT.     0.1661D+08                  5500.8887    30.4861    47.5142
         TRA.     0.1272D+28                  1887.8462     4.9680    40.7439
         TOT.                       17.105    7388.7349    35.4541    88.2581

 390.00  VIB.     0.7103D+02                  4647.8327    28.4232    20.3892
         ROT.     0.2833D+06                  1162.5158     2.9808    27.9288
         INT.     0.2012D+08                  5810.3485    31.4040    48.3180
         TRA.     0.1322D+28                  1937.5263     4.9680    40.8729
         TOT.                       17.464    7747.8748    36.3720    89.1909

 400.00  VIB.     0.8290D+02                  4936.6049    29.3293    21.1202
         ROT.     0.2943D+06                  1192.3239     2.9808    28.0043
         INT.     0.2440D+08                  6128.9288    32.3101    49.1245
         TRA.     0.1374D+28                  1987.2065     4.9680    40.9987
         TOT.                       17.832    8116.1353    37.2781    90.1233

   *: NOTE: HEATS OF FORMATION ARE RELATIVE TO THE
            ELEMENTS IN THEIR STANDARD STATE AT 298K
              (=  Standard Enthalpy of Formation).

            Hvib:  Zero-point energy is not included.
                   frequencies of less than zero cm-1 are not included.
            Hrot = (3/2)RT
            Htra = (3/2)RT + pV = (5/2)RT

            Heat capacity is Cp, not Cv

          For more information, see: HTTP://OpenMOPAC.net/Manual/thermochemistry.html


           FORCE CONSTANT IN CARTESIAN COORDINATES (Millidynes/A)

    ATOM   CHEMICAL       X               Y               Z
   NUMBER   SYMBOL  FORCE CONSTANT  FORCE CONSTANT  FORCE CONSTANT

      1       C        8.885871        7.767474        9.404655
      2       C        9.052979        7.668283        9.419317
      3       C        8.271765        8.079832        8.447675
      4       C       15.499820        2.479780        9.401330
      5       C       15.500496        2.479416        9.401512
      6       C       15.381298        2.391715        9.580746
      7       C       15.380572        2.391816        9.580959
      8       H        1.472101        3.672281        0.646288
      9       H        2.364178        3.157705        0.681943
     10       H        1.776110        3.731203        0.658936
     11       H        1.643732        4.475908        0.666616
     12       H        2.273144        0.730946        3.789118
     13       H        2.272618        0.730816        3.789864
     14       H        1.890812        0.362574        3.993882
     15       H        1.890847        0.362528        3.993947
     16       H        1.897648        0.358007        3.995418
     17       H        1.897642        0.357919        3.995198

 **********************
 *                    *
 * JOB ENDED NORMALLY *
 *                    *
 **********************



 TOTAL JOB TIME:             4.79 SECONDS

 == MOPAC DONE ==
