 *******************************************************************************
 ** Site#: 14399        For non-commercial use only    Version 18.184L 64BITS **
 *******************************************************************************
 ** Cite this program as: MOPAC2016, Version: 18.184L, James J. P. Stewart,   **
 ** Stewart Computational Chemistry, web: HTTP://OpenMOPAC.net. Days left:  20**
 *******************************************************************************
 **                                                                           **
 **                                MOPAC2016                                  **
 **                                                                           **
 *******************************************************************************

                              PM3 CALCULATION RESULTS

 *******************************************************************************
 *  CALCULATION DONE:                                Thu Jun 13 15:59:41 2019  *
 *  PM3        - The PM3 Hamiltonian to be used
 *  PRECISE    - CRITERIA TO BE INCREASED BY 100 TIMES
 *  NOSYM      - POINT-GROUP SYMMETRY SET TO C1
 *  THREADS=1  - MULTI-THREADING NOT USED
 *  T=         - A TIME OF 172800.0 SECONDS REQUESTED
 *  DUMP=N     - RESTART FILE WRITTEN EVERY  7200.000 SECONDS
 *******************************************************************************
pm3  precise nosym THREADS=1
 InChI=1S/C10H10/c1-2-8-7-9-5-3-4-6-10(8)9/h2-4,6-8H,1,5H2

   ATOM   CHEMICAL          X               Y               Z
  NUMBER   SYMBOL      (ANGSTROMS)     (ANGSTROMS)     (ANGSTROMS)
 
     1       C          1.26970000  *  -0.25270000  *  -0.40010000  *
     2       C         -1.97350000  *  -1.29350000  *   0.14770000  *
     3       C         -0.02830000  *   0.34330000  *  -0.39540000  *
     4       C         -0.53250000  *  -0.99250000  *  -0.05950000  *
     5       C          0.71560000  *  -1.56050000  *  -0.05720000  *
     6       C          2.14650000  *   0.29320000  *   0.69820000  *
     7       C         -2.78330000  *  -0.00460000  *  -0.04860000  *
     8       C         -0.77780000  *   1.41590000  *  -0.55360000  *
     9       C         -2.24280000  *   1.20880000  *  -0.36300000  *
    10       C          3.36910000  *   0.76620000  *   0.44360000  *
    11       H          1.73730000  *  -0.24170000  *  -1.41080000  *
    12       H         -2.12790000  *  -1.67750000  *   1.17730000  *
    13       H         -2.30280000  *  -2.05650000  *  -0.58770000  *
    14       H          1.11360000  *  -2.55110000  *   0.11690000  *
    15       H          1.77890000  *   0.30780000  *   1.72150000  *
    16       H         -3.85710000  *  -0.07000000  *   0.07230000  *
    17       H         -2.90020000  *   2.06050000  *  -0.48090000  *
    18       H         -0.35410000  *   2.37870000  *  -0.80500000  *
    19       H          3.77070000  *   0.77080000  *  -0.56510000  *
    20       H          3.97900000  *   1.15530000  *   1.25240000  *
 


          CARTESIAN COORDINATES 

    NO.       ATOM           X           Y           Z

     1         C          1.2697     -0.2527     -0.4001
     2         C         -1.9735     -1.2935      0.1477
     3         C         -0.0283      0.3433     -0.3954
     4         C         -0.5325     -0.9925     -0.0595
     5         C          0.7156     -1.5605     -0.0572
     6         C          2.1465      0.2932      0.6982
     7         C         -2.7833     -0.0046     -0.0486
     8         C         -0.7778      1.4159     -0.5536
     9         C         -2.2428      1.2088     -0.3630
    10         C          3.3691      0.7662      0.4436
    11         H          1.7373     -0.2417     -1.4108
    12         H         -2.1279     -1.6775      1.1773
    13         H         -2.3028     -2.0565     -0.5877
    14         H          1.1136     -2.5511      0.1169
    15         H          1.7789      0.3078      1.7215
    16         H         -3.8571     -0.0700      0.0723
    17         H         -2.9002      2.0605     -0.4809
    18         H         -0.3541      2.3787     -0.8050
    19         H          3.7707      0.7708     -0.5651
    20         H          3.9790      1.1553      1.2524

  H: (PM3): J. J. P. STEWART, J. COMP. CHEM. 10, 209 (1989).
  C: (PM3): J. J. P. STEWART, J. COMP. CHEM. 10, 209 (1989).

           Empirical Formula: C10 H10  =    20 atoms



      MOLECULAR POINT GROUP   :   C1  


      RHF CALCULATION, NO. OF DOUBLY OCCUPIED LEVELS = 25


          Geometry optimization using EF

          DIAGONAL MATRIX USED AS START HESSIAN

 CYCLE:     1 TIME:   0.023 TIME LEFT:  2.00D  GRAD.:   221.757 HEAT:  110.8616
 CYCLE:     2 TIME:   0.039 TIME LEFT:  2.00D  GRAD.:    96.236 HEAT:  101.0174
 CYCLE:     3 TIME:   0.035 TIME LEFT:  2.00D  GRAD.:   121.275 HEAT:  100.8971
 CYCLE:     4 TIME:   0.027 TIME LEFT:  2.00D  GRAD.:    76.982 HEAT:  99.65920
 CYCLE:     5 TIME:   0.023 TIME LEFT:  2.00D  GRAD.:   101.740 HEAT:  99.49063
 CYCLE:     6 TIME:   0.023 TIME LEFT:  2.00D  GRAD.:    87.688 HEAT:  99.23421
 CYCLE:     7 TIME:   0.020 TIME LEFT:  2.00D  GRAD.:    83.650 HEAT:  98.58651
 CYCLE:     8 TIME:   0.031 TIME LEFT:  2.00D  GRAD.:    40.628 HEAT:  97.48346
 CYCLE:     9 TIME:   0.035 TIME LEFT:  2.00D  GRAD.:    21.271 HEAT:  97.10990
 CYCLE:    10 TIME:   0.027 TIME LEFT:  2.00D  GRAD.:    21.478 HEAT:  96.96025
 CYCLE:    11 TIME:   0.023 TIME LEFT:  2.00D  GRAD.:    26.489 HEAT:  96.79553
 CYCLE:    12 TIME:   0.023 TIME LEFT:  2.00D  GRAD.:    24.024 HEAT:  96.58554
 CYCLE:    13 TIME:   0.020 TIME LEFT:  2.00D  GRAD.:    33.140 HEAT:  96.52453
 CYCLE:    14 TIME:   0.023 TIME LEFT:  2.00D  GRAD.:    37.022 HEAT:  96.47441
 CYCLE:    15 TIME:   0.031 TIME LEFT:  2.00D  GRAD.:    26.843 HEAT:  96.32171
 CYCLE:    16 TIME:   0.020 TIME LEFT:  2.00D  GRAD.:    20.016 HEAT:  96.27073
 CYCLE:    17 TIME:   0.023 TIME LEFT:  2.00D  GRAD.:    17.187 HEAT:  96.22639
 CYCLE:    18 TIME:   0.031 TIME LEFT:  2.00D  GRAD.:     8.432 HEAT:  96.16109
 CYCLE:    19 TIME:   0.027 TIME LEFT:  2.00D  GRAD.:     6.119 HEAT:  96.14703
 CYCLE:    20 TIME:   0.023 TIME LEFT:  2.00D  GRAD.:     6.139 HEAT:  96.13319
 CYCLE:    21 TIME:   0.020 TIME LEFT:  2.00D  GRAD.:     5.716 HEAT:  96.11203
 CYCLE:    22 TIME:   0.023 TIME LEFT:  2.00D  GRAD.:     8.287 HEAT:  96.09373
 CYCLE:    23 TIME:   0.023 TIME LEFT:  2.00D  GRAD.:     3.901 HEAT:  96.07404
 CYCLE:    24 TIME:   0.023 TIME LEFT:  2.00D  GRAD.:     4.722 HEAT:  96.06899
 CYCLE:    25 TIME:   0.023 TIME LEFT:  2.00D  GRAD.:     2.116 HEAT:  96.06016
 CYCLE:    26 TIME:   0.023 TIME LEFT:  2.00D  GRAD.:     3.120 HEAT:  96.05330
 CYCLE:    27 TIME:   0.020 TIME LEFT:  2.00D  GRAD.:     4.236 HEAT:  96.04952
 CYCLE:    28 TIME:   0.023 TIME LEFT:  2.00D  GRAD.:     2.275 HEAT:  96.04360
 CYCLE:    29 TIME:   0.023 TIME LEFT:  2.00D  GRAD.:     2.039 HEAT:  96.04008
 CYCLE:    30 TIME:   0.023 TIME LEFT:  2.00D  GRAD.:     1.969 HEAT:  96.03599
 CYCLE:    31 TIME:   0.023 TIME LEFT:  2.00D  GRAD.:     2.234 HEAT:  96.02766
 CYCLE:    32 TIME:   0.023 TIME LEFT:  2.00D  GRAD.:     1.834 HEAT:  96.02405
 CYCLE:    33 TIME:   0.023 TIME LEFT:  2.00D  GRAD.:     1.615 HEAT:  96.02041
 CYCLE:    34 TIME:   0.020 TIME LEFT:  2.00D  GRAD.:     1.778 HEAT:  96.01604
 CYCLE:    35 TIME:   0.023 TIME LEFT:  2.00D  GRAD.:     2.464 HEAT:  96.00598
 CYCLE:    36 TIME:   0.023 TIME LEFT:  2.00D  GRAD.:     1.999 HEAT:  96.00062
 CYCLE:    37 TIME:   0.023 TIME LEFT:  2.00D  GRAD.:     1.086 HEAT:  95.99819
 CYCLE:    38 TIME:   0.023 TIME LEFT:  2.00D  GRAD.:     0.858 HEAT:  95.99728
 CYCLE:    39 TIME:   0.023 TIME LEFT:  2.00D  GRAD.:     0.714 HEAT:  95.99652
 CYCLE:    40 TIME:   0.023 TIME LEFT:  2.00D  GRAD.:     0.628 HEAT:  95.99538
 CYCLE:    41 TIME:   0.020 TIME LEFT:  2.00D  GRAD.:     0.486 HEAT:  95.99452
 CYCLE:    42 TIME:   0.023 TIME LEFT:  2.00D  GRAD.:     0.346 HEAT:  95.99413
 CYCLE:    43 TIME:   0.023 TIME LEFT:  2.00D  GRAD.:     0.296 HEAT:  95.99385
 CYCLE:    44 TIME:   0.023 TIME LEFT:  2.00D  GRAD.:     0.273 HEAT:  95.99365
 CYCLE:    45 TIME:   0.023 TIME LEFT:  2.00D  GRAD.:     0.241 HEAT:  95.99345
 CYCLE:    46 TIME:   0.023 TIME LEFT:  2.00D  GRAD.:     0.202 HEAT:  95.99331
 CYCLE:    47 TIME:   0.020 TIME LEFT:  2.00D  GRAD.:     0.161 HEAT:  95.99322
 CYCLE:    48 TIME:   0.023 TIME LEFT:  2.00D  GRAD.:     0.153 HEAT:  95.99316
 CYCLE:    49 TIME:   0.023 TIME LEFT:  2.00D  GRAD.:     0.155 HEAT:  95.99310
 CYCLE:    50 TIME:   0.023 TIME LEFT:  2.00D  GRAD.:     0.131 HEAT:  95.99305
 CYCLE:    51 TIME:   0.023 TIME LEFT:  2.00D  GRAD.:     0.101 HEAT:  95.99301
 CYCLE:    52 TIME:   0.023 TIME LEFT:  2.00D  GRAD.:     0.090 HEAT:  95.99299
 CYCLE:    53 TIME:   0.023 TIME LEFT:  2.00D  GRAD.:     0.123 HEAT:  95.99296
 CYCLE:    54 TIME:   0.020 TIME LEFT:  2.00D  GRAD.:     0.101 HEAT:  95.99293
 CYCLE:    55 TIME:   0.023 TIME LEFT:  2.00D  GRAD.:     0.077 HEAT:  95.99290
 CYCLE:    56 TIME:   0.023 TIME LEFT:  2.00D  GRAD.:     0.069 HEAT:  95.99289
 CYCLE:    57 TIME:   0.023 TIME LEFT:  2.00D  GRAD.:     0.054 HEAT:  95.99287
 CYCLE:    58 TIME:   0.023 TIME LEFT:  2.00D  GRAD.:     0.073 HEAT:  95.99284
 CYCLE:    59 TIME:   0.023 TIME LEFT:  2.00D  GRAD.:     0.166 HEAT:  95.99281
 CYCLE:    60 TIME:   0.023 TIME LEFT:  2.00D  GRAD.:     0.119 HEAT:  95.99279
 CYCLE:    61 TIME:   0.023 TIME LEFT:  2.00D  GRAD.:     0.092 HEAT:  95.99271
 CYCLE:    62 TIME:   0.020 TIME LEFT:  2.00D  GRAD.:     0.138 HEAT:  95.99262
 CYCLE:    63 TIME:   0.023 TIME LEFT:  2.00D  GRAD.:     0.211 HEAT:  95.99246
 CYCLE:    64 TIME:   0.023 TIME LEFT:  2.00D  GRAD.:     0.292 HEAT:  95.99222
 CYCLE:    65 TIME:   0.023 TIME LEFT:  2.00D  GRAD.:     0.241 HEAT:  95.99191
 CYCLE:    66 TIME:   0.023 TIME LEFT:  2.00D  GRAD.:     0.227 HEAT:  95.99159
 CYCLE:    67 TIME:   0.023 TIME LEFT:  2.00D  GRAD.:     0.221 HEAT:  95.99140
 CYCLE:    68 TIME:   0.031 TIME LEFT:  2.00D  GRAD.:     0.189 HEAT:  95.99124
 CYCLE:    69 TIME:   0.023 TIME LEFT:  2.00D  GRAD.:     0.191 HEAT:  95.99110
 CYCLE:    70 TIME:   0.023 TIME LEFT:  2.00D  GRAD.:     0.189 HEAT:  95.99097
 CYCLE:    71 TIME:   0.023 TIME LEFT:  2.00D  GRAD.:     0.186 HEAT:  95.99084
 CYCLE:    72 TIME:   0.023 TIME LEFT:  2.00D  GRAD.:     0.278 HEAT:  95.99070
 CYCLE:    73 TIME:   0.023 TIME LEFT:  2.00D  GRAD.:     0.187 HEAT:  95.99063
 CYCLE:    74 TIME:   0.020 TIME LEFT:  2.00D  GRAD.:     0.246 HEAT:  95.99053
 CYCLE:    75 TIME:   0.023 TIME LEFT:  2.00D  GRAD.:     0.201 HEAT:  95.99043
 CYCLE:    76 TIME:   0.023 TIME LEFT:  2.00D  GRAD.:     0.213 HEAT:  95.99024
 CYCLE:    77 TIME:   0.023 TIME LEFT:  2.00D  GRAD.:     0.273 HEAT:  95.99005
 CYCLE:    78 TIME:   0.023 TIME LEFT:  2.00D  GRAD.:     0.500 HEAT:  95.98975
 CYCLE:    79 TIME:   0.023 TIME LEFT:  2.00D  GRAD.:     0.350 HEAT:  95.98956
 CYCLE:    80 TIME:   0.023 TIME LEFT:  2.00D  GRAD.:     0.469 HEAT:  95.98919
 CYCLE:    81 TIME:   0.020 TIME LEFT:  2.00D  GRAD.:     0.263 HEAT:  95.98897
 CYCLE:    82 TIME:   0.023 TIME LEFT:  2.00D  GRAD.:     0.221 HEAT:  95.98881
 CYCLE:    83 TIME:   0.023 TIME LEFT:  2.00D  GRAD.:     0.224 HEAT:  95.98860
 CYCLE:    84 TIME:   0.023 TIME LEFT:  2.00D  GRAD.:     0.125 HEAT:  95.98855
 CYCLE:    85 TIME:   0.023 TIME LEFT:  2.00D  GRAD.:     0.071 HEAT:  95.98850
 CYCLE:    86 TIME:   0.023 TIME LEFT:  2.00D  GRAD.:     0.053 HEAT:  95.98848
 CYCLE:    87 TIME:   0.023 TIME LEFT:  2.00D  GRAD.:     0.099 HEAT:  95.98852
 CYCLE:    88 TIME:   0.020 TIME LEFT:  2.00D  GRAD.:     0.018 HEAT:  95.98848

     GRADIENT =  0.01806  IS LESS THAN CUTOFF =  0.05000



 -------------------------------------------------------------------------------
 pm3  precise nosym THREADS=1
 InChI=1S/C10H10/c1-2-8-7-9-5-3-4-6-10(8)9/h2-4,6-8H,1,5H2



     GEOMETRY OPTIMISED USING EIGENVECTOR FOLLOWING (EF).     
     SCF FIELD WAS ACHIEVED                                   


                              PM3 CALCULATION
                                                       MOPAC2016 (Version: 18.184L)
                                                       Thu Jun 13 15:59:43 2019
                                                       No. of days remaining =  20




          FINAL HEAT OF FORMATION =         95.98848 KCAL/MOL =     401.61580 KJ/MOL


          TOTAL ENERGY            =      -1335.56848 EV
          ELECTRONIC ENERGY       =      -6928.31599 EV  POINT GROUP:     C1  
          CORE-CORE REPULSION     =       5592.74751 EV
          COSMO AREA              =        179.46 SQUARE ANGSTROMS
          COSMO VOLUME            =        177.06 CUBIC ANGSTROMS

          GRADIENT NORM           =          0.01806 = 0.00404 PER ATOM
          IONIZATION POTENTIAL    =          8.601502 EV
          HOMO LUMO ENERGIES (EV) =         -8.602 -0.081
          NO. OF FILLED LEVELS    =         25
          MOLECULAR WEIGHT        =        130.1890

          MOLECULAR DIMENSIONS (Angstroms)

            Atom       Atom       Distance
            H    20    H    16     8.20388
            H    18    H    14     5.19067
            H    11    H    15     3.07948


          SCF CALCULATIONS        =         97
 
          WALL-CLOCK TIME         =          2.148 SECONDS
          COMPUTATION TIME        =          0.836 SECONDS




   ATOM   CHEMICAL          X               Y               Z
  NUMBER   SYMBOL      (ANGSTROMS)     (ANGSTROMS)     (ANGSTROMS)
 
     1       C          1.35116985  *  -0.20834610  *  -0.37927217  *
     2       C         -2.00717492  *  -1.27688006  *   0.11752740  *
     3       C         -0.07452169  *   0.34685590  *  -0.37342998  *
     4       C         -0.57564960  *  -1.00752563  *  -0.04684829  *
     5       C          0.66323744  *  -1.55298600  *  -0.02579436  *
     6       C          2.24047035  *   0.32692401  *   0.67962743  *
     7       C         -2.80379794  *  -0.02398062  *  -0.07661690  *
     8       C         -0.85432245  *   1.41363269  *  -0.53089795  *
     9       C         -2.28586923  *   1.18192115  *  -0.36726343  *
    10       C          3.48170335  *   0.73151902  *   0.43636684  *
    11       H          1.82915486  *  -0.20380264  *  -1.38156602  *
    12       H         -2.21058771  *  -1.69343561  *   1.12489017  *
    13       H         -2.34317234  *  -2.04554150  *  -0.60778457  *
    14       H          1.09360356  *  -2.52674236  *   0.15536638  *
    15       H          1.81411589  *   0.37034521  *   1.68888172  *
    16       H         -3.88777294  *  -0.14172725  *   0.03513076  *
    17       H         -2.94146084  *   2.05027118  *  -0.49348188  *
    18       H         -0.49035332  *   2.41596679  *  -0.76724873  *
    19       H          3.93634821  *   0.70450868  *  -0.55050079  *
    20       H          4.13230097  *   1.12044832  *   1.21368847  *

                             CARTESIAN COORDINATES

   1    C        1.351169846    -0.208346101    -0.379272167
   2    C       -2.007174925    -1.276880064     0.117527400
   3    C       -0.074521692     0.346855902    -0.373429984
   4    C       -0.575649602    -1.007525633    -0.046848293
   5    C        0.663237439    -1.552986002    -0.025794364
   6    C        2.240470352     0.326924010     0.679627431
   7    C       -2.803797944    -0.023980623    -0.076616895
   8    C       -0.854322451     1.413632689    -0.530897945
   9    C       -2.285869230     1.181921146    -0.367263426
  10    C        3.481703353     0.731519019     0.436366844
  11    H        1.829154858    -0.203802638    -1.381566017
  12    H       -2.210587713    -1.693435606     1.124890173
  13    H       -2.343172337    -2.045541495    -0.607784567
  14    H        1.093603560    -2.526742359     0.155366382
  15    H        1.814115893     0.370345211     1.688881722
  16    H       -3.887772936    -0.141727250     0.035130760
  17    H       -2.941460839     2.050271182    -0.493481880
  18    H       -0.490353320     2.415966791    -0.767248732
  19    H        3.936348213     0.704508683    -0.550500791
  20    H        4.132300973     1.120448322     1.213688472


           Empirical Formula: C10 H10  =    20 atoms



      MOLECULAR POINT GROUP   :   C1  


                  EIGENVALUES  
 -41.15022 -35.53083 -31.63112 -30.21916 -25.46414 -23.39525 -21.15291 -19.81016
 -18.89692 -17.86079 -16.59253 -15.89638 -15.63260 -15.00762 -14.72538 -14.42424
 -13.74092 -13.49960 -12.46500 -12.30730 -11.47365 -11.39954 -10.41990 -10.28942
  -8.60150  -0.08146   0.99869   1.15043   2.15541   2.96884   3.03359   3.23938
   3.38259   3.54305   3.67314   3.84226   3.96019   3.98594   4.16525   4.27602
   4.37664   4.52646   4.69335   4.94559   5.38133   5.57953   5.79994   5.83403
   5.95032   6.49071


              NET ATOMIC CHARGES AND DIPOLE CONTRIBUTIONS

  ATOM NO.   TYPE          CHARGE      No. of ELECS.   s-Pop       p-Pop       
    1          C           0.042660        3.9573     1.16252     2.79482
    2          C           0.020643        3.9794     1.11896     2.86040
    3          C          -0.116159        4.1162     1.21436     2.90179
    4          C          -0.115793        4.1158     1.20833     2.90746
    5          C          -0.143993        4.1440     1.22080     2.92319
    6          C          -0.129214        4.1292     1.19131     2.93790
    7          C          -0.141076        4.1411     1.19830     2.94278
    8          C          -0.070182        4.0702     1.16701     2.90318
    9          C          -0.105369        4.1054     1.18015     2.92522
   10          C          -0.154636        4.1546     1.18308     2.97156
   11          H           0.080073        0.9199     0.91993
   12          H           0.065942        0.9341     0.93406
   13          H           0.066090        0.9339     0.93391
   14          H           0.130405        0.8696     0.86959
   15          H           0.104198        0.8958     0.89580
   16          H           0.096263        0.9037     0.90374
   17          H           0.099020        0.9010     0.90098
   18          H           0.110862        0.8891     0.88914
   19          H           0.080845        0.9192     0.91915
   20          H           0.079422        0.9206     0.92058
 DIPOLE           X         Y         Z       TOTAL
 POINT-CHG.    -0.151    -0.297     0.054     0.338
 HYBRID        -0.056    -0.010     0.031     0.065
 SUM           -0.207    -0.307     0.084     0.380


          ATOMIC ORBITAL ELECTRON POPULATIONS

     Atom    s        px        py        pz   
    1  C   1.16252   0.90783   0.91655   0.97044
    2  C   1.11896   0.90219   0.95463   1.00358
    3  C   1.21436   0.95820   0.94761   0.99599
    4  C   1.20833   0.95134   0.95979   0.99632
    5  C   1.22080   0.93705   0.96723   1.01891
    6  C   1.19131   0.95833   0.99124   0.98833
    7  C   1.19830   0.98482   0.95110   1.00685
    8  C   1.16701   0.92866   0.96666   1.00786
    9  C   1.18015   0.94977   0.96632   1.00913
   10  C   1.18308   0.96222   0.99975   1.00958
   11  H   0.91993
   12  H   0.93406
   13  H   0.93391
   14  H   0.86959
   15  H   0.89580
   16  H   0.90374
   17  H   0.90098
   18  H   0.88914
   19  H   0.91915
   20  H   0.92058
 *******************************************************************************
 ** Site#: 14399        For non-commercial use only    Version 18.184L 64BITS **
 *******************************************************************************
 ** Cite this program as: MOPAC2016, Version: 18.184L, James J. P. Stewart,   **
 ** Stewart Computational Chemistry, web: HTTP://OpenMOPAC.net. Days left:  20**
 *******************************************************************************
 **                                                                           **
 **                                MOPAC2016                                  **
 **                                                                           **
 *******************************************************************************

                              PM3 CALCULATION RESULTS

 *******************************************************************************
 *  CALCULATION DONE:                                Thu Jun 13 15:59:43 2019  *
 *  PM3        - The PM3 Hamiltonian to be used
 *  OLDGEO     - PREVIOUS GEOMETRY TO BE USED
 *  PRECISE    - CRITERIA TO BE INCREASED BY 100 TIMES
 *  NOSYM      - POINT-GROUP SYMMETRY SET TO C1
 *  THREADS=1  - MULTI-THREADING NOT USED
 *  T=         - A TIME OF 172800.0 SECONDS REQUESTED
 *  DUMP=N     - RESTART FILE WRITTEN EVERY  7200.000 SECONDS
 *  THERMO     - THERMODYNAMIC QUANTITIES TO BE CALCULATED
 *******************************************************************************
oldgeo thermo nosym precise THREADS=1  pm3
 InChI=1S/C10H10/c1-2-8-7-9-5-3-4-6-10(8)9/h2-4,6-8H,1,5H2

   ATOM   CHEMICAL          X               Y               Z
  NUMBER   SYMBOL      (ANGSTROMS)     (ANGSTROMS)     (ANGSTROMS)
 
     1       C          1.35116985  *  -0.20834610  *  -0.37927217  *
     2       C         -2.00717492  *  -1.27688006  *   0.11752740  *
     3       C         -0.07452169  *   0.34685590  *  -0.37342998  *
     4       C         -0.57564960  *  -1.00752563  *  -0.04684829  *
     5       C          0.66323744  *  -1.55298600  *  -0.02579436  *
     6       C          2.24047035  *   0.32692401  *   0.67962743  *
     7       C         -2.80379794  *  -0.02398062  *  -0.07661690  *
     8       C         -0.85432245  *   1.41363269  *  -0.53089795  *
     9       C         -2.28586923  *   1.18192115  *  -0.36726343  *
    10       C          3.48170335  *   0.73151902  *   0.43636684  *
    11       H          1.82915486  *  -0.20380264  *  -1.38156602  *
    12       H         -2.21058771  *  -1.69343561  *   1.12489017  *
    13       H         -2.34317234  *  -2.04554150  *  -0.60778457  *
    14       H          1.09360356  *  -2.52674236  *   0.15536638  *
    15       H          1.81411589  *   0.37034521  *   1.68888172  *
    16       H         -3.88777294  *  -0.14172725  *   0.03513076  *
    17       H         -2.94146084  *   2.05027118  *  -0.49348188  *
    18       H         -0.49035332  *   2.41596679  *  -0.76724873  *
    19       H          3.93634821  *   0.70450868  *  -0.55050079  *
    20       H          4.13230097  *   1.12044832  *   1.21368847  *
 


          CARTESIAN COORDINATES 

    NO.       ATOM           X           Y           Z

     1         C          1.3512     -0.2083     -0.3793
     2         C         -2.0072     -1.2769      0.1175
     3         C         -0.0745      0.3469     -0.3734
     4         C         -0.5756     -1.0075     -0.0468
     5         C          0.6632     -1.5530     -0.0258
     6         C          2.2405      0.3269      0.6796
     7         C         -2.8038     -0.0240     -0.0766
     8         C         -0.8543      1.4136     -0.5309
     9         C         -2.2859      1.1819     -0.3673
    10         C          3.4817      0.7315      0.4364
    11         H          1.8292     -0.2038     -1.3816
    12         H         -2.2106     -1.6934      1.1249
    13         H         -2.3432     -2.0455     -0.6078
    14         H          1.0936     -2.5267      0.1554
    15         H          1.8141      0.3703      1.6889
    16         H         -3.8878     -0.1417      0.0351
    17         H         -2.9415      2.0503     -0.4935
    18         H         -0.4904      2.4160     -0.7672
    19         H          3.9363      0.7045     -0.5505
    20         H          4.1323      1.1204      1.2137

  H: (PM3): J. J. P. STEWART, J. COMP. CHEM. 10, 209 (1989).
  C: (PM3): J. J. P. STEWART, J. COMP. CHEM. 10, 209 (1989).

           Empirical Formula: C10 H10  =    20 atoms



      MOLECULAR POINT GROUP   :   C1  


      RHF CALCULATION, NO. OF DOUBLY OCCUPIED LEVELS = 25



          HEAT OF FORMATION =      95.988479 KCALS/MOLE


          CARTESIAN COORDINATE DERIVATIVES

   NUMBER  ATOM         X            Y            Z

     1       C      0.001456    -0.001141    -0.003163
     2       C     -0.005397    -0.000439     0.001733
     3       C     -0.000423    -0.003838    -0.001839
     4       C      0.000182     0.005786    -0.001137
     5       C     -0.001036     0.000377    -0.001319
     6       C     -0.004756    -0.006055     0.001553
     7       C      0.002561    -0.003429    -0.000362
     8       C      0.006427     0.003877    -0.000055
     9       C     -0.004891    -0.001122     0.001800
    10       C      0.001422     0.001635    -0.001409
    11       H      0.000771    -0.001910    -0.000255
    12       H     -0.003638     0.000979    -0.000886
    13       H     -0.002401     0.006008    -0.000379
    14       H      0.005331     0.001158     0.002077
    15       H      0.003207     0.000810    -0.002102
    16       H      0.000767    -0.004701     0.000238
    17       H     -0.005699    -0.002641    -0.000346
    18       H      0.002411     0.000898     0.001199
    19       H      0.000571     0.003323     0.002967
    20       H      0.003136     0.000426     0.001685
 


          GRADIENT NORM =   0.02208


          TIME FOR SCF CALCULATION =    0.02

          TIME FOR DERIVATIVES     =    0.01

          MOLECULAR WEIGHT =  130.19



          ROTATIONAL CONSTANTS IN CM(-1)

          A =    0.10795817   B =    0.03059167   C =    0.02518218



           PRINCIPAL MOMENTS OF INERTIA IN UNITS OF 10**(-40)*GRAM-CM**2

          A =      259.2928   B =      915.0457   C =     1111.6105


          ORIENTATION OF MOLECULE IN FORCE CALCULATION

    NO.       ATOM         X         Y         Z

     1          C      -1.3288   -0.5920    0.2469
     2          C       2.2303   -0.5920    0.2469
     3          C      -0.1494    0.3827    0.2469
     4          C       0.7757   -0.7733    0.2376
     5          C      -0.2266   -1.6833    0.2246
     6          C      -2.1808   -0.5505   -0.9659
     7          C       2.5787    0.8643    0.2526
     8          C       0.2442    1.6539    0.2524
     9          C       1.6874    1.8705    0.2550
    10          C      -3.5075   -0.5318   -0.9095
    11          H      -1.9211   -0.5778    1.1861
    12          H       2.6879   -1.0794   -0.6377
    13          H       2.6769   -1.0831    1.1353
    14          H      -0.3151   -2.7594    0.2060
    15          H      -1.6507   -0.5376   -1.9256
    16          H       3.6525    1.0841    0.2550
    17          H       2.0277    2.9116    0.2591
    18          H      -0.4332    2.5107    0.2546
    19          H      -4.0661   -0.5421    0.0227
    20          H      -4.1296   -0.5044   -1.7989


    FIRST DERIVATIVES WILL BE USED IN THE CALCULATION OF SECOND DERIVATIVES

          ESTIMATED TIME TO COMPLETE CALCULATION =        8.44 SECONDS

    FOR POINT-GROUP C1   THERE ARE   1 UNIQUE SYMMETRY FUNCTIONS.

 STEP:   1 TIME =     0.05 SECS, INTEGRAL =      0.05 TIME LEFT: 172799.91
 STEP:   2 TIME =     0.05 SECS, INTEGRAL =      0.10 TIME LEFT: 172799.86
 STEP:   3 TIME =     0.05 SECS, INTEGRAL =      0.15 TIME LEFT: 172799.82
 STEP:   4 TIME =     0.05 SECS, INTEGRAL =      0.20 TIME LEFT: 172799.77
 STEP:   5 TIME =     0.05 SECS, INTEGRAL =      0.24 TIME LEFT: 172799.72
 STEP:   6 TIME =     0.05 SECS, INTEGRAL =      0.29 TIME LEFT: 172799.68
 STEP:   7 TIME =     0.04 SECS, INTEGRAL =      0.33 TIME LEFT: 172799.63
 STEP:   8 TIME =     0.05 SECS, INTEGRAL =      0.38 TIME LEFT: 172799.58
 STEP:   9 TIME =     0.05 SECS, INTEGRAL =      0.43 TIME LEFT: 172799.54
 STEP:  10 TIME =     0.04 SECS, INTEGRAL =      0.47 TIME LEFT: 172799.49
 STEP:  11 TIME =     0.05 SECS, INTEGRAL =      0.52 TIME LEFT: 172799.45
 STEP:  12 TIME =     0.05 SECS, INTEGRAL =      0.57 TIME LEFT: 172799.40
 STEP:  13 TIME =     0.04 SECS, INTEGRAL =      0.61 TIME LEFT: 172799.36
 STEP:  14 TIME =     0.05 SECS, INTEGRAL =      0.66 TIME LEFT: 172799.31
 STEP:  15 TIME =     0.05 SECS, INTEGRAL =      0.70 TIME LEFT: 172799.26
 STEP:  16 TIME =     0.05 SECS, INTEGRAL =      0.75 TIME LEFT: 172799.21
 STEP:  17 TIME =     0.05 SECS, INTEGRAL =      0.80 TIME LEFT: 172799.17
 STEP:  18 TIME =     0.04 SECS, INTEGRAL =      0.84 TIME LEFT: 172799.12
 STEP:  19 TIME =     0.05 SECS, INTEGRAL =      0.89 TIME LEFT: 172799.08
 STEP:  20 TIME =     0.05 SECS, INTEGRAL =      0.93 TIME LEFT: 172799.03
 STEP:  21 TIME =     0.05 SECS, INTEGRAL =      0.98 TIME LEFT: 172798.98
 STEP:  22 TIME =     0.05 SECS, INTEGRAL =      1.03 TIME LEFT: 172798.94
 STEP:  23 TIME =     0.04 SECS, INTEGRAL =      1.07 TIME LEFT: 172798.89
 STEP:  24 TIME =     0.05 SECS, INTEGRAL =      1.12 TIME LEFT: 172798.85
 STEP:  25 TIME =     0.05 SECS, INTEGRAL =      1.16 TIME LEFT: 172798.80
 STEP:  26 TIME =     0.04 SECS, INTEGRAL =      1.21 TIME LEFT: 172798.76
 STEP:  27 TIME =     0.05 SECS, INTEGRAL =      1.26 TIME LEFT: 172798.71
 STEP:  28 TIME =     0.05 SECS, INTEGRAL =      1.30 TIME LEFT: 172798.66
 STEP:  29 TIME =     0.05 SECS, INTEGRAL =      1.36 TIME LEFT: 172798.61
 STEP:  30 TIME =     0.05 SECS, INTEGRAL =      1.40 TIME LEFT: 172798.56
 STEP:  31 TIME =     0.05 SECS, INTEGRAL =      1.45 TIME LEFT: 172798.52
 STEP:  32 TIME =     0.05 SECS, INTEGRAL =      1.50 TIME LEFT: 172798.47
 STEP:  33 TIME =     0.05 SECS, INTEGRAL =      1.54 TIME LEFT: 172798.42
 STEP:  34 TIME =     0.04 SECS, INTEGRAL =      1.59 TIME LEFT: 172798.38
 STEP:  35 TIME =     0.05 SECS, INTEGRAL =      1.63 TIME LEFT: 172798.33
 STEP:  36 TIME =     0.05 SECS, INTEGRAL =      1.68 TIME LEFT: 172798.29
 STEP:  37 TIME =     0.05 SECS, INTEGRAL =      1.73 TIME LEFT: 172798.23
 STEP:  38 TIME =     0.05 SECS, INTEGRAL =      1.78 TIME LEFT: 172798.19
 STEP:  39 TIME =     0.05 SECS, INTEGRAL =      1.82 TIME LEFT: 172798.14
 STEP:  40 TIME =     0.05 SECS, INTEGRAL =      1.87 TIME LEFT: 172798.09
 STEP:  41 TIME =     0.05 SECS, INTEGRAL =      1.92 TIME LEFT: 172798.05
 STEP:  42 TIME =     0.05 SECS, INTEGRAL =      1.97 TIME LEFT: 172798.00
 STEP:  43 TIME =     0.05 SECS, INTEGRAL =      2.02 TIME LEFT: 172797.95
 STEP:  44 TIME =     0.05 SECS, INTEGRAL =      2.06 TIME LEFT: 172797.90
 STEP:  45 TIME =     0.05 SECS, INTEGRAL =      2.11 TIME LEFT: 172797.86
 STEP:  46 TIME =     0.05 SECS, INTEGRAL =      2.16 TIME LEFT: 172797.81
 STEP:  47 TIME =     0.04 SECS, INTEGRAL =      2.20 TIME LEFT: 172797.77
 STEP:  48 TIME =     0.05 SECS, INTEGRAL =      2.25 TIME LEFT: 172797.71
 STEP:  49 TIME =     0.05 SECS, INTEGRAL =      2.30 TIME LEFT: 172797.67
 STEP:  50 TIME =     0.05 SECS, INTEGRAL =      2.34 TIME LEFT: 172797.62
 STEP:  51 TIME =     0.05 SECS, INTEGRAL =      2.39 TIME LEFT: 172797.57
 STEP:  52 TIME =     0.05 SECS, INTEGRAL =      2.44 TIME LEFT: 172797.53
 STEP:  53 TIME =     0.05 SECS, INTEGRAL =      2.48 TIME LEFT: 172797.48
 STEP:  54 TIME =     0.05 SECS, INTEGRAL =      2.54 TIME LEFT: 172797.43
 STEP:  55 TIME =     0.05 SECS, INTEGRAL =      2.58 TIME LEFT: 172797.38
 STEP:  56 TIME =     0.05 SECS, INTEGRAL =      2.63 TIME LEFT: 172797.34
 STEP:  57 TIME =     0.05 SECS, INTEGRAL =      2.68 TIME LEFT: 172797.29
 STEP:  58 TIME =     0.05 SECS, INTEGRAL =      2.72 TIME LEFT: 172797.24
 STEP:  59 TIME =     0.05 SECS, INTEGRAL =      2.77 TIME LEFT: 172797.20
 STEP:  60 TIME =     0.05 SECS, INTEGRAL =      2.82 TIME LEFT: 172797.15

(To convert to Hartree/Bohr^2, multiply by (10^(-21) x N x a0^2)/(4.184 x 627.51) =  0.0642)


           FORCE MATRIX IN MILLIDYNES/ANGSTROM


                  C  1       C  2       C  3       C  4       C  5       C  6
 ------------------------------------------------------------------------------
     C    1  14.804277
     C    2   0.123325  15.085064
     C    3   3.708921   0.548313  19.549749
     C    4   2.267561   5.636701   4.785962  19.854701
     C    5   3.160986   0.442007   2.477681   9.792598  17.706516
     C    6   5.082803   0.019496   0.580817   0.051434   0.566192  18.318126
     C    7   0.013189   4.602741   0.215714   0.840090   0.053193   0.002896
     C    8   0.346104   0.121937  10.455562   0.920233   0.093992   0.017078
     C    9   0.121394   0.774278   1.338871   0.166022   0.051048   0.012872
     C   10   0.864540   0.003028   0.036315   0.006906   0.033419  11.061369
     H   11   4.406176   0.015183   0.411153   0.040521   0.405036   0.451987
     H   12   0.011984   4.395377   0.024646   0.429153   0.019893   0.002597
     H   13   0.012627   4.392691   0.025195   0.428814   0.019286   0.001763
     H   14   0.317791   0.037146   0.107471   0.425059   5.329597   0.011252
     H   15   0.442013   0.001137   0.011550   0.003984   0.010978   4.812221
     H   16   0.006907   0.420913   0.008895   0.052368   0.006420   0.001069
     H   17   0.005495   0.120015   0.050492   0.003776   0.000832   0.001241
     H   18   0.053918   0.005289   0.462353   0.116572   0.007134   0.006742
     H   19   0.101647   0.000605   0.010065   0.001209   0.009663   0.490091
     H   20   0.141241   0.000983   0.016586   0.001318   0.016904   0.460480


                  C  7       C  8       C  9       C 10       H 11       H 12
 ------------------------------------------------------------------------------
     C    7  17.616225
     C    8   1.058159  18.345319
     C    9   9.980935   5.306975  17.987532
     C   10   0.001599   0.002101   0.001811  18.032907
     H   11   0.001874   0.012707   0.011607   0.046839   4.910480
     H   12   0.424880   0.013560   0.039168   0.000760   0.001469   4.981302
     H   13   0.424603   0.013567   0.038999   0.000385   0.002004   0.560524
     H   14   0.000879   0.010542   0.001762   0.002537   0.005265   0.006565
     H   15   0.001005   0.002343   0.001188   0.452345   0.036965   0.000481
     H   16   4.816261   0.119353   0.439815   0.000465   0.000906   0.027324
     H   17   0.439179   0.431472   4.838880   0.000432   0.000749   0.015601
     H   18   0.046120   4.936452   0.435659   0.001936   0.006235   0.000993
     H   19   0.000553   0.001287   0.000708   5.065845   0.028532   0.000089
     H   20   0.000215   0.000988   0.000995   5.107275   0.002017   0.000218


                  H 13       H 14       H 15       H 16       H 17       H 18
 ------------------------------------------------------------------------------
     H   13   4.979030
     H   14   0.006521   5.705003
     H   15   0.000401   0.003163   5.173207
     H   16   0.026978   0.000486   0.000328   5.187443
     H   17   0.015633   0.000576   0.000382   0.068537   5.199192
     H   18   0.000966   0.006816   0.001046   0.006776   0.028312   5.310234
     H   19   0.000127   0.001236   0.119263   0.000154   0.000170   0.000608
     H   20   0.000211   0.000700   0.080693   0.000164   0.000216   0.000638


                  H 19       H 20
 ------------------------------
     H   19   5.461313
     H   20   0.423106   5.493163


          HEAT OF FORMATION =      95.988479 KCALS/MOLE

          ZERO POINT ENERGY     104.000 KCAL/MOL


           NORMAL COORDINATE ANALYSIS (Total motion = 1 Angstrom)


   Root No.       1         2         3         4         5         6         7         8

                 1 A       2 A       3 A       4 A       5 A       6 A       7 A       8 A   

                  54.5     112.1     142.1     227.8     314.5     360.5     394.1     441.5
  
           1    0.0071    0.0090    0.0024   -0.0033   -0.0068    0.0014    0.0078    0.0036
           2   -0.0346   -0.0030   -0.0129    0.0109    0.0009    0.0002    0.0204    0.0067
           3    0.0019   -0.0314    0.0019   -0.0147    0.0167   -0.0518    0.0072    0.0165
           4    0.0070    0.0089    0.0021   -0.0022   -0.0053    0.0011   -0.0254   -0.0035
           5    0.0109    0.0023    0.0008   -0.0010   -0.0014    0.0001   -0.0184   -0.0043
           6    0.0061    0.0417    0.0411    0.0253   -0.0086   -0.0075   -0.0001    0.0020
           7   -0.0050    0.0072   -0.0011   -0.0015   -0.0102   -0.0005   -0.0041    0.0032
           8   -0.0197   -0.0010   -0.0102    0.0143    0.0151   -0.0002    0.0127    0.0012
           9    0.0014   -0.0353    0.0330   -0.0064    0.0530    0.0193    0.0033   -0.0045
          10    0.0093    0.0093    0.0031   -0.0033   -0.0066    0.0005   -0.0191   -0.0019
          11   -0.0082    0.0005   -0.0066    0.0122    0.0171   -0.0003   -0.0016   -0.0036
          12    0.0049   -0.0137    0.0169   -0.0145    0.0278    0.0741   -0.0293   -0.0001
          13    0.0205    0.0107    0.0059   -0.0030    0.0010    0.0005   -0.0221   -0.0046
          14   -0.0206   -0.0008   -0.0093    0.0129    0.0123    0.0004    0.0044    0.0001
          15    0.0037   -0.0398   -0.0316   -0.0136   -0.0488    0.0134   -0.0193   -0.0130
          16    0.0082   -0.0308    0.0053   -0.0122   -0.0040   -0.0006    0.0621    0.0094
          17   -0.0354   -0.0017    0.0388   -0.0398   -0.0263    0.0007   -0.0009    0.0010
          18    0.0010   -0.0021    0.0016   -0.0110    0.0141   -0.0549   -0.0214    0.0181
          19   -0.0118    0.0071   -0.0050    0.0101    0.0098    0.0008   -0.0330   -0.0085
          20    0.0154    0.0027    0.0030   -0.0045   -0.0070    0.0002   -0.0172   -0.0026
          21   -0.0041    0.0470   -0.0287   -0.0317    0.0152   -0.0256    0.0149   -0.0428
          22   -0.0217    0.0059   -0.0082    0.0124    0.0096    0.0002   -0.0196   -0.0043
          23   -0.0146   -0.0005   -0.0081    0.0105    0.0108   -0.0004    0.0163    0.0032
          24   -0.0067   -0.0400    0.0089    0.0512   -0.0180    0.0024    0.0009   -0.0410
          25   -0.0246    0.0056   -0.0095    0.0152    0.0139    0.0002   -0.0188   -0.0051
          26    0.0041    0.0015   -0.0009   -0.0001   -0.0034   -0.0004   -0.0032    0.0006
          27   -0.0098    0.0032   -0.0360    0.0054   -0.0142    0.0179   -0.0150    0.0600
          28    0.0101   -0.0290    0.0047   -0.0116   -0.0045    0.0011    0.0682    0.0100
          29    0.0911   -0.0002    0.0028   -0.0080   -0.0072   -0.0004   -0.0055   -0.0011
          30    0.0020    0.0519   -0.0021    0.0003   -0.0113    0.0279    0.0451   -0.0002
          31    0.0062    0.0314    0.0011   -0.0018   -0.0042   -0.0265   -0.0071    0.0156
          32   -0.0416   -0.0067   -0.0492    0.0172   -0.0397   -0.0006    0.0250    0.0107
          33    0.0014   -0.0159    0.0015   -0.0136    0.0182   -0.0669   -0.0023    0.0235
          34    0.0152    0.0465    0.0299    0.0308   -0.0455   -0.0725   -0.0022    0.0255
          35    0.0100   -0.0027   -0.0495   -0.0588    0.0235    0.0093   -0.0149   -0.0764
          36    0.0108    0.0641    0.0837    0.0751   -0.0439   -0.0516    0.0102    0.0587
          37    0.0115   -0.0277   -0.0210   -0.0455    0.0213    0.0756   -0.0545   -0.0314
          38    0.0235    0.0084    0.0559    0.0477   -0.0395   -0.0086   -0.0266    0.0693
          39    0.0108    0.0636    0.0837    0.0748   -0.0437   -0.0508    0.0102    0.0587
          40    0.0341    0.0127    0.0094   -0.0026    0.0098    0.0014   -0.0399   -0.0123
          41   -0.0218   -0.0007   -0.0088    0.0128    0.0134    0.0008    0.0063    0.0014
          42    0.0043   -0.0511   -0.0777   -0.0098   -0.1545   -0.0104   -0.0332   -0.0491
          43    0.0079   -0.0673    0.0082   -0.0208    0.0067   -0.0365    0.0618    0.0203
          44   -0.1394   -0.0019    0.1120   -0.1230   -0.0931    0.0019   -0.0407   -0.0109
          45   -0.0005   -0.0219    0.0042   -0.0168    0.0186   -0.0728   -0.0204    0.0236
          46   -0.0146    0.0067   -0.0060    0.0117    0.0114    0.0007   -0.0319   -0.0084
          47    0.0292    0.0041    0.0082   -0.0118   -0.0154    0.0008   -0.0225   -0.0024
          48   -0.0067    0.0879   -0.0705   -0.0951    0.0453   -0.0661    0.0401   -0.0898
          49   -0.0380    0.0040   -0.0143    0.0221    0.0217   -0.0002   -0.0011   -0.0018
          50    0.0085    0.0020    0.0008   -0.0022   -0.0058   -0.0004   -0.0090   -0.0011
          51   -0.0171    0.0049   -0.0838   -0.0171   -0.0233    0.0394   -0.0366    0.1913
          52   -0.0330    0.0050   -0.0130    0.0218    0.0237    0.0006   -0.0204   -0.0073
          53   -0.0235   -0.0012   -0.0119    0.0178    0.0222    0.0001    0.0153    0.0010
          54   -0.0118   -0.0648    0.0070    0.1080   -0.0763   -0.0509    0.0195   -0.1343
          55    0.0106    0.0088    0.0016   -0.0029   -0.0243    0.0703    0.1356   -0.0052
          56    0.1959   -0.0001   -0.0692    0.0752    0.0618   -0.0025    0.0363    0.0126
          57    0.0035    0.0748   -0.0048    0.0066   -0.0227    0.0707    0.0872   -0.0095
          58    0.0112   -0.0659    0.0073   -0.0202    0.0153   -0.0690    0.0063    0.0268
          59    0.0989    0.0009    0.0427   -0.0623   -0.0583    0.0003   -0.0530   -0.0173
          60    0.0015    0.0778   -0.0027    0.0046   -0.0270    0.0777    0.0890   -0.0124


   Root No.       9        10        11        12        13        14        15        16

                 9 A      10 A      11 A      12 A      13 A      14 A      15 A      16 A   

                 465.4     535.3     612.2     666.7     676.1     750.4     837.0     847.3
  
           1   -0.0052   -0.0233   -0.0215   -0.0100    0.0236    0.0005    0.0146   -0.0318
           2   -0.0405   -0.0290    0.0045    0.0225   -0.0127   -0.0014    0.0077   -0.0244
           3    0.0007    0.0086    0.0022    0.0036   -0.0208   -0.0004   -0.0142    0.0249
           4   -0.0103   -0.0436    0.0232    0.0313   -0.0140   -0.0013   -0.0064    0.0321
           5   -0.0086    0.0473    0.0106   -0.0100   -0.0237   -0.0003    0.0111   -0.0264
           6   -0.0007   -0.0033   -0.0112   -0.0089   -0.0139   -0.0175    0.0233    0.0224
           7   -0.0433   -0.0125   -0.0199    0.0125    0.0296    0.0002    0.0012   -0.0071
           8    0.0280   -0.0110   -0.0139   -0.0023    0.0150    0.0002    0.0038    0.0003
           9   -0.0055    0.0129    0.0448    0.0324    0.0576   -0.0087    0.0125   -0.0075
          10   -0.0099   -0.0371    0.0099    0.0167    0.0014   -0.0003   -0.0051    0.0106
          11    0.0531   -0.0158    0.0104   -0.0083   -0.0111    0.0004   -0.0050   -0.0008
          12   -0.0098   -0.0171   -0.0330   -0.0151   -0.0261    0.0250    0.0031   -0.0034
          13    0.0359   -0.0318    0.0019   -0.0231    0.0180    0.0028   -0.0123   -0.0131
          14    0.0109   -0.0286    0.0147    0.0291   -0.0214   -0.0021    0.0002    0.0217
          15    0.0115    0.0013    0.0140    0.0023    0.0129    0.0075   -0.0464   -0.0114
          16    0.0056    0.0110   -0.0027   -0.0034   -0.0135   -0.0007    0.0039   -0.0007
          17   -0.0126   -0.0168    0.0269   -0.0481    0.0016    0.0019   -0.0034   -0.0000
          18   -0.0052   -0.0147   -0.0228   -0.0131   -0.0082   -0.0012    0.0131   -0.0100
          19    0.0119    0.0326    0.0313    0.0010   -0.0485   -0.0015    0.0168   -0.0232
          20   -0.0234    0.0324    0.0068    0.0023   -0.0123   -0.0006    0.0031   -0.0002
          21   -0.0034   -0.0003    0.0007    0.0008    0.0003   -0.0218   -0.0129   -0.0026
          22   -0.0079    0.0487   -0.0089   -0.0074    0.0134    0.0006   -0.0099    0.0146
          23    0.0197   -0.0238   -0.0232    0.0012    0.0314    0.0004    0.0047    0.0005
          24   -0.0062   -0.0072   -0.0078    0.0003   -0.0001   -0.0002   -0.0031   -0.0190
          25    0.0064    0.0437   -0.0071   -0.0092    0.0108    0.0006   -0.0059    0.0110
          26   -0.0278    0.0367   -0.0285   -0.0050    0.0432    0.0013   -0.0180    0.0331
          27    0.0052    0.0024   -0.0014   -0.0033   -0.0043   -0.0318   -0.0125   -0.0034
          28    0.0067    0.0132   -0.0039   -0.0034   -0.0175   -0.0010    0.0064   -0.0010
          29    0.0057    0.0016   -0.0028    0.0024   -0.0003    0.0002   -0.0014    0.0003
          30    0.0049    0.0090    0.0008   -0.0010   -0.0058   -0.0005    0.0083   -0.0086
          31   -0.0110   -0.0404   -0.0555   -0.0308    0.0091   -0.0009    0.0324   -0.0433
          32   -0.0823   -0.0392   -0.0259    0.0589   -0.0507    0.0042   -0.0304   -0.1039
          33   -0.0025   -0.0026   -0.0186   -0.0097   -0.0291   -0.0015   -0.0015    0.0185
          34   -0.0191   -0.0237    0.0758    0.0800    0.0399    0.0148   -0.0792    0.0125
          35   -0.0398    0.0342   -0.0164   -0.0187   -0.0447   -0.0788    0.0320    0.0239
          36    0.0122    0.0155    0.0325    0.0220    0.0267    0.0367   -0.0270   -0.0184
          37   -0.0446   -0.0734   -0.0305    0.0101   -0.0582   -0.0191    0.0579    0.1055
          38   -0.0186    0.0610    0.0349    0.0170    0.0046    0.0773   -0.0109   -0.0517
          39    0.0117    0.0196    0.0308    0.0180    0.0259    0.0370   -0.0233   -0.0290
          40    0.1037   -0.0346    0.0063   -0.0732    0.0376    0.0094   -0.0599   -0.0199
          41    0.0049   -0.0289    0.0133    0.0335   -0.0252   -0.0012   -0.0014    0.0208
          42    0.0454    0.0075    0.0795   -0.0257    0.1257   -0.0773    0.2692    0.0471
          43    0.0079    0.0197   -0.0043   -0.0035   -0.0401   -0.0019   -0.0068    0.0363
          44    0.0613    0.0192   -0.0178   -0.0066   -0.0035    0.0051   -0.0354    0.0273
          45   -0.0026   -0.0085   -0.0233   -0.0121   -0.0229   -0.0019    0.0061    0.0115
          46    0.0127    0.0423    0.0258   -0.0044   -0.0422   -0.0015    0.0154   -0.0247
          47   -0.0286   -0.0156    0.0326    0.0296   -0.0428   -0.0035    0.0098    0.0092
          48   -0.0033    0.0123    0.0412    0.0350    0.0504    0.2601    0.0373   -0.0465
          49    0.0243    0.0182   -0.0345   -0.0131    0.0563    0.0017   -0.0146    0.0266
          50   -0.0333    0.0449   -0.0195   -0.0037    0.0283    0.0001   -0.0158    0.0287
          51    0.0217    0.0203    0.0279    0.0097    0.0165    0.1892    0.1001    0.0719
          52    0.0319    0.0526   -0.0007   -0.0165   -0.0002    0.0004   -0.0018    0.0116
          53    0.0513   -0.0194   -0.0168   -0.0062    0.0211   -0.0001    0.0111   -0.0018
          54   -0.0074   -0.0225   -0.0548   -0.0386   -0.0749    0.1490    0.0277    0.1031
          55    0.0162    0.0430    0.0300    0.0121   -0.0249    0.0005   -0.0385    0.0590
          56   -0.0844   -0.0518    0.0857   -0.1483    0.0143    0.0072   -0.0247    0.0261
          57    0.0099    0.0271    0.0232    0.0073   -0.0101    0.0005   -0.0204    0.0296
          58   -0.0019   -0.0146   -0.0409   -0.0196   -0.0167   -0.0030    0.0558   -0.0610
          59    0.1173    0.0785   -0.1349    0.2365   -0.0184   -0.0108    0.0315   -0.0286
          60    0.0147    0.0319    0.0232    0.0178   -0.0081    0.0006   -0.0258    0.0340


   Root No.      17        18        19        20        21        22        23        24

                17 A      18 A      19 A      20 A      21 A      22 A      23 A      24 A   

                 893.3     911.3     932.3     933.2     944.7     999.9    1005.2    1017.2
  
           1    0.0053    0.0146    0.0016   -0.0000    0.0047   -0.0160    0.0057    0.0208
           2   -0.0302    0.0030   -0.0002   -0.0010    0.0114    0.0130   -0.0047   -0.0056
           3   -0.0088   -0.0022   -0.0203   -0.0102    0.0084    0.0039   -0.0001   -0.0058
           4    0.0217   -0.0055   -0.0037    0.0011   -0.0099    0.0112   -0.0050   -0.0204
           5   -0.0010    0.0122   -0.0047   -0.0030    0.0066    0.0143   -0.0118    0.0409
           6   -0.0156    0.0212    0.0077   -0.0258   -0.0181    0.0098    0.0305    0.0061
           7   -0.0033    0.0110   -0.0038   -0.0042    0.0106   -0.0202    0.0142    0.0141
           8    0.0212    0.0110   -0.0095   -0.0027   -0.0021    0.0036   -0.0007   -0.0082
           9   -0.0097    0.0261    0.0086    0.0078    0.0094    0.0058    0.0130    0.0003
          10   -0.0043   -0.0048    0.0037    0.0012    0.0004   -0.0036    0.0005    0.0144
          11   -0.0208   -0.0139    0.0133    0.0034    0.0004   -0.0094    0.0025    0.0082
          12    0.0087   -0.0234   -0.0096    0.0159    0.0148   -0.0080   -0.0283   -0.0063
          13   -0.0308    0.0020   -0.0033   -0.0029    0.0065    0.0092   -0.0029   -0.0007
          14   -0.0096   -0.0264    0.0242    0.0091   -0.0018   -0.0228    0.0042    0.0351
          15    0.0061    0.0260    0.0101   -0.0030   -0.0177   -0.0058    0.0154    0.0149
          16    0.0021   -0.0039    0.0058    0.0034   -0.0039    0.0020   -0.0006   -0.0020
          17   -0.0072    0.0004   -0.0224    0.0156   -0.0238   -0.0002   -0.0002   -0.0003
          18    0.0044   -0.0063    0.0011    0.0012   -0.0001   -0.0060   -0.0030    0.0055
          19    0.0184    0.0170   -0.0090   -0.0040    0.0029   -0.0237    0.0194   -0.0313
          20    0.0062    0.0012   -0.0009   -0.0000   -0.0014   -0.0128    0.0104   -0.0258
          21    0.0023    0.0095    0.0018    0.0167    0.0094   -0.0139   -0.0418   -0.0088
          22   -0.0163   -0.0161    0.0103    0.0045   -0.0027    0.0113   -0.0107    0.0127
          23    0.0385    0.0264   -0.0221   -0.0077   -0.0003    0.0005    0.0060   -0.0165
          24    0.0057   -0.0305   -0.0029   -0.0344   -0.0230   -0.0091   -0.0222   -0.0025
          25    0.0004   -0.0048    0.0011    0.0011   -0.0033    0.0003    0.0002   -0.0048
          26   -0.0083   -0.0188    0.0085    0.0046   -0.0072   -0.0093    0.0067   -0.0247
          27    0.0077   -0.0137   -0.0085    0.0169    0.0144    0.0157    0.0415    0.0061
          28    0.0037   -0.0071    0.0098    0.0052   -0.0060    0.0030   -0.0019   -0.0033
          29   -0.0006    0.0002   -0.0067    0.0036   -0.0086   -0.0042    0.0016    0.0013
          30    0.0073   -0.0052    0.0287    0.0150   -0.0164    0.0114   -0.0000   -0.0108
          31   -0.0017    0.0001   -0.0418   -0.0250    0.0335   -0.0493   -0.0095    0.0489
          32   -0.0979    0.0226    0.0065   -0.0513    0.0465    0.0974   -0.0278   -0.1374
          33   -0.0112   -0.0122   -0.0473   -0.0248    0.0257   -0.0192   -0.0096    0.0150
          34    0.0717   -0.0017   -0.0111    0.0416   -0.0064    0.0448   -0.1489    0.0082
          35   -0.0151    0.0925    0.0148   -0.0513   -0.0440    0.0756   -0.0523    0.1133
          36    0.0188   -0.0224   -0.0076    0.0234    0.0134   -0.0077   -0.0227   -0.0183
          37    0.0252   -0.0066   -0.0201   -0.0423   -0.0368    0.1265    0.0447    0.0176
          38    0.0499   -0.0573   -0.0459    0.0410    0.0465    0.0906   -0.0633    0.0843
          39    0.0124   -0.0189   -0.0075    0.0223    0.0183   -0.0056   -0.0248    0.0094
          40   -0.1292   -0.0129   -0.0087   -0.0122    0.0188    0.0727   -0.0099   -0.1174
          41   -0.0030   -0.0238    0.0264    0.0097   -0.0040   -0.0290    0.0060    0.0471
          42   -0.0158   -0.1055   -0.0374    0.0245    0.0714    0.0053   -0.0529   -0.0329
          43   -0.0087   -0.0225   -0.0468   -0.0255    0.0245   -0.0093   -0.0171   -0.0015
          44    0.0839   -0.0063    0.1641   -0.1212    0.1579    0.0106   -0.0027   -0.0077
          45   -0.0007   -0.0165   -0.0260   -0.0169    0.0183   -0.0121   -0.0121    0.0056
          46    0.0133    0.0164   -0.0076   -0.0037    0.0043   -0.0270    0.0205   -0.0215
          47    0.0363    0.0084   -0.0106   -0.0017   -0.0087    0.0049    0.0020   -0.0750
          48    0.0234   -0.1249   -0.0323   -0.0591   -0.0226    0.0568    0.1585    0.0270
          49    0.0264    0.0128   -0.0209   -0.0059   -0.0059    0.0596   -0.0349    0.0620
          50   -0.0157   -0.0253    0.0153    0.0073   -0.0065   -0.0289    0.0195   -0.0492
          51   -0.0631    0.1272    0.0530   -0.0734   -0.0656   -0.0599   -0.1525   -0.0210
          52    0.0295    0.0068   -0.0147   -0.0017   -0.0142    0.0918   -0.0602    0.0160
          53    0.0767    0.0450   -0.0430   -0.0134   -0.0101    0.0644   -0.0332   -0.0163
          54   -0.0272    0.1471    0.0141    0.1618    0.1054    0.0280    0.0615    0.0048
          55   -0.0290    0.0033   -0.1142   -0.0605    0.0627   -0.0388   -0.0074    0.0325
          56    0.0603   -0.0050    0.1134   -0.0792    0.1141    0.0195   -0.0071   -0.0073
          57   -0.0127    0.0015   -0.0477   -0.0271    0.0279   -0.0142   -0.0034    0.0113
          58    0.0387   -0.0248    0.1371    0.0704   -0.0735    0.0441   -0.0013   -0.0393
          59   -0.0360    0.0044    0.0027   -0.0008    0.0281    0.0205   -0.0077   -0.0058
          60   -0.0187    0.0068   -0.0622   -0.0318    0.0330   -0.0171   -0.0012    0.0145


   Root No.      25        26        27        28        29        30        31        32

                25 A      26 A      27 A      28 A      29 A      30 A      31 A      32 A   

                1029.8    1049.6    1065.7    1103.1    1140.2    1152.1    1160.6    1169.8
  
           1    0.0003   -0.0009    0.0241   -0.0074   -0.0171   -0.0141    0.0076   -0.0044
           2    0.0061   -0.0027    0.0104   -0.0022    0.0992   -0.0046    0.0224    0.0004
           3   -0.0004    0.0026   -0.0123    0.0057    0.0217    0.0213   -0.0188   -0.0526
           4    0.0012   -0.0027    0.0031   -0.0123   -0.0040   -0.0011    0.0043   -0.0004
           5   -0.0042    0.0044   -0.0150    0.0031   -0.0025    0.0132   -0.0071    0.0031
           6    0.0007   -0.0061    0.0014   -0.0004   -0.0008   -0.0005    0.0004    0.0007
           7   -0.0038    0.0082   -0.0335    0.0487   -0.0109    0.0139   -0.0175    0.0053
           8    0.0010   -0.0014    0.0055   -0.0018    0.0049   -0.0101    0.0072   -0.0032
           9   -0.0065    0.0018    0.0081   -0.0060   -0.0181   -0.0072    0.0046    0.0055
          10   -0.0009    0.0020   -0.0022   -0.0027    0.0050    0.0146   -0.0224    0.0060
          11   -0.0017   -0.0001    0.0069   -0.0107   -0.0231    0.0026    0.0089   -0.0023
          12    0.0000   -0.0272   -0.0073    0.0014    0.0036    0.0042   -0.0034   -0.0053
          13    0.0023   -0.0011    0.0138   -0.0288    0.0447    0.0271   -0.0091    0.0055
          14   -0.0045    0.0032   -0.0096    0.0199   -0.0368   -0.0057   -0.0129    0.0008
          15    0.0074    0.0093    0.0081    0.0011    0.0019   -0.0086    0.0082    0.0054
          16    0.0006    0.0001   -0.0011    0.0002    0.0008    0.0015   -0.0017   -0.0087
          17    0.0449    0.0021   -0.0023   -0.0038   -0.0267    0.0021   -0.0060   -0.0002
          18    0.0010   -0.0036    0.0090   -0.0040   -0.0120   -0.0097    0.0068    0.0265
          19    0.0025    0.0010   -0.0126   -0.0056    0.0072   -0.0078   -0.0005   -0.0008
          20    0.0028   -0.0025    0.0093    0.0042    0.0019    0.0038   -0.0031    0.0014
          21   -0.0019    0.0424    0.0021    0.0001    0.0002   -0.0000    0.0000    0.0002
          22   -0.0001   -0.0041    0.0284    0.0226   -0.0066    0.0002    0.0126   -0.0026
          23   -0.0001    0.0032   -0.0215    0.0059    0.0029    0.0024   -0.0072    0.0013
          24    0.0027    0.0067   -0.0029    0.0021    0.0051    0.0021   -0.0014   -0.0023
          25    0.0002    0.0009   -0.0112   -0.0219    0.0011   -0.0060    0.0077   -0.0023
          26    0.0026   -0.0017    0.0013   -0.0257    0.0040   -0.0043   -0.0032    0.0002
          27   -0.0002   -0.0174    0.0003   -0.0005   -0.0007   -0.0002    0.0001   -0.0001
          28   -0.0011   -0.0006   -0.0010   -0.0003   -0.0018   -0.0019    0.0008   -0.0157
          29   -0.0729   -0.0020    0.0025    0.0015    0.0119   -0.0007    0.0023   -0.0000
          30   -0.0015    0.0017   -0.0094    0.0027    0.0062    0.0038   -0.0011    0.0115
          31   -0.0010   -0.0167    0.0750   -0.0295   -0.1129   -0.1056    0.0814   -0.1559
          32   -0.0927   -0.0142    0.0070   -0.1056   -0.3401    0.0316   -0.0741    0.0104
          33    0.0003   -0.0075    0.0208   -0.0070   -0.0343   -0.0386    0.0298   -0.1516
          34    0.0039   -0.2151   -0.0410   -0.0348    0.0026   -0.0917    0.0277   -0.0235
          35   -0.0021   -0.2031   -0.0595   -0.0024   -0.0005   -0.0547    0.0067   -0.0115
          36    0.0007   -0.0001    0.0030   -0.0066    0.0010   -0.0076    0.0052   -0.0030
          37   -0.0113    0.2090    0.0089   -0.0393   -0.0047   -0.0990    0.0340   -0.0125
          38   -0.0204    0.2186   -0.0234   -0.0040   -0.0023   -0.0574    0.0093   -0.0068
          39   -0.0020    0.0070   -0.0059    0.0067    0.0001    0.0074   -0.0057    0.0010
          40   -0.0067    0.0065   -0.1354    0.2087   -0.0169   -0.1246    0.0424   -0.0112
          41   -0.0034    0.0035    0.0033    0.0007   -0.0314    0.0065   -0.0171    0.0026
          42   -0.0175   -0.0354   -0.0177   -0.0007   -0.0037    0.0132   -0.0131   -0.0162
          43   -0.0013   -0.0121   -0.0039   -0.0009   -0.0091   -0.0217    0.0389    0.4083
          44   -0.1291   -0.0066    0.0073    0.0044    0.0612   -0.0029    0.0115   -0.0112
          45   -0.0025   -0.0104    0.0074   -0.0044   -0.0159   -0.0220    0.0289    0.2546
          46    0.0014    0.0050   -0.0349   -0.0401    0.0272   -0.0332   -0.0476    0.0049
          47    0.0078   -0.0193    0.1057    0.1592   -0.0920    0.1212    0.2246   -0.0269
          48    0.0048   -0.0843   -0.0024    0.0006    0.0001    0.0005    0.0008   -0.0006
          49   -0.0115    0.0183   -0.1248   -0.0843   -0.0707    0.1608    0.1438   -0.0021
          50    0.0067   -0.0080    0.0399   -0.0056    0.0277   -0.0590   -0.0478    0.0001
          51    0.0006    0.0411   -0.0015    0.0006    0.0008    0.0003   -0.0001    0.0001
          52    0.0028   -0.0245    0.1604    0.1155   -0.0081    0.0306   -0.1289    0.0272
          53    0.0024   -0.0130    0.0830    0.0789    0.0031    0.0257   -0.1215    0.0251
          54   -0.0113   -0.0269    0.0111   -0.0081   -0.0202   -0.0078    0.0047    0.0085
          55    0.0039   -0.0099    0.0305   -0.0105   -0.0307   -0.0258    0.0166   -0.0077
          56    0.2452    0.0061   -0.0085   -0.0046   -0.0373    0.0023   -0.0076   -0.0000
          57    0.0050   -0.0038    0.0096   -0.0034   -0.0111   -0.0097    0.0077    0.0201
          58    0.0042    0.0052   -0.0275    0.0059    0.0049   -0.0023    0.0064   -0.0115
          59    0.2951    0.0069   -0.0057   -0.0057   -0.0134    0.0010   -0.0016   -0.0000
          60    0.0061   -0.0024    0.0093   -0.0021   -0.0002    0.0031   -0.0041    0.0115


   Root No.      33        34        35        36        37        38        39        40

                33 A      34 A      35 A      36 A      37 A      38 A      39 A      40 A   

                1198.9    1212.4    1309.8    1329.7    1344.8    1389.3    1403.4    1439.2
  
           1   -0.0081    0.0195   -0.0456    0.0027    0.0041   -0.0194    0.0718    0.0459
           2    0.0109    0.0108   -0.0001   -0.0001   -0.0020    0.0030   -0.0048    0.0119
           3   -0.0049   -0.0212   -0.0191    0.0002   -0.0020   -0.0127    0.0480    0.0241
           4    0.0072    0.0067    0.0059   -0.0135    0.0664    0.0389   -0.0050    0.0482
           5    0.0043   -0.0004    0.0065   -0.0430    0.0491   -0.0380   -0.0230    0.0276
           6    0.0002    0.0001    0.0001   -0.0001    0.0005    0.0000   -0.0000    0.0003
           7   -0.0106   -0.0208    0.0168   -0.0233   -0.0356    0.0297   -0.0220    0.0246
           8   -0.0143   -0.0097   -0.0016   -0.0048    0.0291   -0.0030    0.0193   -0.0354
           9    0.0051    0.0002    0.0039    0.0002    0.0006    0.0015   -0.0062   -0.0035
          10    0.0113    0.0035    0.0038    0.0257    0.0170   -0.0329   -0.0001   -0.0366
          11   -0.0145   -0.0113    0.0009   -0.0315   -0.0310    0.0472   -0.0071    0.0669
          12   -0.0021   -0.0015   -0.0017   -0.0003   -0.0004   -0.0004    0.0029    0.0020
          13   -0.0075   -0.0191    0.0162    0.0124   -0.0231   -0.0065   -0.0140   -0.0373
          14    0.0090    0.0104   -0.0079    0.0232   -0.0097   -0.0269    0.0064   -0.0296
          15    0.0063    0.0014    0.0034    0.0001   -0.0001    0.0015   -0.0057   -0.0027
          16   -0.0046    0.0042   -0.0269    0.0002    0.0024    0.0050   -0.0157   -0.0051
          17   -0.0019   -0.0032    0.0002    0.0010    0.0004   -0.0016    0.0017   -0.0021
          18   -0.0234    0.0489    0.0140   -0.0002    0.0019    0.0109   -0.0403   -0.0196
          19    0.0016    0.0025   -0.0034    0.0132   -0.0274    0.0023    0.0048   -0.0113
          20    0.0150    0.0139   -0.0078   -0.0128   -0.0222    0.0309    0.0296   -0.0479
          21    0.0001    0.0001    0.0000   -0.0000   -0.0001    0.0001    0.0000   -0.0002
          22   -0.0199   -0.0161    0.0036   -0.0325    0.0326    0.0231    0.0250   -0.0590
          23   -0.0092   -0.0144    0.0125    0.0011    0.0167   -0.0060   -0.0097   -0.0240
          24   -0.0011   -0.0004   -0.0007   -0.0001    0.0000   -0.0003    0.0012    0.0004
          25   -0.0041   -0.0015    0.0014    0.0350    0.0012   -0.0418   -0.0296    0.0507
          26    0.0114    0.0115   -0.0038    0.0171   -0.0131   -0.0047   -0.0067    0.0229
          27    0.0001   -0.0001   -0.0001    0.0001   -0.0001   -0.0001    0.0002    0.0003
          28   -0.0036    0.0127   -0.0026    0.0001    0.0026    0.0096   -0.0363   -0.0188
          29    0.0007    0.0009    0.0000   -0.0002   -0.0002    0.0001    0.0003    0.0007
          30    0.0116   -0.0220   -0.0025   -0.0000   -0.0006   -0.0018    0.0064    0.0026
          31    0.1676   -0.0923    0.0287    0.0024    0.0093    0.0212   -0.0858   -0.0395
          32   -0.0308   -0.0209    0.0011    0.0165    0.0088   -0.0182    0.0073   -0.0328
          33    0.1082   -0.0899    0.0294    0.0005    0.0025    0.0123   -0.0527   -0.0308
          34   -0.0424   -0.0147   -0.0269   -0.1073   -0.1599   -0.0632   -0.0003   -0.0281
          35   -0.0452   -0.0319    0.0046    0.1836   -0.0393    0.0941    0.0259   -0.0024
          36    0.0015    0.0054   -0.0138   -0.1494   -0.0597   -0.1085   -0.0210   -0.0204
          37   -0.0394   -0.0125   -0.0258   -0.1086   -0.1596   -0.0650   -0.0016   -0.0296
          38   -0.0440   -0.0307    0.0050    0.1829   -0.0390    0.0937    0.0253   -0.0028
          39   -0.0027   -0.0060    0.0132    0.1486    0.0574    0.1080    0.0215    0.0203
          40    0.0541    0.0866   -0.0357    0.0139    0.0552   -0.0305    0.0268    0.0016
          41    0.0047    0.0022   -0.0038    0.0252   -0.0192   -0.0272    0.0027   -0.0363
          42   -0.0066   -0.0037   -0.0042    0.0004   -0.0005   -0.0025    0.0071    0.0029
          43    0.0735   -0.1198   -0.0388    0.0019   -0.0012   -0.0165    0.0570    0.0277
          44    0.0038    0.0064   -0.0001   -0.0006   -0.0000    0.0012   -0.0012    0.0025
          45    0.0176   -0.0163    0.0100    0.0007   -0.0001   -0.0003   -0.0029   -0.0031
          46    0.0190    0.0147   -0.0059   -0.0116   -0.0231    0.0320    0.0217   -0.0303
          47   -0.0651   -0.0408    0.0021    0.1135   -0.0522   -0.1077   -0.0505    0.0464
          48   -0.0002   -0.0002   -0.0001    0.0003   -0.0001   -0.0003   -0.0002    0.0001
          49    0.1245    0.1181   -0.0382   -0.0260   -0.0742    0.0599    0.0569   -0.0467
          50   -0.0302   -0.0270    0.0090    0.0404    0.0098   -0.0397   -0.0367    0.0584
          51    0.0000    0.0004    0.0002    0.0001    0.0000    0.0001   -0.0005   -0.0002
          52    0.0855    0.0577   -0.0109    0.0039   -0.0838    0.0237   -0.0124    0.0657
          53    0.0746    0.0440    0.0019    0.0328   -0.0745   -0.0088   -0.0418    0.0747
          54    0.0043    0.0019    0.0033    0.0004    0.0002    0.0011   -0.0054   -0.0024
          55   -0.0297    0.0973    0.2773   -0.0036   -0.0198   -0.0253    0.0787    0.0254
          56   -0.0024   -0.0041   -0.0071    0.0008    0.0013   -0.0002   -0.0019   -0.0033
          57   -0.0057    0.0287    0.1528   -0.0021   -0.0130   -0.0214    0.0714    0.0279
          58    0.0434   -0.0349    0.2435   -0.0033   -0.0209   -0.0338    0.1092    0.0384
          59   -0.0003    0.0006   -0.0005   -0.0001   -0.0002    0.0004   -0.0001    0.0016
          60   -0.0214    0.0139   -0.1599    0.0021    0.0148    0.0276   -0.0928   -0.0372


   Root No.      41        42        43        44        45        46        47        48

                41 A      42 A      43 A      44 A      45 A      46 A      47 A      48 A   

                1824.4    1860.7    1880.4    1966.7    2935.3    2950.0    3012.4    3044.8
  
           1   -0.0053   -0.0251   -0.0090   -0.0361   -0.0001    0.0387    0.0000    0.0000
           2   -0.0047   -0.0034    0.0151   -0.0108    0.0000   -0.0007    0.0000    0.0000
           3   -0.0004   -0.0209   -0.0075   -0.0048    0.0001   -0.0601    0.0000   -0.0000
           4    0.0127    0.0152   -0.0491   -0.0310    0.0003    0.0002    0.0278   -0.0021
           5   -0.0268    0.0061   -0.0191   -0.0014    0.0003    0.0000   -0.0293    0.0018
           6   -0.0000    0.0002   -0.0004   -0.0002   -0.0610   -0.0003   -0.0001    0.0000
           7    0.0235    0.0080   -0.0400    0.0463   -0.0000    0.0009   -0.0003   -0.0002
           8    0.0391    0.0138   -0.0776    0.1959    0.0000    0.0000   -0.0001   -0.0002
           9    0.0003   -0.0007   -0.0006    0.0012   -0.0002   -0.0001   -0.0000   -0.0000
          10   -0.0302   -0.0433    0.1452    0.1121   -0.0000   -0.0018    0.0004    0.0004
          11   -0.0101   -0.0261    0.0833    0.0302   -0.0000   -0.0001    0.0002    0.0004
          12   -0.0003   -0.0008    0.0014    0.0007   -0.0001   -0.0005    0.0000    0.0000
          13    0.0159    0.0244   -0.0811   -0.0507    0.0000    0.0013   -0.0002   -0.0000
          14    0.0075    0.0218   -0.0654   -0.0634    0.0000   -0.0001   -0.0000   -0.0000
          15    0.0002   -0.0005   -0.0012   -0.0009   -0.0001   -0.0003    0.0000   -0.0000
          16    0.0036    0.1873    0.0462    0.0078   -0.0000   -0.0012   -0.0000    0.0002
          17    0.0002   -0.0030   -0.0022   -0.0004    0.0000   -0.0001    0.0000    0.0000
          18    0.0004    0.0268    0.0082    0.0031   -0.0000    0.0027    0.0001   -0.0003
          19   -0.1208    0.0059   -0.0167    0.0109   -0.0000    0.0000   -0.0052   -0.0382
          20    0.1805   -0.0098    0.0291   -0.0210    0.0000    0.0000   -0.0018   -0.0074
          21    0.0005   -0.0000    0.0001   -0.0001   -0.0001    0.0000   -0.0000   -0.0001
          22   -0.0503   -0.0053    0.0302   -0.0541    0.0000   -0.0001    0.0002    0.0016
          23   -0.0294   -0.0125    0.0683   -0.1380   -0.0000   -0.0001    0.0001   -0.0021
          24   -0.0002   -0.0001    0.0003   -0.0006    0.0001   -0.0001    0.0000   -0.0000
          25    0.1733   -0.0073    0.0190   -0.0109    0.0000    0.0000   -0.0002    0.0104
          26   -0.1367    0.0079   -0.0248    0.0206   -0.0000    0.0000    0.0003    0.0289
          27   -0.0002   -0.0001   -0.0001    0.0000   -0.0003   -0.0001   -0.0000    0.0001
          28   -0.0031   -0.1616   -0.0378   -0.0038   -0.0000    0.0001    0.0000   -0.0000
          29   -0.0000    0.0023    0.0008   -0.0000   -0.0000    0.0000   -0.0000    0.0000
          30    0.0002    0.0038    0.0009    0.0006   -0.0000   -0.0007   -0.0000    0.0000
          31   -0.0012    0.0330    0.0115   -0.0084    0.0012   -0.4682    0.0000   -0.0001
          32    0.0020    0.0036   -0.0132   -0.0047   -0.0001    0.0119    0.0000    0.0000
          33    0.0001    0.0119    0.0126    0.0158   -0.0017    0.7321   -0.0001    0.0002
          34   -0.0085   -0.0017    0.0045   -0.0032   -0.1945   -0.0007   -0.1664    0.0106
          35   -0.0309   -0.0039    0.0126    0.0078    0.2094    0.0008    0.1782   -0.0146
          36   -0.0015   -0.0025    0.0078    0.0071    0.3662    0.0015    0.3731   -0.0266
          37   -0.0086   -0.0014    0.0042   -0.0032    0.1914    0.0007   -0.1602    0.0101
          38   -0.0305   -0.0038    0.0126    0.0077   -0.2125   -0.0008    0.1780   -0.0145
          39    0.0013    0.0024   -0.0076   -0.0071    0.3713    0.0014   -0.3714    0.0264
          40   -0.0059   -0.0021    0.0095   -0.0002   -0.0000   -0.0001   -0.0001   -0.0000
          41    0.0122    0.0327   -0.1002   -0.1007    0.0000   -0.0005   -0.0019   -0.0002
          42   -0.0001   -0.0001   -0.0008   -0.0016    0.0002   -0.0010   -0.0000   -0.0000
          43   -0.0006   -0.0011   -0.0010   -0.0045   -0.0001    0.0212    0.0003   -0.0020
          44   -0.0003    0.0018    0.0020   -0.0002   -0.0000    0.0002    0.0000   -0.0001
          45   -0.0024   -0.1113   -0.0263   -0.0041    0.0001   -0.0292   -0.0007    0.0038
          46   -0.0999    0.0062   -0.0178    0.0053    0.0001   -0.0002    0.0594    0.4488
          47   -0.0757    0.0015   -0.0050    0.0177    0.0000   -0.0001    0.0093    0.0970
          48   -0.0005    0.0001   -0.0000    0.0000   -0.0016    0.0000    0.0001    0.0010
          49   -0.0747    0.0070   -0.0279    0.0398    0.0000   -0.0001   -0.0001   -0.1170
          50   -0.0878    0.0048   -0.0136    0.0043    0.0000   -0.0001    0.0016   -0.3473
          51   -0.0005    0.0000   -0.0001    0.0001   -0.0007    0.0000    0.0000   -0.0014
          52   -0.0293    0.0117   -0.0551    0.0877   -0.0000    0.0008    0.0002   -0.0165
          53   -0.0232   -0.0019    0.0182   -0.0709    0.0000   -0.0007   -0.0002    0.0240
          54   -0.0001    0.0003    0.0002   -0.0002    0.0000    0.0004    0.0000    0.0001
          55   -0.0000   -0.0033   -0.0014   -0.0005    0.0000   -0.0050   -0.0001   -0.0000
          56    0.0003   -0.0021   -0.0018    0.0004    0.0000   -0.0000   -0.0000   -0.0000
          57    0.0026    0.1271    0.0297    0.0039   -0.0000    0.0042    0.0001    0.0000
          58   -0.0001   -0.0268   -0.0074   -0.0003    0.0000   -0.0015   -0.0001   -0.0002
          59   -0.0003    0.0026    0.0020   -0.0004   -0.0000    0.0000    0.0000   -0.0000
          60   -0.0024   -0.1190   -0.0273   -0.0023    0.0000   -0.0015   -0.0001   -0.0003


   Root No.      49        50        51        52        53        54

                49 A      50 A      51 A      52 A      53 A      54 A   

                3047.3    3063.4    3094.0    3133.6    3146.6    3216.5
  
           1    0.0016   -0.0000   -0.0003    0.0003    0.0007   -0.0010
           2   -0.0000    0.0000   -0.0002    0.0000   -0.0000   -0.0001
           3   -0.0023   -0.0000   -0.0001    0.0005   -0.0003   -0.0000
           4    0.0001   -0.0019   -0.0003   -0.0000    0.0000   -0.0004
           5   -0.0001    0.0018    0.0003    0.0000   -0.0000   -0.0003
           6    0.0000    0.0000    0.0000    0.0000    0.0000   -0.0000
           7   -0.0001    0.0003    0.0025    0.0000   -0.0001    0.0000
           8   -0.0001   -0.0004    0.0060   -0.0000   -0.0000    0.0034
           9   -0.0002    0.0000    0.0000    0.0000   -0.0000    0.0000
          10   -0.0001    0.0003    0.0003   -0.0000   -0.0000    0.0074
          11   -0.0000    0.0003    0.0007    0.0000   -0.0000    0.0043
          12   -0.0000    0.0000    0.0000    0.0000   -0.0000    0.0001
          13   -0.0001   -0.0000   -0.0001   -0.0000   -0.0000   -0.0117
          14    0.0000   -0.0000   -0.0001   -0.0000    0.0001   -0.0815
          15   -0.0002   -0.0000    0.0000    0.0000   -0.0000   -0.0014
          16    0.0369   -0.0000   -0.0000   -0.0037    0.0091   -0.0001
          17    0.0007    0.0000   -0.0000    0.0001   -0.0000   -0.0001
          18   -0.0580    0.0000    0.0000   -0.0014   -0.0050   -0.0000
          19    0.0003   -0.0316   -0.0050   -0.0000    0.0000   -0.0001
          20    0.0001   -0.0022    0.0002   -0.0000    0.0000    0.0000
          21   -0.0000   -0.0001   -0.0000    0.0000   -0.0000    0.0000
          22    0.0000   -0.0039    0.0377    0.0000   -0.0000   -0.0001
          23   -0.0000    0.0064   -0.0543   -0.0000    0.0001   -0.0007
          24   -0.0000    0.0000   -0.0002    0.0000   -0.0000   -0.0000
          25   -0.0001   -0.0086   -0.0032   -0.0000    0.0000    0.0000
          26   -0.0003   -0.0383   -0.0103   -0.0000    0.0000   -0.0000
          27   -0.0000   -0.0001   -0.0000   -0.0000   -0.0000   -0.0000
          28   -0.0014   -0.0000   -0.0001    0.0273   -0.0452   -0.0000
          29   -0.0001    0.0000   -0.0000    0.0009    0.0014   -0.0000
          30    0.0053    0.0000   -0.0000   -0.0637   -0.0354    0.0000
          31   -0.0137   -0.0000   -0.0007    0.0044   -0.0021   -0.0011
          32    0.0003    0.0000   -0.0001   -0.0001    0.0001   -0.0005
          33    0.0296    0.0001    0.0007   -0.0027    0.0047    0.0008
          34   -0.0003    0.0085    0.0011    0.0000   -0.0001   -0.0007
          35    0.0004   -0.0112   -0.0014   -0.0000    0.0001    0.0009
          36    0.0008   -0.0208   -0.0026   -0.0001    0.0001    0.0014
          37   -0.0003    0.0081    0.0010    0.0000   -0.0001   -0.0007
          38    0.0004   -0.0112   -0.0014   -0.0000    0.0001    0.0009
          39   -0.0008    0.0206    0.0025    0.0001   -0.0002   -0.0014
          40    0.0000   -0.0000   -0.0002   -0.0000    0.0000    0.0736
          41    0.0002    0.0002   -0.0020    0.0006   -0.0003    0.8920
          42   -0.0001    0.0000   -0.0000    0.0001   -0.0001    0.0153
          43   -0.3774    0.0001    0.0003   -0.0108   -0.0334    0.0001
          44   -0.0094    0.0000   -0.0000   -0.0001   -0.0007   -0.0000
          45    0.6927   -0.0002   -0.0006    0.0115    0.0559   -0.0002
          46   -0.0040    0.3392    0.0432    0.0002   -0.0004    0.0001
          47   -0.0009    0.0689    0.0087    0.0000   -0.0001    0.0000
          48    0.0000    0.0007    0.0001    0.0000    0.0000   -0.0000
          49    0.0013    0.1325    0.0398    0.0001   -0.0001   -0.0000
          50    0.0038    0.4106    0.1082    0.0003   -0.0003   -0.0001
          51    0.0000    0.0016    0.0004    0.0000   -0.0000   -0.0000
          52   -0.0003    0.0538   -0.4601   -0.0003    0.0007   -0.0009
          53    0.0003   -0.0715    0.5777    0.0004   -0.0009    0.0009
          54    0.0000   -0.0002    0.0016    0.0000   -0.0000    0.0000
          55   -0.0058    0.0001    0.0004   -0.3821    0.0699    0.0004
          56   -0.0000   -0.0000    0.0001   -0.0071    0.0019    0.0000
          57    0.0058   -0.0002   -0.0007    0.6393   -0.1492   -0.0006
          58   -0.0423    0.0001    0.0007    0.1031    0.3894    0.0002
          59    0.0021   -0.0000    0.0000   -0.0040   -0.0174    0.0001
          60   -0.0692    0.0002    0.0010    0.1204    0.5737    0.0003


           MASS-WEIGHTED COORDINATE ANALYSIS (NORMAL COORDINATES)


   Root No.       1         2         3         4         5         6         7         8

                 1 A       2 A       3 A       4 A       5 A       6 A       7 A       8 A   

                  54.5     112.1     142.1     227.8     314.5     360.5     394.1     441.5
  
           1    0.0487    0.0660    0.0204   -0.0275   -0.0559    0.0105    0.0523    0.0283
           2   -0.2390   -0.0220   -0.1102    0.0919    0.0073    0.0014    0.1362    0.0534
           3    0.0132   -0.2295    0.0158   -0.1239    0.1369   -0.3821    0.0480    0.1313
           4    0.0482    0.0649    0.0177   -0.0189   -0.0430    0.0079   -0.1693   -0.0278
           5    0.0750    0.0169    0.0069   -0.0083   -0.0114    0.0008   -0.1227   -0.0345
           6    0.0421    0.3053    0.3511    0.2129   -0.0703   -0.0554   -0.0005    0.0157
           7   -0.0348    0.0525   -0.0090   -0.0128   -0.0831   -0.0036   -0.0275    0.0257
           8   -0.1364   -0.0071   -0.0871    0.1201    0.1238   -0.0018    0.0849    0.0096
           9    0.0095   -0.2581    0.2815   -0.0538    0.4338    0.1423    0.0221   -0.0361
          10    0.0644    0.0682    0.0261   -0.0278   -0.0538    0.0040   -0.1276   -0.0151
          11   -0.0564    0.0035   -0.0564    0.1026    0.1397   -0.0023   -0.0104   -0.0287
          12    0.0336   -0.1004    0.1447   -0.1222    0.2276    0.5466   -0.1952   -0.0005
          13    0.1418    0.0783    0.0506   -0.0255    0.0078    0.0039   -0.1474   -0.0369
          14   -0.1426   -0.0056   -0.0798    0.1089    0.1008    0.0032    0.0292    0.0005
          15    0.0252   -0.2914   -0.2696   -0.1145   -0.3994    0.0989   -0.1289   -0.1039
          16    0.0567   -0.2256    0.0453   -0.1024   -0.0326   -0.0042    0.4142    0.0747
          17   -0.2445   -0.0122    0.3315   -0.3349   -0.2149    0.0054   -0.0061    0.0083
          18    0.0071   -0.0151    0.0136   -0.0928    0.1156   -0.4045   -0.1428    0.1445
          19   -0.0812    0.0520   -0.0431    0.0848    0.0801    0.0057   -0.2199   -0.0677
          20    0.1065    0.0199    0.0254   -0.0380   -0.0569    0.0016   -0.1146   -0.0208
          21   -0.0286    0.3441   -0.2451   -0.2672    0.1239   -0.1886    0.0994   -0.3411
          22   -0.1501    0.0433   -0.0699    0.1048    0.0789    0.0011   -0.1309   -0.0344
          23   -0.1008   -0.0037   -0.0689    0.0882    0.0880   -0.0027    0.1084    0.0256
          24   -0.0464   -0.2929    0.0759    0.4309   -0.1473    0.0178    0.0060   -0.3269
          25   -0.1699    0.0410   -0.0808    0.1284    0.1140    0.0015   -0.1251   -0.0407
          26    0.0281    0.0107   -0.0076   -0.0009   -0.0277   -0.0032   -0.0214    0.0045
          27   -0.0675    0.0235   -0.3075    0.0453   -0.1161    0.1317   -0.1003    0.4779
          28    0.0695   -0.2125    0.0402   -0.0979   -0.0369    0.0077    0.4551    0.0796
          29    0.6292   -0.0018    0.0241   -0.0677   -0.0590   -0.0032   -0.0367   -0.0091
          30    0.0141    0.3797   -0.0180    0.0028   -0.0926    0.2057    0.3006   -0.0012
          31    0.0123    0.0666    0.0028   -0.0043   -0.0099   -0.0567   -0.0136    0.0359
          32   -0.0832   -0.0142   -0.1217    0.0420   -0.0940   -0.0012    0.0483    0.0247
          33    0.0029   -0.0337    0.0038   -0.0332    0.0432   -0.1429   -0.0045    0.0542
          34    0.0303    0.0986    0.0739    0.0753   -0.1078   -0.1549   -0.0042    0.0587
          35    0.0199   -0.0057   -0.1225   -0.1436    0.0558    0.0198   -0.0288   -0.1763
          36    0.0217    0.1358    0.2071    0.1833   -0.1040   -0.1103    0.0197    0.1355
          37    0.0230   -0.0588   -0.0520   -0.1111    0.0505    0.1615   -0.1054   -0.0724
          38    0.0471    0.0178    0.1383    0.1164   -0.0936   -0.0185   -0.0514    0.1599
          39    0.0217    0.1349    0.2069    0.1826   -0.1035   -0.1085    0.0198    0.1355
          40    0.0683    0.0269    0.0233   -0.0064    0.0232    0.0030   -0.0771   -0.0284
          41   -0.0436   -0.0016   -0.0218    0.0313    0.0318    0.0016    0.0121    0.0031
          42    0.0086   -0.1083   -0.1921   -0.0240   -0.3661   -0.0222   -0.0642   -0.1134
          43    0.0159   -0.1427    0.0204   -0.0507    0.0158   -0.0779    0.1195    0.0469
          44   -0.2790   -0.0040    0.2770   -0.3002   -0.2205    0.0041   -0.0786   -0.0252
          45   -0.0011   -0.0463    0.0103   -0.0409    0.0442   -0.1554   -0.0394    0.0544
          46   -0.0292    0.0143   -0.0149    0.0285    0.0270    0.0016   -0.0617   -0.0194
          47    0.0584    0.0086    0.0203   -0.0289   -0.0364    0.0017   -0.0434   -0.0056
          48   -0.0135    0.1863   -0.1745   -0.2320    0.1072   -0.1412    0.0775   -0.2072
          49   -0.0760    0.0084   -0.0353    0.0539    0.0514   -0.0004   -0.0022   -0.0042
[...]
 T-DIPOLE    0.0826         C  8 -- H 18         +10.5% ( 40.5%)      0.4%
 TRAVEL      0.1304         C  9 -- H 17          +9.0% ( 37.6%)      2.2%
 RED. MASS   0.2420         C  6 -- H 15          +5.6% ( 29.4%)     10.3%
 EFF. MASS   3.3077

 VIBRATION   34   34A         ATOM PAIR      ENERGY CONTRIBUTION    RADIAL
 FREQ.      1212.44         C  1 -- C  6         +13.8% ( 52.9%)     44.8%
 T-DIPOLE    0.1859         C  6 -- C 10         +12.3% ( 49.9%)      2.5%
 TRAVEL      0.0925         C  6 -- H 15         +11.1% ( 47.4%)     18.0%
 RED. MASS   0.6756         C  1 -- H 11          +7.3% ( 38.4%)     17.0%
 EFF. MASS   6.5069

 VIBRATION   35   35A         ATOM PAIR      ENERGY CONTRIBUTION    RADIAL
 FREQ.      1309.79         C 10 -- H 19         +21.6% ( 54.2%)      0.1%
 T-DIPOLE    0.0888         C 10 -- H 20         +17.6% ( 48.9%)      0.5%
 TRAVEL      0.1253         C  1 -- C  6         +10.6% ( 38.0%)     98.9%
 RED. MASS   0.4894         C  1 -- C  3          +9.2% ( 35.5%)     50.1%
 EFF. MASS   3.2807

 VIBRATION   36   36A         ATOM PAIR      ENERGY CONTRIBUTION    RADIAL
 FREQ.      1329.70         C  2 -- H 12         +16.3% ( 50.9%)      2.0%
 T-DIPOLE    0.1643         C  2 -- H 13         +16.2% ( 50.8%)      2.0%
 TRAVEL      0.0997         C  8 -- C  9          +9.5% ( 38.7%)     99.3%
 RED. MASS   0.4691         C  2 -- C  4          +8.4% ( 36.6%)     97.4%
 EFF. MASS   5.1018

 VIBRATION   37   37A         ATOM PAIR      ENERGY CONTRIBUTION    RADIAL
 FREQ.      1344.85         C  2 -- H 12         +16.2% ( 60.5%)      0.2%
 T-DIPOLE    0.0462         C  2 -- H 13         +16.2% ( 60.3%)      0.2%
 TRAVEL      0.0806         C  2 -- C  7         +15.5% ( 59.1%)     59.9%
 RED. MASS   1.5790         C  2 -- C  4         +11.1% ( 50.1%)     39.2%
 EFF. MASS   7.7129

 VIBRATION   38   38A         ATOM PAIR      ENERGY CONTRIBUTION    RADIAL
 FREQ.      1389.31         C  2 -- C  4         +13.3% ( 54.4%)     29.7%
 T-DIPOLE    0.2093         C  3 -- C  4          +8.8% ( 44.3%)     95.1%
 TRAVEL      0.0766         C  4 -- C  5          +8.6% ( 43.6%)     14.7%
 RED. MASS   0.9666         C  2 -- H 13          +8.4% ( 43.1%)      8.5%
 EFF. MASS   8.2625

 VIBRATION   39   39A         ATOM PAIR      ENERGY CONTRIBUTION    RADIAL
 FREQ.      1403.41         C  1 -- C  6         +17.1% ( 67.8%)     97.1%
 T-DIPOLE    0.2986         C  1 -- H 11         +12.7% ( 58.6%)      0.0%
 TRAVEL      0.0720         C  1 -- C  3         +11.9% ( 56.7%)     26.3%
 RED. MASS   1.9790         C  1 -- C  5         +11.2% ( 55.1%)     44.7%
 EFF. MASS   9.2624         C  1 -- C  4         +10.4% ( 52.9%)     70.4%

 VIBRATION   40   40A         ATOM PAIR      ENERGY CONTRIBUTION    RADIAL
 FREQ.      1439.17         C  8 -- C  9          +9.7% ( 51.6%)     93.6%
 T-DIPOLE    0.3720         C  3 -- C  4          +8.9% ( 49.4%)     98.0%
 TRAVEL      0.0650         C  4 -- C  5          +8.6% ( 48.4%)     45.9%
 RED. MASS   1.3341         C  2 -- C  4          +8.1% ( 47.1%)     71.9%
 EFF. MASS  11.0995

 VIBRATION   41   41A         ATOM PAIR      ENERGY CONTRIBUTION    RADIAL
 FREQ.      1824.42         C  7 -- C  9         +41.1% ( 95.6%)     99.9%
 T-DIPOLE    0.3443         C  8 -- C  9         +14.4% ( 56.7%)     68.5%
 TRAVEL      0.0558         C  2 -- C  7         +13.0% ( 53.8%)     47.8%
 RED. MASS   4.9002         C  9 -- H 17         +12.4% ( 52.6%)      4.1%
 EFF. MASS  11.8911         C  7 -- H 16         +12.1% ( 51.9%)      4.9%

 VIBRATION   42   42A         ATOM PAIR      ENERGY CONTRIBUTION    RADIAL
 FREQ.      1860.74         C  6 -- C 10         +41.2% ( 96.0%)     98.8%
 T-DIPOLE    0.0616         C  1 -- C  6         +15.4% ( 58.7%)     54.8%
 TRAVEL      0.0554         C  6 -- H 15         +14.1% ( 56.2%)      3.9%
 RED. MASS   4.6432         C 10 -- H 19          +9.9% ( 47.1%)     10.9%
 EFF. MASS  11.8128

 VIBRATION   43   43A         ATOM PAIR      ENERGY CONTRIBUTION    RADIAL
 FREQ.      1880.42         C  4 -- C  5         +22.6% ( 79.0%)     97.6%
 T-DIPOLE    0.0847         C  3 -- C  4         +14.5% ( 63.3%)      0.2%
 TRAVEL      0.0548         C  2 -- C  4         +13.9% ( 62.0%)     87.5%
 RED. MASS   3.1059         C  1 -- C  4         +11.5% ( 56.5%)     76.6%
 EFF. MASS  11.9292

 VIBRATION   44   44A         ATOM PAIR      ENERGY CONTRIBUTION    RADIAL
 FREQ.      1966.68         C  3 -- C  8         +26.1% ( 83.0%)    100.0%
 T-DIPOLE    0.1864         C  3 -- C  4         +15.8% ( 64.5%)     91.5%
 TRAVEL      0.0536         C  3 -- C  5         +14.1% ( 60.9%)     90.1%
 RED. MASS   3.6253         C  1 -- C  3         +12.2% ( 56.8%)     76.9%
 EFF. MASS  11.9162

 VIBRATION   45   45A         ATOM PAIR      ENERGY CONTRIBUTION    RADIAL
 FREQ.      2935.33         C  2 -- H 13         +49.3% ( 72.8%)     96.6%
 T-DIPOLE    0.0704         C  2 -- H 12         +48.5% ( 72.2%)     96.5%
 TRAVEL      0.1223         C  2 -- C  7          +1.1% ( 10.8%)      0.0%
 RED. MASS   0.5178         C  2 -- C  4          +1.1% ( 10.8%)      0.0%
 EFF. MASS   1.5357

 VIBRATION   46   46A         ATOM PAIR      ENERGY CONTRIBUTION    RADIAL
 FREQ.      2949.98         C  1 -- H 11         +95.6% ( 99.9%)    100.0%
 T-DIPOLE    0.1060         C  1 -- C  6          +1.1% ( 10.6%)     14.6%
 TRAVEL      0.1258         C  1 -- C  4          +1.1% ( 10.5%)     31.8%
 RED. MASS   0.9265         C  1 -- C  3          +1.0% ( 10.5%)     16.3%
 EFF. MASS   1.4451

 VIBRATION   47   47A         ATOM PAIR      ENERGY CONTRIBUTION    RADIAL
 FREQ.      3012.45         C  2 -- H 12         +49.2% ( 69.2%)     97.7%
 T-DIPOLE    0.1292         C  2 -- H 13         +48.4% ( 68.6%)     97.6%
 TRAVEL      0.1321         C  7 -- H 16          +1.0% (  9.9%)    100.0%
 RED. MASS   0.4751         C  2 -- C  7          +0.7% (  8.2%)     19.8%
 EFF. MASS   1.2828

 VIBRATION   48   48A         ATOM PAIR      ENERGY CONTRIBUTION    RADIAL
 FREQ.      3044.78         C  7 -- H 16         +59.1% ( 78.0%)    100.0%
 T-DIPOLE    0.2811         C  9 -- H 17         +37.7% ( 62.3%)    100.0%
 TRAVEL      0.1229         C  7 -- C  9          +1.1% ( 10.8%)      0.7%
 RED. MASS   0.4801         C  2 -- C  7          +0.8% (  9.0%)     21.6%
 EFF. MASS   1.4655

 VIBRATION   49   49A         ATOM PAIR      ENERGY CONTRIBUTION    RADIAL
 FREQ.      3047.33         C  6 -- H 15         +96.1% ( 99.4%)    100.0%
 T-DIPOLE    0.2639         C  6 -- C 10          +1.4% ( 12.1%)     30.5%
 TRAVEL      0.1213         C  1 -- C  6          +1.3% ( 11.8%)     14.7%
 RED. MASS   0.9083         C 10 -- H 20          +1.0% ( 10.1%)     95.9%
 EFF. MASS   1.5036

 VIBRATION   50   50A         ATOM PAIR      ENERGY CONTRIBUTION    RADIAL
 FREQ.      3063.43         C  9 -- H 17         +57.1% ( 76.7%)     99.9%
 T-DIPOLE    0.3202         C  7 -- H 16         +36.6% ( 61.4%)     99.9%
 TRAVEL      0.1184         C  8 -- H 18          +2.5% ( 16.0%)     99.8%
 RED. MASS   0.4606         C  7 -- C  9          +1.9% ( 13.8%)     97.5%
 EFF. MASS   1.5696

 VIBRATION   51   51A         ATOM PAIR      ENERGY CONTRIBUTION    RADIAL
 FREQ.      3094.02         C  8 -- H 18         +94.0% ( 98.5%)    100.0%
 T-DIPOLE    0.3980         C  9 -- H 17          +2.3% ( 15.3%)     99.9%
 TRAVEL      0.1183         C  3 -- C  8          +1.7% ( 13.4%)     45.7%
 RED. MASS   0.8796         C  8 -- C  9          +1.6% ( 12.8%)     31.9%
 EFF. MASS   1.5577

 VIBRATION   52   52A         ATOM PAIR      ENERGY CONTRIBUTION    RADIAL
 FREQ.      3133.64         C 10 -- H 19         +92.4% ( 97.8%)     99.9%
 T-DIPOLE    0.2053         C 10 -- H 20          +6.3% ( 25.5%)     69.5%
 TRAVEL      0.1184         C  6 -- C 10          +1.3% ( 11.7%)     23.3%
 RED. MASS   0.8614
 EFF. MASS   1.5361

 VIBRATION   53   53A         ATOM PAIR      ENERGY CONTRIBUTION    RADIAL
 FREQ.      3146.60         C 10 -- H 20         +92.2% ( 96.7%)     99.7%
 T-DIPOLE    0.2733         C 10 -- H 19          +5.3% ( 23.2%)     37.4%
 TRAVEL      0.1208         C  6 -- C 10          +1.6% ( 12.7%)     72.5%
 RED. MASS   0.8258         C  6 -- H 15          +0.9% (  9.4%)     95.2%
 EFF. MASS   1.4692

 VIBRATION   54   54A         ATOM PAIR      ENERGY CONTRIBUTION    RADIAL
 FREQ.      3216.47         C  5 -- H 14         +94.3% ( 99.9%)    100.0%
 T-DIPOLE    0.5264         C  4 -- C  5          +2.0% ( 14.6%)     66.8%
 TRAVEL      0.1146         C  3 -- C  5          +1.8% ( 13.9%)     99.0%
 RED. MASS   0.9303         C  1 -- C  5          +1.8% ( 13.8%)     36.6%
 EFF. MASS   1.5973

      SYMMETRY NUMBER FOR POINT-GROUP C1  =  1


          SYSTEM IS A GROUND STATE



 InChI=1S/C10H10/c1-2-8-7-9-5-3-4-6-10(8)9/h2-4,6-8H,1,5H2


          MOLECULE IS NOT LINEAR

          THERE ARE 54 GENUINE VIBRATIONS IN THIS SYSTEM
          THIS THERMODYNAMICS CALCULATION IS LIMITED TO
          MOLECULES WHICH HAVE NO INTERNAL ROTATIONS




                    CALCULATED THERMODYNAMIC PROPERTIES
                                          *
   TEMP. (K)   PARTITION FUNCTION   H.O.F.    ENTHALPY  HEAT CAPACITY ENTROPY
                                   KCAL/MOL   CAL/MOLE    CAL/K/MOL  CAL/K/MOL


 298.00  VIB.     0.1088D+03                  3618.1110    27.6990    21.4594
         ROT.     0.5793D+06                   888.2813     2.9808    29.3503
         INT.     0.6300D+08                  4506.3923    30.6798    50.8098
         TRA.     0.1436D+28                  1480.4688     4.9680    40.5022
         TOT.                       95.988    5986.8612    35.6478    91.3119

 200.00  VIB.     0.1606D+02                  1471.9378    16.3347    12.8770
         ROT.     0.3185D+06                   596.1620     2.9808    28.1617
         INT.     0.5116D+07                  2068.0998    19.3155    41.0386
         TRA.     0.7896D+27                   993.6033     4.9680    38.5210
         TOT.                       93.063    3061.7030    24.2836    79.5597

 210.00  VIB.     0.1935D+02                  1640.6451    17.4114    13.6999
         ROT.     0.3427D+06                   625.9700     2.9808    28.3071
         INT.     0.6631D+07                  2266.6152    20.3922    42.0070
         TRA.     0.8496D+27                  1043.2834     4.9680    38.7634
         TOT.                       93.312    3309.8986    25.3602    80.7704

 220.00  VIB.     0.2336D+02                  1820.2546    18.5148    14.5352
         ROT.     0.3675D+06                   655.7781     2.9808    28.4458
         INT.     0.8583D+07                  2476.0327    21.4956    42.9810
         TRA.     0.9110D+27                  1092.9636     4.9680    38.9945
         TOT.                       93.571    3568.9963    26.4636    81.9755

 230.00  VIB.     0.2825D+02                  2011.0217    19.6424    15.3830
         ROT.     0.3928D+06                   685.5862     2.9808    28.5783
         INT.     0.1110D+08                  2696.6080    22.6233    43.9613
         TRA.     0.9738D+27                  1142.6437     4.9680    39.2154
         TOT.                       93.841    3839.2517    27.5913    83.1767

 240.00  VIB.     0.3424D+02                  2213.1742    20.7913    16.2432
         ROT.     0.4187D+06                   715.3943     2.9808    28.7051
         INT.     0.1434D+08                  2928.5685    23.7721    44.9483
         TRA.     0.1038D+28                  1192.3239     4.9680    39.4268
         TOT.                       94.123    4120.8924    28.7402    84.3752

 250.00  VIB.     0.4159D+02                  2426.9081    21.9581    17.1156
         ROT.     0.4452D+06                   745.2024     2.9808    28.8268
         INT.     0.1851D+08                  3172.1105    24.9390    45.9424
         TRA.     0.1103D+28                  1242.0041     4.9680    39.6296
         TOT.                       94.416    4414.1146    29.9070    85.5720

 260.00  VIB.     0.5061D+02                  2652.3854    23.1394    17.9998
         ROT.     0.4721D+06                   775.0105     2.9808    28.9437
         INT.     0.2390D+08                  3427.3959    26.1202    46.9435
         TRA.     0.1170D+28                  1291.6842     4.9680    39.8245
         TOT.                       94.721    4719.0801    31.0883    86.7679

 270.00  VIB.     0.6173D+02                  2889.7333    24.3317    18.8954
         ROT.     0.4996D+06                   804.8186     2.9808    29.0562
         INT.     0.3084D+08                  3694.5519    27.3125    47.9516
         TRA.     0.1239D+28                  1341.3644     4.9680    40.0120
         TOT.                       95.038    5035.9163    32.2805    87.9635

 280.00  VIB.     0.7543D+02                  3139.0437    25.5314    19.8019
         ROT.     0.5276D+06                   834.6267     2.9808    29.1646
         INT.     0.3980D+08                  3973.6704    28.5122    48.9665
         TRA.     0.1308D+28                  1391.0445     4.9680    40.1926
         TOT.                       95.366    5364.7150    33.4802    89.1592

 290.00  VIB.     0.9236D+02                  3400.3743    26.7352    20.7188
         ROT.     0.5562D+06                   864.4348     2.9808    29.2692
         INT.     0.5137D+08                  4264.8091    29.7160    49.9881
         TRA.     0.1379D+28                  1440.7247     4.9680    40.3670
         TOT.                       95.707    5705.5338    34.6840    90.3550

 300.00  VIB.     0.1133D+03                  3673.7499    27.9399    21.6455
         ROT.     0.5852D+06                   894.2429     2.9808    29.3703
         INT.     0.6630D+08                  4567.9928    30.9207    51.0158
         TRA.     0.1451D+28                  1490.4049     4.9680    40.5354
         TOT.                       96.060    6058.3977    35.8887    91.5512

 310.00  VIB.     0.1393D+03                  3959.1645    29.1425    22.5813
         ROT.     0.6147D+06                   924.0510     2.9808    29.4680
         INT.     0.8561D+08                  4883.2155    32.1233    52.0493
         TRA.     0.1524D+28                  1540.0850     4.9680    40.6983
         TOT.                       96.425    6423.3005    37.0913    92.7476

 320.00  VIB.     0.1715D+03                  4256.5835    30.3403    23.5254
         ROT.     0.6447D+06                   953.8591     2.9808    29.5626
         INT.     0.1106D+09                  5210.4426    33.3211    53.0881
         TRA.     0.1598D+28                  1589.7652     4.9680    40.8560
         TOT.                       96.802    6800.2078    38.2891    93.9441

 330.00  VIB.     0.2116D+03                  4565.9462    31.5308    24.4773
         ROT.     0.6751D+06                   983.6672     2.9808    29.6544
         INT.     0.1429D+09                  5549.6134    34.5117    54.1317
         TRA.     0.1674D+28                  1639.4454     4.9680    41.0089
         TOT.                       97.191    7189.0588    39.4797    95.1406

 340.00  VIB.     0.2616D+03                  4887.1687    32.7119    25.4362
         ROT.     0.7060D+06                  1013.4753     2.9808    29.7434
         INT.     0.1847D+09                  5900.6440    35.6927    55.1795
         TRA.     0.1750D+28                  1689.1255     4.9680    41.1572
         TOT.                       97.591    7589.7695    40.6607    96.3367

 350.00  VIB.     0.3238D+03                  5220.1459    33.8815    26.4013
         ROT.     0.7374D+06                  1043.2834     2.9808    29.8298
         INT.     0.2388D+09                  6263.4293    36.8623    56.2311
         TRA.     0.1828D+28                  1738.8057     4.9680    41.3012
         TOT.                       98.004    8002.2350    41.8303    97.5323

 360.00  VIB.     0.4016D+03                  5564.7549    35.0380    27.3720
         ROT.     0.7692D+06                  1073.0915     2.9808    29.9137
         INT.     0.3090D+09                  6637.8464    38.0188    57.2858
         TRA.     0.1907D+28                  1788.4859     4.9680    41.4412
         TOT.                       98.428    8426.3323    42.9868    98.7269

 370.00  VIB.     0.4989D+03                  5920.8567    36.1799    28.3476
         ROT.     0.8015D+06                  1102.8996     2.9808    29.9954
         INT.     0.3999D+09                  7023.7563    39.1607    58.3430
         TRA.     0.1987D+28                  1838.1660     4.9680    41.5773
         TOT.                       98.864    8861.9224    44.1287    99.9203

 380.00  VIB.     0.6207D+03                  6288.2993    37.3059    29.3275
         ROT.     0.8342D+06                  1132.7077     2.9808    30.0749
         INT.     0.5178D+09                  7421.0070    40.2867    59.4024
         TRA.     0.2068D+28                  1887.8462     4.9680    41.7098
         TOT.                       99.310    9308.8532    45.2548   101.1122

 390.00  VIB.     0.7733D+03                  6666.9191    38.4152    30.3109
         ROT.     0.8674D+06                  1162.5158     2.9808    30.1523
         INT.     0.6707D+09                  7829.4349    41.3960    60.4632
         TRA.     0.2150D+28                  1937.5263     4.9680    41.8388
         TOT.                       99.769    9766.9613    46.3640   102.3020

 400.00  VIB.     0.9648D+03                  7056.5438    39.5068    31.2973
         ROT.     0.9009D+06                  1192.3239     2.9808    30.2278
         INT.     0.8692D+09                  8248.8677    42.4876    61.5251
         TRA.     0.2233D+28                  1987.2065     4.9680    41.9646
         TOT.                      100.238   10236.0742    47.4556   103.4897

   *: NOTE: HEATS OF FORMATION ARE RELATIVE TO THE
            ELEMENTS IN THEIR STANDARD STATE AT 298K
              (=  Standard Enthalpy of Formation).

            Hvib:  Zero-point energy is not included.
                   frequencies of less than zero cm-1 are not included.
            Hrot = (3/2)RT
            Htra = (3/2)RT + pV = (5/2)RT

            Heat capacity is Cp, not Cv

          For more information, see: HTTP://OpenMOPAC.net/Manual/thermochemistry.html


           FORCE CONSTANT IN CARTESIAN COORDINATES (Millidynes/A)

    ATOM   CHEMICAL       X               Y               Z
   NUMBER   SYMBOL  FORCE CONSTANT  FORCE CONSTANT  FORCE CONSTANT

      1       C       10.559403        5.328622        8.893102
      2       C        9.732002        8.586847        7.688326
      3       C        8.121246       17.192116        2.312463
      4       C       16.449029       10.002171        2.357269
      5       C        8.639656       14.413195        2.149990
      6       C       15.607985        2.464850        9.258144
      7       C       12.105130       11.990999        2.423777
      8       C       10.139178       15.099367        2.170797
      9       C       12.018900       12.862560        2.256071
     10       C       15.478428        1.976038        9.031158
     11       H        1.944364        0.592060        3.640603
     12       H        1.308294        1.411317        3.446172
     13       H        1.273017        1.422630        3.466341
     14       H        0.651169        5.626592        0.319226
     15       H        1.750457        0.356201        4.106969
     16       H        4.933219        0.958126        0.343101
     17       H        1.191408        4.703813        0.344501
     18       H        2.476358        3.492726        0.347408
     19       H        1.937059        0.344061        4.178680
     20       H        2.223756        0.343332        3.908311

 **********************
 *                    *
 * JOB ENDED NORMALLY *
 *                    *
 **********************



 TOTAL JOB TIME:             7.82 SECONDS

 == MOPAC DONE ==
