 *******************************************************************************
 ** Site#: 14399        For non-commercial use only    Version 18.184L 64BITS **
 *******************************************************************************
 ** Cite this program as: MOPAC2016, Version: 18.184L, James J. P. Stewart,   **
 ** Stewart Computational Chemistry, web: HTTP://OpenMOPAC.net. Days left:  20**
 *******************************************************************************
 **                                                                           **
 **                                MOPAC2016                                  **
 **                                                                           **
 *******************************************************************************

                              PM3 CALCULATION RESULTS

 *******************************************************************************
 *  CALCULATION DONE:                                Thu Jun 13 15:51:07 2019  *
 *  PM3        - The PM3 Hamiltonian to be used
 *  PRECISE    - CRITERIA TO BE INCREASED BY 100 TIMES
 *  NOSYM      - POINT-GROUP SYMMETRY SET TO C1
 *  THREADS=1  - MULTI-THREADING NOT USED
 *  T=         - A TIME OF 172800.0 SECONDS REQUESTED
 *  DUMP=N     - RESTART FILE WRITTEN EVERY  7200.000 SECONDS
 *******************************************************************************
pm3  precise nosym THREADS=1
 InChI=1S/C10H10/c1-8-6-7-9-4-2-3-5-10(8)9/h2-8H,1H3

   ATOM   CHEMICAL          X               Y               Z
  NUMBER   SYMBOL      (ANGSTROMS)     (ANGSTROMS)     (ANGSTROMS)
 
     1       C         -1.37320000  *  -0.55130000  *   0.40100000  *
     2       C         -1.86690000  *  -1.48950000  *  -0.70010000  *
     3       C          0.08840000  *  -0.26440000  *   0.27500000  *
     4       C          0.28730000  *   1.07870000  *   0.06460000  *
     5       C         -1.94680000  *   0.83490000  *   0.23420000  *
     6       C          1.16780000  *  -1.14620000  *   0.36840000  *
     7       C         -0.99680000  *   1.74710000  *   0.04180000  *
     8       C          1.56530000  *   1.61810000  *  -0.07600000  *
     9       C          2.46720000  *  -0.62990000  *   0.22770000  *
    10       C          2.66530000  *   0.74790000  *   0.00500000  *
    11       H         -1.61210000  *  -0.95590000  *   1.40790000  *
    12       H         -1.39660000  *  -2.48900000  *  -0.58510000  *
    13       H         -2.96850000  *  -1.61070000  *  -0.62570000  *
    14       H         -1.61610000  *  -1.08680000  *  -1.70560000  *
    15       H         -3.00280000  *   1.06930000  *   0.26940000  *
    16       H          1.00850000  *  -2.20200000  *   0.54460000  *
    17       H         -1.16660000  *   2.80630000  *  -0.09980000  *
    18       H          3.31990000  *  -1.29310000  *   0.29300000  *
    19       H          1.70740000  *   2.67840000  *  -0.23990000  *
    20       H          3.66930000  *   1.13800000  *  -0.10040000  *
 


          CARTESIAN COORDINATES 

    NO.       ATOM           X           Y           Z

     1         C         -1.3732     -0.5513      0.4010
     2         C         -1.8669     -1.4895     -0.7001
     3         C          0.0884     -0.2644      0.2750
     4         C          0.2873      1.0787      0.0646
     5         C         -1.9468      0.8349      0.2342
     6         C          1.1678     -1.1462      0.3684
     7         C         -0.9968      1.7471      0.0418
     8         C          1.5653      1.6181     -0.0760
     9         C          2.4672     -0.6299      0.2277
    10         C          2.6653      0.7479      0.0050
    11         H         -1.6121     -0.9559      1.4079
    12         H         -1.3966     -2.4890     -0.5851
    13         H         -2.9685     -1.6107     -0.6257
    14         H         -1.6161     -1.0868     -1.7056
    15         H         -3.0028      1.0693      0.2694
    16         H          1.0085     -2.2020      0.5446
    17         H         -1.1666      2.8063     -0.0998
    18         H          3.3199     -1.2931      0.2930
    19         H          1.7074      2.6784     -0.2399
    20         H          3.6693      1.1380     -0.1004

  H: (PM3): J. J. P. STEWART, J. COMP. CHEM. 10, 209 (1989).
  C: (PM3): J. J. P. STEWART, J. COMP. CHEM. 10, 209 (1989).

           Empirical Formula: C10 H10  =    20 atoms



      MOLECULAR POINT GROUP   :   C1  


      RHF CALCULATION, NO. OF DOUBLY OCCUPIED LEVELS = 25


          Geometry optimization using EF

          DIAGONAL MATRIX USED AS START HESSIAN

 CYCLE:     1 TIME:   0.027 TIME LEFT:  2.00D  GRAD.:   114.667 HEAT:  39.17911
 CYCLE:     2 TIME:   0.047 TIME LEFT:  2.00D  GRAD.:    49.388 HEAT:  36.98626
 CYCLE:     3 TIME:   0.031 TIME LEFT:  2.00D  GRAD.:    29.142 HEAT:  36.49236
 CYCLE:     4 TIME:   0.023 TIME LEFT:  2.00D  GRAD.:    33.500 HEAT:  36.34094
 CYCLE:     5 TIME:   0.023 TIME LEFT:  2.00D  GRAD.:    22.785 HEAT:  36.13593
 CYCLE:     6 TIME:   0.027 TIME LEFT:  2.00D  GRAD.:    15.579 HEAT:  35.99615
 CYCLE:     7 TIME:   0.031 TIME LEFT:  2.00D  GRAD.:    13.328 HEAT:  35.94500
 CYCLE:     8 TIME:   0.020 TIME LEFT:  2.00D  GRAD.:    10.996 HEAT:  35.89416
 CYCLE:     9 TIME:   0.023 TIME LEFT:  2.00D  GRAD.:    12.389 HEAT:  35.86143
 CYCLE:    10 TIME:   0.031 TIME LEFT:  2.00D  GRAD.:    10.123 HEAT:  35.82937
 CYCLE:    11 TIME:   0.027 TIME LEFT:  2.00D  GRAD.:    10.052 HEAT:  35.82203
 CYCLE:    12 TIME:   0.020 TIME LEFT:  2.00D  GRAD.:     6.260 HEAT:  35.80133
 CYCLE:    13 TIME:   0.031 TIME LEFT:  2.00D  GRAD.:     6.035 HEAT:  35.79484
 CYCLE:    14 TIME:   0.020 TIME LEFT:  2.00D  GRAD.:     4.683 HEAT:  35.78804
 CYCLE:    15 TIME:   0.023 TIME LEFT:  2.00D  GRAD.:     5.604 HEAT:  35.78619
 CYCLE:    16 TIME:   0.023 TIME LEFT:  2.00D  GRAD.:     3.748 HEAT:  35.77909
 CYCLE:    17 TIME:   0.023 TIME LEFT:  2.00D  GRAD.:     4.439 HEAT:  35.77748
 CYCLE:    18 TIME:   0.023 TIME LEFT:  2.00D  GRAD.:     3.654 HEAT:  35.77196
 CYCLE:    19 TIME:   0.023 TIME LEFT:  2.00D  GRAD.:     3.002 HEAT:  35.76684
 CYCLE:    20 TIME:   0.023 TIME LEFT:  2.00D  GRAD.:     2.039 HEAT:  35.76140
 CYCLE:    21 TIME:   0.020 TIME LEFT:  2.00D  GRAD.:     4.289 HEAT:  35.75588
 CYCLE:    22 TIME:   0.023 TIME LEFT:  2.00D  GRAD.:     2.557 HEAT:  35.74900
 CYCLE:    23 TIME:   0.023 TIME LEFT:  2.00D  GRAD.:     2.795 HEAT:  35.74441
 CYCLE:    24 TIME:   0.023 TIME LEFT:  2.00D  GRAD.:     2.709 HEAT:  35.73794
 CYCLE:    25 TIME:   0.023 TIME LEFT:  2.00D  GRAD.:     2.458 HEAT:  35.73123
 CYCLE:    26 TIME:   0.023 TIME LEFT:  2.00D  GRAD.:     2.175 HEAT:  35.72779
 CYCLE:    27 TIME:   0.020 TIME LEFT:  2.00D  GRAD.:     1.326 HEAT:  35.72468
 CYCLE:    28 TIME:   0.023 TIME LEFT:  2.00D  GRAD.:     1.712 HEAT:  35.72091
 CYCLE:    29 TIME:   0.023 TIME LEFT:  2.00D  GRAD.:     1.534 HEAT:  35.71872
 CYCLE:    30 TIME:   0.023 TIME LEFT:  2.00D  GRAD.:     0.911 HEAT:  35.71719
 CYCLE:    31 TIME:   0.023 TIME LEFT:  2.00D  GRAD.:     1.121 HEAT:  35.71613
 CYCLE:    32 TIME:   0.023 TIME LEFT:  2.00D  GRAD.:     1.004 HEAT:  35.71525
 CYCLE:    33 TIME:   0.023 TIME LEFT:  2.00D  GRAD.:     0.766 HEAT:  35.71445
 CYCLE:    34 TIME:   0.020 TIME LEFT:  2.00D  GRAD.:     0.635 HEAT:  35.71405
 CYCLE:    35 TIME:   0.023 TIME LEFT:  2.00D  GRAD.:     0.462 HEAT:  35.71385
 CYCLE:    36 TIME:   0.023 TIME LEFT:  2.00D  GRAD.:     0.281 HEAT:  35.71372
 CYCLE:    37 TIME:   0.023 TIME LEFT:  2.00D  GRAD.:     0.303 HEAT:  35.71357
 CYCLE:    38 TIME:   0.023 TIME LEFT:  2.00D  GRAD.:     0.413 HEAT:  35.71338
 CYCLE:    39 TIME:   0.023 TIME LEFT:  2.00D  GRAD.:     0.407 HEAT:  35.71316
 CYCLE:    40 TIME:   0.023 TIME LEFT:  2.00D  GRAD.:     0.330 HEAT:  35.71297
 CYCLE:    41 TIME:   0.020 TIME LEFT:  2.00D  GRAD.:     0.262 HEAT:  35.71282
 CYCLE:    42 TIME:   0.023 TIME LEFT:  2.00D  GRAD.:     0.296 HEAT:  35.71271
 CYCLE:    43 TIME:   0.023 TIME LEFT:  2.00D  GRAD.:     0.260 HEAT:  35.71262
 CYCLE:    44 TIME:   0.023 TIME LEFT:  2.00D  GRAD.:     0.209 HEAT:  35.71251
 CYCLE:    45 TIME:   0.023 TIME LEFT:  2.00D  GRAD.:     0.225 HEAT:  35.71236
 CYCLE:    46 TIME:   0.023 TIME LEFT:  2.00D  GRAD.:     0.218 HEAT:  35.71227
 CYCLE:    47 TIME:   0.020 TIME LEFT:  2.00D  GRAD.:     0.172 HEAT:  35.71219
 CYCLE:    48 TIME:   0.023 TIME LEFT:  2.00D  GRAD.:     0.167 HEAT:  35.71211
 CYCLE:    49 TIME:   0.023 TIME LEFT:  2.00D  GRAD.:     0.165 HEAT:  35.71205
 CYCLE:    50 TIME:   0.023 TIME LEFT:  2.00D  GRAD.:     0.132 HEAT:  35.71200
 CYCLE:    51 TIME:   0.023 TIME LEFT:  2.00D  GRAD.:     0.088 HEAT:  35.71196
 CYCLE:    52 TIME:   0.023 TIME LEFT:  2.00D  GRAD.:     0.074 HEAT:  35.71195
 CYCLE:    53 TIME:   0.023 TIME LEFT:  2.00D  GRAD.:     0.099 HEAT:  35.71193
 CYCLE:    54 TIME:   0.020 TIME LEFT:  2.00D  GRAD.:     0.080 HEAT:  35.71192
 CYCLE:    55 TIME:   0.023 TIME LEFT:  2.00D  GRAD.:     0.124 HEAT:  35.71189
 CYCLE:    56 TIME:   0.023 TIME LEFT:  2.00D  GRAD.:     0.145 HEAT:  35.71187
 CYCLE:    57 TIME:   0.023 TIME LEFT:  2.00D  GRAD.:     0.114 HEAT:  35.71179
 CYCLE:    58 TIME:   0.023 TIME LEFT:  2.00D  GRAD.:     0.170 HEAT:  35.71172
 CYCLE:    59 TIME:   0.023 TIME LEFT:  2.00D  GRAD.:     0.118 HEAT:  35.71169
 CYCLE:    60 TIME:   0.023 TIME LEFT:  2.00D  GRAD.:     0.091 HEAT:  35.71162
 CYCLE:    61 TIME:   0.020 TIME LEFT:  2.00D  GRAD.:     0.068 HEAT:  35.71160
 CYCLE:    62 TIME:   0.023 TIME LEFT:  2.00D  GRAD.:     0.040 HEAT:  35.71158

     GRADIENT =  0.04000  IS LESS THAN CUTOFF =  0.05000



 -------------------------------------------------------------------------------
 pm3  precise nosym THREADS=1
 InChI=1S/C10H10/c1-8-6-7-9-4-2-3-5-10(8)9/h2-8H,1H3



     GEOMETRY OPTIMISED USING EIGENVECTOR FOLLOWING (EF).     
     SCF FIELD WAS ACHIEVED                                   


                              PM3 CALCULATION
                                                       MOPAC2016 (Version: 18.184L)
                                                       Thu Jun 13 15:51:08 2019
                                                       No. of days remaining =  20




          FINAL HEAT OF FORMATION =         35.71158 KCAL/MOL =     149.41723 KJ/MOL


          TOTAL ENERGY            =      -1338.18234 EV
          ELECTRONIC ENERGY       =      -7091.00983 EV  POINT GROUP:     C1  
          CORE-CORE REPULSION     =       5752.82749 EV
          COSMO AREA              =        171.90 SQUARE ANGSTROMS
          COSMO VOLUME            =        173.49 CUBIC ANGSTROMS

          GRADIENT NORM           =          0.04000 = 0.00894 PER ATOM
          IONIZATION POTENTIAL    =          8.975726 EV
          HOMO LUMO ENERGIES (EV) =         -8.976 -0.077
          NO. OF FILLED LEVELS    =         25
          MOLECULAR WEIGHT        =        130.1890

          MOLECULAR DIMENSIONS (Angstroms)

            Atom       Atom       Distance
            H    20    H    13     7.23563
            H    17    H    18     5.53562
            H    14    H    11     3.07073


          SCF CALCULATIONS        =         71
 
          WALL-CLOCK TIME         =          1.535 SECONDS
          COMPUTATION TIME        =          0.607 SECONDS




   ATOM   CHEMICAL          X               Y               Z
  NUMBER   SYMBOL      (ANGSTROMS)     (ANGSTROMS)     (ANGSTROMS)
 
     1       C         -1.37831160  *  -0.54219802  *   0.37817112  *
     2       C         -1.88805859  *  -1.51831108  *  -0.66050931  *
     3       C          0.10248912  *  -0.27730758  *   0.26628086  *
     4       C          0.30766937  *   1.10832444  *   0.07548952  *
     5       C         -1.96706172  *   0.84249564  *   0.20145733  *
     6       C          1.17381995  *  -1.14773587  *   0.33392397  *
     7       C         -0.99937333  *   1.76806073  *   0.03934732  *
     8       C          1.58598016  *   1.62761113  *  -0.04364869  *
     9       C          2.46170468  *  -0.62054281  *   0.21119067  *
    10       C          2.66391715  *   0.74354965  *   0.02686249  *
    11       H         -1.61396606  *  -0.91422622  *   1.40344534  *
    12       H         -1.40622632  *  -2.49833807  *  -0.54729265  *
    13       H         -2.97186275  *  -1.66250553  *  -0.56658123  *
    14       H         -1.68765459  *  -1.16783345  *  -1.68102613  *
    15       H         -3.04310408  *   1.00666341  *   0.21109823  *
    16       H          1.01581102  *  -2.22137954  *   0.47670974  *
    17       H         -1.12107805  *   2.84106834  *  -0.09932446  *
    18       H          3.32420391  *  -1.29323533  *   0.26110288  *
    19       H          1.74448834  *   2.70026095  *  -0.18948203  *
    20       H          3.68392340  *   1.13096077  *  -0.06525279  *

                             CARTESIAN COORDINATES

   1    C       -1.378311604    -0.542198025     0.378171123
   2    C       -1.888058595    -1.518311084    -0.660509314
   3    C        0.102489119    -0.277307577     0.266280860
   4    C        0.307669373     1.108324441     0.075489523
   5    C       -1.967061715     0.842495639     0.201457325
   6    C        1.173819950    -1.147735871     0.333923970
   7    C       -0.999373328     1.768060732     0.039347321
   8    C        1.585980158     1.627611130    -0.043648691
   9    C        2.461704684    -0.620542807     0.211190672
  10    C        2.663917150     0.743549653     0.026862487
  11    H       -1.613966057    -0.914226217     1.403445335
  12    H       -1.406226320    -2.498338073    -0.547292646
  13    H       -2.971862752    -1.662505528    -0.566581227
  14    H       -1.687654587    -1.167833452    -1.681026130
  15    H       -3.043104084     1.006663411     0.211098234
  16    H        1.015811017    -2.221379544     0.476709741
  17    H       -1.121078050     2.841068337    -0.099324459
  18    H        3.324203913    -1.293235332     0.261102885
  19    H        1.744488344     2.700260948    -0.189482027
  20    H        3.683923403     1.130960773    -0.065252792


           Empirical Formula: C10 H10  =    20 atoms



      MOLECULAR POINT GROUP   :   C1  


                  EIGENVALUES  
 -41.58540 -35.80632 -31.65636 -28.57220 -26.90412 -23.53006 -21.44406 -19.96385
 -19.65404 -17.59408 -16.32242 -15.65646 -15.39665 -14.95503 -14.77069 -14.04328
 -13.71207 -13.14045 -12.85842 -12.50727 -12.19599 -11.96853 -10.91526  -9.56712
  -8.97573  -0.07713   0.43005   1.46482   2.99290   3.10058   3.15521   3.38975
   3.46618   3.57478   3.75087   3.85159   3.93740   4.08405   4.09140   4.49005
   4.53783   4.68498   4.76710   5.04414   5.19886   5.35038   5.53316   5.91288
   6.22949   6.45935


              NET ATOMIC CHARGES AND DIPOLE CONTRIBUTIONS

  ATOM NO.   TYPE          CHARGE      No. of ELECS.   s-Pop       p-Pop       
    1          C          -0.003013        4.0030     1.15599     2.84702
    2          C          -0.092112        4.0921     1.13460     2.95751
    3          C          -0.093298        4.0933     1.19254     2.90076
    4          C          -0.061169        4.0612     1.17621     2.88496
    5          C          -0.149415        4.1494     1.21021     2.93920
    6          C          -0.081354        4.0814     1.17039     2.91097
    7          C          -0.094856        4.0949     1.18496     2.90990
    8          C          -0.075057        4.0751     1.17116     2.90390
    9          C          -0.102640        4.1026     1.17948     2.92316
   10          C          -0.105837        4.1058     1.17941     2.92642
   11          H           0.083958        0.9160     0.91604
   12          H           0.041202        0.9588     0.95880
   13          H           0.039831        0.9602     0.96017
   14          H           0.047568        0.9524     0.95243
   15          H           0.115557        0.8844     0.88444
   16          H           0.106365        0.8936     0.89363
   17          H           0.116006        0.8840     0.88399
   18          H           0.100849        0.8992     0.89915
   19          H           0.106347        0.8937     0.89365
   20          H           0.101071        0.8989     0.89893
 DIPOLE           X         Y         Z       TOTAL
 POINT-CHG.    -0.401    -0.282     0.019     0.490
 HYBRID         0.019     0.025     0.018     0.036
 SUM           -0.382    -0.256     0.037     0.461


          ATOMIC ORBITAL ELECTRON POPULATIONS

     Atom    s        px        py        pz   
    1  C   1.15599   0.91237   0.94497   0.98969
    2  C   1.13460   0.99796   0.97611   0.98344
    3  C   1.19254   0.95045   0.95047   0.99985
    4  C   1.17621   0.94012   0.94212   1.00272
    5  C   1.21021   0.98113   0.95373   1.00434
    6  C   1.17039   0.92968   0.97624   1.00504
    7  C   1.18496   0.92634   0.97565   1.00790
    8  C   1.17116   0.92638   0.97891   0.99861
    9  C   1.17948   0.96371   0.95569   1.00376
   10  C   1.17941   0.97584   0.94447   1.00612
   11  H   0.91604
   12  H   0.95880
   13  H   0.96017
   14  H   0.95243
   15  H   0.88444
   16  H   0.89363
   17  H   0.88399
   18  H   0.89915
   19  H   0.89365
   20  H   0.89893
 *******************************************************************************
 ** Site#: 14399        For non-commercial use only    Version 18.184L 64BITS **
 *******************************************************************************
 ** Cite this program as: MOPAC2016, Version: 18.184L, James J. P. Stewart,   **
 ** Stewart Computational Chemistry, web: HTTP://OpenMOPAC.net. Days left:  20**
 *******************************************************************************
 **                                                                           **
 **                                MOPAC2016                                  **
 **                                                                           **
 *******************************************************************************

                              PM3 CALCULATION RESULTS

 *******************************************************************************
 *  CALCULATION DONE:                                Thu Jun 13 15:51:08 2019  *
 *  PM3        - The PM3 Hamiltonian to be used
 *  OLDGEO     - PREVIOUS GEOMETRY TO BE USED
 *  PRECISE    - CRITERIA TO BE INCREASED BY 100 TIMES
 *  NOSYM      - POINT-GROUP SYMMETRY SET TO C1
 *  THREADS=1  - MULTI-THREADING NOT USED
 *  T=         - A TIME OF 172800.0 SECONDS REQUESTED
 *  DUMP=N     - RESTART FILE WRITTEN EVERY  7200.000 SECONDS
 *  THERMO     - THERMODYNAMIC QUANTITIES TO BE CALCULATED
 *******************************************************************************
oldgeo thermo nosym precise THREADS=1  pm3
 InChI=1S/C10H10/c1-8-6-7-9-4-2-3-5-10(8)9/h2-8H,1H3

   ATOM   CHEMICAL          X               Y               Z
  NUMBER   SYMBOL      (ANGSTROMS)     (ANGSTROMS)     (ANGSTROMS)
 
     1       C         -1.37831160  *  -0.54219802  *   0.37817112  *
     2       C         -1.88805859  *  -1.51831108  *  -0.66050931  *
     3       C          0.10248912  *  -0.27730758  *   0.26628086  *
     4       C          0.30766937  *   1.10832444  *   0.07548952  *
     5       C         -1.96706172  *   0.84249564  *   0.20145733  *
     6       C          1.17381995  *  -1.14773587  *   0.33392397  *
     7       C         -0.99937333  *   1.76806073  *   0.03934732  *
     8       C          1.58598016  *   1.62761113  *  -0.04364869  *
     9       C          2.46170468  *  -0.62054281  *   0.21119067  *
    10       C          2.66391715  *   0.74354965  *   0.02686249  *
    11       H         -1.61396606  *  -0.91422622  *   1.40344534  *
    12       H         -1.40622632  *  -2.49833807  *  -0.54729265  *
    13       H         -2.97186275  *  -1.66250553  *  -0.56658123  *
    14       H         -1.68765459  *  -1.16783345  *  -1.68102613  *
    15       H         -3.04310408  *   1.00666341  *   0.21109823  *
    16       H          1.01581102  *  -2.22137954  *   0.47670974  *
    17       H         -1.12107805  *   2.84106834  *  -0.09932446  *
    18       H          3.32420391  *  -1.29323533  *   0.26110288  *
    19       H          1.74448834  *   2.70026095  *  -0.18948203  *
    20       H          3.68392340  *   1.13096077  *  -0.06525279  *
 


          CARTESIAN COORDINATES 

    NO.       ATOM           X           Y           Z

     1         C         -1.3783     -0.5422      0.3782
     2         C         -1.8881     -1.5183     -0.6605
     3         C          0.1025     -0.2773      0.2663
     4         C          0.3077      1.1083      0.0755
     5         C         -1.9671      0.8425      0.2015
     6         C          1.1738     -1.1477      0.3339
     7         C         -0.9994      1.7681      0.0393
     8         C          1.5860      1.6276     -0.0436
     9         C          2.4617     -0.6205      0.2112
    10         C          2.6639      0.7435      0.0269
    11         H         -1.6140     -0.9142      1.4034
    12         H         -1.4062     -2.4983     -0.5473
    13         H         -2.9719     -1.6625     -0.5666
    14         H         -1.6877     -1.1678     -1.6810
    15         H         -3.0431      1.0067      0.2111
    16         H          1.0158     -2.2214      0.4767
    17         H         -1.1211      2.8411     -0.0993
    18         H          3.3242     -1.2932      0.2611
    19         H          1.7445      2.7003     -0.1895
    20         H          3.6839      1.1310     -0.0653

  H: (PM3): J. J. P. STEWART, J. COMP. CHEM. 10, 209 (1989).
  C: (PM3): J. J. P. STEWART, J. COMP. CHEM. 10, 209 (1989).

           Empirical Formula: C10 H10  =    20 atoms



      MOLECULAR POINT GROUP   :   C1  


      RHF CALCULATION, NO. OF DOUBLY OCCUPIED LEVELS = 25



          HEAT OF FORMATION =      35.711577 KCALS/MOLE


          CARTESIAN COORDINATE DERIVATIVES

   NUMBER  ATOM         X            Y            Z

     1       C      0.004483     0.006317     0.001427
     2       C     -0.004164     0.004785    -0.002792
     3       C     -0.009899    -0.008602    -0.022501
     4       C      0.013532    -0.027946     0.009534
     5       C     -0.000235     0.003962     0.000223
     6       C     -0.006090     0.023632     0.010425
     7       C     -0.002599     0.012668     0.003034
     8       C     -0.011536     0.047264     0.012070
     9       C      0.014722    -0.021387     0.021118
    10       C     -0.016014    -0.016754    -0.032821
    11       H     -0.004795     0.003893     0.000148
    12       H      0.008784     0.000404     0.007728
    13       H     -0.013106    -0.002467    -0.007551
    14       H      0.003620     0.002324    -0.003139
    15       H      0.005716    -0.002737     0.003592
    16       H      0.001248    -0.002453    -0.000039
    17       H     -0.001207     0.002092     0.005431
    18       H      0.007389    -0.005430     0.001520
    19       H      0.009068    -0.015498    -0.003035
    20       H      0.001083    -0.004068    -0.004372
 


          GRADIENT NORM =   0.09474


          TIME FOR SCF CALCULATION =    0.03

          TIME FOR DERIVATIVES     =    0.01

          MOLECULAR WEIGHT =  130.19



          ROTATIONAL CONSTANTS IN CM(-1)

          A =    0.08685906   B =    0.04191625   C =    0.02973328



           PRINCIPAL MOMENTS OF INERTIA IN UNITS OF 10**(-40)*GRAM-CM**2

          A =      322.2781   B =      667.8264   C =      941.4628


          ORIENTATION OF MOLECULE IN FORCE CALCULATION

    NO.       ATOM         X         Y         Z

     1          C       0.7688   -1.4891    0.4467
     2          C       2.2826   -1.4891    0.4467
     3          C       0.1761   -0.1020    0.4467
     4          C      -0.6555    0.0417   -0.6874
     5          C       0.1954   -2.0839   -0.8233
     6          C       0.3302    0.9358    1.3462
     7          C      -0.6160   -1.2078   -1.4504
     8          C      -1.3391    1.2230   -0.9223
     9          C      -0.3592    2.1267    1.1048
    10          C      -1.1804    2.2670   -0.0094
    11          H       0.3846   -2.0586    1.3260
    12          H       2.6746   -1.0036    1.3500
    13          H       2.6761   -2.5131    0.4164
    14          H       2.6893   -0.9522   -0.4198
    15          H       0.4453   -3.0953   -1.1389
    16          H       0.9778    0.8273    2.2219
    17          H      -1.1718   -1.3591   -2.3743
    18          H      -0.2501    2.9615    1.8049
    19          H      -1.9841    1.3333   -1.7991
    20          H      -1.7105    3.2108   -0.1745


    FIRST DERIVATIVES WILL BE USED IN THE CALCULATION OF SECOND DERIVATIVES

          ESTIMATED TIME TO COMPLETE CALCULATION =        9.38 SECONDS

    FOR POINT-GROUP C1   THERE ARE   1 UNIQUE SYMMETRY FUNCTIONS.

 STEP:   1 TIME =     0.05 SECS, INTEGRAL =      0.05 TIME LEFT: 172799.91
 STEP:   2 TIME =     0.05 SECS, INTEGRAL =      0.10 TIME LEFT: 172799.86
 STEP:   3 TIME =     0.05 SECS, INTEGRAL =      0.14 TIME LEFT: 172799.82
 STEP:   4 TIME =     0.05 SECS, INTEGRAL =      0.19 TIME LEFT: 172799.77
 STEP:   5 TIME =     0.04 SECS, INTEGRAL =      0.23 TIME LEFT: 172799.73
 STEP:   6 TIME =     0.04 SECS, INTEGRAL =      0.28 TIME LEFT: 172799.68
 STEP:   7 TIME =     0.05 SECS, INTEGRAL =      0.32 TIME LEFT: 172799.64
 STEP:   8 TIME =     0.05 SECS, INTEGRAL =      0.37 TIME LEFT: 172799.59
 STEP:   9 TIME =     0.05 SECS, INTEGRAL =      0.42 TIME LEFT: 172799.54
 STEP:  10 TIME =     0.05 SECS, INTEGRAL =      0.46 TIME LEFT: 172799.50
 STEP:  11 TIME =     0.05 SECS, INTEGRAL =      0.51 TIME LEFT: 172799.45
 STEP:  12 TIME =     0.05 SECS, INTEGRAL =      0.56 TIME LEFT: 172799.40
 STEP:  13 TIME =     0.05 SECS, INTEGRAL =      0.61 TIME LEFT: 172799.36
 STEP:  14 TIME =     0.05 SECS, INTEGRAL =      0.65 TIME LEFT: 172799.31
 STEP:  15 TIME =     0.05 SECS, INTEGRAL =      0.70 TIME LEFT: 172799.26
 STEP:  16 TIME =     0.05 SECS, INTEGRAL =      0.75 TIME LEFT: 172799.21
 STEP:  17 TIME =     0.05 SECS, INTEGRAL =      0.79 TIME LEFT: 172799.17
 STEP:  18 TIME =     0.05 SECS, INTEGRAL =      0.84 TIME LEFT: 172799.12
 STEP:  19 TIME =     0.05 SECS, INTEGRAL =      0.89 TIME LEFT: 172799.07
 STEP:  20 TIME =     0.05 SECS, INTEGRAL =      0.93 TIME LEFT: 172799.03
 STEP:  21 TIME =     0.05 SECS, INTEGRAL =      0.98 TIME LEFT: 172798.98
 STEP:  22 TIME =     0.05 SECS, INTEGRAL =      1.03 TIME LEFT: 172798.93
 STEP:  23 TIME =     0.05 SECS, INTEGRAL =      1.08 TIME LEFT: 172798.88
 STEP:  24 TIME =     0.05 SECS, INTEGRAL =      1.12 TIME LEFT: 172798.84
 STEP:  25 TIME =     0.05 SECS, INTEGRAL =      1.17 TIME LEFT: 172798.79
 STEP:  26 TIME =     0.05 SECS, INTEGRAL =      1.22 TIME LEFT: 172798.74
 STEP:  27 TIME =     0.05 SECS, INTEGRAL =      1.27 TIME LEFT: 172798.70
 STEP:  28 TIME =     0.05 SECS, INTEGRAL =      1.31 TIME LEFT: 172798.65
 STEP:  29 TIME =     0.05 SECS, INTEGRAL =      1.36 TIME LEFT: 172798.60
 STEP:  30 TIME =     0.05 SECS, INTEGRAL =      1.41 TIME LEFT: 172798.55
 STEP:  31 TIME =     0.05 SECS, INTEGRAL =      1.45 TIME LEFT: 172798.51
 STEP:  32 TIME =     0.05 SECS, INTEGRAL =      1.50 TIME LEFT: 172798.46
 STEP:  33 TIME =     0.04 SECS, INTEGRAL =      1.54 TIME LEFT: 172798.42
 STEP:  34 TIME =     0.05 SECS, INTEGRAL =      1.59 TIME LEFT: 172798.37
 STEP:  35 TIME =     0.04 SECS, INTEGRAL =      1.63 TIME LEFT: 172798.33
 STEP:  36 TIME =     0.04 SECS, INTEGRAL =      1.68 TIME LEFT: 172798.29
 STEP:  37 TIME =     0.05 SECS, INTEGRAL =      1.72 TIME LEFT: 172798.24
 STEP:  38 TIME =     0.04 SECS, INTEGRAL =      1.77 TIME LEFT: 172798.20
 STEP:  39 TIME =     0.05 SECS, INTEGRAL =      1.81 TIME LEFT: 172798.15
 STEP:  40 TIME =     0.05 SECS, INTEGRAL =      1.86 TIME LEFT: 172798.10
 STEP:  41 TIME =     0.05 SECS, INTEGRAL =      1.91 TIME LEFT: 172798.05
 STEP:  42 TIME =     0.04 SECS, INTEGRAL =      1.95 TIME LEFT: 172798.01
 STEP:  43 TIME =     0.05 SECS, INTEGRAL =      2.00 TIME LEFT: 172797.96
 STEP:  44 TIME =     0.05 SECS, INTEGRAL =      2.04 TIME LEFT: 172797.92
 STEP:  45 TIME =     0.05 SECS, INTEGRAL =      2.09 TIME LEFT: 172797.87
 STEP:  46 TIME =     0.05 SECS, INTEGRAL =      2.14 TIME LEFT: 172797.82
 STEP:  47 TIME =     0.05 SECS, INTEGRAL =      2.19 TIME LEFT: 172797.77
 STEP:  48 TIME =     0.04 SECS, INTEGRAL =      2.23 TIME LEFT: 172797.73
 STEP:  49 TIME =     0.05 SECS, INTEGRAL =      2.28 TIME LEFT: 172797.68
 STEP:  50 TIME =     0.05 SECS, INTEGRAL =      2.32 TIME LEFT: 172797.64
 STEP:  51 TIME =     0.05 SECS, INTEGRAL =      2.37 TIME LEFT: 172797.59
 STEP:  52 TIME =     0.05 SECS, INTEGRAL =      2.42 TIME LEFT: 172797.54
 STEP:  53 TIME =     0.04 SECS, INTEGRAL =      2.46 TIME LEFT: 172797.50
 STEP:  54 TIME =     0.05 SECS, INTEGRAL =      2.51 TIME LEFT: 172797.45
 STEP:  55 TIME =     0.05 SECS, INTEGRAL =      2.55 TIME LEFT: 172797.41
 STEP:  56 TIME =     0.04 SECS, INTEGRAL =      2.60 TIME LEFT: 172797.36
 STEP:  57 TIME =     0.05 SECS, INTEGRAL =      2.64 TIME LEFT: 172797.32
 STEP:  58 TIME =     0.05 SECS, INTEGRAL =      2.69 TIME LEFT: 172797.27
 STEP:  59 TIME =     0.05 SECS, INTEGRAL =      2.74 TIME LEFT: 172797.22
 STEP:  60 TIME =     0.05 SECS, INTEGRAL =      2.79 TIME LEFT: 172797.18

(To convert to Hartree/Bohr^2, multiply by (10^(-21) x N x a0^2)/(4.184 x 627.51) =  0.0642)


           FORCE MATRIX IN MILLIDYNES/ANGSTROM


                  C  1       C  2       C  3       C  4       C  5       C  6
 ------------------------------------------------------------------------------
     C    1  14.876307
     C    2   4.326244  14.395257
     C    3   4.208784   0.620838  18.386631
     C    4   0.951646   0.043477   6.135704  18.872301
     C    5   4.053849   0.631386   1.080678   1.579484  17.912355
     C    6   0.510807   0.034342   7.418085   2.196109   0.044097  17.449672
     C    7   1.120815   0.046291   1.206776   5.175786   9.921543   0.084365
     C    8   0.088871   0.013431   2.151987   7.211003   0.137511   1.702289
     C    9   0.107953   0.011266   2.375539   1.654422   0.053557   6.831749
     C   10   0.040871   0.003686   1.655502   2.424402   0.082935   2.384969
     H   11   4.243963   0.435536   0.400270   0.033358   0.395347   0.020129
     H   12   0.455293   4.734648   0.018414   0.005292   0.048344   0.006351
     H   13   0.454331   4.752471   0.049303   0.004784   0.017746   0.002445
     H   14   0.463656   4.759671   0.013912   0.003149   0.015388   0.002938
     H   15   0.406746   0.009819   0.041739   0.108284   5.056313   0.009421
     H   16   0.038522   0.009761   0.448594   0.088562   0.002619   4.867273
     H   17   0.111866   0.016391   0.044285   0.426130   0.445845   0.007599
     H   18   0.006459   0.001721   0.085153   0.008599   0.001583   0.433091
     H   19   0.008578   0.001050   0.086171   0.448126   0.004710   0.010717
     H   20   0.007547   0.000760   0.008417   0.087117   0.001926   0.086114


                  C  7       C  8       C  9       C 10       H 11       H 12
 ------------------------------------------------------------------------------
     C    7  18.403820
     C    8   0.753208  17.418106
     C    9   0.071640   2.364669  17.246036
     C   10   0.163753   6.867697   7.010799  17.195930
     H   11   0.040246   0.013657   0.012710   0.009368   4.717737
     H   12   0.007221   0.001470   0.002097   0.000741   0.026763   5.458469
     H   13   0.004218   0.002066   0.001969   0.001431   0.028280   0.559158
     H   14   0.003954   0.001223   0.001201   0.001475   0.045735   0.569311
     H   15   0.442554   0.006589   0.002174   0.004976   0.011572   0.001502
     H   16   0.008269   0.010854   0.436509   0.085384   0.005247   0.009067
     H   17   5.050910   0.010528   0.001643   0.002269   0.014074   0.002698
     H   18   0.006728   0.086317   4.859324   0.436188   0.001260   0.000204
     H   19   0.039388   4.884740   0.085527   0.437718   0.000718   0.000160
     H   20   0.006991   0.434867   0.435685   4.857910   0.001028   0.000217


                  H 13       H 14       H 15       H 16       H 17       H 18
 ------------------------------------------------------------------------------
     H   13   5.476130
     H   14   0.567971   5.486198
     H   15   0.006296   0.002358   5.450734
     H   16   0.001601   0.000698   0.000651   5.238842
     H   17   0.000634   0.000843   0.043440   0.001378   5.442937
     H   18   0.000213   0.000194   0.000944   0.038770   0.000470   5.221986
     H   19   0.000236   0.000199   0.001912   0.008010   0.006011   0.006566
     H   20   0.000281   0.000191   0.000485   0.006501   0.000592   0.042829


                  H 19       H 20
 ------------------------------
     H   19   5.254766
     H   20   0.039045   5.221610


          HEAT OF FORMATION =      35.711577 KCALS/MOLE

          ZERO POINT ENERGY     105.822 KCAL/MOL


           NORMAL COORDINATE ANALYSIS (Total motion = 1 Angstrom)


   Root No.       1         2         3         4         5         6         7         8

                 1 A       2 A       3 A       4 A       5 A       6 A       7 A       8 A   

                 127.7     175.5     185.9     283.8     289.3     395.0     450.1     515.6
  
           1   -0.0021   -0.0036   -0.0050   -0.0163   -0.0309   -0.0119    0.0064   -0.0155
           2    0.0023   -0.0057   -0.0074   -0.0022   -0.0143   -0.0193   -0.0296   -0.0001
           3   -0.0098   -0.0038   -0.0080    0.0009    0.0311    0.0063   -0.0191    0.0011
           4   -0.0037   -0.0037   -0.0048   -0.0172   -0.0305   -0.0136    0.0071   -0.0220
           5   -0.0377    0.0307    0.0399    0.0524    0.0072   -0.0018    0.0128    0.0093
           6    0.0554    0.0162    0.0167    0.0241   -0.0324   -0.0092    0.0116   -0.0021
           7    0.0134   -0.0206   -0.0245    0.0077   -0.0185   -0.0155    0.0334    0.0316
           8    0.0089   -0.0137   -0.0171    0.0019   -0.0086   -0.0159   -0.0099    0.0161
           9   -0.0163    0.0097    0.0081   -0.0285    0.0240    0.0374    0.0231   -0.0074
          10   -0.0095   -0.0230   -0.0252    0.0180    0.0129   -0.0141    0.0450   -0.0050
          11    0.0021   -0.0125   -0.0122    0.0061   -0.0007   -0.0125    0.0131   -0.0104
          12   -0.0006    0.0116    0.0097   -0.0338    0.0024    0.0375    0.0197    0.0178
          13    0.0183    0.0140    0.0148   -0.0306   -0.0027    0.0152   -0.0368   -0.0079
          14    0.0148    0.0040    0.0044   -0.0206   -0.0069    0.0090   -0.0023   -0.0009
          15   -0.0246   -0.0164   -0.0225    0.0166    0.0148   -0.0215   -0.0206   -0.0039
          16    0.0345   -0.0003   -0.0028    0.0367    0.0075    0.0392   -0.0058    0.0318
          17    0.0166   -0.0091   -0.0173   -0.0086    0.0076    0.0279    0.0043    0.0140
          18   -0.0287    0.0004    0.0038   -0.0239    0.0014   -0.0188    0.0185   -0.0029
          19    0.0041   -0.0089   -0.0082   -0.0029    0.0646   -0.0100   -0.0159    0.0096
          20    0.0102   -0.0052   -0.0033   -0.0116    0.0213    0.0070    0.0316    0.0093
          21   -0.0130    0.0001   -0.0048   -0.0100   -0.0310    0.0118    0.0033   -0.0091
          22   -0.0386   -0.0086   -0.0070    0.0169   -0.0188    0.0444    0.0021   -0.0223
          23   -0.0101   -0.0053   -0.0019    0.0109   -0.0169    0.0069   -0.0203   -0.0257
          24    0.0217    0.0065    0.0084   -0.0097    0.0171   -0.0248    0.0036    0.0150
          25    0.0153    0.0256    0.0276    0.0077    0.0280   -0.0219   -0.0010   -0.0370
          26    0.0087    0.0031   -0.0023   -0.0198    0.0155   -0.0010    0.0028   -0.0199
          27   -0.0131   -0.0128   -0.0063    0.0168   -0.0200    0.0015   -0.0259    0.0261
          28   -0.0281    0.0212    0.0261   -0.0112   -0.0151   -0.0226   -0.0162    0.0437
          29   -0.0076    0.0043    0.0046   -0.0185   -0.0101   -0.0083   -0.0069    0.0024
          30    0.0168   -0.0094   -0.0041    0.0306    0.0086    0.0007   -0.0164   -0.0313
          31   -0.0486   -0.0022   -0.0026   -0.0143   -0.0085   -0.0091    0.0086   -0.0316
          32    0.0071   -0.0302   -0.0291    0.0134   -0.0156   -0.0527   -0.0573    0.0161
          33   -0.0257   -0.0190   -0.0211    0.0117    0.0375   -0.0151   -0.0361    0.0039
          34   -0.0305   -0.0274   -0.0385   -0.0576    0.0064   -0.0064   -0.0441   -0.0268
          35   -0.0406   -0.1199    0.1955    0.0608    0.0161    0.0084    0.0339    0.0159
          36    0.0688    0.1075   -0.0517    0.0381   -0.0539   -0.0180    0.0238   -0.0034
          37   -0.0297    0.0215    0.0317    0.0302   -0.0158   -0.0000    0.0549   -0.0068
          38   -0.0485    0.0457    0.0493    0.0716    0.0136    0.0035    0.0317    0.0159
          39    0.0818   -0.1611    0.1856    0.0203   -0.0510   -0.0107    0.0284   -0.0052
          40    0.0492   -0.0056   -0.0072   -0.0252   -0.0833   -0.0346    0.0114   -0.0359
          41   -0.0561    0.1957   -0.0820    0.0835    0.0121   -0.0007    0.0307    0.0182
          42    0.0690    0.1175   -0.0599    0.0394   -0.0549   -0.0188    0.0249   -0.0036
          43    0.0353    0.0371    0.0387   -0.0668   -0.0113    0.0529   -0.1010   -0.0016
          44    0.0233    0.0148    0.0166   -0.0391   -0.0125    0.0310   -0.0152    0.0020
          45   -0.0387   -0.0332   -0.0423    0.0481    0.0258   -0.0623   -0.0285   -0.0077
          46    0.0624    0.0021   -0.0016    0.0634    0.0151    0.1167   -0.0443    0.0548
          47    0.0273   -0.0120   -0.0254   -0.0188    0.0166    0.0842    0.0280    0.0313
          48   -0.0479   -0.0018    0.0021   -0.0447   -0.0031   -0.0690    0.0499   -0.0177
          49    0.0056   -0.0111   -0.0083   -0.0033    0.1405   -0.0133   -0.0556    0.0429
          50    0.0133   -0.0048   -0.0010   -0.0211    0.0542    0.0279    0.0723    0.0404
          51   -0.0144    0.0014   -0.0052   -0.0081   -0.0819    0.0104    0.0202   -0.0342
          52    0.0322    0.0507    0.0542   -0.0044    0.0688   -0.0534    0.0042   -0.1416
          53    0.0144    0.0116    0.0036   -0.0344    0.0379   -0.0051    0.0205   -0.0531
          54   -0.0225   -0.0269   -0.0175    0.0360   -0.0530    0.0116   -0.0475    0.0820
          55   -0.0667   -0.0131   -0.0103    0.0224   -0.0364    0.1313   -0.0161   -0.0660
          56   -0.0208   -0.0034    0.0056    0.0341   -0.0306    0.0231   -0.0728   -0.0560
          57    0.0410    0.0101    0.0118   -0.0108    0.0284   -0.0867    0.0104    0.0436
          58   -0.0511    0.0417    0.0508   -0.0477   -0.0361   -0.0539   -0.0372    0.1293
          59   -0.0172    0.0139    0.0169   -0.0320   -0.0205   -0.0246   -0.0195    0.0388
          60    0.0350   -0.0201   -0.0133    0.0700    0.0170    0.0093   -0.0190   -0.0973


   Root No.       9        10        11        12        13        14        15        16

                 9 A      10 A      11 A      12 A      13 A      14 A      15 A      16 A   

                 536.6     557.2     614.0     732.4     750.5     785.9     819.5     838.2
  
           1    0.0295   -0.0008    0.0080   -0.0025    0.0035   -0.0011    0.0009   -0.0004
           2   -0.0118   -0.0398    0.0409   -0.0031   -0.0059    0.0014   -0.0169    0.0338
           3   -0.0027   -0.0198   -0.0361   -0.0080    0.0469    0.0122   -0.0040   -0.0171
           4    0.0437   -0.0023    0.0090   -0.0074    0.0215   -0.0052    0.0151   -0.0113
           5   -0.0050   -0.0013    0.0016    0.0024   -0.0004    0.0016   -0.0063    0.0131
           6    0.0119   -0.0011    0.0017   -0.0014    0.0105    0.0027   -0.0015   -0.0057
           7   -0.0216    0.0070   -0.0199    0.0525    0.0062    0.0219   -0.0115   -0.0064
           8   -0.0267   -0.0125    0.0222    0.0196   -0.0154   -0.0003    0.0065   -0.0090
           9    0.0046   -0.0089    0.0175   -0.0325   -0.0087   -0.0136    0.0034    0.0124
          10   -0.0348    0.0136   -0.0146   -0.0421    0.0049    0.0102    0.0133    0.0211
          11    0.0036   -0.0215   -0.0362   -0.0163   -0.0228   -0.0038    0.0182   -0.0047
          12    0.0154   -0.0048    0.0062    0.0372   -0.0116   -0.0023   -0.0207    0.0037
          13   -0.0322    0.0072   -0.0284   -0.0128   -0.0255    0.0000   -0.0204   -0.0115
          14   -0.0051   -0.0562   -0.0062   -0.0191    0.0505    0.0147   -0.0216   -0.0059
          15    0.0212   -0.0202   -0.0079    0.0055    0.0102    0.0013    0.0076    0.0072
          16    0.0023   -0.0352   -0.0024   -0.0029   -0.0143   -0.0144   -0.0055    0.0013
          17   -0.0109    0.0359    0.0257   -0.0052   -0.0011   -0.0109    0.0102   -0.0180
          18   -0.0247   -0.0390    0.0264    0.0052   -0.0319   -0.0039    0.0136    0.0073
          19    0.0206    0.0135   -0.0022    0.0003   -0.0415   -0.0045   -0.0148   -0.0122
          20    0.0247   -0.0402   -0.0097   -0.0014    0.0065    0.0040   -0.0074   -0.0126
          21   -0.0117   -0.0081   -0.0409    0.0123   -0.0361   -0.0090    0.0196   -0.0011
          22   -0.0133    0.0273    0.0195    0.0074    0.0271   -0.0011   -0.0141    0.0286
          23    0.0187    0.0102   -0.0305    0.0068   -0.0210   -0.0112    0.0071    0.0010
          24   -0.0003    0.0595    0.0001   -0.0026    0.0164    0.0200   -0.0248    0.0245
          25   -0.0132   -0.0206    0.0083    0.0106    0.0027   -0.0205   -0.0066   -0.0088
          26   -0.0149    0.0629    0.0305   -0.0012    0.0167   -0.0118    0.0115   -0.0301
          27   -0.0061    0.0232    0.0243   -0.0133    0.0038    0.0077    0.0223   -0.0227
          28   -0.0044   -0.0050    0.0147   -0.0142    0.0122   -0.0227    0.0077   -0.0134
          29    0.0233    0.0592   -0.0387    0.0028   -0.0067   -0.0031   -0.0194    0.0334
          30   -0.0067    0.0166    0.0108    0.0042    0.0031    0.0138    0.0040   -0.0093
          31    0.0671   -0.0029    0.0113   -0.0195    0.0281   -0.0199    0.0307    0.0137
          32   -0.0155   -0.0507    0.0440    0.0527   -0.0066    0.0223   -0.0203    0.0575
          33    0.0123   -0.0284   -0.0306    0.0203    0.0556    0.0173    0.0060    0.0063
          34    0.0217   -0.0424   -0.0129   -0.0346    0.0740    0.0146   -0.0202   -0.0168
          35   -0.0062    0.0172   -0.0201    0.0127    0.0044    0.0056    0.0059   -0.0226
          36    0.0231    0.0069    0.0236    0.0056   -0.0154   -0.0084    0.0086    0.0161
          37    0.0506    0.0455   -0.0393    0.0173    0.0340    0.0010    0.0536   -0.0986
          38   -0.0029    0.0173   -0.0184    0.0127    0.0053    0.0048    0.0082   -0.0223
          39    0.0222    0.0071    0.0238    0.0040   -0.0143   -0.0094    0.0108    0.0149
          40    0.0669   -0.0092    0.0815   -0.0087   -0.0334   -0.0344    0.0245    0.0735
          41   -0.0029    0.0186   -0.0194    0.0166    0.0034    0.0060    0.0079   -0.0222
          42    0.0251    0.0078    0.0243    0.0066   -0.0139   -0.0090    0.0120    0.0142
          43   -0.1122   -0.0025   -0.0788    0.0746    0.0656   -0.0003    0.1328    0.0960
          44   -0.0323   -0.0608   -0.0396    0.0228    0.0922    0.0131    0.0571    0.0254
          45    0.0451   -0.0161    0.0602   -0.0604   -0.0486    0.0074   -0.1260   -0.0078
          46    0.0528   -0.0351    0.0247   -0.1186   -0.0519    0.0680    0.0753    0.0665
          47    0.0131    0.0429    0.0274   -0.0497   -0.0314    0.0253    0.0399    0.0290
          48   -0.0589   -0.0374    0.0068    0.0851   -0.0083   -0.0603   -0.0420   -0.0349
          49    0.0831    0.0107    0.0199    0.1433    0.0193   -0.0415    0.1094    0.0604
          50    0.0487   -0.0394    0.0134    0.0758    0.0262   -0.0108    0.0475    0.0319
          51   -0.0535   -0.0068   -0.0583   -0.0863   -0.0766    0.0156   -0.0643   -0.0517
          52   -0.0060   -0.0170    0.0152    0.0183   -0.0356    0.1741    0.0455    0.0327
          53   -0.0304    0.0377    0.0659   -0.0007   -0.0143    0.0595    0.0581   -0.0379
          54    0.0114    0.0533   -0.0189   -0.0150    0.0462   -0.1083   -0.0405   -0.0210
          55    0.0198    0.0083    0.0676    0.1006   -0.0107    0.1227   -0.0696   -0.0327
          56    0.0344    0.0080    0.0006    0.0388   -0.0405    0.0312    0.0128   -0.0721
          57   -0.0229    0.0725   -0.0312   -0.0671    0.0421   -0.0654    0.0160    0.0613
          58    0.0346   -0.0118    0.0073   -0.0384   -0.0514    0.1604    0.0463   -0.0408
          59    0.0439    0.0480   -0.0494   -0.0067   -0.0433    0.0754   -0.0008    0.0217
          60   -0.0140   -0.0283   -0.0260    0.0272    0.0017   -0.1235   -0.0145    0.0110


   Root No.      17        18        19        20        21        22        23        24

                17 A      18 A      19 A      20 A      21 A      22 A      23 A      24 A   

                 901.8     916.5     953.9     957.1     978.2    1007.3    1024.4    1044.1
  
           1   -0.0022   -0.0030   -0.0027   -0.0005    0.0043    0.0001   -0.0014   -0.0026
           2    0.0020   -0.0113    0.0097   -0.0010    0.0026    0.0088    0.0153   -0.0102
           3   -0.0015    0.0116    0.0130    0.0002   -0.0076   -0.0069   -0.0123    0.0281
           4    0.0055    0.0165    0.0190    0.0018   -0.0057    0.0060    0.0107   -0.0064
           5    0.0027   -0.0130    0.0198   -0.0058   -0.0024   -0.0193   -0.0224   -0.0049
           6   -0.0035    0.0100    0.0343   -0.0022    0.0034   -0.0007    0.0013   -0.0156
           7   -0.0185    0.0122   -0.0091    0.0066    0.0031   -0.0092   -0.0284   -0.0037
           8   -0.0040    0.0171    0.0023    0.0039   -0.0010    0.0034   -0.0003   -0.0014
           9    0.0183    0.0102   -0.0008   -0.0048   -0.0008   -0.0011    0.0082    0.0017
          10    0.0208   -0.0134    0.0064    0.0040    0.0168   -0.0048    0.0136    0.0063
          11    0.0079   -0.0092    0.0024    0.0011    0.0082   -0.0036    0.0045   -0.0010
          12   -0.0181   -0.0091    0.0002   -0.0023   -0.0113    0.0060   -0.0050   -0.0086
          13   -0.0117   -0.0026   -0.0058   -0.0147    0.0253    0.0003    0.0019    0.0266
          14   -0.0048    0.0048   -0.0419   -0.0076    0.0211   -0.0022   -0.0024    0.0014
          15    0.0056   -0.0080   -0.0369    0.0073   -0.0043   -0.0004    0.0003   -0.0340
          16    0.0319    0.0234    0.0004   -0.0251   -0.0189   -0.0118    0.0192    0.0044
          17    0.0115    0.0064    0.0013   -0.0112   -0.0090   -0.0071    0.0056    0.0039
          18   -0.0011    0.0495    0.0048    0.0196    0.0061    0.0076   -0.0144    0.0060
          19   -0.0066   -0.0149   -0.0022    0.0141   -0.0340    0.0038   -0.0033   -0.0202
          20   -0.0112   -0.0299   -0.0030    0.0067   -0.0142    0.0040    0.0010   -0.0110
          21   -0.0098   -0.0421    0.0047   -0.0120    0.0283    0.0013    0.0098    0.0015
          22   -0.0232   -0.0007   -0.0068   -0.0243   -0.0142    0.0255   -0.0068   -0.0059
          23   -0.0052    0.0188    0.0025   -0.0110   -0.0089    0.0064   -0.0103    0.0014
          24    0.0172   -0.0031    0.0004    0.0178    0.0109   -0.0091    0.0152    0.0034
          25    0.0131   -0.0084    0.0055    0.0147    0.0153    0.0266   -0.0177   -0.0024
          26   -0.0002   -0.0180   -0.0011    0.0056    0.0081    0.0087   -0.0112   -0.0041
          27   -0.0160   -0.0118   -0.0025   -0.0109   -0.0100   -0.0185    0.0124   -0.0015
          28   -0.0212   -0.0106   -0.0031    0.0169    0.0019   -0.0314    0.0137    0.0028
          29    0.0026    0.0269    0.0013    0.0086   -0.0012   -0.0112    0.0107    0.0015
          30    0.0090   -0.0066   -0.0010   -0.0123    0.0003    0.0185   -0.0140   -0.0018
          31    0.0393   -0.0312   -0.0474   -0.0020   -0.0534   -0.0626   -0.0922    0.1393
          32   -0.0340   -0.0359    0.0825    0.0525   -0.0677    0.1078    0.0924    0.1615
          33   -0.0063   -0.0181    0.0378    0.0339   -0.0778    0.0289   -0.0031    0.2009
          34   -0.0069    0.0399    0.2486   -0.0288    0.0136   -0.0421   -0.0283   -0.1025
          35   -0.0098    0.0218   -0.0241    0.0098    0.0051    0.0281    0.0306    0.0010
          36    0.0090   -0.0192   -0.0463    0.0039   -0.0104   -0.0040   -0.0095    0.0267
          37   -0.0192    0.1023   -0.0840    0.0412    0.0034    0.1183    0.1369    0.0167
          38   -0.0082    0.0221   -0.0192    0.0101    0.0021    0.0265    0.0290    0.0029
          39    0.0106   -0.0172   -0.0504    0.0050   -0.0124   -0.0021   -0.0070    0.0297
          40    0.0491   -0.0776   -0.0858   -0.0038   -0.0463   -0.0548   -0.0694    0.0717
          41   -0.0105    0.0209   -0.0289    0.0128    0.0019    0.0324    0.0338    0.0091
          42    0.0099   -0.0156   -0.0480    0.0065   -0.0141    0.0010   -0.0039    0.0323
          43    0.0767   -0.0044   -0.0411    0.0696   -0.0923    0.0103    0.0217   -0.1228
          44    0.0268   -0.0130   -0.0359    0.0315   -0.0392   -0.0017   -0.0061   -0.0371
          45   -0.0277    0.0437   -0.0847   -0.0512    0.0966    0.0068    0.0286   -0.0271
          46   -0.1048    0.0326    0.0109    0.1197    0.0702    0.0419   -0.0527   -0.0057
          47   -0.0272    0.0836   -0.0053    0.0542    0.0246   -0.0103   -0.0781    0.0368
          48    0.0955    0.0543   -0.0039   -0.0790   -0.0557   -0.0325    0.0281    0.0181
          49    0.0006    0.0139   -0.0215   -0.0803    0.1720   -0.0213    0.0042    0.0207
          50   -0.0290   -0.0965    0.1045   -0.0285    0.0443    0.0263    0.0576    0.0539
          51   -0.0116   -0.0503   -0.0028    0.0503   -0.1044    0.0129   -0.0036   -0.0353
          52   -0.1007    0.0035   -0.0208   -0.0701   -0.0618   -0.0887    0.0713   -0.0112
          53   -0.0424    0.0187   -0.0104   -0.0298   -0.0316   -0.0482    0.0125    0.0123
          54    0.0523   -0.0566    0.0126    0.0446    0.0492    0.0668   -0.0304   -0.0196
          55    0.1060   -0.0404    0.0124    0.1130    0.0710   -0.0635    0.0555    0.0062
          56    0.0580    0.0355    0.0081    0.0486    0.0262   -0.0602   -0.0323    0.0457
          57   -0.0700    0.0275   -0.0132   -0.0756   -0.0472    0.0484   -0.0330   -0.0001
          58    0.1016   -0.0203    0.0096   -0.0824   -0.0035    0.1008   -0.0646    0.0008
          59    0.0595    0.0323    0.0095   -0.0351   -0.0050    0.0446   -0.0282    0.0049
          60   -0.0624    0.0450    0.0045    0.0562   -0.0027   -0.0856    0.0163    0.0224


   Root No.      25        26        27        28        29        30        31        32

                25 A      26 A      27 A      28 A      29 A      30 A      31 A      32 A   

                1077.9    1085.6    1108.1    1116.1    1151.4    1155.2    1188.2    1235.3
  
           1   -0.0007    0.0090   -0.0032    0.0519    0.0030    0.0064   -0.0110    0.0490
           2    0.0052    0.0068   -0.0016    0.0270    0.0003   -0.0198   -0.0090   -0.0093
           3    0.0009   -0.0156    0.0040   -0.0404   -0.0014   -0.0199   -0.0040    0.0015
           4    0.0004   -0.0032    0.0019   -0.0581   -0.0017   -0.0038    0.0051   -0.0155
           5   -0.0019    0.0001   -0.0005   -0.0270   -0.0001    0.0096    0.0008    0.0051
           6   -0.0011    0.0024   -0.0013    0.0418    0.0001    0.0060    0.0025   -0.0043
           7    0.0087   -0.0031   -0.0059   -0.0041   -0.0046    0.0167   -0.0148    0.0063
           8   -0.0132   -0.0133    0.0078   -0.0011   -0.0024   -0.0333   -0.0007   -0.0239
           9    0.0044    0.0077   -0.0109    0.0026   -0.0072    0.0162   -0.0271    0.0070
          10    0.0040    0.0014   -0.0051    0.0011    0.0052    0.0062   -0.0173   -0.0036
          11   -0.0019   -0.0017   -0.0040    0.0010   -0.0034    0.0191    0.0121   -0.0099
          12    0.0047   -0.0043   -0.0080   -0.0010    0.0052    0.0177   -0.0168   -0.0142
          13    0.0009   -0.0040    0.0031   -0.0066   -0.0002   -0.0058    0.0046    0.0076
          14   -0.0073    0.0075   -0.0019   -0.0014    0.0031    0.0037   -0.0009    0.0097
          15   -0.0028    0.0107    0.0037    0.0047    0.0037   -0.0106    0.0020    0.0295
          16   -0.0140   -0.0055    0.0111    0.0012   -0.0061    0.0034    0.0068    0.0134
          17    0.0049    0.0013   -0.0096    0.0001    0.0035   -0.0077   -0.0153   -0.0101
          18   -0.0173   -0.0159    0.0126   -0.0036   -0.0071   -0.0038    0.0017    0.0098
          19   -0.0048    0.0062    0.0036    0.0031    0.0003   -0.0108    0.0020    0.0006
          20   -0.0029    0.0099    0.0047    0.0029    0.0002    0.0054    0.0084   -0.0231
          21   -0.0089    0.0136    0.0076   -0.0001    0.0001   -0.0101    0.0095   -0.0166
          22   -0.0046    0.0109    0.0154    0.0017    0.0055   -0.0143    0.0055   -0.0144
          23    0.0044   -0.0037    0.0036   -0.0009    0.0019    0.0115    0.0125    0.0056
          24   -0.0044    0.0150    0.0247    0.0015    0.0094   -0.0128    0.0164   -0.0178
          25   -0.0021   -0.0063   -0.0050   -0.0009   -0.0039    0.0014    0.0107    0.0041
          26   -0.0080   -0.0131   -0.0044   -0.0012   -0.0033    0.0163   -0.0101    0.0152
          27   -0.0084   -0.0144   -0.0104   -0.0015   -0.0073    0.0136    0.0091    0.0161
          28    0.0114    0.0137   -0.0017    0.0013    0.0056    0.0014    0.0105   -0.0067
          29   -0.0166   -0.0180   -0.0033   -0.0015   -0.0048   -0.0016    0.0003    0.0187
          30    0.0065    0.0067   -0.0048    0.0007    0.0052    0.0005    0.0154    0.0021
          31   -0.0097   -0.0908    0.0162    0.3645   -0.0067   -0.0310    0.0315   -0.1088
          32   -0.0072    0.0792   -0.0472   -0.0487   -0.0028    0.1379   -0.0132    0.0455
          33   -0.0103   -0.0122   -0.0171    0.0474   -0.0077    0.0670    0.0115   -0.0292
          34   -0.0099    0.0046   -0.0011    0.0087   -0.0030    0.0326    0.0255   -0.0715
          35    0.0034    0.0058   -0.0020    0.0318    0.0004   -0.0042   -0.0040    0.0080
          36    0.0004   -0.0054    0.0012   -0.0211    0.0003   -0.0035   -0.0040    0.0147
          37    0.0104   -0.0043    0.0047    0.0161   -0.0029   -0.0501    0.0055   -0.0876
          38    0.0022    0.0012   -0.0000    0.0056   -0.0005   -0.0077    0.0001   -0.0194
          39    0.0006   -0.0087    0.0023   -0.0372   -0.0005   -0.0069   -0.0034   -0.0023
          40   -0.0023   -0.0318    0.0104   -0.2955   -0.0055   -0.0151    0.0094   -0.0475
          41    0.0034    0.0059   -0.0023    0.0238    0.0004   -0.0037   -0.0055    0.0075
          42    0.0007   -0.0083    0.0018   -0.0397   -0.0014   -0.0075    0.0002   -0.0151
          43    0.1353   -0.0714    0.0075    0.0257   -0.0078    0.0959    0.0223   -0.0518
          44   -0.0334    0.0324   -0.0033    0.0117    0.0063   -0.0180   -0.0082    0.0302
          45    0.1834   -0.1180    0.0118   -0.0116   -0.0116    0.1349    0.0379   -0.0809
          46   -0.0478   -0.0588    0.0436   -0.0110    0.0189    0.0068   -0.0423    0.0008
          47    0.1444    0.1484   -0.1258    0.0038   -0.1103   -0.0515    0.2043    0.0201
          48    0.0232    0.0399   -0.0257    0.0057   -0.0423   -0.0111    0.0647    0.0256
          49   -0.0809    0.0567   -0.0283    0.0065    0.0045    0.0470   -0.0043   -0.0628
          50    0.1900   -0.1179    0.0820   -0.0064   -0.0100   -0.1324    0.0241    0.1406
          51    0.0043    0.0058    0.0144   -0.0004   -0.0004   -0.0223    0.0110   -0.0073
          52   -0.0043   -0.0300   -0.1216    0.0009   -0.2025   -0.0482   -0.0792   -0.0249
          53   -0.0063    0.0121    0.0978   -0.0017    0.1747    0.0623    0.0701    0.0428
          54   -0.0103   -0.0423   -0.1173   -0.0014   -0.1885   -0.0318   -0.0723   -0.0082
          55   -0.0351   -0.0216   -0.0262   -0.0026    0.0343   -0.0147    0.0551   -0.0109
          56    0.1284    0.1363    0.1789    0.0103   -0.1122    0.0107   -0.1904   -0.0210
          57    0.0338    0.0585    0.0785    0.0062   -0.0234   -0.0144   -0.0447   -0.0274
          58    0.0530    0.0185   -0.0751   -0.0008    0.1335   -0.0321   -0.0484   -0.0217
          59    0.0202   -0.0142   -0.0692   -0.0037    0.1128   -0.0313   -0.0552    0.0084
          60    0.0890    0.0207   -0.1532   -0.0040    0.2664   -0.0668   -0.1058   -0.0261


   Root No.      33        34        35        36        37        38        39        40

                33 A      34 A      35 A      36 A      37 A      38 A      39 A      40 A   

                1299.1    1349.8    1371.0    1396.9    1407.2    1413.6    1459.4    1581.5
  
           1    0.0132    0.0437   -0.0184    0.0116    0.0027   -0.0674   -0.0175    0.0260
           2    0.0752   -0.0264   -0.0068   -0.0021   -0.0031    0.0090    0.0280   -0.0387
           3    0.0566    0.0215   -0.0267    0.0021   -0.0008   -0.0276    0.0063    0.0020
           4   -0.0019    0.0162   -0.0213   -0.0136   -0.0037    0.0763    0.0100   -0.0050
           5   -0.0140    0.0044    0.0014    0.0201   -0.0367   -0.0012   -0.0034    0.0021
           6   -0.0118   -0.0041    0.0047   -0.0381   -0.0189    0.0002   -0.0007    0.0000
           7    0.0203   -0.0277   -0.0024   -0.0018   -0.0019    0.0125   -0.0201   -0.0504
           8   -0.0206    0.0209   -0.0076    0.0011    0.0001   -0.0035   -0.0427    0.0974
           9    0.0153   -0.0238   -0.0091   -0.0009   -0.0022    0.0092   -0.0593   -0.0098
          10    0.0093    0.0064    0.0268   -0.0011    0.0002    0.0066    0.0367    0.0426
          11    0.0207    0.0018    0.0077   -0.0008   -0.0012    0.0088   -0.0545    0.0137
          12    0.0280    0.0101    0.0446   -0.0023   -0.0006    0.0166    0.0189    0.0717
          13   -0.0119   -0.0078    0.0167   -0.0013    0.0002    0.0125   -0.0067   -0.0114
          14   -0.0329   -0.0084    0.0183   -0.0008    0.0009    0.0116    0.0055    0.0125
          15   -0.0338   -0.0132    0.0354   -0.0016    0.0008    0.0188   -0.0073   -0.0074
          16   -0.0114   -0.0132   -0.0216    0.0004   -0.0003   -0.0042    0.0123   -0.0145
          17   -0.0140    0.0427    0.0358    0.0014    0.0031   -0.0081   -0.0045   -0.0336
          18   -0.0255    0.0077   -0.0083    0.0010    0.0015   -0.0099    0.0162   -0.0433
          19   -0.0037   -0.0074   -0.0005   -0.0005    0.0001    0.0045    0.0002    0.0020
          20   -0.0146    0.0107   -0.0431    0.0025    0.0006   -0.0241    0.0318   -0.0248
          21   -0.0166   -0.0048   -0.0288    0.0007    0.0006   -0.0077    0.0211   -0.0133
          22   -0.0172    0.0050   -0.0149    0.0007    0.0003   -0.0050   -0.0048   -0.0030
          23    0.0244    0.0297    0.0507    0.0002    0.0019    0.0013   -0.0050   -0.0699
          24   -0.0097    0.0270    0.0115    0.0011    0.0017   -0.0063   -0.0095   -0.0500
          25    0.0088    0.0100    0.0209   -0.0001    0.0009   -0.0002    0.0494    0.0302
          26   -0.0082   -0.0300   -0.0308   -0.0005   -0.0012    0.0009    0.0041   -0.0352
          27    0.0076   -0.0050    0.0107   -0.0006    0.0005    0.0005    0.0752    0.0216
          28    0.0101    0.0003   -0.0005    0.0000   -0.0008    0.0035   -0.0576    0.0004
          29   -0.0036   -0.0282   -0.0253   -0.0005   -0.0015    0.0018    0.0172    0.0590
          30    0.0125   -0.0180   -0.0174   -0.0003   -0.0023    0.0063   -0.0738    0.0390
          31   -0.0229   -0.0553    0.0247   -0.0109   -0.0017    0.0694    0.0208   -0.0163
          32   -0.0945   -0.0003    0.0135    0.0030   -0.0056   -0.0049   -0.0264    0.0017
          33   -0.0690   -0.0041    0.0052   -0.0053   -0.0041    0.0217   -0.0135    0.0076
          34   -0.0893   -0.1268    0.1077    0.1081    0.1373   -0.1209   -0.0174    0.0063
          35    0.0180    0.0134   -0.0190   -0.3304    0.1764    0.0018   -0.0008   -0.0009
          36    0.0109    0.0436   -0.0339    0.1174   -0.1669    0.0700    0.0085   -0.0031
          37    0.0449   -0.1352    0.0909    0.0849   -0.1333   -0.1418    0.0115   -0.0171
          38    0.0063   -0.0466    0.0372    0.0315   -0.0674   -0.0717   -0.0017   -0.0038
          39    0.0180    0.0004   -0.0117    0.3778    0.1738    0.0479    0.0040   -0.0006
          40   -0.0083   -0.0932    0.0799   -0.1233    0.0205   -0.1887   -0.0168    0.0073
          41    0.0254    0.0151   -0.0302    0.0586    0.3435    0.0608    0.0035   -0.0014
          42    0.0109   -0.0383    0.0233   -0.0351    0.2243   -0.0633   -0.0070    0.0033
          43   -0.0186    0.0398   -0.0607    0.0054    0.0010   -0.0422    0.0070    0.0052
          44   -0.0287   -0.0157    0.0321   -0.0012    0.0005    0.0176    0.0049    0.0107
          45   -0.0559    0.0422   -0.0664    0.0054    0.0029   -0.0404    0.0168    0.0125
          46   -0.0182    0.0006   -0.0104   -0.0009    0.0005   -0.0032   -0.0072   -0.0451
          47    0.0119   -0.0240   -0.0181    0.0015   -0.0009    0.0003    0.0952    0.0688
          48   -0.0201   -0.0122   -0.0267    0.0019    0.0006   -0.0110    0.0487   -0.0207
          49    0.0129    0.0129   -0.0364    0.0018    0.0003   -0.0181    0.0325    0.0027
          50   -0.0602   -0.0402    0.0475   -0.0021    0.0007    0.0279   -0.0453   -0.0249
          51   -0.0214   -0.0098   -0.0232   -0.0001    0.0005   -0.0020    0.0193   -0.0135
          52   -0.0480    0.0267   -0.0029    0.0014    0.0019   -0.0096   -0.0212   -0.0604
          53    0.0418   -0.0479   -0.0115   -0.0021   -0.0021    0.0096    0.0755    0.0431
          54   -0.0445    0.0083   -0.0127    0.0009    0.0014   -0.0087    0.0160   -0.0606
          55   -0.0068    0.0216    0.0014    0.0013    0.0012   -0.0064   -0.0297   -0.0429
          56   -0.0250   -0.0317   -0.0151   -0.0026   -0.0013    0.0080    0.0965    0.0865
          57   -0.0256    0.0106   -0.0088    0.0004    0.0008   -0.0052    0.0178   -0.0061
          58   -0.0315    0.0061   -0.0118    0.0005    0.0008   -0.0048   -0.0037   -0.0431
          59   -0.0425   -0.0275   -0.0392   -0.0002   -0.0002   -0.0059    0.0785    0.0289
          60   -0.0733   -0.0094   -0.0437    0.0007    0.0010   -0.0110    0.0440   -0.0441


   Root No.      41        42        43        44        45        46        47        48

                41 A      42 A      43 A      44 A      45 A      46 A      47 A      48 A   

                1599.3    1772.9    1802.7    1828.8    2892.9    3054.9    3063.7    3073.7
  
           1    0.0126   -0.0075    0.0064   -0.0018    0.0235   -0.0000    0.0000    0.0000
           2   -0.0015    0.0028   -0.0156    0.0169    0.0365   -0.0000    0.0001   -0.0001
           3    0.0106   -0.0090   -0.0029    0.0069   -0.0562   -0.0001    0.0001   -0.0002
           4   -0.0036   -0.0017   -0.0010   -0.0010    0.0007   -0.0000    0.0001   -0.0002
           5   -0.0010   -0.0015    0.0019   -0.0010   -0.0012   -0.0002    0.0006   -0.0016
           6   -0.0014   -0.0018    0.0007   -0.0006    0.0019   -0.0005    0.0014   -0.0042
           7   -0.0369    0.0057    0.0466    0.0073   -0.0003    0.0001   -0.0000    0.0001
           8    0.0024    0.0133    0.0644   -0.1074    0.0007    0.0001   -0.0008    0.0014
           9   -0.0523    0.0166    0.1105   -0.0589   -0.0002    0.0003   -0.0006    0.0011
          10   -0.0019   -0.0097   -0.0696   -0.0659    0.0006    0.0001    0.0002    0.0007
          11    0.0959    0.0221    0.0623    0.1394   -0.0004    0.0000   -0.0005   -0.0010
          12    0.0599   -0.0000   -0.0621   -0.0061    0.0003    0.0002   -0.0000    0.0004
          13    0.0096    0.1273   -0.0112   -0.0090   -0.0004   -0.0000   -0.0000    0.0000
          14   -0.0078   -0.1233    0.0040    0.0086   -0.0003    0.0000   -0.0000    0.0000
          15    0.0099    0.1064   -0.0136   -0.0076   -0.0011    0.0000   -0.0000    0.0000
          16    0.0423   -0.0101   -0.0247   -0.0232    0.0001   -0.0065    0.0128   -0.0184
          17   -0.0753    0.0087   -0.0336    0.1260   -0.0001    0.0003   -0.0013    0.0034
          18    0.0136   -0.0094   -0.0582    0.0474   -0.0001   -0.0093    0.0179   -0.0248
          19   -0.0060   -0.1186    0.0149    0.0165    0.0005   -0.0000   -0.0001   -0.0001
          20   -0.0350    0.1357   -0.0297   -0.0396   -0.0002   -0.0000    0.0001    0.0001
          21   -0.0318   -0.0865    0.0025   -0.0016    0.0002   -0.0000   -0.0001   -0.0001
          22    0.0294    0.0112    0.0328    0.0465   -0.0000   -0.0050   -0.0087   -0.0145
          23   -0.0125   -0.0369   -0.0076   -0.1323    0.0001    0.0016    0.0024    0.0027
          24    0.0350   -0.0074    0.0434   -0.0176   -0.0000   -0.0063   -0.0113   -0.0196
          25   -0.0426    0.0189    0.0677    0.0363   -0.0000    0.0026   -0.0027   -0.0012
          26    0.0775   -0.0184   -0.0327   -0.0568    0.0001    0.0232   -0.0127   -0.0150
          27   -0.0125    0.0159    0.0784    0.0168   -0.0001    0.0188   -0.0122   -0.0114
          28   -0.0117   -0.0079   -0.0586   -0.0045    0.0000    0.0137    0.0116    0.0007
          29   -0.0487    0.0124   -0.0269    0.0423    0.0000   -0.0251   -0.0195    0.0006
          30   -0.0488   -0.0035   -0.1038    0.0207    0.0000    0.0037    0.0044    0.0014
          31   -0.0111   -0.0004   -0.0032   -0.0025   -0.2973   -0.0001    0.0002   -0.0006
          32   -0.0163   -0.0223    0.0135   -0.0049   -0.4416   -0.0001    0.0003   -0.0007
          33   -0.0089   -0.0158    0.0127   -0.0045    0.6838    0.0002   -0.0002    0.0008
          34   -0.0035   -0.0015    0.0019   -0.0029   -0.0007    0.0020   -0.0055    0.0153
          35   -0.0008   -0.0014    0.0004   -0.0000   -0.0059    0.0024   -0.0066    0.0191
          36   -0.0013   -0.0032    0.0005    0.0001   -0.0108    0.0045   -0.0125    0.0354
          37    0.0020    0.0017   -0.0073    0.0066   -0.0005   -0.0005    0.0016   -0.0046
          38    0.0004   -0.0008   -0.0005    0.0023    0.0128    0.0012   -0.0039    0.0120
          39    0.0006    0.0004   -0.0005    0.0008    0.0005   -0.0002    0.0006   -0.0018
          40    0.0037    0.0007    0.0013   -0.0005    0.0029   -0.0008    0.0024   -0.0081
          41   -0.0002    0.0012   -0.0010    0.0006    0.0105   -0.0013    0.0036   -0.0122
          42    0.0022    0.0005   -0.0001    0.0005   -0.0170    0.0016   -0.0046    0.0162
          43   -0.0116    0.0003    0.0026   -0.0052   -0.0009    0.0000   -0.0001    0.0000
          44   -0.0062   -0.1344    0.0010    0.0103    0.0047   -0.0002    0.0005   -0.0001
          45   -0.0230   -0.0867    0.0035   -0.0013   -0.0005   -0.0001    0.0002   -0.0001
          46    0.0144   -0.0101   -0.0457    0.0213   -0.0007    0.0776   -0.1507    0.2045
          47    0.0589   -0.0001    0.0249   -0.0499    0.0003   -0.0112    0.0242   -0.0352
          48    0.0589   -0.0148   -0.0510   -0.0006   -0.0004    0.1065   -0.2051    0.2769
          49   -0.0203   -0.0591   -0.0097   -0.0079    0.0031   -0.0000    0.0004    0.0003
          50   -0.0032   -0.0651    0.0297    0.0247    0.0006    0.0001    0.0002    0.0003
          51   -0.0332   -0.1320    0.0058    0.0047    0.0033    0.0000    0.0007    0.0007
          52    0.0491   -0.0127   -0.0258   -0.0110   -0.0000   -0.0339    0.0221    0.0196
          53    0.0031    0.0090    0.0549   -0.0185   -0.0001   -0.2661    0.1529    0.1598
          54    0.0746   -0.0126   -0.0024   -0.0282   -0.0001   -0.2218    0.1312    0.1320
          55    0.0256   -0.0014    0.0381    0.0088   -0.0000    0.0570    0.1005    0.1644
          56    0.0288    0.0192   -0.0032    0.0462   -0.0000   -0.0114   -0.0184   -0.0281
          57    0.0571    0.0101    0.0541    0.0432    0.0001    0.0764    0.1357    0.2236
          58    0.0564   -0.0075    0.0091   -0.0201    0.0001   -0.1613   -0.1283   -0.0007
          59    0.0073    0.0166    0.0407    0.0353   -0.0003    0.2891    0.2262   -0.0017
          60    0.0879   -0.0004    0.0400   -0.0061    0.0001   -0.0492   -0.0415   -0.0022


   Root No.      49        50        51        52        53        54

                49 A      50 A      51 A      52 A      53 A      54 A   

                3080.6    3082.3    3085.8    3126.5    3143.8    3178.6
  
           1   -0.0001    0.0002   -0.0004   -0.0002    0.0004    0.0006
           2    0.0000    0.0003   -0.0008   -0.0001   -0.0005   -0.0001
           3    0.0002   -0.0007    0.0008   -0.0004    0.0008    0.0001
           4    0.0002   -0.0006    0.0001    0.0001    0.0000    0.0245
           5    0.0025   -0.0108   -0.0512    0.0001    0.0000   -0.0000
           6    0.0085   -0.0380    0.0145   -0.0002   -0.0002   -0.0019
           7    0.0002   -0.0001   -0.0004   -0.0001    0.0002   -0.0000
           8   -0.0008   -0.0004    0.0001    0.0001    0.0010    0.0001
           9   -0.0002   -0.0003   -0.0000   -0.0002    0.0010    0.0000
          10    0.0006    0.0001   -0.0000   -0.0001   -0.0006    0.0000
          11   -0.0015   -0.0003    0.0000   -0.0000    0.0017    0.0000
          12   -0.0001   -0.0001    0.0000   -0.0001    0.0002   -0.0000
          13   -0.0001    0.0002    0.0001    0.0083    0.0129   -0.0001
          14    0.0000    0.0001   -0.0002   -0.0344   -0.0414    0.0002
          15   -0.0000    0.0001    0.0000   -0.0109   -0.0087    0.0000
          16    0.0069    0.0042    0.0003   -0.0000   -0.0001   -0.0002
          17   -0.0015   -0.0008   -0.0000    0.0000   -0.0001    0.0000
          18    0.0091    0.0057    0.0004   -0.0000   -0.0002   -0.0003
          19   -0.0001   -0.0000    0.0000    0.0206   -0.0227    0.0000
          20    0.0001    0.0000    0.0000    0.0059   -0.0018   -0.0000
          21   -0.0000   -0.0000    0.0001    0.0344   -0.0349   -0.0000
          22   -0.0152   -0.0031    0.0000   -0.0000    0.0002   -0.0000
          23    0.0022    0.0004   -0.0000    0.0000   -0.0003    0.0000
          24   -0.0210   -0.0043    0.0000   -0.0000    0.0001   -0.0000
          25    0.0017    0.0004    0.0000   -0.0000    0.0001    0.0000
          26    0.0109    0.0037    0.0001    0.0000   -0.0000   -0.0000
          27    0.0095    0.0030    0.0001   -0.0000    0.0001   -0.0000
          28   -0.0085   -0.0021    0.0000    0.0000   -0.0000    0.0000
          29    0.0156    0.0038   -0.0000    0.0000   -0.0000    0.0000
          30   -0.0024   -0.0007    0.0000    0.0000   -0.0001    0.0000
          31    0.0012   -0.0049    0.0074    0.0000    0.0013    0.0010
          32    0.0012   -0.0046    0.0055   -0.0007    0.0011    0.0005
          33   -0.0015    0.0060   -0.0100   -0.0009   -0.0035   -0.0008
          34   -0.0288    0.1264    0.0348   -0.0002   -0.0003   -0.0927
          35   -0.0369    0.1631    0.0211   -0.0001   -0.0002   -0.1370
          36   -0.0671    0.2953    0.0942   -0.0005   -0.0004   -0.2574
          37    0.0080   -0.0345   -0.1637   -0.0000   -0.0006   -0.0984
          38   -0.0210    0.0917    0.4345   -0.0006    0.0005    0.3063
          39    0.0036   -0.0163    0.0204   -0.0003   -0.0003    0.0076
          40    0.0186   -0.0852    0.1283   -0.0011   -0.0007   -0.1082
          41    0.0277   -0.1263    0.1568   -0.0015   -0.0012   -0.1691
          42   -0.0382    0.1757   -0.2875    0.0025    0.0017    0.2723
          43   -0.0001    0.0004   -0.0001   -0.0986   -0.1063    0.0008
          44    0.0001   -0.0009    0.0018    0.4085    0.4338   -0.0021
          45    0.0000   -0.0002    0.0009    0.1296    0.1356   -0.0005
          46   -0.0735   -0.0470   -0.0038   -0.0000    0.0003    0.0026
          47    0.0130    0.0083    0.0007   -0.0000   -0.0001   -0.0006
          48   -0.0994   -0.0631   -0.0048   -0.0000    0.0004    0.0032
          49    0.0005    0.0002   -0.0006   -0.2408    0.2206    0.0000
          50    0.0004    0.0001   -0.0002   -0.0680    0.0600    0.0000
          51    0.0009    0.0004   -0.0009   -0.4023    0.3665    0.0000
          52   -0.0157   -0.0050   -0.0001   -0.0000   -0.0001   -0.0000
          53   -0.1178   -0.0391   -0.0010   -0.0001   -0.0005    0.0001
          54   -0.0991   -0.0326   -0.0008   -0.0001   -0.0004    0.0001
          55    0.1696    0.0341   -0.0004    0.0009   -0.0007    0.0000
          56   -0.0281   -0.0056    0.0001    0.0001   -0.0002   -0.0000
          57    0.2312    0.0465   -0.0005    0.0014   -0.0012    0.0000
          58    0.0928    0.0224   -0.0001    0.0001    0.0002    0.0000
          59   -0.1661   -0.0399    0.0002   -0.0003   -0.0002   -0.0001
          60    0.0284    0.0069   -0.0000    0.0000    0.0001    0.0000


           MASS-WEIGHTED COORDINATE ANALYSIS (NORMAL COORDINATES)


   Root No.       1         2         3         4         5         6         7         8

                 1 A       2 A       3 A       4 A       5 A       6 A       7 A       8 A   

                 127.7     175.5     185.9     283.8     289.3     395.0     450.1     515.6
  
           1   -0.0162   -0.0297   -0.0401   -0.1247   -0.2221   -0.0892    0.0516   -0.1170
           2    0.0176   -0.0468   -0.0598   -0.0172   -0.1030   -0.1440   -0.2392   -0.0004
           3   -0.0749   -0.0311   -0.0649    0.0072    0.2235    0.0468   -0.1539    0.0079
           4   -0.0285   -0.0302   -0.0387   -0.1311   -0.2194   -0.1017    0.0573   -0.1659
           5   -0.2876    0.2520    0.3221    0.4001    0.0519   -0.0133    0.1037    0.0703
           6    0.4231    0.1330    0.1353    0.1837   -0.2332   -0.0685    0.0938   -0.0156
           7    0.1021   -0.1688   -0.1980    0.0586   -0.1326   -0.1161    0.2701    0.2386
           8    0.0679   -0.1125   -0.1382    0.0148   -0.0618   -0.1189   -0.0796    0.1217
           9   -0.1244    0.0792    0.0652   -0.2179    0.1726    0.2795    0.1867   -0.0562
          10   -0.0724   -0.1886   -0.2037    0.1371    0.0931   -0.1055    0.3633   -0.0379
          11    0.0160   -0.1023   -0.0986    0.0466   -0.0052   -0.0935    0.1054   -0.0786
          12   -0.0048    0.0951    0.0786   -0.2576    0.0169    0.2807    0.1589    0.1345
          13    0.1394    0.1147    0.1194   -0.2336   -0.0195    0.1137   -0.2970   -0.0594
          14    0.1127    0.0325    0.0358   -0.1569   -0.0495    0.0672   -0.0190   -0.0069
          15   -0.1879   -0.1344   -0.1822    0.1264    0.1063   -0.1608   -0.1665   -0.0294
          16    0.2633   -0.0025   -0.0225    0.2805    0.0541    0.2927   -0.0467    0.2399
          17    0.1268   -0.0743   -0.1395   -0.0654    0.0545    0.2087    0.0345    0.1055
          18   -0.2194    0.0035    0.0310   -0.1821    0.0098   -0.1407    0.1496   -0.0217
          19    0.0315   -0.0730   -0.0664   -0.0221    0.4645   -0.0746   -0.1282    0.0723
          20    0.0781   -0.0426   -0.0270   -0.0886    0.1529    0.0521    0.2555    0.0705
          21   -0.0994    0.0009   -0.0389   -0.0760   -0.2228    0.0882    0.0266   -0.0687
          22   -0.2945   -0.0705   -0.0562    0.1287   -0.1352    0.3321    0.0172   -0.1682
          23   -0.0772   -0.0432   -0.0154    0.0832   -0.1216    0.0515   -0.1641   -0.1940
          24    0.1654    0.0534    0.0679   -0.0740    0.1231   -0.1857    0.0287    0.1134
          25    0.1172    0.2102    0.2230    0.0586    0.2016   -0.1640   -0.0082   -0.2790
          26    0.0662    0.0251   -0.0183   -0.1509    0.1116   -0.0071    0.0227   -0.1505
          27   -0.0999   -0.1053   -0.0509    0.1285   -0.1439    0.0116   -0.2093    0.1970
          28   -0.2150    0.1741    0.2107   -0.0858   -0.1084   -0.1690   -0.1309    0.3294
          29   -0.0578    0.0354    0.0371   -0.1413   -0.0728   -0.0623   -0.0555    0.0182
          30    0.1284   -0.0767   -0.0333    0.2337    0.0617    0.0054   -0.1325   -0.2361
          31   -0.1075   -0.0053   -0.0061   -0.0316   -0.0176   -0.0197    0.0202   -0.0690
          32    0.0158   -0.0716   -0.0681    0.0295   -0.0324   -0.1142   -0.1340    0.0352
          33   -0.0570   -0.0452   -0.0494    0.0259    0.0782   -0.0327   -0.0845    0.0085
          34   -0.0675   -0.0650   -0.0902   -0.1273    0.0134   -0.0139   -0.1031   -0.0586
          35   -0.0899   -0.2848    0.4577    0.1345    0.0334    0.0181    0.0794    0.0348
          36    0.1522    0.2553   -0.1209    0.0843   -0.1121   -0.0390    0.0556   -0.0073
          37   -0.0658    0.0512    0.0743    0.0669   -0.0330   -0.0000    0.1285   -0.0149
          38   -0.1073    0.1085    0.1153    0.1584    0.0282    0.0076    0.0740    0.0348
          39    0.1810   -0.3825    0.4344    0.0448   -0.1063   -0.0232    0.0664   -0.0113
          40    0.1089   -0.0133   -0.0170   -0.0557   -0.1735   -0.0749    0.0266   -0.0784
          41   -0.1241    0.4647   -0.1920    0.1846    0.0252   -0.0015    0.0719    0.0399
          42    0.1528    0.2790   -0.1403    0.0872   -0.1144   -0.0406    0.0582   -0.0079
          43    0.0781    0.0881    0.0906   -0.1476   -0.0235    0.1145   -0.2363   -0.0036
          44    0.0516    0.0352    0.0388   -0.0865   -0.0261    0.0672   -0.0355    0.0044
          45   -0.0857   -0.0788   -0.0989    0.1064    0.0538   -0.1349   -0.0667   -0.0169
          46    0.1380    0.0051   -0.0036    0.1403    0.0314    0.2526   -0.1037    0.1197
          47    0.0604   -0.0286   -0.0595   -0.0416    0.0346    0.1823    0.0656    0.0684
          48   -0.1060   -0.0042    0.0050   -0.0988   -0.0065   -0.1494    0.1168   -0.0387
          49    0.0123   -0.0264   -0.0194   -0.0074    0.2925   -0.0289   -0.1300    0.0937
          50    0.0295   -0.0114   -0.0023   -0.0466    0.1129    0.0604    0.1691    0.0884
          51   -0.0318    0.0033   -0.0121   -0.0180   -0.1706    0.0224    0.0472   -0.0747
          52    0.0712    0.1203    0.1268   -0.0097    0.1433   -0.1157    0.0099   -0.3096
          53    0.0318    0.0274    0.0085   -0.0761    0.0788   -0.0109    0.0480   -0.1161
          54   -0.0498   -0.0639   -0.0410    0.0796   -0.1103    0.0250   -0.1111    0.1792
          55   -0.1476   -0.0311   -0.0241    0.0496   -0.0757    0.2844   -0.0376   -0.1443
          56   -0.0460   -0.0081    0.0132    0.0754   -0.0636    0.0500   -0.1702   -0.1223
          57    0.0907    0.0239    0.0277   -0.0239    0.0590   -0.1878    0.0244    0.0953
          58   -0.1130    0.0991    0.1189   -0.1055   -0.0751   -0.1168   -0.0870    0.2827
          59   -0.0382    0.0331    0.0395   -0.0708   -0.0426   -0.0532   -0.0456    0.0849
          60    0.0775   -0.0477   -0.0312    0.1547    0.0354    0.0201   -0.0446   -0.2128


   Root No.       9        10        11        12        13        14        15        16

                 9 A      10 A      11 A      12 A      13 A      14 A      15 A      16 A   

                 536.6     557.2     614.0     732.4     750.5     785.9     819.5     838.2
  
           1    0.2379   -0.0049    0.0586   -0.0196    0.0261   -0.0092    0.0078   -0.0037
           2   -0.0954   -0.2365    0.3014   -0.0236   -0.0444    0.0118   -0.1499    0.2993
           3   -0.0218   -0.1177   -0.2660   -0.0613    0.3541    0.1028   -0.0356   -0.1508
           4    0.3530   -0.0136    0.0666   -0.0572    0.1618   -0.0437    0.1343   -0.0997
           5   -0.0405   -0.0079    0.0117    0.0184   -0.0030    0.0132   -0.0557    0.1163
           6    0.0957   -0.0066    0.0128   -0.0104    0.0790    0.0231   -0.0131   -0.0505
           7   -0.1748    0.0419   -0.1468    0.4041    0.0471    0.1843   -0.1023   -0.0566
           8   -0.2155   -0.0746    0.1635    0.1509   -0.1162   -0.0025    0.0576   -0.0800
[...]
 EFF. MASS   9.7667

 VIBRATION   34   34A         ATOM PAIR      ENERGY CONTRIBUTION    RADIAL
 FREQ.      1349.83         C  1 -- C  3         +12.0% ( 52.6%)     54.6%
 T-DIPOLE    0.1532         C  6 -- C  9         +10.5% ( 49.4%)     84.8%
 TRAVEL      0.0767         C  8 -- C 10          +9.9% ( 48.0%)     99.4%
 RED. MASS   0.9389         C  3 -- C  6          +7.6% ( 42.0%)     88.3%
 EFF. MASS   8.4986

 VIBRATION   35   35A         ATOM PAIR      ENERGY CONTRIBUTION    RADIAL
 FREQ.      1371.04         C  4 -- C  7         +10.5% ( 52.1%)     75.0%
 T-DIPOLE    0.1701         C  4 -- C  8          +9.7% ( 50.0%)     84.4%
 TRAVEL      0.0709         C  8 -- C 10          +8.9% ( 48.0%)     80.5%
 RED. MASS   1.0085         C  6 -- C  9          +8.6% ( 47.1%)     99.4%
 EFF. MASS   9.7785

 VIBRATION   36   36A         ATOM PAIR      ENERGY CONTRIBUTION    RADIAL
 FREQ.      1396.88         C  2 -- H 13         +44.3% ( 59.0%)      1.7%
 T-DIPOLE    0.0518         C  2 -- H 12         +39.8% ( 55.9%)      2.8%
 TRAVEL      0.1676         C  2 -- H 14          +7.5% ( 24.3%)     78.8%
 RED. MASS   0.4422         C  1 -- C  2          +6.5% ( 22.7%)     23.1%
 EFF. MASS   1.7185

 VIBRATION   37   37A         ATOM PAIR      ENERGY CONTRIBUTION    RADIAL
 FREQ.      1407.20         C  2 -- H 14         +52.5% ( 62.8%)      0.1%
 T-DIPOLE    0.0581         C  2 -- H 12         +24.6% ( 43.0%)      8.7%
 TRAVEL      0.1744         C  2 -- H 13         +17.0% ( 35.8%)     14.7%
 RED. MASS   0.4153         C  1 -- C  2          +5.1% ( 19.5%)      2.7%
 EFF. MASS   1.5759

 VIBRATION   38   38A         ATOM PAIR      ENERGY CONTRIBUTION    RADIAL
 FREQ.      1413.58         C  1 -- C  2         +21.7% ( 67.2%)     95.9%
 T-DIPOLE    0.0706         C  2 -- H 14         +14.7% ( 55.3%)      3.4%
 TRAVEL      0.0798         C  2 -- H 13         +12.1% ( 50.3%)      4.1%
 RED. MASS   1.6399         C  2 -- H 12         +11.0% ( 47.9%)      3.9%
 EFF. MASS   7.4969         C  1 -- C  5         +10.1% ( 45.8%)     57.6%

 VIBRATION   39   39A         ATOM PAIR      ENERGY CONTRIBUTION    RADIAL
 FREQ.      1459.42         C  9 -- C 10         +22.6% ( 78.5%)     99.9%
 T-DIPOLE    0.4844         C  3 -- C  4         +11.5% ( 55.9%)    100.0%
 TRAVEL      0.0645         C 10 -- H 20          +7.5% ( 45.3%)     11.8%
 RED. MASS   2.0763         C  8 -- C 10          +7.4% ( 44.9%)     13.4%
 EFF. MASS  11.1178

 VIBRATION   40   40A         ATOM PAIR      ENERGY CONTRIBUTION    RADIAL
 FREQ.      1581.46         C  3 -- C  4         +15.1% ( 59.5%)     74.2%
 T-DIPOLE    0.6285         C  3 -- C  6         +13.1% ( 55.3%)     69.0%
 TRAVEL      0.0612         C  8 -- C 10         +12.5% ( 54.0%)     97.9%
 RED. MASS   1.9040         C  1 -- C  3         +11.2% ( 51.3%)     98.3%
 EFF. MASS  11.3907         C  4 -- C  8         +10.1% ( 48.5%)      3.3%

 VIBRATION   41   41A         ATOM PAIR      ENERGY CONTRIBUTION    RADIAL
 FREQ.      1599.33         C  6 -- C  9         +14.4% ( 59.1%)     99.9%
 T-DIPOLE    0.3138         C  3 -- C  4         +12.7% ( 55.6%)     45.3%
 TRAVEL      0.0605         C  4 -- C  7         +12.3% ( 54.6%)     99.3%
 RED. MASS   1.9730         C  4 -- C  8         +11.3% ( 52.3%)     80.6%
 EFF. MASS  11.5163

 VIBRATION   42   42A         ATOM PAIR      ENERGY CONTRIBUTION    RADIAL
 FREQ.      1772.88         C  5 -- C  7         +39.0% ( 98.8%)    100.0%
 T-DIPOLE    0.2630         C  4 -- C  5         +12.4% ( 55.8%)     62.7%
 TRAVEL      0.0564         C  1 -- C  5         +12.2% ( 55.3%)     20.4%
 RED. MASS   4.9337         C  5 -- H 15         +11.3% ( 53.3%)     11.9%
 EFF. MASS  11.9369         C  4 -- C  7         +11.1% ( 52.8%)      9.3%
                            C  7 -- H 17         +10.5% ( 51.3%)     13.9%

 VIBRATION   43   43A         ATOM PAIR      ENERGY CONTRIBUTION    RADIAL
 FREQ.      1802.67         C  3 -- C  4         +15.7% ( 57.3%)     98.6%
 T-DIPOLE    0.0711         C  9 -- C 10         +14.0% ( 54.1%)     99.4%
 TRAVEL      0.0561         C  3 -- C  6         +13.5% ( 53.1%)     84.8%
 RED. MASS   2.2563         C  1 -- C  3          +8.2% ( 41.2%)     16.0%
 EFF. MASS  11.8780

 VIBRATION   44   44A         ATOM PAIR      ENERGY CONTRIBUTION    RADIAL
 FREQ.      1828.84         C  4 -- C  8         +19.0% ( 64.7%)     94.0%
 T-DIPOLE    0.2154         C  3 -- C  6         +14.1% ( 55.7%)     87.1%
 TRAVEL      0.0556         C  3 -- C  4         +13.6% ( 54.8%)      1.0%
 RED. MASS   2.4465         C  4 -- C  7          +9.2% ( 45.1%)     59.9%
 EFF. MASS  11.9134

 VIBRATION   45   45A         ATOM PAIR      ENERGY CONTRIBUTION    RADIAL
 FREQ.      2892.93         C  1 -- H 11         +96.8% ( 99.9%)    100.0%
 T-DIPOLE    0.1716         C  1 -- C  2          +1.0% ( 10.3%)      9.8%
 TRAVEL      0.1273         C  1 -- C  3          +1.0% ( 10.3%)     11.1%
 RED. MASS   0.9280         C  1 -- C  5          +1.0% ( 10.2%)     10.4%
 EFF. MASS   1.4386

 VIBRATION   46   46A         ATOM PAIR      ENERGY CONTRIBUTION    RADIAL
 FREQ.      3054.91         C  9 -- H 18         +45.3% ( 68.5%)    100.0%
 T-DIPOLE    0.0730         C 10 -- H 20         +41.9% ( 65.8%)    100.0%
 TRAVEL      0.1216         C  6 -- H 16          +6.6% ( 26.1%)     99.9%
 RED. MASS   0.3802         C  8 -- H 19          +3.5% ( 18.9%)     99.8%
 EFF. MASS   1.4934

 VIBRATION   47   47A         ATOM PAIR      ENERGY CONTRIBUTION    RADIAL
 FREQ.      3063.75         C 10 -- H 20         +32.8% ( 58.2%)    100.0%
 T-DIPOLE    0.3081         C  6 -- H 16         +31.0% ( 56.6%)    100.0%
 TRAVEL      0.1209         C  9 -- H 18         +19.4% ( 44.8%)     99.9%
 RED. MASS   0.2571         C  8 -- H 19         +13.7% ( 37.6%)    100.0%
 EFF. MASS   1.5070

 VIBRATION   48   48A         ATOM PAIR      ENERGY CONTRIBUTION    RADIAL
 FREQ.      3073.71         C  6 -- H 16         +47.6% ( 70.1%)    100.0%
 T-DIPOLE    0.5244         C  8 -- H 19         +30.9% ( 56.5%)    100.0%
 TRAVEL      0.1192         C  9 -- H 18         +17.2% ( 42.1%)    100.0%
 RED. MASS   0.3498         C  6 -- C  9          +1.1% ( 10.9%)     86.2%
 EFF. MASS   1.5434

 VIBRATION   49   49A         ATOM PAIR      ENERGY CONTRIBUTION    RADIAL
 FREQ.      3080.59         C  8 -- H 19         +47.3% ( 69.8%)    100.0%
 T-DIPOLE    0.3470         C 10 -- H 20         +21.1% ( 46.6%)    100.0%
 TRAVEL      0.1178         C  9 -- H 18         +13.6% ( 37.5%)    100.0%
 RED. MASS   0.2964         C  6 -- H 16          +8.8% ( 30.1%)    100.0%
 EFF. MASS   1.5777

 VIBRATION   50   50A         ATOM PAIR      ENERGY CONTRIBUTION    RADIAL
 FREQ.      3082.35         C  2 -- H 12         +60.9% ( 80.4%)     98.8%
 T-DIPOLE    0.0627         C  2 -- H 14         +26.1% ( 52.6%)     92.0%
 TRAVEL      0.1203         C  2 -- H 13          +5.4% ( 23.9%)     59.1%
 RED. MASS   0.4657         C  6 -- H 16          +2.8% ( 17.3%)    100.0%
 EFF. MASS   1.5122

 VIBRATION   51   51A         ATOM PAIR      ENERGY CONTRIBUTION    RADIAL
 FREQ.      3085.82         C  2 -- H 13         +60.3% ( 80.1%)     98.4%
 T-DIPOLE    0.0346         C  2 -- H 14         +35.0% ( 61.0%)     94.2%
 TRAVEL      0.1204         C  2 -- H 12          +3.7% ( 19.8%)     43.9%
 RED. MASS   0.5165         C  1 -- C  2          +1.0% ( 10.4%)      0.0%
 EFF. MASS   1.5082

 VIBRATION   52   52A         ATOM PAIR      ENERGY CONTRIBUTION    RADIAL
 FREQ.      3126.48         C  7 -- H 17         +52.0% ( 73.5%)    100.0%
 T-DIPOLE    0.3845         C  5 -- H 15         +44.7% ( 68.2%)    100.0%
 TRAVEL      0.1210         C  5 -- C  7          +1.2% ( 11.0%)      0.1%
 RED. MASS   0.4676         C  4 -- C  7          +0.8% (  9.3%)     30.6%
 EFF. MASS   1.4729

 VIBRATION   53   53A         ATOM PAIR      ENERGY CONTRIBUTION    RADIAL
 FREQ.      3143.84         C  5 -- H 15         +50.9% ( 73.1%)     99.9%
 T-DIPOLE    0.4246         C  7 -- H 17         +43.7% ( 67.7%)     99.9%
 TRAVEL      0.1140         C  5 -- C  7          +2.4% ( 16.0%)     99.9%
 RED. MASS   0.4701         C  4 -- C  5          +1.0% ( 10.2%)     97.6%
 EFF. MASS   1.6501

 VIBRATION   54   54A         ATOM PAIR      ENERGY CONTRIBUTION    RADIAL
 FREQ.      3178.63         C  2 -- H 14         +36.9% ( 58.5%)     97.6%
 T-DIPOLE    0.0393         C  2 -- H 13         +33.1% ( 55.4%)     97.1%
 TRAVEL      0.1367         C  2 -- H 12         +29.7% ( 52.5%)     96.4%
 RED. MASS   0.3292         C  1 -- C  2          +0.3% (  5.0%)     99.3%
 EFF. MASS   1.1347

      SYMMETRY NUMBER FOR POINT-GROUP C1  =  1


          SYSTEM IS A GROUND STATE



 InChI=1S/C10H10/c1-8-6-7-9-4-2-3-5-10(8)9/h2-8H,1H3


          MOLECULE IS NOT LINEAR

          THERE ARE 54 GENUINE VIBRATIONS IN THIS SYSTEM
          THIS THERMODYNAMICS CALCULATION IS LIMITED TO
          MOLECULES WHICH HAVE NO INTERNAL ROTATIONS




                    CALCULATED THERMODYNAMIC PROPERTIES
                                          *
   TEMP. (K)   PARTITION FUNCTION   H.O.F.    ENTHALPY  HEAT CAPACITY ENTROPY
                                   KCAL/MOL   CAL/MOLE    CAL/K/MOL  CAL/K/MOL


 298.00  VIB.     0.2558D+02                  3170.4086    26.0390    17.0809
         ROT.     0.5078D+06                   888.2813     2.9808    29.0884
         INT.     0.1299D+08                  4058.6899    29.0198    46.1693
         TRA.     0.1436D+28                  1480.4688     4.9680    40.5022
         TOT.                       35.712    5539.1588    33.9878    86.6714

 200.00  VIB.     0.5076D+01                  1183.0966    14.7636     9.1436
         ROT.     0.2792D+06                   596.1620     2.9808    27.8997
         INT.     0.1417D+07                  1779.2585    17.7444    37.0433
         TRA.     0.7896D+27                   993.6033     4.9680    38.5210
         TOT.                       32.945    2772.8618    22.7124    75.5644

 210.00  VIB.     0.5901D+01                  1336.0422    15.8301     9.8896
         ROT.     0.3004D+06                   625.9700     2.9808    28.0452
         INT.     0.1773D+07                  1962.0122    18.8109    37.9348
         TRA.     0.8496D+27                  1043.2834     4.9680    38.7634
         TOT.                       33.178    3005.2956    23.7789    76.6982

 220.00  VIB.     0.6885D+01                  1499.7850    16.9227    10.6512
         ROT.     0.3221D+06                   655.7781     2.9808    28.1838
         INT.     0.2218D+07                  2155.5631    19.9035    38.8350
         TRA.     0.9110D+27                  1092.9636     4.9680    38.9945
         TOT.                       33.421    3248.5267    24.8715    77.8295

 230.00  VIB.     0.8060D+01                  1674.5758    18.0393    11.4279
         ROT.     0.3443D+06                   685.5862     2.9808    28.3163
         INT.     0.2775D+07                  2360.1620    21.0201    39.7443
         TRA.     0.9738D+27                  1142.6437     4.9680    39.2154
         TOT.                       33.675    3502.8058    25.9881    78.9596

 240.00  VIB.     0.9468D+01                  1860.6410    19.1771    12.2197
         ROT.     0.3670D+06                   715.3943     2.9808    28.4432
         INT.     0.3475D+07                  2576.0353    22.1579    40.6629
         TRA.     0.1038D+28                  1192.3239     4.9680    39.4268
         TOT.                       33.941    3768.3592    27.1259    80.0897

 250.00  VIB.     0.1116D+02                  2058.1787    20.3333    13.0259
         ROT.     0.3902D+06                   745.2024     2.9808    28.5649
         INT.     0.4353D+07                  2803.3811    23.3141    41.5908
         TRA.     0.1103D+28                  1242.0041     4.9680    39.6296
         TOT.                       34.218    4045.3852    28.2821    81.2204

 260.00  VIB.     0.1319D+02                  2267.3569    21.5047    13.8462
         ROT.     0.4138D+06                   775.0105     2.9808    28.6818
         INT.     0.5457D+07                  3042.3674    24.4855    42.5279
         TRA.     0.1170D+28                  1291.6842     4.9680    39.8245
         TOT.                       34.506    4334.0517    29.4535    82.3524

 270.00  VIB.     0.1564D+02                  2488.3120    22.6881    14.6799
         ROT.     0.4379D+06                   804.8186     2.9808    28.7943
         INT.     0.6847D+07                  3293.1307    25.6689    43.4742
         TRA.     0.1239D+28                  1341.3644     4.9680    40.0120
         TOT.                       34.807    4634.4951    30.6369    83.4861

 280.00  VIB.     0.1859D+02                  2721.1485    23.8804    15.5265
         ROT.     0.4625D+06                   834.6267     2.9808    28.9027
         INT.     0.8599D+07                  3555.7753    26.8612    44.4292
         TRA.     0.1308D+28                  1391.0445     4.9680    40.1926
         TOT.                       35.119    4946.8198    31.8292    84.6219

 290.00  VIB.     0.2217D+02                  2965.9394    25.0785    16.3854
         ROT.     0.4875D+06                   864.4348     2.9808    29.0073
         INT.     0.1081D+08                  3830.3742    28.0593    45.3927
         TRA.     0.1379D+28                  1440.7247     4.9680    40.3670
         TOT.                       35.444    5271.0989    33.0273    85.7597

 300.00  VIB.     0.2651D+02                  3222.7269    26.2793    17.2559
         ROT.     0.5129D+06                   894.2429     2.9808    29.1083
         INT.     0.1360D+08                  4116.9698    29.2601    46.3642
         TRA.     0.1451D+28                  1490.4049     4.9680    40.5354
         TOT.                       35.780    5607.3747    34.2281    86.8996

 310.00  VIB.     0.3179D+02                  3491.5245    27.4800    18.1371
         ROT.     0.5388D+06                   924.0510     2.9808    29.2061
         INT.     0.1713D+08                  4415.5755    30.4608    47.3432
         TRA.     0.1524D+28                  1540.0850     4.9680    40.6983
         TOT.                       36.128    5955.6605    35.4288    88.0415

 320.00  VIB.     0.3822D+02                  3772.3181    28.6781    19.0285
         ROT.     0.5651D+06                   953.8591     2.9808    29.3007
         INT.     0.2160D+08                  4726.1773    31.6589    48.3292
         TRA.     0.1598D+28                  1589.7652     4.9680    40.8560
         TOT.                       36.488    6315.9425    36.6269    89.1853

 330.00  VIB.     0.4606D+02                  4065.0686    29.8710    19.9293
         ROT.     0.5917D+06                   983.6672     2.9808    29.3924
         INT.     0.2726D+08                  5048.7358    32.8518    49.3217
         TRA.     0.1674D+28                  1639.4454     4.9680    41.0089
         TOT.                       36.861    6688.1812    37.8198    90.3306

 340.00  VIB.     0.5564D+02                  4369.7135    31.0566    20.8386
         ROT.     0.6188D+06                  1013.4753     2.9808    29.4814
         INT.     0.3444D+08                  5383.1888    34.0374    50.3201
         TRA.     0.1750D+28                  1689.1255     4.9680    41.1572
         TOT.                       37.245    7072.3144    39.0054    91.4773

 350.00  VIB.     0.6738D+02                  4686.1696    32.2329    21.7559
         ROT.     0.6463D+06                  1043.2834     2.9808    29.5678
         INT.     0.4355D+08                  5729.4530    35.2137    51.3237
         TRA.     0.1828D+28                  1738.8057     4.9680    41.3012
         TOT.                       37.641    7468.2587    40.1817    92.6249

 360.00  VIB.     0.8177D+02                  5014.3348    33.3982    22.6803
         ROT.     0.6742D+06                  1073.0915     2.9808    29.6518
         INT.     0.5514D+08                  6087.4263    36.3790    52.3321
         TRA.     0.1907D+28                  1788.4859     4.9680    41.4412
         TOT.                       38.048    7875.9121    41.3470    93.7732

 370.00  VIB.     0.9946D+02                  5354.0907    34.5508    23.6111
         ROT.     0.7025D+06                  1102.8996     2.9808    29.7335
         INT.     0.6987D+08                  6456.9903    37.5316    53.3446
         TRA.     0.1987D+28                  1838.1660     4.9680    41.5773
         TOT.                       38.468    8295.1563    42.4996    94.9219

 380.00  VIB.     0.1212D+03                  5705.3046    35.6895    24.5477
         ROT.     0.7312D+06                  1132.7077     2.9808    29.8130
         INT.     0.8863D+08                  6838.0123    38.6703    54.3606
         TRA.     0.2068D+28                  1887.8462     4.9680    41.7098
         TOT.                       38.898    8725.8584    43.6384    96.0704

 390.00  VIB.     0.1480D+03                  6067.8311    36.8132    25.4893
         ROT.     0.7603D+06                  1162.5158     2.9808    29.8904
         INT.     0.1125D+09                  7230.3469    39.7940    55.3797
         TRA.     0.2150D+28                  1937.5263     4.9680    41.8388
         TOT.                       39.340    9167.8733    44.7620    97.2185

 400.00  VIB.     0.1811D+03                  6441.5148    37.9208    26.4353
         ROT.     0.7897D+06                  1192.3239     2.9808    29.9659
         INT.     0.1430D+09                  7633.8387    40.9016    56.4012
         TRA.     0.2233D+28                  1987.2065     4.9680    41.9646
         TOT.                       39.793    9621.0452    45.8696    98.3658

   *: NOTE: HEATS OF FORMATION ARE RELATIVE TO THE
            ELEMENTS IN THEIR STANDARD STATE AT 298K
              (=  Standard Enthalpy of Formation).

            Hvib:  Zero-point energy is not included.
                   frequencies of less than zero cm-1 are not included.
            Hrot = (3/2)RT
            Htra = (3/2)RT + pV = (5/2)RT

            Heat capacity is Cp, not Cv

          For more information, see: HTTP://OpenMOPAC.net/Manual/thermochemistry.html


           FORCE CONSTANT IN CARTESIAN COORDINATES (Millidynes/A)

    ATOM   CHEMICAL       X               Y               Z
   NUMBER   SYMBOL  FORCE CONSTANT  FORCE CONSTANT  FORCE CONSTANT

      1       C        8.881636        8.163012        8.581774
      2       C        8.267521        8.371778        8.292870
      3       C        6.025685       11.957332       10.192463
      4       C        6.716395       13.238068        8.732683
      5       C        6.809577       12.486856        7.503542
      6       C        6.233361       10.928812        9.649530
      7       C        7.323898        9.909178       10.378770
      8       C        6.358108       10.974322        9.430734
      9       C        6.260852       10.884845        9.420290
     10       C        6.232234       10.870094        9.372360
     11       H        1.144198        1.659651        3.114833
     12       H        1.247915        1.591538        3.908897
     13       H        1.251122        4.848721        0.662467
     14       H        1.290021        1.818859        3.669352
     15       H        0.721576        4.709559        1.008165
     16       H        2.057644        0.733552        3.478123
     17       H        1.706590        0.745550        3.982556
     18       H        0.557648        3.269228        2.443372
     19       H        2.056807        0.730902        3.492809
     20       H        1.547447        3.978123        0.747150

 **********************
 *                    *
 * JOB ENDED NORMALLY *
 *                    *
 **********************



 TOTAL JOB TIME:             6.62 SECONDS

 == MOPAC DONE ==
