 *******************************************************************************
 ** Site#: 14399        For non-commercial use only    Version 18.184L 64BITS **
 *******************************************************************************
 ** Cite this program as: MOPAC2016, Version: 18.184L, James J. P. Stewart,   **
 ** Stewart Computational Chemistry, web: HTTP://OpenMOPAC.net. Days left:  20**
 *******************************************************************************
 **                                                                           **
 **                                MOPAC2016                                  **
 **                                                                           **
 *******************************************************************************

                              PM3 CALCULATION RESULTS

 *******************************************************************************
 *  CALCULATION DONE:                                Thu Jun 13 16:24:52 2019  *
 *  PM3        - The PM3 Hamiltonian to be used
 *  PRECISE    - CRITERIA TO BE INCREASED BY 100 TIMES
 *  NOSYM      - POINT-GROUP SYMMETRY SET TO C1
 *  THREADS=1  - MULTI-THREADING NOT USED
 *  T=         - A TIME OF 172800.0 SECONDS REQUESTED
 *  DUMP=N     - RESTART FILE WRITTEN EVERY  7200.000 SECONDS
 *******************************************************************************
pm3  precise nosym THREADS=1
 InChI=1S/C3H6/c1-2-3-1/h1-3H2

   ATOM   CHEMICAL          X               Y               Z
  NUMBER   SYMBOL      (ANGSTROMS)     (ANGSTROMS)     (ANGSTROMS)
 
     1       C         -0.52310000  *  -0.70080000  *  -0.04740000  *
     2       C          0.86960000  *  -0.10300000  *   0.01770000  *
     3       C         -0.34640000  *   0.80380000  *   0.02970000  *
     4       H         -0.86490000  *  -1.17170000  *   0.89860000  *
     5       H         -0.81420000  *  -1.07780000  *  -1.05070000  *
     6       H          1.37020000  *  -0.21230000  *   1.00300000  *
     7       H          1.42090000  *  -0.11830000  *  -0.94630000  *
     8       H         -0.53060000  *   1.33710000  *  -0.92700000  *
     9       H         -0.58140000  *   1.24310000  *   1.02240000  *
 


          CARTESIAN COORDINATES 

    NO.       ATOM           X           Y           Z

     1         C         -0.5231     -0.7008     -0.0474
     2         C          0.8696     -0.1030      0.0177
     3         C         -0.3464      0.8038      0.0297
     4         H         -0.8649     -1.1717      0.8986
     5         H         -0.8142     -1.0778     -1.0507
     6         H          1.3702     -0.2123      1.0030
     7         H          1.4209     -0.1183     -0.9463
     8         H         -0.5306      1.3371     -0.9270
     9         H         -0.5814      1.2431      1.0224

  H: (PM3): J. J. P. STEWART, J. COMP. CHEM. 10, 209 (1989).
  C: (PM3): J. J. P. STEWART, J. COMP. CHEM. 10, 209 (1989).

           Empirical Formula: C3 H6  =     9 atoms



      MOLECULAR POINT GROUP   :   C1  


      RHF CALCULATION, NO. OF DOUBLY OCCUPIED LEVELS = 9


          Geometry optimization using EF

          DIAGONAL MATRIX USED AS START HESSIAN

 CYCLE:     1 TIME:   0.012 TIME LEFT:  2.00D  GRAD.:    68.746 HEAT:  24.28735
 CYCLE:     2 TIME:   0.027 TIME LEFT:  2.00D  GRAD.:   103.470 HEAT:  22.61162
 CYCLE:     3 TIME:   0.020 TIME LEFT:  2.00D  GRAD.:    94.482 HEAT:  19.94883
 CYCLE:     4 TIME:   0.027 TIME LEFT:  2.00D  GRAD.:    47.469 HEAT:  18.12221
 CYCLE:     5 TIME:   0.020 TIME LEFT:  2.00D  GRAD.:    63.411 HEAT:  17.77244
 CYCLE:     6 TIME:   0.023 TIME LEFT:  2.00D  GRAD.:    27.023 HEAT:  16.61204
 CYCLE:     7 TIME:   0.023 TIME LEFT:  2.00D  GRAD.:    21.427 HEAT:  16.49998
 CYCLE:     8 TIME:   0.023 TIME LEFT:  2.00D  GRAD.:    10.553 HEAT:  16.33624
 CYCLE:     9 TIME:   0.023 TIME LEFT:  2.00D  GRAD.:     8.951 HEAT:  16.31190
 CYCLE:    10 TIME:   0.031 TIME LEFT:  2.00D  GRAD.:     4.607 HEAT:  16.27598
 CYCLE:    11 TIME:   0.023 TIME LEFT:  2.00D  GRAD.:     5.732 HEAT:  16.26079
 CYCLE:    12 TIME:   0.020 TIME LEFT:  2.00D  GRAD.:     5.771 HEAT:  16.24882
 CYCLE:    13 TIME:   0.012 TIME LEFT:  2.00D  GRAD.:     6.302 HEAT:  16.24684
 CYCLE:    14 TIME:   0.023 TIME LEFT:  2.00D  GRAD.:     2.265 HEAT:  16.23557
 CYCLE:    15 TIME:   0.020 TIME LEFT:  2.00D  GRAD.:     1.184 HEAT:  16.23416
 CYCLE:    16 TIME:   0.023 TIME LEFT:  2.00D  GRAD.:     0.584 HEAT:  16.23313
 CYCLE:    17 TIME:   0.023 TIME LEFT:  2.00D  GRAD.:     0.332 HEAT:  16.23279
 CYCLE:    18 TIME:   0.023 TIME LEFT:  2.00D  GRAD.:     0.130 HEAT:  16.23270
 CYCLE:    19 TIME:   0.023 TIME LEFT:  2.00D  GRAD.:     0.078 HEAT:  16.23268
 CYCLE:    20 TIME:   0.020 TIME LEFT:  2.00D  GRAD.:     0.083 HEAT:  16.23267
 CYCLE:    21 TIME:   0.023 TIME LEFT:  2.00D  GRAD.:     0.094 HEAT:  16.23265
 CYCLE:    22 TIME:   0.023 TIME LEFT:  2.00D  GRAD.:     0.055 HEAT:  16.23264
 CYCLE:    23 TIME:   0.023 TIME LEFT:  2.00D  GRAD.:     0.029 HEAT:  16.23264

     GRADIENT =  0.02857  IS LESS THAN CUTOFF =  0.05000



 -------------------------------------------------------------------------------
 pm3  precise nosym THREADS=1
 InChI=1S/C3H6/c1-2-3-1/h1-3H2



     GEOMETRY OPTIMISED USING EIGENVECTOR FOLLOWING (EF).     
     SCF FIELD WAS ACHIEVED                                   


                              PM3 CALCULATION
                                                       MOPAC2016 (Version: 18.184L)
                                                       Thu Jun 13 16:24:53 2019
                                                       No. of days remaining =  20




          FINAL HEAT OF FORMATION =         16.23264 KCAL/MOL =      67.91737 KJ/MOL


          TOTAL ENERGY            =       -447.21341 EV
          ELECTRONIC ENERGY       =      -1407.37163 EV  POINT GROUP:     C1  
          CORE-CORE REPULSION     =        960.15823 EV
          COSMO AREA              =         86.93 SQUARE ANGSTROMS
          COSMO VOLUME            =         69.41 CUBIC ANGSTROMS

          GRADIENT NORM           =          0.02857 = 0.00952 PER ATOM
          IONIZATION POTENTIAL    =         11.777122 EV
          HOMO LUMO ENERGIES (EV) =        -11.777  3.099
          NO. OF FILLED LEVELS    =          9
          MOLECULAR WEIGHT        =         42.0804

          MOLECULAR DIMENSIONS (Angstroms)

            Atom       Atom       Distance
            H     9    H     7     3.15066
            H     4    H     8     3.15014
            H     5    H     6     3.14971


          SCF CALCULATIONS        =         30
 
          WALL-CLOCK TIME         =          0.563 SECONDS
          COMPUTATION TIME        =          0.060 SECONDS




   ATOM   CHEMICAL          X               Y               Z
  NUMBER   SYMBOL      (ANGSTROMS)     (ANGSTROMS)     (ANGSTROMS)
 
     1       C         -0.51677416  *  -0.69232953  *  -0.04679251  *
     2       C          0.85907189  *  -0.10176242  *   0.01743103  *
     3       C         -0.34222974  *   0.79413230  *   0.02936232  *
     4       H         -0.91744205  *  -1.24110899  *   0.81225448  *
     5       H         -0.87101645  *  -1.15499632  *  -0.97421966  *
     6       H          1.46334590  *  -0.21914630  *   0.92339601  *
     7       H          1.50978287  *  -0.13315499  *  -0.86306618  *
     8       H         -0.56904777  *   1.41723159  *  -0.84239997  *
     9       H         -0.61551199  *   1.33113572  *   0.94403245  *

                             CARTESIAN COORDINATES

   1    C       -0.516774157    -0.692329530    -0.046792512
   2    C        0.859071887    -0.101762415     0.017431029
   3    C       -0.342229739     0.794132299     0.029362317
   4    H       -0.917442053    -1.241108992     0.812254478
   5    H       -0.871016451    -1.154996325    -0.974219661
   6    H        1.463345895    -0.219146297     0.923396011
   7    H        1.509782866    -0.133154994    -0.863066184
   8    H       -0.569047770     1.417231586    -0.842399973
   9    H       -0.615511987     1.331135718     0.944032450


           Empirical Formula: C3 H6  =     9 atoms



      MOLECULAR POINT GROUP   :   C1  


                  EIGENVALUES  
 -38.12260 -22.13036 -22.12993 -16.95458 -16.73801 -12.31782 -12.31780 -11.77721
 -11.77712   3.09908   3.36179   3.36196   3.55963   4.13739   4.89722   4.89731
   4.94317   4.94325


              NET ATOMIC CHARGES AND DIPOLE CONTRIBUTIONS

  ATOM NO.   TYPE          CHARGE      No. of ELECS.   s-Pop       p-Pop       
    1          C          -0.151672        4.1517     1.15813     2.99354
    2          C          -0.151660        4.1517     1.15814     2.99352
    3          C          -0.151650        4.1517     1.15813     2.99352
    4          H           0.075832        0.9242     0.92417
    5          H           0.075831        0.9242     0.92417
    6          H           0.075831        0.9242     0.92417
    7          H           0.075831        0.9242     0.92417
    8          H           0.075830        0.9242     0.92417
    9          H           0.075829        0.9242     0.92417
 DIPOLE           X         Y         Z       TOTAL
 POINT-CHG.     0.000     0.000     0.000     0.000
 HYBRID        -0.000    -0.000    -0.000     0.000
 SUM           -0.000    -0.000    -0.000     0.000


          ATOMIC ORBITAL ELECTRON POPULATIONS

     Atom    s        px        py        pz   
    1  C   1.15813   1.00127   0.96269   1.02957
    2  C   1.15814   0.91576   1.04785   1.02992
    3  C   1.15813   1.02849   0.93522   1.02982
    4  H   0.92417
    5  H   0.92417
    6  H   0.92417
    7  H   0.92417
    8  H   0.92417
    9  H   0.92417
 *******************************************************************************
 ** Site#: 14399        For non-commercial use only    Version 18.184L 64BITS **
 *******************************************************************************
 ** Cite this program as: MOPAC2016, Version: 18.184L, James J. P. Stewart,   **
 ** Stewart Computational Chemistry, web: HTTP://OpenMOPAC.net. Days left:  20**
 *******************************************************************************
 **                                                                           **
 **                                MOPAC2016                                  **
 **                                                                           **
 *******************************************************************************

                              PM3 CALCULATION RESULTS

 *******************************************************************************
 *  CALCULATION DONE:                                Thu Jun 13 16:24:53 2019  *
 *  PM3        - The PM3 Hamiltonian to be used
 *  OLDGEO     - PREVIOUS GEOMETRY TO BE USED
 *  PRECISE    - CRITERIA TO BE INCREASED BY 100 TIMES
 *  NOSYM      - POINT-GROUP SYMMETRY SET TO C1
 *  THREADS=1  - MULTI-THREADING NOT USED
 *  T=         - A TIME OF 172800.0 SECONDS REQUESTED
 *  DUMP=N     - RESTART FILE WRITTEN EVERY  7200.000 SECONDS
 *  THERMO     - THERMODYNAMIC QUANTITIES TO BE CALCULATED
 *******************************************************************************
oldgeo thermo nosym precise THREADS=1  pm3
 InChI=1S/C3H6/c1-2-3-1/h1-3H2

   ATOM   CHEMICAL          X               Y               Z
  NUMBER   SYMBOL      (ANGSTROMS)     (ANGSTROMS)     (ANGSTROMS)
 
     1       C         -0.51677416  *  -0.69232953  *  -0.04679251  *
     2       C          0.85907189  *  -0.10176242  *   0.01743103  *
     3       C         -0.34222974  *   0.79413230  *   0.02936232  *
     4       H         -0.91744205  *  -1.24110899  *   0.81225448  *
     5       H         -0.87101645  *  -1.15499632  *  -0.97421966  *
     6       H          1.46334590  *  -0.21914630  *   0.92339601  *
     7       H          1.50978287  *  -0.13315499  *  -0.86306618  *
     8       H         -0.56904777  *   1.41723159  *  -0.84239997  *
     9       H         -0.61551199  *   1.33113572  *   0.94403245  *
 


          CARTESIAN COORDINATES 

    NO.       ATOM           X           Y           Z

     1         C         -0.5168     -0.6923     -0.0468
     2         C          0.8591     -0.1018      0.0174
     3         C         -0.3422      0.7941      0.0294
     4         H         -0.9174     -1.2411      0.8123
     5         H         -0.8710     -1.1550     -0.9742
     6         H          1.4633     -0.2191      0.9234
     7         H          1.5098     -0.1332     -0.8631
     8         H         -0.5690      1.4172     -0.8424
     9         H         -0.6155      1.3311      0.9440

  H: (PM3): J. J. P. STEWART, J. COMP. CHEM. 10, 209 (1989).
  C: (PM3): J. J. P. STEWART, J. COMP. CHEM. 10, 209 (1989).

           Empirical Formula: C3 H6  =     9 atoms



      MOLECULAR POINT GROUP   :   C1  


      RHF CALCULATION, NO. OF DOUBLY OCCUPIED LEVELS = 9



          HEAT OF FORMATION =      16.232641 KCALS/MOLE


          CARTESIAN COORDINATE DERIVATIVES

   NUMBER  ATOM         X            Y            Z

     1       C     -0.011017     0.002586     0.004173
     2       C      0.004753    -0.006482    -0.003397
     3       C     -0.000210     0.011597    -0.002764
     4       H      0.008764     0.000050    -0.000321
     5       H      0.006095     0.002539    -0.003678
     6       H      0.003490    -0.004371     0.008713
     7       H     -0.001366    -0.007830    -0.005178
     8       H     -0.003931     0.000713     0.001218
     9       H     -0.006577     0.001197     0.001234
 


          GRADIENT NORM =   0.02754


          TIME FOR SCF CALCULATION =    0.02

          TIME FOR DERIVATIVES     =    0.01

          MOLECULAR WEIGHT =   42.08



          ROTATIONAL CONSTANTS IN CM(-1)

          A =    0.67149895   B =    0.67146282   C =    0.41591458



           PRINCIPAL MOMENTS OF INERTIA IN UNITS OF 10**(-40)*GRAM-CM**2

          A =       41.6870   B =       41.6892   C =       67.3041


          ORIENTATION OF MOLECULE IN FORCE CALCULATION

    NO.       ATOM         X         Y         Z

     1          C      -0.7493   -0.4326   -0.0000
     2          C       0.7493   -0.4326   -0.0000
     3          C      -0.0000    0.8652   -0.0000
     4          H      -1.2966   -0.7487    0.8946
     5          H      -1.2966   -0.7486   -0.8946
     6          H       1.2967   -0.7486    0.8946
     7          H       1.2966   -0.7487   -0.8946
     8          H      -0.0001    1.4973   -0.8945
     9          H      -0.0001    1.4972    0.8946


    FIRST DERIVATIVES WILL BE USED IN THE CALCULATION OF SECOND DERIVATIVES

          ESTIMATED TIME TO COMPLETE CALCULATION =        2.95 SECONDS

    FOR POINT-GROUP C1   THERE ARE   1 UNIQUE SYMMETRY FUNCTIONS.

 STEP:   1 TIME =     0.01 SECS, INTEGRAL =      0.01 TIME LEFT: 172799.96
 STEP:   2 TIME =     0.01 SECS, INTEGRAL =      0.02 TIME LEFT: 172799.95
 STEP:   3 TIME =     0.01 SECS, INTEGRAL =      0.04 TIME LEFT: 172799.94
 STEP:   4 TIME =     0.02 SECS, INTEGRAL =      0.05 TIME LEFT: 172799.92
 STEP:   5 TIME =     0.01 SECS, INTEGRAL =      0.06 TIME LEFT: 172799.91
 STEP:   6 TIME =     0.01 SECS, INTEGRAL =      0.07 TIME LEFT: 172799.90
 STEP:   7 TIME =     0.01 SECS, INTEGRAL =      0.09 TIME LEFT: 172799.89
 STEP:   8 TIME =     0.01 SECS, INTEGRAL =      0.10 TIME LEFT: 172799.88
 STEP:   9 TIME =     0.01 SECS, INTEGRAL =      0.11 TIME LEFT: 172799.86
 STEP:  10 TIME =     0.01 SECS, INTEGRAL =      0.12 TIME LEFT: 172799.85
 STEP:  11 TIME =     0.02 SECS, INTEGRAL =      0.14 TIME LEFT: 172799.84
 STEP:  12 TIME =     0.01 SECS, INTEGRAL =      0.15 TIME LEFT: 172799.82
 STEP:  13 TIME =     0.01 SECS, INTEGRAL =      0.16 TIME LEFT: 172799.81
 STEP:  14 TIME =     0.01 SECS, INTEGRAL =      0.17 TIME LEFT: 172799.80
 STEP:  15 TIME =     0.01 SECS, INTEGRAL =      0.18 TIME LEFT: 172799.79
 STEP:  16 TIME =     0.01 SECS, INTEGRAL =      0.20 TIME LEFT: 172799.78
 STEP:  17 TIME =     0.01 SECS, INTEGRAL =      0.21 TIME LEFT: 172799.77
 STEP:  18 TIME =     0.01 SECS, INTEGRAL =      0.22 TIME LEFT: 172799.75
 STEP:  19 TIME =     0.01 SECS, INTEGRAL =      0.23 TIME LEFT: 172799.74
 STEP:  20 TIME =     0.01 SECS, INTEGRAL =      0.24 TIME LEFT: 172799.73
 STEP:  21 TIME =     0.01 SECS, INTEGRAL =      0.25 TIME LEFT: 172799.72
 STEP:  22 TIME =     0.01 SECS, INTEGRAL =      0.27 TIME LEFT: 172799.71
 STEP:  23 TIME =     0.01 SECS, INTEGRAL =      0.28 TIME LEFT: 172799.70
 STEP:  24 TIME =     0.02 SECS, INTEGRAL =      0.29 TIME LEFT: 172799.68
 STEP:  25 TIME =     0.02 SECS, INTEGRAL =      0.31 TIME LEFT: 172799.66
 STEP:  26 TIME =     0.01 SECS, INTEGRAL =      0.32 TIME LEFT: 172799.65
 STEP:  27 TIME =     0.01 SECS, INTEGRAL =      0.33 TIME LEFT: 172799.64

(To convert to Hartree/Bohr^2, multiply by (10^(-21) x N x a0^2)/(4.184 x 627.51) =  0.0642)


           FORCE MATRIX IN MILLIDYNES/ANGSTROM


                  C  1       C  2       C  3       H  4       H  5       H  6
 ------------------------------------------------------------------------------
     C    1  15.469563
     C    2   5.087967  15.465451
     C    3   5.085354   5.085439  15.465891
     H    4   4.841480   0.460622   0.460776   5.451623
     H    5   4.841348   0.460585   0.460768   0.503053   5.451414
     H    6   0.460352   4.840985   0.460772   0.021143   0.042730   5.451150
     H    7   0.460370   4.841135   0.460684   0.042729   0.021142   0.503092
     H    8   0.460687   0.460994   4.840831   0.042550   0.021199   0.042534
     H    9   0.460708   0.461035   4.840800   0.021200   0.042546   0.021185


                  H  7       H  8       H  9
 ------------------------------------------
     H    7   5.451268
     H    8   0.021200   5.451406
     H    9   0.042536   0.502980   5.451361


          HEAT OF FORMATION =      16.232641 KCALS/MOLE

          ZERO POINT ENERGY      50.843 KCAL/MOL


           NORMAL COORDINATE ANALYSIS (Total motion = 1 Angstrom)


   Root No.       1         2         3         4         5         6         7         8

                 1 A       2 A       3 A       4 A       5 A       6 A       7 A       8 A   

                 796.7     796.9     870.1     961.5     975.4     975.5    1125.6    1125.6
  
           1   -0.0000   -0.0000    0.0000   -0.0000   -0.0241    0.0491   -0.0000    0.0000
           2    0.0000    0.0000    0.0000   -0.0000   -0.0431   -0.0010   -0.0000   -0.0000
           3   -0.0048    0.0007   -0.0146    0.0000   -0.0000    0.0000   -0.0272    0.0593
           4    0.0000    0.0000    0.0000   -0.0000   -0.0452   -0.0309    0.0000   -0.0000
           5    0.0000    0.0000   -0.0000    0.0000    0.0370   -0.0221    0.0000   -0.0000
           6    0.0029    0.0039   -0.0146    0.0000   -0.0000   -0.0000   -0.0370   -0.0535
           7    0.0000   -0.0000   -0.0000    0.0000    0.0346   -0.0091    0.0000    0.0000
           8   -0.0000   -0.0000    0.0000   -0.0000    0.0152    0.0578   -0.0000    0.0000
           9    0.0018   -0.0044   -0.0146   -0.0000   -0.0000    0.0000    0.0643   -0.0057
          10    0.0754   -0.1111    0.1149   -0.0834    0.0339    0.1098    0.0076   -0.1545
          11    0.0742    0.1638    0.0675    0.1442   -0.1458   -0.1038    0.1245   -0.0324
          12    0.0736   -0.0102    0.0871   -0.0000   -0.0011    0.0011    0.0236   -0.0515
          13   -0.0754    0.1111   -0.1148    0.0834    0.0338    0.1099   -0.0077    0.1544
          14   -0.0742   -0.1638   -0.0675   -0.1443   -0.1458   -0.1039   -0.1244    0.0325
          15    0.0736   -0.0103    0.0871   -0.0001    0.0011   -0.0011    0.0236   -0.0515
          16   -0.0244    0.1320   -0.1150   -0.0831   -0.0244   -0.1123   -0.0342   -0.1507
          17   -0.1681    0.0643    0.0670   -0.1444    0.0761   -0.1622    0.1281    0.0099
          18   -0.0452   -0.0590    0.0871   -0.0001    0.0015    0.0004    0.0322    0.0465
          19    0.0245   -0.1320    0.1149    0.0832   -0.0245   -0.1123    0.0343    0.1507
          20    0.1681   -0.0643   -0.0671    0.1445    0.0759   -0.1621   -0.1281   -0.0099
          21   -0.0452   -0.0590    0.0871   -0.0001   -0.0015   -0.0004    0.0322    0.0465
          22    0.1844    0.0757   -0.0001   -0.1666    0.1971   -0.0518    0.0100    0.1157
          23   -0.0391    0.0947    0.1337   -0.0001    0.0156    0.0593   -0.1627    0.0146
          24   -0.0281    0.0681    0.0876   -0.0001    0.0004    0.0015   -0.0559    0.0050
          25   -0.1844   -0.0757    0.0000    0.1667    0.1970   -0.0518   -0.0100   -0.1157
          26    0.0391   -0.0947   -0.1337    0.0001    0.0156    0.0593    0.1627   -0.0146
          27   -0.0281    0.0681    0.0876   -0.0001   -0.0004   -0.0015   -0.0559    0.0050


   Root No.       9        10        11        12        13        14        15        16

                 9 A      10 A      11 A      12 A      13 A      14 A      15 A      16 A   

                1162.8    1163.2    1181.2    1354.9    1404.4    1404.5    1574.9    3085.3
  
           1   -0.0069   -0.0585   -0.0212   -0.0187   -0.0303   -0.0121   -0.0931    0.0000
           2   -0.0611    0.0490    0.0365   -0.0108   -0.0147   -0.0114   -0.0537    0.0000
           3   -0.0000    0.0000    0.0000    0.0000    0.0000    0.0000   -0.0000    0.0073
           4   -0.0169    0.0564   -0.0211    0.0187    0.0015   -0.0294    0.0931   -0.0000
           5    0.0516    0.0594   -0.0364   -0.0108    0.0048    0.0168   -0.0537    0.0000
           6    0.0000   -0.0000   -0.0000    0.0000   -0.0000    0.0000    0.0000   -0.0310
           7    0.0854    0.0077    0.0425   -0.0000    0.0026    0.0037    0.0000   -0.0000
           8    0.0039   -0.0454   -0.0001    0.0216   -0.0326    0.0178    0.1074   -0.0000
           9   -0.0000    0.0000    0.0000   -0.0000    0.0000   -0.0000    0.0000    0.0236
          10   -0.0960    0.0468    0.0726   -0.1187    0.1596    0.0725    0.0388    0.0272
          11    0.0685   -0.1520   -0.1262   -0.0684    0.0874    0.0494    0.0222    0.0186
          12   -0.0093   -0.0069   -0.0001   -0.0742    0.1411    0.0679    0.1038   -0.0444
          13   -0.0960    0.0469    0.0726   -0.1187    0.1596    0.0725    0.0388   -0.0273
          14    0.0685   -0.1520   -0.1262   -0.0684    0.0874    0.0495    0.0223   -0.0186
          15    0.0093    0.0069    0.0001    0.0742   -0.1411   -0.0679   -0.1038   -0.0445
          16   -0.0863   -0.0638    0.0725    0.1187    0.0007    0.1593   -0.0389    0.1213
          17   -0.0411   -0.1624    0.1258   -0.0684   -0.0101   -0.0916    0.0223   -0.0692
          18    0.0103   -0.0050    0.0000   -0.0742   -0.0044   -0.1426    0.1038    0.1888
          19   -0.0864   -0.0637    0.0725    0.1187    0.0007    0.1593   -0.0389   -0.1212
          20   -0.0411   -0.1624    0.1258   -0.0684   -0.0101   -0.0916    0.0223    0.0691
          21   -0.0103    0.0051   -0.0000    0.0742    0.0044    0.1426   -0.1038    0.1887
          22   -0.1849   -0.0164   -0.1458    0.0000   -0.0043   -0.0063   -0.0000    0.0017
          23    0.0054   -0.0609   -0.0001    0.1372    0.1761   -0.0963   -0.0446    0.1064
          24    0.0011   -0.0116   -0.0000    0.0743    0.1367   -0.0747   -0.1036   -0.1439
          25   -0.1848   -0.0165   -0.1458    0.0000   -0.0044   -0.0063   -0.0000   -0.0017
          26    0.0054   -0.0609   -0.0001    0.1371    0.1762   -0.0963   -0.0446   -0.1064
          27   -0.0011    0.0116    0.0000   -0.0743   -0.1367    0.0747    0.1036   -0.1438


   Root No.      17        18        19        20        21

                17 A      18 A      19 A      20 A      21 A   

                3085.4    3105.9    3138.1    3138.1    3139.5
  
           1   -0.0000   -0.0000    0.0014    0.0183    0.0139
           2   -0.0000   -0.0000    0.0004    0.0106    0.0080
           3   -0.0309   -0.0209   -0.0000   -0.0000   -0.0000
           4    0.0000   -0.0000    0.0192    0.0087   -0.0130
           5   -0.0000    0.0000   -0.0112   -0.0047    0.0075
           6    0.0093   -0.0208   -0.0000   -0.0000    0.0000
           7   -0.0000    0.0000    0.0002    0.0003    0.0000
           8    0.0000   -0.0000   -0.0198    0.0126   -0.0155
           9    0.0217   -0.0208   -0.0000   -0.0000    0.0000
          10   -0.1208   -0.0823   -0.0078   -0.1105   -0.0781
          11   -0.0691   -0.0475   -0.0041   -0.0639   -0.0451
          12    0.1881    0.1243    0.0134    0.1945    0.1385
          13    0.1209    0.0824   -0.0077   -0.1104   -0.0780
          14    0.0691    0.0476   -0.0041   -0.0637   -0.0450
          15    0.1883    0.1246   -0.0133   -0.1942   -0.1383
          16   -0.0350    0.0821   -0.1158   -0.0514    0.0721
          17    0.0230   -0.0474    0.0670    0.0294   -0.0416
          18   -0.0565    0.1240   -0.2039   -0.0903    0.1280
          19    0.0350   -0.0819   -0.1159   -0.0515    0.0722
          20   -0.0230    0.0473    0.0671    0.0295   -0.0417
          21   -0.0565    0.1238    0.2040    0.0904   -0.1281
          22   -0.0018   -0.0000   -0.0002   -0.0002   -0.0000
          23    0.0979   -0.0948    0.1198   -0.0756    0.0866
          24   -0.1323    0.1240   -0.1825    0.1152   -0.1331
          25    0.0018   -0.0000   -0.0002   -0.0002   -0.0000
          26   -0.0979    0.0949    0.1198   -0.0755    0.0866
          27   -0.1324    0.1242    0.1825   -0.1151    0.1330


           MASS-WEIGHTED COORDINATE ANALYSIS (NORMAL COORDINATES)


   Root No.       1         2         3         4         5         6         7         8

                 1 A       2 A       3 A       4 A       5 A       6 A       7 A       8 A   

                 796.7     796.9     870.1     961.5     975.4     975.5    1125.6    1125.6
  
           1   -0.0001   -0.0000    0.0000   -0.0001   -0.1766    0.3593   -0.0000    0.0001
           2    0.0000    0.0000    0.0001   -0.0001   -0.3154   -0.0075   -0.0000   -0.0002
           3   -0.0405    0.0059   -0.1264    0.0000   -0.0000    0.0000   -0.2084    0.4479
           4    0.0000    0.0000    0.0000   -0.0001   -0.3306   -0.2263    0.0000   -0.0001
           5    0.0000    0.0000   -0.0001    0.0001    0.2709   -0.1614    0.0000   -0.0000
           6    0.0247    0.0328   -0.1263    0.0004   -0.0000   -0.0000   -0.2836   -0.4045
           7    0.0000   -0.0000   -0.0000    0.0001    0.2536   -0.0665    0.0000    0.0000
           8   -0.0000   -0.0000    0.0000   -0.0000    0.1110    0.4228   -0.0000    0.0001
           9    0.0154   -0.0370   -0.1264   -0.0000   -0.0000    0.0000    0.4921   -0.0434
          10    0.1839   -0.2713    0.2871   -0.2043    0.0718    0.2327    0.0169   -0.3382
          11    0.1810    0.4000    0.1687    0.3533   -0.3092   -0.2200    0.2761   -0.0709
          12    0.1795   -0.0250    0.2179   -0.0001   -0.0024    0.0024    0.0524   -0.1128
          13   -0.1839    0.2712   -0.2870    0.2042    0.0716    0.2329   -0.0170    0.3380
          14   -0.1810   -0.3999   -0.1687   -0.3534   -0.3091   -0.2203   -0.2760    0.0711
          15    0.1795   -0.0251    0.2178   -0.0002    0.0024   -0.0024    0.0524   -0.1128
          16   -0.0596    0.3224   -0.2874   -0.2037   -0.0518   -0.2379   -0.0760   -0.3298
          17   -0.4099    0.1570    0.1675   -0.3538    0.1613   -0.3438    0.2842    0.0217
          18   -0.1102   -0.1441    0.2176   -0.0003    0.0033    0.0008    0.0714    0.1019
          19    0.0597   -0.3224    0.2873    0.2038   -0.0519   -0.2379    0.0760    0.3298
          20    0.4100   -0.1570   -0.1676    0.3540    0.1610   -0.3435   -0.2842   -0.0217
          21   -0.1103   -0.1441    0.2176   -0.0003   -0.0032   -0.0009    0.0714    0.1018
          22    0.4499    0.1848   -0.0001   -0.4081    0.4179   -0.1098    0.0221    0.2532
          23   -0.0953    0.2311    0.3343   -0.0002    0.0331    0.1256   -0.3609    0.0319
          24   -0.0685    0.1663    0.2189   -0.0002    0.0009    0.0032   -0.1240    0.0109
          25   -0.4498   -0.1849    0.0000    0.4084    0.4177   -0.1098   -0.0221   -0.2532
          26    0.0953   -0.2312   -0.3343    0.0002    0.0330    0.1258    0.3609   -0.0319
          27   -0.0685    0.1663    0.2189   -0.0002   -0.0008   -0.0032   -0.1240    0.0110


   Root No.       9        10        11        12        13        14        15        16

                 9 A      10 A      11 A      12 A      13 A      14 A      15 A      16 A   

                1162.8    1163.2    1181.2    1354.9    1404.4    1404.5    1574.9    3085.3
  
           1   -0.0447   -0.3720   -0.1679   -0.1599   -0.2167   -0.0976   -0.4595    0.0001
           2   -0.3969    0.3117    0.2887   -0.0927   -0.1054   -0.0919   -0.2650    0.0000
           3   -0.0000    0.0001    0.0001    0.0000    0.0000    0.0000   -0.0000    0.0565
           4   -0.1096    0.3588   -0.1666    0.1600    0.0110   -0.2372    0.4595   -0.0000
           5    0.3356    0.3778   -0.2875   -0.0928    0.0343    0.1357   -0.2649    0.0000
           6    0.0001   -0.0001   -0.0001    0.0000   -0.0000    0.0000    0.0000   -0.2400
           7    0.5548    0.0488    0.3354   -0.0001    0.0183    0.0299    0.0001   -0.0000
           8    0.0255   -0.2887   -0.0005    0.1851   -0.2336    0.1435    0.5299   -0.0000
           9   -0.0000    0.0000    0.0000   -0.0000    0.0000   -0.0000    0.0000    0.1829
          10   -0.1807    0.0863    0.1661   -0.2945    0.3312    0.1693    0.0554    0.0609
          11    0.1289   -0.2802   -0.2888   -0.1697    0.1813    0.1153    0.0318    0.0416
          12   -0.0175   -0.0127   -0.0002   -0.1840    0.2927    0.1585    0.1484   -0.0995
          13   -0.1809    0.0865    0.1662   -0.2945    0.3312    0.1693    0.0554   -0.0611
          14    0.1290   -0.2802   -0.2888   -0.1697    0.1813    0.1154    0.0318   -0.0417
          15    0.0175    0.0127    0.0002    0.1840   -0.2928   -0.1585   -0.1484   -0.0998
          16   -0.1625   -0.1176    0.1659    0.2946    0.0015    0.3718   -0.0555    0.2718
          17   -0.0775   -0.2994    0.2879   -0.1698   -0.0209   -0.2139    0.0319   -0.1550
          18    0.0194   -0.0093    0.0001   -0.1841   -0.0091   -0.3327    0.1485    0.4231
          19   -0.1626   -0.1175    0.1659    0.2946    0.0015    0.3718   -0.0556   -0.2717
          20   -0.0774   -0.2993    0.2879   -0.1698   -0.0210   -0.2139    0.0319    0.1550
          21   -0.0194    0.0094   -0.0001    0.1841    0.0092    0.3327   -0.1485    0.4228
          22   -0.3481   -0.0303   -0.3336    0.0001   -0.0090   -0.0148   -0.0001    0.0039
          23    0.0101   -0.1122   -0.0002    0.3403    0.3655   -0.2247   -0.0637    0.2384
          24    0.0020   -0.0214   -0.0000    0.1843    0.2836   -0.1743   -0.1481   -0.3224
          25   -0.3481   -0.0304   -0.3337    0.0001   -0.0090   -0.0148   -0.0000   -0.0039
          26    0.0101   -0.1122   -0.0002    0.3403    0.3655   -0.2247   -0.0637   -0.2384
          27   -0.0020    0.0214    0.0000   -0.1842   -0.2836    0.1743    0.1481   -0.3223


   Root No.      17        18        19        20        21

                17 A      18 A      19 A      20 A      21 A   

                3085.4    3105.9    3138.1    3138.1    3139.5
  
           1   -0.0001   -0.0001    0.0102    0.1497    0.1202
           2   -0.0000   -0.0001    0.0030    0.0866    0.0694
           3   -0.2438   -0.1791   -0.0000   -0.0002   -0.0001
           4    0.0000   -0.0001    0.1393    0.0711   -0.1118
           5   -0.0000    0.0000   -0.0817   -0.0384    0.0646
           6    0.0732   -0.1783   -0.0001   -0.0001    0.0001
           7   -0.0000    0.0000    0.0014    0.0021    0.0001
           8    0.0000   -0.0001   -0.1442    0.1028   -0.1337
           9    0.1715   -0.1786   -0.0000   -0.0001    0.0000
          10   -0.2758   -0.2044   -0.0163   -0.2622   -0.1951
          11   -0.1577   -0.1181   -0.0087   -0.1515   -0.1126
          12    0.4296    0.3089    0.0281    0.4613    0.3459
          13    0.2761    0.2048   -0.0162   -0.2618   -0.1949
          14    0.1579    0.1183   -0.0087   -0.1512   -0.1125
          15    0.4301    0.3095   -0.0280   -0.4606   -0.3456
          16   -0.0800    0.2039   -0.2439   -0.1220    0.1802
          17    0.0525   -0.1177    0.1411    0.0698   -0.1040
          18   -0.1291    0.3081   -0.4295   -0.2142    0.3197
          19    0.0799   -0.2036   -0.2440   -0.1221    0.1804
          20   -0.0525    0.1176    0.1412    0.0699   -0.1042
          21   -0.1290    0.3075    0.4297    0.2145   -0.3201
          22   -0.0042   -0.0000   -0.0004   -0.0005   -0.0000
          23    0.2235   -0.2355    0.2523   -0.1794    0.2163
          24   -0.3021    0.3081   -0.3843    0.2734   -0.3324
          25    0.0042   -0.0000   -0.0004   -0.0005   -0.0000
          26   -0.2235    0.2357    0.2523   -0.1791    0.2163
          27   -0.3023    0.3085    0.3844   -0.2730    0.3323


          DESCRIPTION OF VIBRATIONS


 VIBRATION    1    1A        ATOM PAIR     ENERGY CONTRIBUTION    RADIAL
 FREQ.       796.66         C 3 -- H 8         +19.2% ( 55.9%)      0.1%
 T-DIPOLE    0.0002         C 3 -- H 9         +19.2% ( 55.8%)      0.1%
 TRAVEL      0.2835         C 2 -- H 7         +17.5% ( 53.3%)      0.2%
 RED. MASS   0.1820         C 2 -- H 6         +17.5% ( 53.2%)      0.2%
 EFF. MASS   1.0528         C 1 -- H 4         +13.0% ( 45.8%)      1.1%
                            C 1 -- H 5         +13.0% ( 45.8%)      1.1%

 VIBRATION    2    2A        ATOM PAIR     ENERGY CONTRIBUTION    RADIAL
 FREQ.       796.89         C 1 -- H 4         +20.2% ( 57.3%)      0.0%
 T-DIPOLE    0.0004         C 1 -- H 5         +20.2% ( 57.3%)      0.0%
 TRAVEL      0.2835         C 2 -- H 6         +15.7% ( 50.5%)      0.5%
 RED. MASS   0.1823         C 2 -- H 7         +15.7% ( 50.5%)      0.5%
 EFF. MASS   1.0525         C 3 -- H 9         +13.7% ( 47.2%)      0.8%
                            C 3 -- H 8         +13.7% ( 47.2%)      0.8%

 VIBRATION    3    3A        ATOM PAIR     ENERGY CONTRIBUTION    RADIAL
 FREQ.       870.06         C 3 -- H 8         +15.6% ( 56.6%)      3.4%
 T-DIPOLE    0.0012         C 3 -- H 9         +15.6% ( 56.6%)      3.4%
 TRAVEL      0.2191         C 1 -- H 4         +15.5% ( 56.3%)      3.5%
 RED. MASS   0.1615         C 1 -- H 5         +15.5% ( 56.3%)      3.5%
 EFF. MASS   1.6138         C 2 -- H 6         +15.5% ( 56.3%)      3.5%
                            C 2 -- H 7         +15.5% ( 56.3%)      3.5%

 VIBRATION    4    4A        ATOM PAIR     ENERGY CONTRIBUTION    RADIAL
 FREQ.       961.47         C 2 -- H 7         +16.7% ( 40.0%)      0.0%
 T-DIPOLE    0.0002         C 3 -- H 9         +16.7% ( 40.0%)      0.0%
 TRAVEL      0.2638         C 2 -- H 6         +16.7% ( 39.9%)      0.0%
 RED. MASS   0.1680         C 1 -- H 5         +16.7% ( 39.9%)      0.0%
 EFF. MASS   1.0079         C 1 -- H 4         +16.7% ( 39.9%)      0.0%
                            C 3 -- H 8         +16.7% ( 39.9%)      0.0%

 VIBRATION    5    5A        ATOM PAIR     ENERGY CONTRIBUTION    RADIAL
 FREQ.       975.43         C 1 -- C 2         +16.7% ( 64.7%)      6.4%
 T-DIPOLE    0.2459         C 2 -- C 3         +15.7% ( 62.8%)     50.5%
 TRAVEL      0.1023         C 1 -- C 3         +14.8% ( 60.9%)     93.1%
 RED. MASS   0.7606         C 2 -- H 6         +11.4% ( 53.5%)     33.6%
 EFF. MASS   6.6010         C 2 -- H 7         +11.4% ( 53.5%)     33.6%

 VIBRATION    6    6A        ATOM PAIR     ENERGY CONTRIBUTION    RADIAL
 FREQ.       975.53         C 1 -- C 3         +16.6% ( 64.6%)      7.0%
 T-DIPOLE    0.2461         C 2 -- C 3         +15.7% ( 62.8%)     49.5%
 TRAVEL      0.1024         C 1 -- C 2         +14.8% ( 60.9%)     93.5%
 RED. MASS   0.7594         C 3 -- H 8         +11.4% ( 53.6%)     33.6%
 EFF. MASS   6.5970         C 3 -- H 9         +11.4% ( 53.6%)     33.6%

 VIBRATION    7    7A        ATOM PAIR     ENERGY CONTRIBUTION    RADIAL
 FREQ.      1125.57         C 3 -- H 8         +18.2% ( 59.8%)     17.0%
 T-DIPOLE    0.0003         C 3 -- H 9         +18.2% ( 59.8%)     17.0%
 TRAVEL      0.1073         C 2 -- C 3         +17.4% ( 58.5%)      0.0%
 RED. MASS   0.8775         C 1 -- C 3         +15.2% ( 54.7%)      0.0%
 EFF. MASS   5.2043

 VIBRATION    8    8A        ATOM PAIR     ENERGY CONTRIBUTION    RADIAL
 FREQ.      1125.62         C 1 -- C 2         +19.9% ( 62.6%)      0.0%
 T-DIPOLE    0.0002         C 1 -- H 4         +15.5% ( 55.1%)     16.6%
 TRAVEL      0.1073         C 1 -- H 5         +15.5% ( 55.1%)     16.6%
 RED. MASS   0.8773         C 2 -- H 7         +13.0% ( 50.6%)     16.1%
 EFF. MASS   5.2036         C 2 -- H 6         +13.0% ( 50.6%)     16.1%
                            C 1 -- C 3         +10.2% ( 44.8%)      0.0%

 VIBRATION    9    9A        ATOM PAIR     ENERGY CONTRIBUTION    RADIAL
 FREQ.      1162.81         C 1 -- C 3         +16.5% ( 59.7%)     82.4%
 T-DIPOLE    0.0782         C 2 -- C 3         +15.4% ( 57.7%)     67.1%
 TRAVEL      0.0896         C 3 -- H 9         +14.6% ( 56.2%)      0.0%
 RED. MASS   1.6720         C 3 -- H 8         +14.6% ( 56.2%)      0.0%
 EFF. MASS   7.2216         C 1 -- C 2         +10.7% ( 48.2%)      0.8%

 VIBRATION   10   10A        ATOM PAIR     ENERGY CONTRIBUTION    RADIAL
 FREQ.      1163.19         C 1 -- C 2         +17.7% ( 61.9%)     99.2%
 T-DIPOLE    0.0779         C 2 -- C 3         +13.0% ( 53.1%)     33.0%
 TRAVEL      0.0896         C 2 -- H 6         +12.9% ( 52.9%)      0.4%
 RED. MASS   1.6769         C 2 -- H 7         +12.9% ( 52.9%)      0.4%
 EFF. MASS   7.2224         C 1 -- C 3         +11.9% ( 50.7%)     17.8%
                            C 1 -- H 5         +11.3% ( 49.4%)      0.8%
                            C 1 -- H 4         +11.3% ( 49.4%)      0.8%

 VIBRATION   11   11A        ATOM PAIR     ENERGY CONTRIBUTION    RADIAL
 FREQ.      1181.22         C 3 -- H 9         +13.3% ( 41.6%)      0.0%
 T-DIPOLE    0.0003         C 3 -- H 8         +13.3% ( 41.6%)      0.0%
 TRAVEL      0.1307         C 1 -- H 5         +13.3% ( 41.5%)      0.0%
 RED. MASS   0.5223         C 1 -- H 4         +13.3% ( 41.5%)      0.0%
 EFF. MASS   3.3395         C 2 -- H 6         +13.2% ( 41.3%)      0.0%
                            C 2 -- H 7         +13.2% ( 41.3%)      0.0%

 VIBRATION   12   12A        ATOM PAIR     ENERGY CONTRIBUTION    RADIAL
 FREQ.      1354.87         C 3 -- H 8         +12.3% ( 34.2%)      6.4%
 T-DIPOLE    0.0002         C 3 -- H 9         +12.3% ( 34.2%)      6.4%
 TRAVEL      0.1420         C 2 -- H 7         +12.3% ( 34.2%)      6.4%
 RED. MASS   0.1774         C 2 -- H 6         +12.3% ( 34.2%)      6.4%
 EFF. MASS   2.4676         C 1 -- H 5         +12.3% ( 34.2%)      6.4%
                            C 1 -- H 4         +12.3% ( 34.2%)      6.4%

 VIBRATION   13   13A        ATOM PAIR     ENERGY CONTRIBUTION    RADIAL
 FREQ.      1404.39         C 1 -- H 5         +21.4% ( 46.6%)      2.9%
 T-DIPOLE    0.0777         C 1 -- H 4         +21.4% ( 46.6%)      2.9%
 TRAVEL      0.1545         C 3 -- H 9         +20.1% ( 45.2%)      3.0%
 RED. MASS   0.2741         C 3 -- H 8         +20.1% ( 45.2%)      3.0%
 EFF. MASS   2.0123

 VIBRATION   14   14A        ATOM PAIR     ENERGY CONTRIBUTION    RADIAL
 FREQ.      1404.47         C 2 -- H 6         +27.7% ( 52.9%)      2.9%
 T-DIPOLE    0.0777         C 2 -- H 7         +27.7% ( 52.9%)      3.0%
 TRAVEL      0.1545         C 3 -- H 9          +7.7% ( 27.8%)      2.9%
 RED. MASS   0.2739         C 3 -- H 8          +7.7% ( 27.8%)      2.9%
 EFF. MASS   2.0108

 VIBRATION   15   15A        ATOM PAIR     ENERGY CONTRIBUTION    RADIAL
 FREQ.      1574.91         C 1 -- C 2         +19.0% ( 71.5%)    100.0%
 T-DIPOLE    0.0003         C 1 -- C 3         +19.0% ( 71.4%)    100.0%
 TRAVEL      0.0625         C 2 -- C 3         +19.0% ( 71.4%)    100.0%
 RED. MASS   2.8530         C 1 -- H 5          +7.2% ( 43.8%)     13.1%
 EFF. MASS  10.9715

 VIBRATION   16   16A        ATOM PAIR     ENERGY CONTRIBUTION    RADIAL
 FREQ.      3085.31         C 2 -- H 6         +29.8% ( 56.7%)     97.0%
 T-DIPOLE    0.0006         C 2 -- H 7         +29.8% ( 56.6%)     97.0%
 TRAVEL      0.1185         C 3 -- H 8         +17.3% ( 43.2%)     97.0%
 RED. MASS   0.2603         C 3 -- H 9         +17.3% ( 43.2%)     97.0%
 EFF. MASS   1.5554

 VIBRATION   17   17A        ATOM PAIR     ENERGY CONTRIBUTION    RADIAL
 FREQ.      3085.38         C 1 -- H 5         +30.8% ( 57.6%)     97.0%
 T-DIPOLE    0.0004         C 1 -- H 4         +30.8% ( 57.5%)     97.0%
 TRAVEL      0.1185         C 3 -- H 9         +15.2% ( 40.5%)     97.0%
 RED. MASS   0.2594         C 3 -- H 8         +15.2% ( 40.5%)     97.0%
 EFF. MASS   1.5554

 VIBRATION   18   18A        ATOM PAIR     ENERGY CONTRIBUTION    RADIAL
 FREQ.      3105.90         C 1 -- H 5         +16.4% ( 41.7%)     97.3%
 T-DIPOLE    0.2771         C 1 -- H 4         +16.4% ( 41.6%)     97.3%
 TRAVEL      0.1188         C 3 -- H 9         +16.3% ( 41.5%)     97.3%
 RED. MASS   0.1741         C 3 -- H 8         +16.3% ( 41.5%)     97.3%
 EFF. MASS   1.5392         C 2 -- H 6         +16.3% ( 41.5%)     97.3%
                            C 2 -- H 7         +16.2% ( 41.4%)     97.3%

 VIBRATION   19   19A        ATOM PAIR     ENERGY CONTRIBUTION    RADIAL
 FREQ.      3138.09         C 2 -- H 7         +27.3% ( 51.9%)     96.6%
 T-DIPOLE    0.2222         C 2 -- H 6         +27.3% ( 51.8%)     96.6%
 TRAVEL      0.1299         C 3 -- H 9         +21.9% ( 46.4%)     96.6%
 RED. MASS   0.2439         C 3 -- H 8         +21.9% ( 46.4%)     96.6%
 EFF. MASS   1.2724

 VIBRATION   20   20A        ATOM PAIR     ENERGY CONTRIBUTION    RADIAL
 FREQ.      3138.14         C 1 -- H 4         +31.5% ( 55.7%)     96.6%
 T-DIPOLE    0.2222         C 1 -- H 5         +31.4% ( 55.6%)     96.6%
 TRAVEL      0.1299         C 3 -- H 8         +11.1% ( 33.0%)     96.6%
 RED. MASS   0.2306         C 3 -- H 9         +11.0% ( 32.9%)     96.6%
 EFF. MASS   1.2725

 VIBRATION   21   21A        ATOM PAIR     ENERGY CONTRIBUTION    RADIAL
 FREQ.      3139.55         C 1 -- H 4         +17.6% ( 41.8%)     96.2%
 T-DIPOLE    0.0069         C 1 -- H 5         +17.5% ( 41.8%)     96.2%
 TRAVEL      0.1253         C 3 -- H 8         +16.2% ( 40.2%)     96.2%
 RED. MASS   0.1626         C 3 -- H 9         +16.2% ( 40.2%)     96.2%
 EFF. MASS   1.3670         C 2 -- H 7         +15.0% ( 38.7%)     96.2%
                            C 2 -- H 6         +15.0% ( 38.6%)     96.2%

      SYMMETRY NUMBER FOR POINT-GROUP C1  =  1


          SYSTEM IS A GROUND STATE



 InChI=1S/C3H6/c1-2-3-1/h1-3H2


          MOLECULE IS NOT LINEAR

          THERE ARE 21 GENUINE VIBRATIONS IN THIS SYSTEM
          THIS THERMODYNAMICS CALCULATION IS LIMITED TO
          MOLECULES WHICH HAVE NO INTERNAL ROTATIONS




                    CALCULATED THERMODYNAMIC PROPERTIES
                                          *
   TEMP. (K)   PARTITION FUNCTION   H.O.F.    ENTHALPY  HEAT CAPACITY ENTROPY
                                   KCAL/MOL   CAL/MOLE    CAL/K/MOL  CAL/K/MOL


 298.00  VIB.     0.1116D+01                   295.4788     4.6643     1.2094
         ROT.     0.1220D+05                   888.2813     2.9808    21.6789
         INT.     0.1361D+05                  1183.7601     7.6451    22.8883
         TRA.     0.2639D+27                  1480.4688     4.9680    37.1356
         TOT.                       16.233    2664.2290    12.6132    60.0239

 200.00  VIB.     0.1013D+01                    32.1165     1.0496     0.1857
         ROT.     0.6708D+04                   596.1620     2.9808    20.4902
         INT.     0.6793D+04                   628.2785     4.0304    20.6759
         TRA.     0.1451D+27                   993.6033     4.9680    35.1545
         TOT.                       15.190    1621.8817     8.9984    55.8303

 210.00  VIB.     0.1017D+01                    43.8972     1.3117     0.2431
         ROT.     0.7217D+04                   625.9700     2.9808    20.6356
         INT.     0.7342D+04                   669.8673     4.2925    20.8787
         TRA.     0.1561D+27                  1043.2834     4.9680    35.3969
         TOT.                       15.282    1713.1507     9.2605    56.2756

 220.00  VIB.     0.1023D+01                    58.4496     1.6037     0.3107
         ROT.     0.7739D+04                   655.7781     2.9808    20.7743
         INT.     0.7916D+04                   714.2278     4.5845    21.0850
         TRA.     0.1674D+27                  1092.9636     4.9680    35.6280
         TOT.                       15.376    1807.1913     9.5525    56.7130

 230.00  VIB.     0.1030D+01                    76.0652     1.9239     0.3890
         ROT.     0.8273D+04                   685.5862     2.9808    20.9068
         INT.     0.8519D+04                   761.6514     4.9048    21.2958
         TRA.     0.1789D+27                  1142.6437     4.9680    35.8488
         TOT.                       15.473    1904.2951     9.8728    57.1446

 240.00  VIB.     0.1038D+01                    97.0153     2.2702     0.4781
         ROT.     0.8818D+04                   715.3943     2.9808    21.0337
         INT.     0.9152D+04                   812.4097     5.2510    21.5118
         TRA.     0.1907D+27                  1192.3239     4.9680    36.0602
         TOT.                       15.573    2004.7336    10.2191    57.5720

 250.00  VIB.     0.1047D+01                   121.5487     2.6402     0.5782
         ROT.     0.9375D+04                   745.2024     2.9808    21.1554
         INT.     0.9819D+04                   866.7512     5.6210    21.7335
         TRA.     0.2028D+27                  1242.0041     4.9680    36.2631
         TOT.                       15.677    2108.7552    10.5890    57.9966

 260.00  VIB.     0.1058D+01                   149.8892     3.0312     0.6893
         ROT.     0.9943D+04                   775.0105     2.9808    21.2723
         INT.     0.1052D+05                   924.8998     6.0120    21.9616
         TRA.     0.2151D+27                  1291.6842     4.9680    36.4579
         TOT.                       15.785    2216.5840    10.9800    58.4195

 270.00  VIB.     0.1071D+01                   182.2349     3.4408     0.8113
         ROT.     0.1052D+05                   804.8186     2.9808    21.3848
         INT.     0.1127D+05                   987.0536     6.4216    22.1961
         TRA.     0.2276D+27                  1341.3644     4.9680    36.6454
         TOT.                       15.897    2328.4179    11.3896    58.8415

 280.00  VIB.     0.1085D+01                   218.7580     3.8663     0.9441
         ROT.     0.1111D+05                   834.6267     2.9808    21.4932
         INT.     0.1206D+05                  1053.3847     6.8471    22.4373
         TRA.     0.2404D+27                  1391.0445     4.9680    36.8261
         TOT.                       16.013    2444.4293    11.8151    59.2633

 290.00  VIB.     0.1102D+01                   259.6051     4.3052     1.0874
         ROT.     0.1171D+05                   864.4348     2.9808    21.5978
         INT.     0.1290D+05                  1124.0399     7.2860    22.6852
         TRA.     0.2533D+27                  1440.7247     4.9680    37.0004
         TOT.                       16.133    2564.7647    12.2540    59.6856

 300.00  VIB.     0.1120D+01                   304.8982     4.7551     1.2409
         ROT.     0.1232D+05                   894.2429     2.9808    21.6988
         INT.     0.1380D+05                  1199.1411     7.7359    22.9397
         TRA.     0.2666D+27                  1490.4049     4.9680    37.1688
         TOT.                       16.258    2689.5460    12.7039    60.1086

 310.00  VIB.     0.1140D+01                   354.7357     5.2137     1.4043
         ROT.     0.1294D+05                   924.0510     2.9808    21.7966
         INT.     0.1475D+05                  1278.7867     8.1945    23.2008
         TRA.     0.2800D+27                  1540.0850     4.9680    37.3317
         TOT.                       16.387    2818.8717    13.1625    60.5326

 320.00  VIB.     0.1162D+01                   409.1940     5.6789     1.5771
         ROT.     0.1358D+05                   953.8591     2.9808    21.8912
         INT.     0.1578D+05                  1363.0531     8.6597    23.4683
         TRA.     0.2937D+27                  1589.7652     4.9680    37.4895
         TOT.                       16.521    2952.8183    13.6277    60.9578

 330.00  VIB.     0.1187D+01                   468.3293     6.1488     1.7591
         ROT.     0.1422D+05                   983.6672     2.9808    21.9829
         INT.     0.1687D+05                  1451.9965     9.1296    23.7420
         TRA.     0.3075D+27                  1639.4454     4.9680    37.6423
         TOT.                       16.660    3091.4418    14.0976    61.3843

 340.00  VIB.     0.1213D+01                   532.1788     6.6215     1.9496
         ROT.     0.1487D+05                  1013.4753     2.9808    22.0719
         INT.     0.1804D+05                  1545.6541     9.6023    24.0216
         TRA.     0.3216D+27                  1689.1255     4.9680    37.7907
         TOT.                       16.803    3234.7796    14.5703    61.8122

 350.00  VIB.     0.1243D+01                   600.7631     7.0955     2.1484
         ROT.     0.1553D+05                  1043.2834     2.9808    22.1583
         INT.     0.1930D+05                  1644.0465    10.0763    24.3067
         TRA.     0.3359D+27                  1738.8057     4.9680    37.9347
         TOT.                       16.951    3382.8522    15.0443    62.2414

 360.00  VIB.     0.1275D+01                   674.0874     7.5693     2.3550
         ROT.     0.1620D+05                  1073.0915     2.9808    22.2423
         INT.     0.2065D+05                  1747.1789    10.5501    24.5972
         TRA.     0.3504D+27                  1788.4859     4.9680    38.0746
         TOT.                       17.104    3535.6647    15.5181    62.6719

 370.00  VIB.     0.1310D+01                   752.1434     8.0416     2.5688
         ROT.     0.1688D+05                  1102.8996     2.9808    22.3240
         INT.     0.2210D+05                  1855.0430    11.0224    24.8927
         TRA.     0.3651D+27                  1838.1660     4.9680    38.2107
         TOT.                       17.262    3693.2090    15.9904    63.1035

 380.00  VIB.     0.1347D+01                   834.9111     8.5114     2.7895
         ROT.     0.1757D+05                  1132.7077     2.9808    22.4034
         INT.     0.2367D+05                  1967.6188    11.4922    25.1929
         TRA.     0.3800D+27                  1887.8462     4.9680    38.3432
         TOT.                       17.424    3855.4649    16.4602    63.5362

 390.00  VIB.     0.1388D+01                   922.3599     8.9777     3.0166
         ROT.     0.1827D+05                  1162.5158     2.9808    22.4809
         INT.     0.2535D+05                  2084.8757    11.9585    25.4975
         TRA.     0.3951D+27                  1937.5263     4.9680    38.4723
         TOT.                       17.591    4022.4020    16.9265    63.9698

 400.00  VIB.     0.1432D+01                  1014.4505     9.4396     3.2497
         ROT.     0.1897D+05                  1192.3239     2.9808    22.5563
         INT.     0.2717D+05                  2206.7744    12.4204    25.8061
         TRA.     0.4104D+27                  1987.2065     4.9680    38.5981
         TOT.                       17.762    4193.9809    17.3885    64.4041

   *: NOTE: HEATS OF FORMATION ARE RELATIVE TO THE
            ELEMENTS IN THEIR STANDARD STATE AT 298K
              (=  Standard Enthalpy of Formation).

            Hvib:  Zero-point energy is not included.
                   frequencies of less than zero cm-1 are not included.
            Hrot = (3/2)RT
            Htra = (3/2)RT + pV = (5/2)RT

            Heat capacity is Cp, not Cv

          For more information, see: HTTP://OpenMOPAC.net/Manual/thermochemistry.html


           FORCE CONSTANT IN CARTESIAN COORDINATES (Millidynes/A)

    ATOM   CHEMICAL       X               Y               Z
   NUMBER   SYMBOL  FORCE CONSTANT  FORCE CONSTANT  FORCE CONSTANT

      1       C       10.109145        6.405441        8.695748
      2       C       10.104606        6.404985        8.694040
      3       C        4.560481       11.949635        8.694942
      4       H        1.853205        0.968225        3.839807
      5       H        1.853179        0.968131        3.839805
      6       H        1.853252        0.968144        3.839507
      7       H        1.853143        0.968290        3.839583
      8       H        0.525520        2.295734        3.839776
      9       H        0.525533        2.295624        3.839824

 **********************
 *                    *
 * JOB ENDED NORMALLY *
 *                    *
 **********************



 TOTAL JOB TIME:             1.85 SECONDS

 == MOPAC DONE ==
