 *******************************************************************************
 ** Site#: 14399        For non-commercial use only    Version 18.184L 64BITS **
 *******************************************************************************
 ** Cite this program as: MOPAC2016, Version: 18.184L, James J. P. Stewart,   **
 ** Stewart Computational Chemistry, web: HTTP://OpenMOPAC.net. Days left:  20**
 *******************************************************************************
 **                                                                           **
 **                                MOPAC2016                                  **
 **                                                                           **
 *******************************************************************************

                              PM3 CALCULATION RESULTS

 *******************************************************************************
 *  CALCULATION DONE:                                Thu Jun 13 15:48:38 2019  *
 *  PM3        - The PM3 Hamiltonian to be used
 *  PRECISE    - CRITERIA TO BE INCREASED BY 100 TIMES
 *  NOSYM      - POINT-GROUP SYMMETRY SET TO C1
 *  THREADS=1  - MULTI-THREADING NOT USED
 *  T=         - A TIME OF 172800.0 SECONDS REQUESTED
 *  DUMP=N     - RESTART FILE WRITTEN EVERY  7200.000 SECONDS
 *******************************************************************************
pm3  precise nosym THREADS=1
 InChI=1S/C6H8/c1-6-4-2-3-5-6/h2-3H,1,4-5H2

   ATOM   CHEMICAL          X               Y               Z
  NUMBER   SYMBOL      (ANGSTROMS)     (ANGSTROMS)     (ANGSTROMS)
 
     1       C          0.77830000  *   0.94920000  *   0.19270000  *
     2       C         -0.96390000  *  -0.77220000  *  -0.13520000  *
     3       C          0.49900000  *  -0.47560000  *  -0.15440000  *
     4       C         -0.59640000  *   1.47930000  *   0.41810000  *
     5       C         -1.53480000  *   0.55210000  *   0.24150000  *
     6       C          1.44270000  *  -1.37510000  *  -0.44650000  *
     7       H          1.38340000  *   1.02300000  *   1.12110000  *
     8       H          1.26790000  *   1.47770000  *  -0.65260000  *
     9       H         -1.20670000  *  -1.53610000  *   0.63370000  *
    10       H         -1.32220000  *  -1.08140000  *  -1.14000000  *
    11       H         -0.81460000  *   2.50530000  *   0.69530000  *
    12       H         -2.59580000  *   0.74540000  *   0.36010000  *
    13       H          1.17200000  *  -2.39750000  *  -0.69090000  *
    14       H          2.49110000  *  -1.09410000  *  -0.44270000  *
 


          CARTESIAN COORDINATES 

    NO.       ATOM           X           Y           Z

     1         C          0.7783      0.9492      0.1927
     2         C         -0.9639     -0.7722     -0.1352
     3         C          0.4990     -0.4756     -0.1544
     4         C         -0.5964      1.4793      0.4181
     5         C         -1.5348      0.5521      0.2415
     6         C          1.4427     -1.3751     -0.4465
     7         H          1.3834      1.0230      1.1211
     8         H          1.2679      1.4777     -0.6526
     9         H         -1.2067     -1.5361      0.6337
    10         H         -1.3222     -1.0814     -1.1400
    11         H         -0.8146      2.5053      0.6953
    12         H         -2.5958      0.7454      0.3601
    13         H          1.1720     -2.3975     -0.6909
    14         H          2.4911     -1.0941     -0.4427

  H: (PM3): J. J. P. STEWART, J. COMP. CHEM. 10, 209 (1989).
  C: (PM3): J. J. P. STEWART, J. COMP. CHEM. 10, 209 (1989).

           Empirical Formula: C6 H8  =    14 atoms



      MOLECULAR POINT GROUP   :   C1  


      RHF CALCULATION, NO. OF DOUBLY OCCUPIED LEVELS = 16


          Geometry optimization using EF

          DIAGONAL MATRIX USED AS START HESSIAN

 CYCLE:     1 TIME:   0.012 TIME LEFT:  2.00D  GRAD.:    57.543 HEAT:  25.88386
 CYCLE:     2 TIME:   0.035 TIME LEFT:  2.00D  GRAD.:    60.240 HEAT:  25.47781
 CYCLE:     3 TIME:   0.020 TIME LEFT:  2.00D  GRAD.:    22.080 HEAT:  24.62949
 CYCLE:     4 TIME:   0.031 TIME LEFT:  2.00D  GRAD.:    48.539 HEAT:  24.45224
 CYCLE:     5 TIME:   0.023 TIME LEFT:  2.00D  GRAD.:    45.627 HEAT:  24.29433
 CYCLE:     6 TIME:   0.027 TIME LEFT:  2.00D  GRAD.:    27.246 HEAT:  23.97002
 CYCLE:     7 TIME:   0.016 TIME LEFT:  2.00D  GRAD.:    24.820 HEAT:  23.88625
 CYCLE:     8 TIME:   0.031 TIME LEFT:  2.00D  GRAD.:    11.876 HEAT:  23.74685
 CYCLE:     9 TIME:   0.020 TIME LEFT:  2.00D  GRAD.:     7.108 HEAT:  23.70876
 CYCLE:    10 TIME:   0.023 TIME LEFT:  2.00D  GRAD.:     6.051 HEAT:  23.69264
 CYCLE:    11 TIME:   0.020 TIME LEFT:  2.00D  GRAD.:     6.929 HEAT:  23.68110
 CYCLE:    12 TIME:   0.023 TIME LEFT:  2.00D  GRAD.:     5.948 HEAT:  23.67077
 CYCLE:    13 TIME:   0.023 TIME LEFT:  2.00D  GRAD.:     5.900 HEAT:  23.66779
 CYCLE:    14 TIME:   0.020 TIME LEFT:  2.00D  GRAD.:     4.129 HEAT:  23.66198
 CYCLE:    15 TIME:   0.023 TIME LEFT:  2.00D  GRAD.:     2.095 HEAT:  23.65826
 CYCLE:    16 TIME:   0.023 TIME LEFT:  2.00D  GRAD.:     1.492 HEAT:  23.65668
 CYCLE:    17 TIME:   0.023 TIME LEFT:  2.00D  GRAD.:     1.209 HEAT:  23.65547
 CYCLE:    18 TIME:   0.023 TIME LEFT:  2.00D  GRAD.:     0.758 HEAT:  23.65433
 CYCLE:    19 TIME:   0.023 TIME LEFT:  2.00D  GRAD.:     1.087 HEAT:  23.65348
 CYCLE:    20 TIME:   0.020 TIME LEFT:  2.00D  GRAD.:     0.747 HEAT:  23.65308
 CYCLE:    21 TIME:   0.023 TIME LEFT:  2.00D  GRAD.:     0.476 HEAT:  23.65277
 CYCLE:    22 TIME:   0.023 TIME LEFT:  2.00D  GRAD.:     0.436 HEAT:  23.65235
 CYCLE:    23 TIME:   0.023 TIME LEFT:  2.00D  GRAD.:     0.497 HEAT:  23.65193
 CYCLE:    24 TIME:   0.023 TIME LEFT:  2.00D  GRAD.:     0.520 HEAT:  23.65173
 CYCLE:    25 TIME:   0.023 TIME LEFT:  2.00D  GRAD.:     0.318 HEAT:  23.65151
 CYCLE:    26 TIME:   0.023 TIME LEFT:  2.00D  GRAD.:     0.336 HEAT:  23.65133
 CYCLE:    27 TIME:   0.023 TIME LEFT:  2.00D  GRAD.:     0.133 HEAT:  23.65128
 CYCLE:    28 TIME:   0.023 TIME LEFT:  2.00D  GRAD.:     0.092 HEAT:  23.65127
 CYCLE:    29 TIME:   0.023 TIME LEFT:  2.00D  GRAD.:     0.090 HEAT:  23.65125
 CYCLE:    30 TIME:   0.023 TIME LEFT:  2.00D  GRAD.:     0.060 HEAT:  23.65125
 CYCLE:    31 TIME:   0.020 TIME LEFT:  2.00D  GRAD.:     0.037 HEAT:  23.65124

     GRADIENT =  0.03743  IS LESS THAN CUTOFF =  0.05000



 -------------------------------------------------------------------------------
 pm3  precise nosym THREADS=1
 InChI=1S/C6H8/c1-6-4-2-3-5-6/h2-3H,1,4-5H2



     GEOMETRY OPTIMISED USING EIGENVECTOR FOLLOWING (EF).     
     SCF FIELD WAS ACHIEVED                                   


                              PM3 CALCULATION
                                                       MOPAC2016 (Version: 18.184L)
                                                       Thu Jun 13 15:48:39 2019
                                                       No. of days remaining =  20




          FINAL HEAT OF FORMATION =         23.65124 KCAL/MOL =      98.95680 KJ/MOL


          TOTAL ENERGY            =       -833.47831 EV
          ELECTRONIC ENERGY       =      -3485.28554 EV  POINT GROUP:     C1  
          CORE-CORE REPULSION     =       2651.80723 EV
          COSMO AREA              =        127.67 SQUARE ANGSTROMS
          COSMO VOLUME            =        116.92 CUBIC ANGSTROMS

          GRADIENT NORM           =          0.03743 = 0.01000 PER ATOM
          IONIZATION POTENTIAL    =          9.360432 EV
          HOMO LUMO ENERGIES (EV) =         -9.360  1.047
          NO. OF FILLED LEVELS    =         16
          MOLECULAR WEIGHT        =         80.1292

          MOLECULAR DIMENSIONS (Angstroms)

            Atom       Atom       Distance
            H    13    H    11     5.52646
            H    12    H    14     4.09439
            H     7    H    10     1.77414


          SCF CALCULATIONS        =         38
 
          WALL-CLOCK TIME         =          0.777 SECONDS
          COMPUTATION TIME        =          0.216 SECONDS




   ATOM   CHEMICAL          X               Y               Z
  NUMBER   SYMBOL      (ANGSTROMS)     (ANGSTROMS)     (ANGSTROMS)
 
     1       C          0.76139032  *   0.94752871  *   0.19387979  *
     2       C         -0.96260362  *  -0.75585074  *  -0.13061251  *
     3       C          0.51851719  *  -0.49420724  *  -0.16039989  *
     4       C         -0.61317474  *   1.50112135  *   0.42441226  *
     5       C         -1.55750583  *   0.56803258  *   0.24676798  *
     6       C          1.45595158  *  -1.38763856  *  -0.45118335  *
     7       H          1.39322462  *   1.04632657  *   1.09615400  *
     8       H          1.28325628  *   1.48647435  *  -0.61867573  *
     9       H         -1.22471571  *  -1.54061783  *   0.60322547  *
    10       H         -1.33709052  *  -1.10219796  *  -1.11187095  *
    11       H         -0.76612768  *   2.54332912  *   0.70097668  *
    12       H         -2.63393717  *   0.69758598  *   0.34964160  *
    13       H          1.22394647  *  -2.41821437  *  -0.70061444  *
    14       H          2.51361179  *  -1.14386719  *  -0.45784223  *

                             CARTESIAN COORDINATES

   1    C        0.761390315     0.947528707     0.193879787
   2    C       -0.962603625    -0.755850736    -0.130612515
   3    C        0.518517188    -0.494207241    -0.160399888
   4    C       -0.613174738     1.501121355     0.424412259
   5    C       -1.557505830     0.568032576     0.246767984
   6    C        1.455951579    -1.387638557    -0.451183352
   7    H        1.393224621     1.046326568     1.096153999
   8    H        1.283256278     1.486474351    -0.618675733
   9    H       -1.224715710    -1.540617832     0.603225467
  10    H       -1.337090523    -1.102197960    -1.111870950
  11    H       -0.766127680     2.543329122     0.700976677
  12    H       -2.633937169     0.697585981     0.349641597
  13    H        1.223946467    -2.418214372    -0.700614442
  14    H        2.513611785    -1.143867193    -0.457842228


           Empirical Formula: C6 H8  =    14 atoms



      MOLECULAR POINT GROUP   :   C1  


                  EIGENVALUES  
 -39.89983 -30.67902 -28.28555 -23.77540 -18.92949 -18.78199 -17.12723 -15.51759
 -14.67231 -13.90000 -13.81523 -13.58416 -12.69928 -12.01972 -10.42085  -9.36043
   1.04658   1.12066   3.30275   3.34749   3.76057   3.80968   3.90384   4.08945
   4.23280   4.46135   4.58144   4.66337   5.21910   5.63022   5.98268   5.98831


              NET ATOMIC CHARGES AND DIPOLE CONTRIBUTIONS

  ATOM NO.   TYPE          CHARGE      No. of ELECS.   s-Pop       p-Pop       
    1          C          -0.026579        4.0266     1.14085     2.88573
    2          C          -0.026608        4.0266     1.14086     2.88575
    3          C          -0.117260        4.1173     1.20658     2.91068
    4          C          -0.154891        4.1549     1.20315     2.95175
    5          C          -0.154900        4.1549     1.20314     2.95176
    6          C          -0.173238        4.1732     1.17557     2.99767
    7          H           0.064934        0.9351     0.93507
    8          H           0.064942        0.9351     0.93506
    9          H           0.064936        0.9351     0.93506
   10          H           0.064941        0.9351     0.93506
   11          H           0.112130        0.8879     0.88787
   12          H           0.112130        0.8879     0.88787
   13          H           0.084739        0.9153     0.91526
   14          H           0.084725        0.9153     0.91528
 DIPOLE           X         Y         Z       TOTAL
 POINT-CHG.    -0.137     0.131     0.043     0.194
 HYBRID         0.016    -0.015    -0.005     0.022
 SUM           -0.122     0.116     0.038     0.172


          ATOMIC ORBITAL ELECTRON POPULATIONS

     Atom    s        px        py        pz   
    1  C   1.14085   0.95490   0.92685   1.00397
    2  C   1.14086   0.92125   0.95855   1.00595
    3  C   1.20658   0.95932   0.96133   0.99003
    4  C   1.20315   0.95573   0.98311   1.01290
    5  C   1.20314   0.98137   0.95898   1.01141
    6  C   1.17557   0.98001   0.98453   1.03313
    7  H   0.93507
    8  H   0.93506
    9  H   0.93506
   10  H   0.93506
   11  H   0.88787
   12  H   0.88787
   13  H   0.91526
   14  H   0.91528
 *******************************************************************************
 ** Site#: 14399        For non-commercial use only    Version 18.184L 64BITS **
 *******************************************************************************
 ** Cite this program as: MOPAC2016, Version: 18.184L, James J. P. Stewart,   **
 ** Stewart Computational Chemistry, web: HTTP://OpenMOPAC.net. Days left:  20**
 *******************************************************************************
 **                                                                           **
 **                                MOPAC2016                                  **
 **                                                                           **
 *******************************************************************************

                              PM3 CALCULATION RESULTS

 *******************************************************************************
 *  CALCULATION DONE:                                Thu Jun 13 15:48:39 2019  *
 *  PM3        - The PM3 Hamiltonian to be used
 *  OLDGEO     - PREVIOUS GEOMETRY TO BE USED
 *  PRECISE    - CRITERIA TO BE INCREASED BY 100 TIMES
 *  NOSYM      - POINT-GROUP SYMMETRY SET TO C1
 *  THREADS=1  - MULTI-THREADING NOT USED
 *  T=         - A TIME OF 172800.0 SECONDS REQUESTED
 *  DUMP=N     - RESTART FILE WRITTEN EVERY  7200.000 SECONDS
 *  THERMO     - THERMODYNAMIC QUANTITIES TO BE CALCULATED
 *******************************************************************************
oldgeo thermo nosym precise THREADS=1  pm3
 InChI=1S/C6H8/c1-6-4-2-3-5-6/h2-3H,1,4-5H2

   ATOM   CHEMICAL          X               Y               Z
  NUMBER   SYMBOL      (ANGSTROMS)     (ANGSTROMS)     (ANGSTROMS)
 
     1       C          0.76139032  *   0.94752871  *   0.19387979  *
     2       C         -0.96260362  *  -0.75585074  *  -0.13061251  *
     3       C          0.51851719  *  -0.49420724  *  -0.16039989  *
     4       C         -0.61317474  *   1.50112135  *   0.42441226  *
     5       C         -1.55750583  *   0.56803258  *   0.24676798  *
     6       C          1.45595158  *  -1.38763856  *  -0.45118335  *
     7       H          1.39322462  *   1.04632657  *   1.09615400  *
     8       H          1.28325628  *   1.48647435  *  -0.61867573  *
     9       H         -1.22471571  *  -1.54061783  *   0.60322547  *
    10       H         -1.33709052  *  -1.10219796  *  -1.11187095  *
    11       H         -0.76612768  *   2.54332912  *   0.70097668  *
    12       H         -2.63393717  *   0.69758598  *   0.34964160  *
    13       H          1.22394647  *  -2.41821437  *  -0.70061444  *
    14       H          2.51361179  *  -1.14386719  *  -0.45784223  *
 


          CARTESIAN COORDINATES 

    NO.       ATOM           X           Y           Z

     1         C          0.7614      0.9475      0.1939
     2         C         -0.9626     -0.7559     -0.1306
     3         C          0.5185     -0.4942     -0.1604
     4         C         -0.6132      1.5011      0.4244
     5         C         -1.5575      0.5680      0.2468
     6         C          1.4560     -1.3876     -0.4512
     7         H          1.3932      1.0463      1.0962
     8         H          1.2833      1.4865     -0.6187
     9         H         -1.2247     -1.5406      0.6032
    10         H         -1.3371     -1.1022     -1.1119
    11         H         -0.7661      2.5433      0.7010
    12         H         -2.6339      0.6976      0.3496
    13         H          1.2239     -2.4182     -0.7006
    14         H          2.5136     -1.1439     -0.4578

  H: (PM3): J. J. P. STEWART, J. COMP. CHEM. 10, 209 (1989).
  C: (PM3): J. J. P. STEWART, J. COMP. CHEM. 10, 209 (1989).

           Empirical Formula: C6 H8  =    14 atoms



      MOLECULAR POINT GROUP   :   C1  


      RHF CALCULATION, NO. OF DOUBLY OCCUPIED LEVELS = 16



          HEAT OF FORMATION =      23.651242 KCALS/MOLE


          CARTESIAN COORDINATE DERIVATIVES

   NUMBER  ATOM         X            Y            Z

     1       C     -0.009063     0.007436     0.001769
     2       C     -0.003526    -0.003382    -0.002081
     3       C     -0.002086     0.002787    -0.003687
     4       C     -0.008827     0.000664    -0.001211
     5       C     -0.004885    -0.007308    -0.001710
     6       C      0.008307    -0.005111     0.000195
     7       H      0.012230    -0.002927     0.003659
     8       H     -0.001820     0.006262     0.001436
     9       H     -0.011679     0.011263     0.002436
    10       H      0.006322    -0.006802     0.001259
    11       H      0.001530    -0.005545    -0.002595
    12       H      0.011151     0.009226     0.000368
    13       H     -0.004330     0.002247     0.000360
    14       H      0.006677    -0.008809    -0.000198
 


          GRADIENT NORM =   0.03766


          TIME FOR SCF CALCULATION =    0.01

          TIME FOR DERIVATIVES     =    0.01

          MOLECULAR WEIGHT =   80.13



          ROTATIONAL CONSTANTS IN CM(-1)

          A =    0.24437062   B =    0.11771686   C =    0.08189432



           PRINCIPAL MOMENTS OF INERTIA IN UNITS OF 10**(-40)*GRAM-CM**2

          A =      114.5505   B =      237.7975   C =      341.8158


          ORIENTATION OF MOLECULE IN FORCE CALCULATION

    NO.       ATOM         X         Y         Z

     1          C      -1.2226   -0.0662    0.0005
     2          C       1.2226   -0.0662    0.0005
     3          C      -0.0000    0.8104    0.0005
     4          C      -0.6697   -1.4602   -0.0011
     5          C       0.6697   -1.4602   -0.0010
     6          C       0.0000    2.1376    0.0005
     7          H      -1.8566    0.1159    0.8881
     8          H      -1.8582    0.1176   -0.8857
     9          H       1.8567    0.1161    0.8880
    10          H       1.8581    0.1174   -0.8858
    11          H      -1.3246   -2.3304   -0.0021
    12          H       1.3247   -2.3303   -0.0018
    13          H       0.9146    2.7221    0.0005
    14          H      -0.9146    2.7220    0.0005


    FIRST DERIVATIVES WILL BE USED IN THE CALCULATION OF SECOND DERIVATIVES

          ESTIMATED TIME TO COMPLETE CALCULATION =        2.62 SECONDS

    FOR POINT-GROUP C1   THERE ARE   1 UNIQUE SYMMETRY FUNCTIONS.

 STEP:   1 TIME =     0.04 SECS, INTEGRAL =      0.04 TIME LEFT: 172799.95
 STEP:   2 TIME =     0.03 SECS, INTEGRAL =      0.07 TIME LEFT: 172799.91
 STEP:   3 TIME =     0.03 SECS, INTEGRAL =      0.10 TIME LEFT: 172799.89
 STEP:   4 TIME =     0.03 SECS, INTEGRAL =      0.12 TIME LEFT: 172799.86
 STEP:   5 TIME =     0.02 SECS, INTEGRAL =      0.15 TIME LEFT: 172799.84
 STEP:   6 TIME =     0.02 SECS, INTEGRAL =      0.17 TIME LEFT: 172799.82
 STEP:   7 TIME =     0.02 SECS, INTEGRAL =      0.19 TIME LEFT: 172799.79
 STEP:   8 TIME =     0.04 SECS, INTEGRAL =      0.23 TIME LEFT: 172799.76
 STEP:   9 TIME =     0.04 SECS, INTEGRAL =      0.26 TIME LEFT: 172799.72
 STEP:  10 TIME =     0.03 SECS, INTEGRAL =      0.29 TIME LEFT: 172799.70
 STEP:  11 TIME =     0.03 SECS, INTEGRAL =      0.32 TIME LEFT: 172799.67
 STEP:  12 TIME =     0.03 SECS, INTEGRAL =      0.34 TIME LEFT: 172799.64
 STEP:  13 TIME =     0.02 SECS, INTEGRAL =      0.36 TIME LEFT: 172799.62
 STEP:  14 TIME =     0.02 SECS, INTEGRAL =      0.39 TIME LEFT: 172799.60
 STEP:  15 TIME =     0.02 SECS, INTEGRAL =      0.41 TIME LEFT: 172799.58
 STEP:  16 TIME =     0.02 SECS, INTEGRAL =      0.43 TIME LEFT: 172799.56
 STEP:  17 TIME =     0.02 SECS, INTEGRAL =      0.45 TIME LEFT: 172799.54
 STEP:  18 TIME =     0.02 SECS, INTEGRAL =      0.47 TIME LEFT: 172799.51
 STEP:  19 TIME =     0.03 SECS, INTEGRAL =      0.50 TIME LEFT: 172799.48
 STEP:  20 TIME =     0.03 SECS, INTEGRAL =      0.53 TIME LEFT: 172799.46
 STEP:  21 TIME =     0.03 SECS, INTEGRAL =      0.55 TIME LEFT: 172799.43
 STEP:  22 TIME =     0.03 SECS, INTEGRAL =      0.58 TIME LEFT: 172799.40
 STEP:  23 TIME =     0.03 SECS, INTEGRAL =      0.61 TIME LEFT: 172799.38
 STEP:  24 TIME =     0.03 SECS, INTEGRAL =      0.64 TIME LEFT: 172799.35
 STEP:  25 TIME =     0.03 SECS, INTEGRAL =      0.66 TIME LEFT: 172799.32
 STEP:  26 TIME =     0.03 SECS, INTEGRAL =      0.69 TIME LEFT: 172799.29
 STEP:  27 TIME =     0.03 SECS, INTEGRAL =      0.72 TIME LEFT: 172799.27
 STEP:  28 TIME =     0.03 SECS, INTEGRAL =      0.75 TIME LEFT: 172799.24
 STEP:  29 TIME =     0.03 SECS, INTEGRAL =      0.77 TIME LEFT: 172799.21
 STEP:  30 TIME =     0.03 SECS, INTEGRAL =      0.80 TIME LEFT: 172799.18
 STEP:  31 TIME =     0.02 SECS, INTEGRAL =      0.82 TIME LEFT: 172799.16
 STEP:  32 TIME =     0.02 SECS, INTEGRAL =      0.85 TIME LEFT: 172799.14
 STEP:  33 TIME =     0.03 SECS, INTEGRAL =      0.88 TIME LEFT: 172799.11
 STEP:  34 TIME =     0.03 SECS, INTEGRAL =      0.90 TIME LEFT: 172799.08
 STEP:  35 TIME =     0.02 SECS, INTEGRAL =      0.93 TIME LEFT: 172799.06
 STEP:  36 TIME =     0.02 SECS, INTEGRAL =      0.95 TIME LEFT: 172799.04
 STEP:  37 TIME =     0.02 SECS, INTEGRAL =      0.97 TIME LEFT: 172799.01
 STEP:  38 TIME =     0.03 SECS, INTEGRAL =      1.00 TIME LEFT: 172798.98
 STEP:  39 TIME =     0.03 SECS, INTEGRAL =      1.04 TIME LEFT: 172798.95
 STEP:  40 TIME =     0.03 SECS, INTEGRAL =      1.06 TIME LEFT: 172798.92
 STEP:  41 TIME =     0.02 SECS, INTEGRAL =      1.09 TIME LEFT: 172798.90
 STEP:  42 TIME =     0.02 SECS, INTEGRAL =      1.11 TIME LEFT: 172798.88

(To convert to Hartree/Bohr^2, multiply by (10^(-21) x N x a0^2)/(4.184 x 627.51) =  0.0642)


           FORCE MATRIX IN MILLIDYNES/ANGSTROM


                  C  1       C  2       C  3       C  4       C  5       C  6
 ------------------------------------------------------------------------------
     C    1  14.933457
     C    2   0.742937  14.933633
     C    3   4.396356   4.396801  19.074418
     C    4   4.588359   1.188948   1.008204  18.312640
     C    5   1.188879   4.588869   1.008411  10.491632  18.313650
     C    6   0.709714   0.709841  10.959788   0.055197   0.055070  18.119682
     H    7   4.495570   0.030107   0.433560   0.429595   0.037615   0.020470
     H    8   4.495998   0.030083   0.433653   0.429678   0.037632   0.020469
     H    9   0.030053   4.495529   0.433528   0.037651   0.429601   0.020454
     H   10   0.030072   4.495853   0.433664   0.037624   0.429572   0.020465
     H   11   0.408623   0.116038   0.044282   5.036761   0.450303   0.007699
     H   12   0.116201   0.408686   0.044267   0.450282   5.036811   0.007748
     H   13   0.124569   0.087049   0.479566   0.006206   0.001976   5.112036
     H   14   0.087057   0.124547   0.479431   0.001892   0.006253   5.112598


                  H  7       H  8       H  9       H 10       H 11       H 12
 ------------------------------------------------------------------------------
     H    7   5.096316
     H    8   0.557464   5.096797
     H    9   0.001740   0.002148   5.096315
     H   10   0.002149   0.001749   0.557502   5.096649
     H   11   0.012704   0.012742   0.015415   0.015417   5.431809
     H   12   0.015459   0.015468   0.012699   0.012746   0.048128   5.431916
     H   13   0.012728   0.012684   0.010647   0.010638   0.001230   0.000770
     H   14   0.010651   0.010645   0.012727   0.012688   0.000770   0.001219


                  H 13       H 14
 ------------------------------
     H   13   5.491546
     H   14   0.409759   5.492200


          HEAT OF FORMATION =      23.651242 KCALS/MOLE

          ZERO POINT ENERGY      75.393 KCAL/MOL


           NORMAL COORDINATE ANALYSIS (Total motion = 1 Angstrom)


   Root No.       1         2         3         4         5         6         7         8

                 1 A       2 A       3 A       4 A       5 A       6 A       7 A       8 A   

                 120.9     364.9     370.7     449.5     614.2     628.7     744.2     782.7
  
           1   -0.0000   -0.0315    0.0002   -0.0001   -0.0000    0.0596   -0.0000    0.0347
           2    0.0000   -0.0293    0.0002    0.0000    0.0000   -0.0206    0.0000   -0.0529
           3   -0.0474   -0.0001   -0.0175   -0.0072    0.0016   -0.0000   -0.0143   -0.0001
           4    0.0000   -0.0315    0.0002    0.0001   -0.0000   -0.0596    0.0000    0.0347
           5    0.0000    0.0293   -0.0002    0.0000   -0.0000   -0.0206    0.0000    0.0529
           6   -0.0475    0.0001    0.0175   -0.0072   -0.0016   -0.0000   -0.0143    0.0001
           7   -0.0000   -0.0510    0.0003    0.0000    0.0000   -0.0000    0.0000    0.0426
           8    0.0000    0.0000   -0.0000   -0.0001   -0.0000    0.0727   -0.0000   -0.0000
           9   -0.0198    0.0000    0.0000    0.1015   -0.0000    0.0002    0.0225   -0.0000
          10    0.0000    0.0135   -0.0001    0.0000    0.0000    0.0038   -0.0000   -0.0716
          11   -0.0000   -0.0181    0.0001    0.0001    0.0000   -0.0593    0.0000   -0.0815
          12    0.0324    0.0005    0.0617   -0.0047   -0.0068   -0.0000   -0.0222   -0.0000
          13    0.0000    0.0135   -0.0001    0.0000    0.0000   -0.0038   -0.0000   -0.0716
          14   -0.0000    0.0181   -0.0001    0.0000   -0.0000   -0.0593    0.0001    0.0815
          15    0.0325   -0.0005   -0.0617   -0.0046    0.0068   -0.0001   -0.0223    0.0001
          16    0.0000    0.0680   -0.0004   -0.0000   -0.0000    0.0000    0.0000    0.0207
          17    0.0000    0.0000   -0.0000   -0.0001   -0.0000    0.0900   -0.0001   -0.0000
          18    0.0522   -0.0000    0.0000   -0.0274   -0.0000   -0.0000    0.0009   -0.0000
          19   -0.0494   -0.0379   -0.0713   -0.1225   -0.0543    0.0589    0.0450    0.0533
          20    0.0356   -0.0516    0.0606   -0.0192   -0.0045   -0.0444   -0.0682   -0.0263
          21   -0.0904   -0.0005   -0.0830   -0.0937   -0.0383    0.0030    0.0343    0.0053
          22    0.0493   -0.0369    0.0717    0.1222    0.0542    0.0591   -0.0449    0.0532
          23   -0.0354   -0.0526   -0.0597    0.0194    0.0046   -0.0442    0.0681   -0.0262
          24   -0.0905   -0.0006   -0.0833   -0.0939   -0.0384   -0.0032    0.0346   -0.0054
          25    0.0494   -0.0379   -0.0711    0.1226   -0.0543   -0.0589   -0.0451    0.0534
          26    0.0356    0.0516   -0.0605   -0.0191    0.0046   -0.0444   -0.0683    0.0264
          27   -0.0905    0.0005    0.0828   -0.0938    0.0383    0.0030    0.0345   -0.0053
          28   -0.0494   -0.0370    0.0715   -0.1223    0.0542   -0.0591    0.0451    0.0532
          29   -0.0355    0.0525    0.0596    0.0193   -0.0046   -0.0442    0.0682    0.0261
          30   -0.0906    0.0006    0.0830   -0.0939    0.0384   -0.0032    0.0346    0.0053
          31   -0.0000    0.0412   -0.0003    0.0000    0.0000   -0.0341   -0.0001   -0.0279
          32   -0.0001   -0.0389    0.0001    0.0000    0.0000   -0.0311   -0.0002   -0.1155
          33    0.0811    0.0012    0.1579   -0.0135   -0.0259    0.0002    0.2509   -0.0000
          34    0.0000    0.0412   -0.0003   -0.0000    0.0000    0.0341    0.0001   -0.0279
          35   -0.0001    0.0389   -0.0001    0.0000   -0.0000   -0.0311   -0.0001    0.1155
          36    0.0813   -0.0012   -0.1580   -0.0133    0.0259    0.0002    0.2513   -0.0002
          37    0.0000    0.1473   -0.0010   -0.0000    0.0000   -0.0058    0.0000   -0.0155
          38   -0.0000   -0.1202    0.0008   -0.0001   -0.0000    0.1022   -0.0001    0.0564
          39    0.0848    0.0001    0.0125   -0.0995   -0.3326   -0.0003   -0.0232   -0.0001
          40    0.0000    0.1471   -0.0010   -0.0000    0.0000    0.0058   -0.0000   -0.0154
          41    0.0000    0.1200   -0.0008   -0.0001    0.0000    0.1022   -0.0001   -0.0564
          42    0.0848   -0.0001   -0.0125   -0.0995    0.3326   -0.0001   -0.0233    0.0002


   Root No.       9        10        11        12        13        14        15        16

                 9 A      10 A      11 A      12 A      13 A      14 A      15 A      16 A   

                 859.8     916.2     925.7     953.9     970.3    1005.1    1032.0    1055.2
  
           1    0.0000   -0.0344   -0.0488   -0.0000    0.0000    0.0000   -0.0141    0.0000
           2   -0.0000    0.0015   -0.0234   -0.0000   -0.0000    0.0000    0.0211   -0.0000
           3    0.0414   -0.0000   -0.0000    0.0376    0.0183   -0.0138    0.0000    0.0161
           4   -0.0000   -0.0340    0.0490    0.0000    0.0000   -0.0000   -0.0141    0.0000
           5    0.0001   -0.0017   -0.0234   -0.0000    0.0000    0.0000   -0.0211    0.0000
           6   -0.0413    0.0000   -0.0000    0.0377   -0.0183   -0.0138   -0.0000   -0.0161
           7    0.0000    0.0095   -0.0000   -0.0000    0.0000   -0.0000    0.0055   -0.0000
           8   -0.0000    0.0001    0.0219    0.0000   -0.0000   -0.0000    0.0000    0.0000
           9   -0.0000   -0.0000   -0.0000   -0.0245   -0.0000    0.0148    0.0000    0.0000
          10   -0.0000    0.0100    0.0022    0.0000    0.0000   -0.0000    0.0041   -0.0000
          11   -0.0000   -0.0003    0.0082    0.0000    0.0001   -0.0000   -0.0214    0.0000
          12    0.0029   -0.0000    0.0000   -0.0248   -0.0305    0.0160   -0.0000   -0.0452
          13   -0.0000    0.0100   -0.0023   -0.0000   -0.0000    0.0000    0.0041   -0.0000
          14    0.0000    0.0003    0.0082    0.0000   -0.0001   -0.0000    0.0214   -0.0000
          15   -0.0029   -0.0000    0.0000   -0.0249    0.0304    0.0160    0.0001    0.0451
          16    0.0000    0.0624   -0.0002   -0.0000    0.0000    0.0000   -0.0113    0.0000
          17   -0.0000    0.0001    0.0387    0.0000   -0.0000   -0.0000    0.0000   -0.0000
          18   -0.0000   -0.0000    0.0000   -0.0237   -0.0000   -0.0469   -0.0000   -0.0000
          19   -0.1124   -0.0456   -0.0815   -0.0846   -0.0786    0.0036    0.0058    0.0120
          20    0.0325   -0.0126   -0.0978    0.0475   -0.1066   -0.1045    0.1164    0.1642
          21   -0.0495   -0.0048   -0.0071   -0.0357   -0.0173    0.0115   -0.0054   -0.0102
          22    0.1122   -0.0458   -0.0816    0.0844    0.0785   -0.0036    0.0059   -0.0119
          23   -0.0323   -0.0126   -0.0977   -0.0475    0.1062    0.1044    0.1169   -0.1639
          24   -0.0497    0.0050    0.0071   -0.0359   -0.0173    0.0117    0.0056   -0.0105
          25   -0.1123   -0.0449    0.0817    0.0849   -0.0784   -0.0036    0.0057    0.0120
          26   -0.0323    0.0120   -0.0978    0.0472    0.1066   -0.1045   -0.1164   -0.1642
          27    0.0495    0.0048   -0.0071   -0.0358    0.0172    0.0115    0.0055    0.0102
          28    0.1121   -0.0451    0.0819   -0.0847    0.0783    0.0036    0.0059   -0.0119
          29    0.0323    0.0118   -0.0977   -0.0473   -0.1063    0.1045   -0.1168    0.1640
          30    0.0497   -0.0049    0.0072   -0.0360    0.0172    0.0117   -0.0056    0.0104
          31    0.0001    0.0512    0.0739   -0.0001   -0.0002    0.0000    0.1312   -0.0000
          32    0.0001   -0.0307   -0.0470   -0.0001    0.0000    0.0000   -0.1146   -0.0001
          33   -0.1422    0.0001   -0.0000    0.0894    0.1560   -0.0434    0.0001    0.1068
          34    0.0001    0.0507   -0.0742    0.0001   -0.0002   -0.0000    0.1311   -0.0000
          35   -0.0000    0.0304   -0.0473   -0.0000   -0.0000    0.0000    0.1146    0.0001
          36    0.1418   -0.0001   -0.0000    0.0898   -0.1554   -0.0434   -0.0001   -0.1066
          37   -0.0000   -0.1002   -0.0123    0.0000    0.0000    0.0000    0.0112   -0.0000
          38    0.0001    0.2469    0.0620    0.0000    0.0000   -0.0000   -0.0348    0.0000
          39    0.0599   -0.0000   -0.0000    0.1169    0.0290    0.1855    0.0001   -0.0024
          40   -0.0000   -0.0997    0.0129    0.0000   -0.0000   -0.0000    0.0111   -0.0000
          41   -0.0001   -0.2460    0.0635    0.0001   -0.0000   -0.0000    0.0347   -0.0000
          42   -0.0598    0.0001   -0.0000    0.1170   -0.0286    0.1855   -0.0000    0.0025


   Root No.      17        18        19        20        21        22        23        24

                17 A      18 A      19 A      20 A      21 A      22 A      23 A      24 A   

                1076.1    1086.2    1117.9    1218.0    1297.5    1318.6    1351.2    1373.6
  
           1   -0.0000   -0.0206    0.0345   -0.0001   -0.0032   -0.0103    0.0175   -0.0327
           2    0.0000    0.0097   -0.0065    0.0214   -0.0339   -0.0063    0.0500   -0.0853
           3   -0.0169    0.0000    0.0000    0.0000   -0.0000   -0.0000    0.0000   -0.0001
           4    0.0000    0.0206   -0.0345   -0.0001    0.0032   -0.0103   -0.0174   -0.0328
           5    0.0000    0.0097   -0.0065   -0.0214   -0.0340    0.0061    0.0498    0.0856
           6   -0.0169    0.0000    0.0000   -0.0000   -0.0000    0.0000    0.0000    0.0000
           7   -0.0000   -0.0000    0.0000    0.0389   -0.0001    0.0553   -0.0001    0.0712
           8    0.0000    0.0011   -0.0011    0.0000   -0.0211   -0.0000   -0.0203   -0.0001
           9    0.0527   -0.0000   -0.0000   -0.0000    0.0000    0.0000   -0.0000    0.0000
          10    0.0000   -0.0033    0.0100   -0.0163   -0.0002    0.0144    0.0006   -0.0147
          11   -0.0000   -0.0290    0.0332    0.0146    0.0221   -0.0216   -0.0191    0.0686
          12   -0.0064   -0.0000    0.0000    0.0000    0.0000   -0.0000   -0.0000    0.0001
          13   -0.0000    0.0033   -0.0100   -0.0163    0.0001    0.0144   -0.0006   -0.0147
          14   -0.0000   -0.0290    0.0332   -0.0146    0.0220    0.0217   -0.0190   -0.0687
          15   -0.0064   -0.0000    0.0000   -0.0000    0.0000    0.0000   -0.0000   -0.0001
          16   -0.0000   -0.0000    0.0000   -0.0123   -0.0000   -0.0112   -0.0000   -0.0070
          17    0.0000    0.0103   -0.0120    0.0000   -0.0087    0.0000   -0.0346   -0.0001
          18   -0.0270    0.0000    0.0000   -0.0000   -0.0000    0.0000   -0.0000   -0.0000
          19    0.0848   -0.0028    0.0567   -0.0434    0.0633   -0.1240   -0.0586    0.0397
          20    0.1472    0.1269   -0.0478   -0.1188    0.0468    0.0250   -0.0691    0.0760
          21    0.0147   -0.0102    0.0203   -0.0024    0.0270   -0.0774   -0.0263    0.0162
          22   -0.0848   -0.0025    0.0568   -0.0435    0.0633   -0.1239   -0.0586    0.0396
          23   -0.1469    0.1274   -0.0477   -0.1190    0.0469    0.0248   -0.0692    0.0760
          24    0.0146    0.0104   -0.0205    0.0022   -0.0270    0.0777    0.0263   -0.0161
          25   -0.0849    0.0028   -0.0567   -0.0434   -0.0630   -0.1242    0.0583    0.0400
          26    0.1472    0.1271   -0.0478    0.1188    0.0469   -0.0248   -0.0689   -0.0763
          27    0.0147   -0.0102    0.0203    0.0023    0.0267    0.0775   -0.0261   -0.0163
          28    0.0848    0.0026   -0.0568   -0.0434   -0.0630   -0.1242    0.0583    0.0399
          29   -0.1469    0.1274   -0.0476    0.1189    0.0470   -0.0246   -0.0690   -0.0763
          30    0.0146    0.0104   -0.0205   -0.0022   -0.0268   -0.0777    0.0261    0.0162
          31    0.0002    0.1117    0.2049    0.1104   -0.0123   -0.0781    0.0230    0.0860
          32   -0.0002   -0.1168   -0.1092   -0.0804    0.0328    0.0471   -0.0365   -0.0061
          33    0.0078   -0.0000   -0.0000   -0.0000    0.0000    0.0000   -0.0000    0.0000
          34   -0.0003   -0.1117   -0.2048    0.1105    0.0126   -0.0780   -0.0232    0.0859
          35   -0.0002   -0.1168   -0.1093    0.0805    0.0331   -0.0470   -0.0366    0.0059
          36    0.0078   -0.0000    0.0000    0.0000    0.0000   -0.0000   -0.0000   -0.0000
          37    0.0000   -0.0077    0.0130    0.0138   -0.1198    0.0144   -0.1027    0.0170
          38   -0.0000    0.0243   -0.0353   -0.0391    0.1932   -0.0378    0.1340   -0.0337
          39    0.0882   -0.0001   -0.0000    0.0000    0.0000    0.0000    0.0000    0.0000
          40   -0.0000    0.0077   -0.0131    0.0136    0.1200    0.0146    0.1028    0.0175
          41    0.0000    0.0244   -0.0354    0.0389    0.1935    0.0383    0.1343    0.0344
          42    0.0882   -0.0001   -0.0000   -0.0000    0.0000   -0.0000    0.0000    0.0000


   Root No.      25        26        27        28        29        30        31        32

                25 A      26 A      27 A      28 A      29 A      30 A      31 A      32 A   

                1384.4    1400.1    1818.0    1917.9    2971.5    2972.3    3044.8    3046.0
  
           1   -0.0400   -0.0481    0.0173   -0.0165    0.0000   -0.0000   -0.0205   -0.0207
           2    0.0319    0.0154   -0.0037   -0.0248   -0.0000    0.0000    0.0060    0.0060
           3    0.0001    0.0000   -0.0000   -0.0000    0.0299   -0.0313   -0.0000   -0.0000
           4    0.0399   -0.0482   -0.0173    0.0165    0.0000    0.0000   -0.0208    0.0204
           5    0.0319   -0.0154   -0.0037   -0.0248    0.0000    0.0000   -0.0061    0.0059
           6    0.0000   -0.0000   -0.0000   -0.0000   -0.0313   -0.0299   -0.0000   -0.0000
           7    0.0000    0.0495    0.0000   -0.0000   -0.0000   -0.0000   -0.0006   -0.0000
           8    0.0002   -0.0000   -0.0263    0.2558    0.0000    0.0000    0.0000   -0.0005
           9   -0.0000   -0.0000    0.0000    0.0000   -0.0000   -0.0001    0.0000   -0.0000
          10   -0.0025    0.0178   -0.2094   -0.0289   -0.0000    0.0000    0.0002    0.0001
          11   -0.0189   -0.0256    0.0224   -0.0040    0.0000    0.0000    0.0006    0.0009
          12   -0.0000   -0.0000    0.0000   -0.0000   -0.0001   -0.0002    0.0000    0.0000
          13    0.0026    0.0178    0.2094    0.0289   -0.0000   -0.0000    0.0002   -0.0001
          14   -0.0189    0.0256    0.0224   -0.0040    0.0000    0.0000   -0.0006    0.0009
          15   -0.0000    0.0000    0.0000    0.0000    0.0001   -0.0002   -0.0000    0.0000
          16   -0.0000   -0.0099    0.0000   -0.0000   -0.0000   -0.0000   -0.0000    0.0000
          17   -0.0006   -0.0000    0.0254   -0.1945   -0.0000   -0.0000   -0.0000    0.0001
          18   -0.0000    0.0000   -0.0000    0.0000   -0.0000   -0.0001   -0.0000    0.0000
          19    0.1391    0.0920    0.0024    0.0015    0.1344   -0.1405    0.1237    0.1218
          20   -0.0660   -0.0402   -0.0359    0.0184   -0.0386    0.0406   -0.0355   -0.0351
          21    0.1299    0.0966    0.0012    0.0018   -0.1815    0.1897   -0.1979   -0.1950
          22    0.1389    0.0918    0.0024    0.0015   -0.1345    0.1405    0.1243    0.1224
          23   -0.0658   -0.0400   -0.0360    0.0185    0.0389   -0.0409   -0.0359   -0.0355
          24   -0.1303   -0.0968   -0.0013   -0.0017   -0.1808    0.1890    0.1979    0.1951
          25   -0.1390    0.0922   -0.0023   -0.0015    0.1407    0.1342    0.1252   -0.1205
          26   -0.0659    0.0402   -0.0359    0.0184    0.0405    0.0389    0.0359   -0.0347
          27    0.1298   -0.0968    0.0012    0.0017    0.1899    0.1811    0.2002   -0.1928
          28   -0.1388    0.0920   -0.0023   -0.0015   -0.1408   -0.1343    0.1256   -0.1209
          29   -0.0657    0.0401   -0.0359    0.0185   -0.0407   -0.0391    0.0363   -0.0351
          30   -0.1301    0.0970   -0.0013   -0.0017    0.1893    0.1806   -0.2002    0.1928
          31   -0.0127   -0.0684   -0.0472   -0.0154   -0.0000   -0.0000   -0.0016   -0.0087
          32   -0.0143    0.0386   -0.1475   -0.0280   -0.0000   -0.0000   -0.0010   -0.0099
          33   -0.0000    0.0000   -0.0001   -0.0000    0.0002   -0.0010   -0.0000   -0.0000
          34    0.0126   -0.0684    0.0472    0.0154    0.0000    0.0000   -0.0017    0.0087
          35   -0.0144   -0.0386   -0.1475   -0.0280   -0.0000   -0.0000    0.0011   -0.0099
          36   -0.0000   -0.0000   -0.0001   -0.0000   -0.0003   -0.0010    0.0000   -0.0000
          37    0.0036    0.0100    0.0187   -0.1435    0.0000    0.0000   -0.0004    0.0012
          38   -0.0067   -0.0295    0.0023   -0.0313    0.0000    0.0000   -0.0000    0.0004
          39    0.0000    0.0000    0.0000   -0.0000    0.0007   -0.0002    0.0000   -0.0000
          40   -0.0035    0.0101   -0.0187    0.1435    0.0000   -0.0000   -0.0004   -0.0013
          41   -0.0066    0.0297    0.0023   -0.0311   -0.0000    0.0000    0.0000    0.0004
          42    0.0000   -0.0000   -0.0000   -0.0000   -0.0007   -0.0002   -0.0000   -0.0000


   Root No.      33        34        35        36

                33 A      34 A      35 A      36 A   

                3120.4    3139.2    3144.3    3146.8
  
           1   -0.0000   -0.0018    0.0001    0.0001
           2   -0.0002    0.0006    0.0001    0.0005
           3   -0.0000   -0.0000    0.0000   -0.0000
           4   -0.0000    0.0018   -0.0000    0.0001
           5    0.0002    0.0006    0.0000   -0.0005
           6    0.0000   -0.0000    0.0000    0.0000
           7    0.0001   -0.0000   -0.0000   -0.0005
           8    0.0000    0.0011    0.0067   -0.0002
           9    0.0000    0.0000    0.0000    0.0000
          10   -0.0230   -0.0277   -0.0012    0.0001
          11   -0.0308   -0.0287   -0.0012    0.0001
          12   -0.0000   -0.0000   -0.0000   -0.0000
          13   -0.0230    0.0277    0.0012    0.0000
          14    0.0307   -0.0287   -0.0012   -0.0000
          15    0.0000   -0.0000   -0.0000   -0.0000
          16   -0.0001    0.0000   -0.0017   -0.0650
          17   -0.0000    0.0014   -0.0458    0.0013
          18    0.0000   -0.0000    0.0000    0.0000
          19    0.0010    0.0059   -0.0004    0.0003
          20   -0.0017   -0.0028    0.0001    0.0004
          21   -0.0019   -0.0096    0.0005   -0.0003
          22    0.0010    0.0060   -0.0004    0.0003
          23   -0.0017   -0.0028    0.0001    0.0004
          24    0.0019    0.0096   -0.0005    0.0003
          25    0.0010   -0.0059    0.0004    0.0003
          26    0.0017   -0.0028    0.0001   -0.0004
          27    0.0019   -0.0096    0.0005    0.0002
          28    0.0010   -0.0060    0.0004    0.0003
          29    0.0017   -0.0028    0.0001   -0.0004
          30   -0.0019    0.0096   -0.0005   -0.0003
          31    0.2716    0.2504    0.0100   -0.0005
          32    0.3660    0.3334    0.0133   -0.0007
          33    0.0004    0.0004    0.0000   -0.0000
          34    0.2711   -0.2509   -0.0101   -0.0002
          35   -0.3652    0.3340    0.0134    0.0003
          36   -0.0003    0.0003    0.0000    0.0000
          37    0.0005   -0.0142    0.3995    0.3769
          38    0.0004   -0.0086    0.2405    0.2491
          39   -0.0000   -0.0000   -0.0000   -0.0000
          40    0.0005    0.0138   -0.3791    0.3996
          41   -0.0004   -0.0083    0.2268   -0.2626
          42    0.0000   -0.0000   -0.0000    0.0000


           MASS-WEIGHTED COORDINATE ANALYSIS (NORMAL COORDINATES)


   Root No.       1         2         3         4         5         6         7         8

                 1 A       2 A       3 A       4 A       5 A       6 A       7 A       8 A   

                 120.9     364.9     370.7     449.5     614.2     628.7     744.2     782.7
  
           1   -0.0001   -0.2231    0.0015   -0.0005   -0.0001    0.3314   -0.0001    0.1780
           2    0.0002   -0.2075    0.0017    0.0002    0.0001   -0.1147    0.0001   -0.2719
           3   -0.3746   -0.0008   -0.1318   -0.0498    0.0110   -0.0002   -0.1161   -0.0005
           4    0.0001   -0.2231    0.0015    0.0005   -0.0000   -0.3315    0.0002    0.1781
           5    0.0002    0.2075   -0.0016    0.0001   -0.0000   -0.1147    0.0003    0.2719
           6   -0.3747    0.0009    0.1315   -0.0500   -0.0110   -0.0002   -0.1163    0.0005
           7   -0.0000   -0.3616    0.0026    0.0000    0.0000   -0.0000    0.0001    0.2186
           8    0.0001    0.0000   -0.0000   -0.0005   -0.0001    0.4043   -0.0003   -0.0000
           9   -0.1561    0.0001    0.0003    0.7004   -0.0000    0.0012    0.1823   -0.0000
          10    0.0000    0.0954   -0.0006    0.0000    0.0001    0.0211   -0.0001   -0.3678
          11   -0.0004   -0.1279    0.0006    0.0004    0.0001   -0.3295    0.0003   -0.4183
          12    0.2562    0.0033    0.4642   -0.0321   -0.0476   -0.0003   -0.1801   -0.0001
          13    0.0000    0.0954   -0.0005    0.0000    0.0001   -0.0211   -0.0001   -0.3678
          14   -0.0003    0.1280   -0.0006    0.0003   -0.0001   -0.3295    0.0005    0.4184
          15    0.2566   -0.0033   -0.4638   -0.0316    0.0476   -0.0003   -0.1811    0.0003
          16    0.0000    0.4818   -0.0034   -0.0001   -0.0000    0.0001    0.0001    0.1064
          17    0.0001    0.0001   -0.0000   -0.0006   -0.0001    0.5004   -0.0005   -0.0000
          18    0.4126   -0.0001    0.0001   -0.1889   -0.0000   -0.0001    0.0074   -0.0000
          19   -0.1130   -0.0779   -0.1554   -0.2450   -0.1105    0.0949    0.1056    0.0793
          20    0.0814   -0.1060    0.1319   -0.0384   -0.0093   -0.0715   -0.1600   -0.0392
          21   -0.2068   -0.0011   -0.1809   -0.1873   -0.0780    0.0048    0.0806    0.0079
          22    0.1128   -0.0758    0.1562    0.2444    0.1102    0.0952   -0.1054    0.0792
          23   -0.0811   -0.1079   -0.1300    0.0387    0.0093   -0.0712    0.1598   -0.0389
          24   -0.2071   -0.0013   -0.1814   -0.1876   -0.0781   -0.0052    0.0811   -0.0080
          25    0.1131   -0.0778   -0.1549    0.2451   -0.1105   -0.0949   -0.1058    0.0794
          26    0.0815    0.1059   -0.1318   -0.0383    0.0093   -0.0715   -0.1603    0.0393
          27   -0.2070    0.0011    0.1805   -0.1875    0.0780    0.0049    0.0809   -0.0079
          28   -0.1129   -0.0759    0.1557   -0.2445    0.1103   -0.0952    0.1058    0.0791
          29   -0.0812    0.1079    0.1299    0.0385   -0.0093   -0.0711    0.1602    0.0389
          30   -0.2073    0.0013    0.1809   -0.1878    0.0781   -0.0051    0.0814    0.0079
          31   -0.0000    0.0847   -0.0006    0.0001    0.0001   -0.0549   -0.0003   -0.0415
          32   -0.0002   -0.0799    0.0003    0.0001    0.0001   -0.0501   -0.0004   -0.1718
          33    0.1855    0.0024    0.3440   -0.0269   -0.0526    0.0003    0.5890   -0.0001
          34    0.0000    0.0846   -0.0006   -0.0001    0.0001    0.0549    0.0002   -0.0416
          35   -0.0002    0.0799   -0.0003    0.0001   -0.0000   -0.0501   -0.0003    0.1718
          36    0.1859   -0.0025   -0.3443   -0.0265    0.0527    0.0003    0.5901   -0.0004
          37    0.0000    0.3023   -0.0021   -0.0000    0.0000   -0.0093    0.0000   -0.0231
          38   -0.0000   -0.2467    0.0017   -0.0001   -0.0001    0.1646   -0.0001    0.0840
          39    0.1940    0.0002    0.0273   -0.1989   -0.6768   -0.0004   -0.0544   -0.0002
          40    0.0000    0.3019   -0.0021   -0.0000    0.0000    0.0093   -0.0000   -0.0230
          41    0.0000    0.2463   -0.0018   -0.0002    0.0000    0.1645   -0.0002   -0.0839
          42    0.1941   -0.0002   -0.0273   -0.1989    0.6769   -0.0002   -0.0546    0.0003


   Root No.       9        10        11        12        13        14        15        16

                 9 A      10 A      11 A      12 A      13 A      14 A      15 A      16 A   

                 859.8     916.2     925.7     953.9     970.3    1005.1    1032.0    1055.2
  
           1    0.0001   -0.2450   -0.3927   -0.0000    0.0003    0.0001   -0.1271    0.0000
           2   -0.0004    0.0106   -0.1882   -0.0004   -0.0004    0.0001    0.1906   -0.0001
           3    0.3654   -0.0001   -0.0001    0.3368    0.1628   -0.1207    0.0003    0.1285
           4   -0.0000   -0.2421    0.3944    0.0000    0.0001   -0.0001   -0.1270    0.0001
           5    0.0005   -0.0119   -0.1882   -0.0003    0.0003    0.0001   -0.1906    0.0002
           6   -0.3650    0.0002   -0.0003    0.3375   -0.1620   -0.1206   -0.0004   -0.1284
           7    0.0003    0.0673   -0.0002   -0.0000    0.0000   -0.0000    0.0497   -0.0001
           8   -0.0000    0.0005    0.1763    0.0002   -0.0000   -0.0000    0.0000    0.0000
           9   -0.0002   -0.0000   -0.0000   -0.2192   -0.0002    0.1291    0.0001    0.0000
          10   -0.0002    0.0715    0.0177    0.0000    0.0000   -0.0000    0.0366   -0.0000
          11   -0.0004   -0.0019    0.0657    0.0001    0.0006   -0.0000   -0.1927    0.0001
          12    0.0260   -0.0001    0.0001   -0.2223   -0.2709    0.1399   -0.0004   -0.3613
          13   -0.0002    0.0714   -0.0181   -0.0000   -0.0000    0.0000    0.0366   -0.0001
          14    0.0003    0.0023    0.0656    0.0002   -0.0005   -0.0001    0.1926   -0.0002
          15   -0.0258   -0.0000    0.0002   -0.2233    0.2701    0.1398    0.0005    0.3611
          16    0.0004    0.4438   -0.0016   -0.0001    0.0001    0.0000   -0.1018    0.0001
          17   -0.0000    0.0009    0.3117    0.0003   -0.0000   -0.0000    0.0001   -0.0000
          18   -0.0001   -0.0000    0.0001   -0.2124   -0.0003   -0.4097   -0.0000   -0.0001
          19   -0.2874   -0.0940   -0.1899   -0.2195   -0.2020    0.0092    0.0150    0.0277
          20    0.0831   -0.0260   -0.2279    0.1232   -0.2740   -0.2643    0.3042    0.3806
          21   -0.1266   -0.0099   -0.0166   -0.0926   -0.0445    0.0290   -0.0142   -0.0236
          22    0.2870   -0.0944   -0.1902    0.2191    0.2018   -0.0091    0.0154   -0.0276
          23   -0.0827   -0.0259   -0.2276   -0.1231    0.2731    0.2641    0.3053   -0.3799
          24   -0.1272    0.0102    0.0166   -0.0932   -0.0443    0.0295    0.0147   -0.0242
          25   -0.2871   -0.0926    0.1905    0.2202   -0.2015   -0.0091    0.0150    0.0277
          26   -0.0827    0.0246   -0.2280    0.1224    0.2740   -0.2642   -0.3042   -0.3805
          27    0.1265    0.0098   -0.0166   -0.0929    0.0443    0.0290    0.0143    0.0236
          28    0.2867   -0.0931    0.1909   -0.2198    0.2011    0.0090    0.0155   -0.0276
          29    0.0826    0.0244   -0.2278   -0.1227   -0.2731    0.2643   -0.3051    0.3801
          30    0.1270   -0.0101    0.0168   -0.0934    0.0442    0.0295   -0.0146    0.0242
          31    0.0002    0.1056    0.1722   -0.0002   -0.0005    0.0001    0.3428   -0.0001
          32    0.0001   -0.0633   -0.1096   -0.0002    0.0000    0.0001   -0.2995   -0.0003
          33   -0.3636    0.0003   -0.0000    0.2319    0.4009   -0.1098    0.0003    0.2475
          34    0.0002    0.1045   -0.1729    0.0002   -0.0005   -0.0001    0.3425   -0.0001
          35   -0.0001    0.0626   -0.1101   -0.0001   -0.0000    0.0000    0.2993    0.0002
          36    0.3627   -0.0002   -0.0000    0.2331   -0.3994   -0.1096   -0.0003   -0.2470
          37   -0.0001   -0.2067   -0.0287    0.0000    0.0000    0.0000    0.0292   -0.0000
          38    0.0003    0.5091    0.1444    0.0000    0.0000   -0.0001   -0.0908    0.0001
          39    0.1531   -0.0001   -0.0001    0.3033    0.0745    0.4692    0.0001   -0.0056
          40   -0.0001   -0.2056    0.0301    0.0000   -0.0000   -0.0001    0.0290   -0.0000
          41   -0.0004   -0.5072    0.1480    0.0002   -0.0001   -0.0001    0.0906   -0.0001
          42   -0.1529    0.0001   -0.0001    0.3035   -0.0735    0.4691   -0.0001    0.0058


   Root No.      17        18        19        20        21        22        23        24

                17 A      18 A      19 A      20 A      21 A      22 A      23 A      24 A   

                1076.1    1086.2    1117.9    1218.0    1297.5    1318.6    1351.2    1373.6
  
           1   -0.0002   -0.1818    0.2703   -0.0007   -0.0258   -0.0876    0.1387   -0.1731
           2    0.0001    0.0860   -0.0510    0.1923   -0.2768   -0.0532    0.3950   -0.4512
           3   -0.1370    0.0003    0.0001    0.0002   -0.0002   -0.0001    0.0002   -0.0003
           4    0.0003    0.1819   -0.2703   -0.0006    0.0264   -0.0874   -0.1378   -0.1736
           5    0.0001    0.0860   -0.0510   -0.1923   -0.2771    0.0519    0.3936    0.4524
           6   -0.1370    0.0004    0.0000   -0.0001   -0.0002    0.0001    0.0002    0.0002
           7   -0.0000   -0.0001    0.0001    0.3503   -0.0008    0.4691   -0.0005    0.3766
           8    0.0000    0.0096   -0.0084    0.0001   -0.1724   -0.0002   -0.1607   -0.0003
           9    0.4268   -0.0004   -0.0002   -0.0000    0.0000    0.0000   -0.0000    0.0000
          10    0.0000   -0.0295    0.0783   -0.1471   -0.0014    0.1225    0.0051   -0.0775
          11   -0.0002   -0.2561    0.2601    0.1313    0.1800   -0.1833   -0.1512    0.3625
          12   -0.0521   -0.0003    0.0002    0.0000    0.0002   -0.0002   -0.0002    0.0003
          13   -0.0000    0.0295   -0.0784   -0.1471    0.0009    0.1225   -0.0048   -0.0775
          14   -0.0001   -0.2563    0.2600   -0.1315    0.1793    0.1840   -0.1499   -0.3630
          15   -0.0521   -0.0003    0.0001   -0.0001    0.0002    0.0002   -0.0001   -0.0003
          16   -0.0000   -0.0000    0.0001   -0.1111   -0.0001   -0.0951   -0.0001   -0.0370
          17    0.0000    0.0906   -0.0940    0.0001   -0.0711    0.0000   -0.2731   -0.0005
          18   -0.2190    0.0003    0.0001   -0.0000   -0.0001    0.0000   -0.0000   -0.0000
          19    0.1992   -0.0071    0.1287   -0.1132    0.1496   -0.3048   -0.1342    0.0607
          20    0.3457    0.3249   -0.1086   -0.3098    0.1105    0.0615   -0.1581    0.1163
          21    0.0345   -0.0261    0.0461   -0.0062    0.0637   -0.1902   -0.0603    0.0248
          22   -0.1990   -0.0065    0.1290   -0.1134    0.1496   -0.3046   -0.1342    0.0607
          23   -0.3449    0.3261   -0.1084   -0.3103    0.1107    0.0611   -0.1584    0.1164
          24    0.0342    0.0266   -0.0466    0.0058   -0.0637    0.1908    0.0602   -0.0246
          25   -0.1993    0.0071   -0.1288   -0.1131   -0.1488   -0.3053    0.1335    0.0612
          26    0.3457    0.3252   -0.1085    0.3098    0.1108   -0.0610   -0.1578   -0.1168
          27    0.0345   -0.0262    0.0461    0.0061    0.0632    0.1904   -0.0598   -0.0250
          28    0.1991    0.0065   -0.1290   -0.1133   -0.1487   -0.3052    0.1335    0.0611
          29   -0.3450    0.3261   -0.1081    0.3102    0.1110   -0.0605   -0.1581   -0.1169
          30    0.0343    0.0265   -0.0465   -0.0058   -0.0632   -0.1910    0.0598    0.0249
          31    0.0006    0.2858    0.4651    0.2880   -0.0290   -0.1919    0.0528    0.1317
          32   -0.0005   -0.2989   -0.2480   -0.2098    0.0775    0.1158   -0.0837   -0.0094
          33    0.0183   -0.0000   -0.0000   -0.0001    0.0001    0.0001   -0.0001    0.0000
          34   -0.0006   -0.2860   -0.4650    0.2881    0.0299   -0.1918   -0.0532    0.1315
          35   -0.0005   -0.2991   -0.2480    0.2099    0.0781   -0.1155   -0.0837    0.0091
          36    0.0183   -0.0001    0.0000    0.0001    0.0001   -0.0001   -0.0001   -0.0000
          37    0.0000   -0.0196    0.0296    0.0359   -0.2831    0.0353   -0.2352    0.0260
          38   -0.0000    0.0623   -0.0802   -0.1019    0.4564   -0.0930    0.3068   -0.0516
          39    0.2072   -0.0002   -0.0001    0.0001    0.0001    0.0000    0.0001    0.0000
          40   -0.0000    0.0197   -0.0297    0.0355    0.2835    0.0359    0.2354    0.0268
          41    0.0000    0.0624   -0.0804    0.1015    0.4572    0.0941    0.3074    0.0527
          42    0.2072   -0.0002   -0.0001   -0.0000    0.0001   -0.0000    0.0001    0.0000


   Root No.      25        26        27        28        29        30        31        32

                25 A      26 A      27 A      28 A      29 A      30 A      31 A      32 A   

                1384.4    1400.1    1818.0    1917.9    2971.5    2972.3    3044.8    3046.0
  
           1   -0.2855   -0.3655    0.0561   -0.0495    0.0000   -0.0001   -0.1455   -0.1501
           2    0.2276    0.1167   -0.0121   -0.0745   -0.0002    0.0002    0.0426    0.0435
           3    0.0004    0.0003   -0.0000   -0.0000    0.2096   -0.2201   -0.0000   -0.0001
           4    0.2849   -0.3660   -0.0561    0.0495    0.0001    0.0001   -0.1472    0.1484
           5    0.2275   -0.1169   -0.0122   -0.0745    0.0001    0.0001   -0.0430    0.0430
           6    0.0003   -0.0003   -0.0000   -0.0000   -0.2195   -0.2103   -0.0000   -0.0000
           7    0.0003    0.3764    0.0000   -0.0000   -0.0000   -0.0000   -0.0041   -0.0000
           8    0.0017   -0.0001   -0.0852    0.7690    0.0000    0.0000    0.0000   -0.0034
           9   -0.0000   -0.0000    0.0000    0.0000   -0.0000   -0.0008    0.0000   -0.0000
          10   -0.0181    0.1350   -0.6787   -0.0869   -0.0000    0.0000    0.0013    0.0009
          11   -0.1350   -0.1941    0.0725   -0.0120    0.0000    0.0000    0.0043    0.0068
          12   -0.0002   -0.0002    0.0000   -0.0000   -0.0005   -0.0015    0.0000    0.0000
          13    0.0183    0.1349    0.6787    0.0869   -0.0000   -0.0000    0.0013   -0.0009
          14   -0.1347    0.1943    0.0726   -0.0120    0.0000    0.0000   -0.0043    0.0067
          15   -0.0001    0.0002    0.0001    0.0000    0.0004   -0.0015   -0.0000    0.0000
          16   -0.0001   -0.0749    0.0000   -0.0000   -0.0000   -0.0000   -0.0001    0.0000
          17   -0.0043   -0.0001    0.0824   -0.5848   -0.0000   -0.0000   -0.0000    0.0006
          18   -0.0000    0.0000   -0.0000    0.0000   -0.0000   -0.0009   -0.0000    0.0000
          19    0.2876    0.2025    0.0022    0.0013    0.2733   -0.2859    0.2541    0.2564
          20   -0.1365   -0.0884   -0.0337    0.0160   -0.0785    0.0827   -0.0729   -0.0739
          21    0.2685    0.2125    0.0012    0.0015   -0.3690    0.3861   -0.4066   -0.4106
          22    0.2871    0.2021    0.0022    0.0013   -0.2735    0.2860    0.2553    0.2577
          23   -0.1359   -0.0881   -0.0338    0.0161    0.0791   -0.0833   -0.0738   -0.0748
          24   -0.2693   -0.2131   -0.0012   -0.0015   -0.3676    0.3846    0.4067    0.4108
          25   -0.2873    0.2029   -0.0022   -0.0013    0.2860    0.2731    0.2572   -0.2536
          26   -0.1363    0.0885   -0.0337    0.0160    0.0823    0.0791    0.0738   -0.0731
          27    0.2683   -0.2130    0.0011    0.0015    0.3861    0.3687    0.4113   -0.4060
          28   -0.2869    0.2025   -0.0022   -0.0013   -0.2863   -0.2733    0.2582   -0.2546
          29   -0.1359    0.0883   -0.0337    0.0161   -0.0827   -0.0795    0.0745   -0.0738
          30   -0.2690    0.2134   -0.0012   -0.0015    0.3850    0.3676   -0.4113    0.4060
          31   -0.0262   -0.1506   -0.0443   -0.0134   -0.0000   -0.0000   -0.0033   -0.0182
          32   -0.0296    0.0849   -0.1385   -0.0243   -0.0000   -0.0000   -0.0020   -0.0207
          33   -0.0000    0.0000   -0.0001   -0.0000    0.0005   -0.0021   -0.0000   -0.0000
          34    0.0260   -0.1507    0.0443    0.0134    0.0000    0.0000   -0.0035    0.0182
          35   -0.0297   -0.0849   -0.1385   -0.0243   -0.0000   -0.0000    0.0022   -0.0208
          36   -0.0000   -0.0001   -0.0001   -0.0000   -0.0006   -0.0020    0.0000   -0.0000
          37    0.0074    0.0220    0.0176   -0.1249    0.0000    0.0000   -0.0008    0.0026
          38   -0.0138   -0.0649    0.0022   -0.0273    0.0000    0.0000   -0.0000    0.0008
          39    0.0000    0.0000    0.0000   -0.0000    0.0014   -0.0004    0.0000   -0.0000
          40   -0.0073    0.0223   -0.0176    0.1250    0.0000   -0.0000   -0.0009   -0.0026
          41   -0.0136    0.0653    0.0022   -0.0271   -0.0000    0.0000    0.0001    0.0008
          42    0.0000   -0.0000   -0.0000   -0.0000   -0.0014   -0.0004   -0.0000   -0.0000


   Root No.      33        34        35        36

                33 A      34 A      35 A      36 A   

                3120.4    3139.2    3144.3    3146.8
  
           1   -0.0000   -0.0100    0.0003    0.0005
           2   -0.0008    0.0036    0.0003    0.0023
           3   -0.0000   -0.0000    0.0000   -0.0000
           4   -0.0000    0.0100   -0.0002    0.0005
           5    0.0008    0.0036    0.0001   -0.0023
           6    0.0000   -0.0000    0.0000    0.0000
           7    0.0007   -0.0000   -0.0001   -0.0027
           8    0.0000    0.0059    0.0348   -0.0009
           9    0.0000    0.0000    0.0000    0.0000
          10   -0.1186   -0.1535   -0.0061    0.0004
          11   -0.1584   -0.1591   -0.0064    0.0002
          12   -0.0002   -0.0002   -0.0000   -0.0000
          13   -0.1183    0.1538    0.0061    0.0002
          14    0.1580   -0.1594   -0.0064   -0.0001
          15    0.0001   -0.0001   -0.0000   -0.0000
          16   -0.0003    0.0002   -0.0089   -0.3228
          17   -0.0000    0.0079   -0.2386    0.0066
          18    0.0000   -0.0000    0.0000    0.0000
          19    0.0015    0.0095   -0.0006    0.0004
          20   -0.0025   -0.0045    0.0002    0.0005
          21   -0.0028   -0.0154    0.0008   -0.0004
          22    0.0015    0.0096   -0.0006    0.0004
          23   -0.0025   -0.0046    0.0002    0.0005
          24    0.0028    0.0154   -0.0008    0.0004
          25    0.0015   -0.0095    0.0006    0.0004
          26    0.0025   -0.0045    0.0001   -0.0005
          27    0.0028   -0.0153    0.0007    0.0004
          28    0.0015   -0.0096    0.0006    0.0004
          29    0.0025   -0.0046    0.0001   -0.0005
          30   -0.0028    0.0154   -0.0007   -0.0004
          31    0.4050    0.4022    0.0151   -0.0007
          32    0.5457    0.5356    0.0201   -0.0010
          33    0.0006    0.0006    0.0000   -0.0000
          34    0.4042   -0.4031   -0.0152   -0.0003
          35   -0.5446    0.5366    0.0202    0.0005
          36   -0.0005    0.0005    0.0000    0.0000
          37    0.0008   -0.0228    0.6031    0.5422
          38    0.0006   -0.0138    0.3631    0.3583
          39   -0.0000   -0.0000   -0.0000   -0.0000
          40    0.0008    0.0222   -0.5723    0.5749
          41   -0.0005   -0.0133    0.3424   -0.3778
          42    0.0000   -0.0000   -0.0000    0.0000


          DESCRIPTION OF VIBRATIONS


 VIBRATION    1    1A         ATOM PAIR      ENERGY CONTRIBUTION    RADIAL
 FREQ.       120.90         C  2 -- C  5         +14.6% (377.6%)      0.0%
 T-DIPOLE    0.0728         C  1 -- C  4         +14.6% (377.4%)      0.0%
 TRAVEL      0.0568         C  2 -- C  3         +10.2% (315.8%)      0.0%
 RED. MASS   0.9532         C  1 -- C  3         +10.2% (315.7%)      0.0%
 EFF. MASS 173.0081

 VIBRATION    2    2A         ATOM PAIR      ENERGY CONTRIBUTION    RADIAL
 FREQ.       364.86         C  3 -- C  6         +23.7% (197.9%)      0.0%
 T-DIPOLE    0.0024         C  6 -- H 13         +12.6% (144.0%)     86.7%
 TRAVEL      0.0791         C  6 -- H 14         +12.6% (144.0%)     86.8%
 RED. MASS   1.1232         C  1 -- C  3          +7.3% (109.9%)      0.1%
 EFF. MASS  29.5010

 VIBRATION    3    3A         ATOM PAIR      ENERGY CONTRIBUTION    RADIAL
 FREQ.       370.67         C  4 -- C  5         +23.8% (124.0%)      0.0%
 T-DIPOLE    0.0007         C  1 -- C  4         +12.5% ( 89.7%)      0.0%
 TRAVEL      0.1054         C  2 -- C  5         +12.4% ( 89.5%)      0.0%
 RED. MASS   1.1712         C  1 -- H  8          +9.3% ( 77.4%)     11.5%
 EFF. MASS  16.3630

 VIBRATION    4    4A         ATOM PAIR      ENERGY CONTRIBUTION    RADIAL
 FREQ.       449.45         C  3 -- C  6         +22.0% (108.8%)      0.0%
 T-DIPOLE    0.3589         C  2 -- C  3         +18.8% (100.8%)      0.0%
 TRAVEL      0.1134         C  1 -- C  3         +18.8% (100.7%)      0.0%
 RED. MASS   2.9466         C  2 -- H  9          +9.5% ( 71.6%)      0.7%
 EFF. MASS  11.6605

 VIBRATION    5    5A         ATOM PAIR      ENERGY CONTRIBUTION    RADIAL
 FREQ.       614.19         C  6 -- H 14         +42.6% ( 82.6%)      0.0%
 T-DIPOLE    0.0005         C  6 -- H 13         +42.6% ( 82.6%)      0.0%
 TRAVEL      0.3192         C  1 -- H  7          +3.4% ( 23.5%)      0.5%
 RED. MASS   0.4245         C  2 -- H  9          +3.4% ( 23.5%)      0.5%
 EFF. MASS   1.0775

 VIBRATION    6    6A         ATOM PAIR      ENERGY CONTRIBUTION    RADIAL
 FREQ.       628.68         C  2 -- C  3         +13.7% (116.5%)      0.3%
 T-DIPOLE    0.1009         C  1 -- C  3         +13.7% (116.5%)      0.3%
 TRAVEL      0.0798         C  6 -- H 14         +12.6% (111.7%)     31.5%
 RED. MASS   1.7257         C  6 -- H 13         +12.6% (111.7%)     31.6%
 EFF. MASS  16.8513

 VIBRATION    7    7A         ATOM PAIR      ENERGY CONTRIBUTION    RADIAL
 FREQ.       744.17         C  5 -- H 12         +29.7% ( 71.3%)      0.0%
 T-DIPOLE    0.4881         C  4 -- H 11         +29.6% ( 71.1%)      0.0%
 TRAVEL      0.2013         C  2 -- H  9          +6.6% ( 33.6%)      6.6%
 RED. MASS   0.2943         C  2 -- H 10          +6.6% ( 33.6%)      6.7%
 EFF. MASS   2.2368

 VIBRATION    8    8A         ATOM PAIR      ENERGY CONTRIBUTION    RADIAL
 FREQ.       782.73         C  4 -- C  5         +21.8% (118.2%)      0.0%
 T-DIPOLE    0.0316         C  2 -- C  5         +16.4% (102.6%)      1.3%
 TRAVEL      0.0730         C  1 -- C  4         +16.4% (102.6%)      1.3%
 RED. MASS   2.6118         C  5 -- H 12         +10.4% ( 81.7%)     92.5%
 EFF. MASS  16.1728         C  4 -- H 11         +10.4% ( 81.7%)     92.4%

 VIBRATION    9    9A         ATOM PAIR      ENERGY CONTRIBUTION    RADIAL
 FREQ.       859.81         C  1 -- H  8         +13.9% ( 57.5%)     14.1%
 T-DIPOLE    0.0006         C  1 -- H  7         +13.9% ( 57.5%)     14.1%
 TRAVEL      0.1294         C  2 -- H 10         +13.9% ( 57.4%)     14.1%
 RED. MASS   0.5082         C  2 -- H  9         +13.9% ( 57.4%)     14.1%
 EFF. MASS   4.6853

 VIBRATION   10   10A         ATOM PAIR      ENERGY CONTRIBUTION    RADIAL
 FREQ.       916.19         C  6 -- H 13         +27.3% ( 83.7%)     11.1%
 T-DIPOLE    0.0269         C  6 -- H 14         +27.3% ( 83.6%)     11.0%
 TRAVEL      0.1115         C  3 -- C  6         +11.5% ( 54.4%)      0.0%
 RED. MASS   0.7350         C  1 -- C  3          +4.7% ( 34.7%)     63.0%
 EFF. MASS   5.9178

 VIBRATION   11   11A         ATOM PAIR      ENERGY CONTRIBUTION    RADIAL
 FREQ.       925.73         C  2 -- C  3         +12.6% ( 64.8%)     98.5%
 T-DIPOLE    0.0161         C  1 -- C  3         +12.5% ( 64.6%)     98.4%
 TRAVEL      0.0902         C  2 -- C  5          +8.9% ( 54.4%)      3.0%
 RED. MASS   1.0315         C  1 -- C  4          +8.8% ( 54.2%)      3.1%
 EFF. MASS   8.9596

 VIBRATION   12   12A         ATOM PAIR      ENERGY CONTRIBUTION    RADIAL
 FREQ.       953.94         C  2 -- H 10         +10.2% ( 45.0%)     15.9%
 T-DIPOLE    0.6147         C  2 -- H  9         +10.2% ( 45.0%)     15.9%
 TRAVEL      0.1126         C  1 -- H  8         +10.2% ( 44.9%)     15.9%
 RED. MASS   0.4657         C  1 -- H  7         +10.1% ( 44.9%)     15.9%
 EFF. MASS   5.5728

 VIBRATION   13   13A         ATOM PAIR      ENERGY CONTRIBUTION    RADIAL
 FREQ.       970.28         C  4 -- H 11         +14.8% ( 44.4%)      0.0%
 T-DIPOLE    0.0012         C  5 -- H 12         +14.7% ( 44.3%)      0.0%
 TRAVEL      0.1511         C  1 -- H  7         +12.3% ( 40.5%)      5.7%
 RED. MASS   0.2527         C  2 -- H  9         +12.2% ( 40.4%)      5.7%
 EFF. MASS   3.0436         C  1 -- H  8         +12.2% ( 40.4%)      5.8%
                            C  2 -- H 10         +12.2% ( 40.3%)      5.7%

 VIBRATION   14   14A         ATOM PAIR      ENERGY CONTRIBUTION    RADIAL
 FREQ.      1005.05         C  6 -- H 13         +24.5% ( 53.0%)      0.0%
 T-DIPOLE    0.3034         C  6 -- H 14         +24.5% ( 53.0%)      0.0%
 TRAVEL      0.1484         C  2 -- H 10          +7.8% ( 29.8%)      5.5%
 RED. MASS   0.4741         C  1 -- H  7          +7.7% ( 29.8%)      5.5%
 EFF. MASS   3.0482

 VIBRATION   15   15A         ATOM PAIR      ENERGY CONTRIBUTION    RADIAL
 FREQ.      1032.01         C  4 -- H 11         +14.5% ( 48.0%)      9.3%
 T-DIPOLE    0.1376         C  5 -- H 12         +14.5% ( 47.9%)      9.3%
 TRAVEL      0.1267         C  1 -- C  4         +10.3% ( 40.3%)     99.9%
 RED. MASS   0.2247         C  2 -- C  5         +10.2% ( 40.3%)     99.9%
 EFF. MASS   4.0711

 VIBRATION   16   16A         ATOM PAIR      ENERGY CONTRIBUTION    RADIAL
 FREQ.      1055.15         C  1 -- H  7         +13.6% ( 39.4%)      3.3%
 T-DIPOLE    0.0004         C  2 -- H  9         +13.5% ( 39.4%)      3.3%
 TRAVEL      0.1342         C  2 -- H 10         +13.5% ( 39.4%)      3.4%
 RED. MASS   0.5089         C  1 -- H  8         +13.5% ( 39.4%)      3.4%
 EFF. MASS   3.5484         C  4 -- H 11         +10.5% ( 34.7%)      0.0%
                            C  5 -- H 12         +10.5% ( 34.7%)      0.0%
                            C  4 -- C  5         +10.0% ( 33.9%)      0.0%

 VIBRATION   17   17A         ATOM PAIR      ENERGY CONTRIBUTION    RADIAL
 FREQ.      1076.07         C  2 -- H  9         +15.1% ( 40.9%)      3.4%
 T-DIPOLE    0.2030         C  1 -- H  7         +15.1% ( 40.9%)      3.4%
 TRAVEL      0.1366         C  2 -- H 10         +15.1% ( 40.8%)      3.4%
 RED. MASS   0.5418         C  1 -- H  8         +15.1% ( 40.8%)      3.4%
 EFF. MASS   3.3582

 VIBRATION   18   18A         ATOM PAIR      ENERGY CONTRIBUTION    RADIAL
 FREQ.      1086.17         C  5 -- H 12         +13.0% ( 44.2%)     23.9%
 T-DIPOLE    0.0469         C  4 -- H 11         +13.0% ( 44.2%)     23.9%
 TRAVEL      0.1217         C  2 -- C  5         +10.7% ( 40.1%)     99.8%
 RED. MASS   0.2514         C  1 -- C  4         +10.7% ( 40.0%)     99.8%
 EFF. MASS   4.1931

 VIBRATION   19   19A         ATOM PAIR      ENERGY CONTRIBUTION    RADIAL
 FREQ.      1117.85         C  4 -- H 11         +19.1% ( 58.9%)      7.4%
 T-DIPOLE    0.0013         C  5 -- H 12         +19.1% ( 58.9%)      7.4%
 TRAVEL      0.1070         C  1 -- C  4         +10.9% ( 44.5%)     97.0%
 RED. MASS   0.4286         C  2 -- C  5         +10.9% ( 44.5%)     97.0%
 EFF. MASS   5.2722         C  4 -- C  5         +10.0% ( 42.7%)    100.0%

 VIBRATION   20   20A         ATOM PAIR      ENERGY CONTRIBUTION    RADIAL
 FREQ.      1217.98         C  5 -- H 12         +12.5% ( 41.6%)      0.0%
 T-DIPOLE    0.0027         C  4 -- H 11         +12.5% ( 41.6%)      0.0%
 TRAVEL      0.1311         C  1 -- H  8          +9.6% ( 36.6%)      0.2%
 RED. MASS   0.3326         C  2 -- H 10          +9.6% ( 36.6%)      0.2%
 EFF. MASS   3.2193

 VIBRATION   21   21A         ATOM PAIR      ENERGY CONTRIBUTION    RADIAL
 FREQ.      1297.47         C  6 -- H 14         +16.6% ( 46.1%)      0.6%
 T-DIPOLE    0.0530         C  6 -- H 13         +16.5% ( 46.0%)      0.6%
 TRAVEL      0.1203         C  1 -- C  4          +8.8% ( 33.5%)     82.5%
 RED. MASS   0.3542         C  2 -- C  5          +8.7% ( 33.5%)     82.4%
 EFF. MASS   3.5903

 VIBRATION   22   22A         ATOM PAIR      ENERGY CONTRIBUTION    RADIAL
 FREQ.      1318.63         C  1 -- C  3         +14.9% ( 42.6%)     74.7%
 T-DIPOLE    0.0715         C  2 -- C  3         +14.9% ( 42.5%)     74.6%
 TRAVEL      0.1063         C  3 -- C  6         +13.5% ( 40.5%)      0.0%
 RED. MASS   0.7187         C  5 -- H 12          +7.3% ( 29.9%)      1.3%
 EFF. MASS   4.5229

 VIBRATION   23   23A         ATOM PAIR      ENERGY CONTRIBUTION    RADIAL
 FREQ.      1351.17         C  6 -- H 14         +11.0% ( 44.9%)      3.3%
 T-DIPOLE    0.1001         C  6 -- H 13         +11.0% ( 44.8%)      3.3%
 TRAVEL      0.0908         C  1 -- C  3          +9.2% ( 41.0%)     58.2%
 RED. MASS   0.8736         C  2 -- C  3          +9.2% ( 40.9%)     57.9%
 EFF. MASS   6.0491

 VIBRATION   24   24A         ATOM PAIR      ENERGY CONTRIBUTION    RADIAL
 FREQ.      1373.62         C  2 -- C  5         +13.5% ( 57.4%)     77.4%
 T-DIPOLE    0.1160         C  1 -- C  4         +13.4% ( 57.2%)     77.5%
 TRAVEL      0.0675         C  2 -- C  3         +12.1% ( 54.4%)     99.6%
 RED. MASS   2.0154         C  1 -- C  3         +12.1% ( 54.3%)     99.6%
 EFF. MASS  10.7702

 VIBRATION   25   25A         ATOM PAIR      ENERGY CONTRIBUTION    RADIAL
 FREQ.      1384.39         C  1 -- H  7         +15.9% ( 46.6%)      5.6%
 T-DIPOLE    0.0339         C  1 -- H  8         +15.9% ( 46.6%)      5.6%
 TRAVEL      0.1074         C  2 -- H  9         +15.9% ( 46.5%)      5.6%
 RED. MASS   0.5550         C  2 -- H 10         +15.9% ( 46.5%)      5.6%
 EFF. MASS   4.2202

 VIBRATION   26   26A         ATOM PAIR      ENERGY CONTRIBUTION    RADIAL
 FREQ.      1400.11         C  2 -- C  3         +13.2% ( 49.2%)     50.7%
 T-DIPOLE    0.1161         C  1 -- C  3         +13.2% ( 49.2%)     50.7%
 TRAVEL      0.0830         C  2 -- C  5         +10.0% ( 42.7%)     64.6%
 RED. MASS   0.8765         C  1 -- C  4          +9.9% ( 42.6%)     64.6%
 EFF. MASS   6.9921

 VIBRATION   27   27A         ATOM PAIR      ENERGY CONTRIBUTION    RADIAL
 FREQ.      1817.95         C  4 -- C  5         +45.1% ( 99.5%)    100.0%
 T-DIPOLE    0.0108         C  2 -- C  5         +13.7% ( 54.7%)     22.3%
 TRAVEL      0.0559         C  1 -- C  4         +13.7% ( 54.7%)     22.3%
 RED. MASS   5.2173         C  5 -- H 12         +12.7% ( 52.8%)     10.1%
 EFF. MASS  11.8589         C  4 -- H 11         +12.7% ( 52.8%)     10.1%

 VIBRATION   28   28A         ATOM PAIR      ENERGY CONTRIBUTION    RADIAL
 FREQ.      1917.87         C  3 -- C  6         +43.8% ( 98.2%)    100.0%
 T-DIPOLE    0.2626         C  1 -- C  3         +18.2% ( 63.4%)     39.6%
 TRAVEL      0.0544         C  2 -- C  3         +18.2% ( 63.4%)     39.6%
 RED. MASS   5.6085         C  6 -- H 14          +8.8% ( 44.0%)     11.6%
 EFF. MASS  11.9021

 VIBRATION   29   29A         ATOM PAIR      ENERGY CONTRIBUTION    RADIAL
 FREQ.      2971.48         C  2 -- H  9         +25.6% ( 52.5%)     96.7%
 T-DIPOLE    0.0019         C  2 -- H 10         +25.5% ( 52.4%)     96.7%
 TRAVEL      0.1217         C  1 -- H  7         +23.4% ( 50.1%)     96.7%
 RED. MASS   0.2592         C  1 -- H  8         +23.3% ( 50.0%)     96.7%
 EFF. MASS   1.5329

 VIBRATION   30   30A         ATOM PAIR      ENERGY CONTRIBUTION    RADIAL
 FREQ.      2972.29         C  1 -- H  7         +25.6% ( 52.5%)     96.7%
 T-DIPOLE    0.0823         C  1 -- H  8         +25.5% ( 52.4%)     96.7%
 TRAVEL      0.1215         C  2 -- H  9         +23.4% ( 50.1%)     96.7%
 RED. MASS   0.2596         C  2 -- H 10         +23.3% ( 50.0%)     96.7%
 EFF. MASS   1.5371

 VIBRATION   31   31A         ATOM PAIR      ENERGY CONTRIBUTION    RADIAL
 FREQ.      3044.78         C  2 -- H 10         +25.0% ( 49.3%)     97.5%
 T-DIPOLE    0.1715         C  2 -- H  9         +24.9% ( 49.3%)     97.5%
 TRAVEL      0.1317         C  1 -- H  8         +24.4% ( 48.8%)     97.6%
 RED. MASS   0.2421         C  1 -- H  7         +24.3% ( 48.7%)     97.5%
 EFF. MASS   1.2764

 VIBRATION   32   32A         ATOM PAIR      ENERGY CONTRIBUTION    RADIAL
 FREQ.      3046.00         C  1 -- H  8         +24.9% ( 49.3%)     97.4%
 T-DIPOLE    0.0399         C  1 -- H  7         +24.8% ( 49.2%)     97.4%
 TRAVEL      0.1309         C  2 -- H 10         +24.3% ( 48.7%)     97.4%
 RED. MASS   0.2415         C  2 -- H  9         +24.3% ( 48.7%)     97.4%
 EFF. MASS   1.2929

 VIBRATION   33   33A         ATOM PAIR      ENERGY CONTRIBUTION    RADIAL
 FREQ.      3120.44         C  4 -- H 11         +48.8% ( 71.0%)    100.0%
 T-DIPOLE    0.3838         C  5 -- H 12         +48.6% ( 70.8%)    100.0%
 TRAVEL      0.1215         C  4 -- C  5          +1.1% ( 10.8%)      0.0%
 RED. MASS   0.4649         C  1 -- C  4          +0.7% (  8.7%)     27.1%
 EFF. MASS   1.4643

 VIBRATION   34   34A         ATOM PAIR      ENERGY CONTRIBUTION    RADIAL
 FREQ.      3139.23         C  5 -- H 12         +47.8% ( 70.4%)     99.9%
 T-DIPOLE    0.3493         C  4 -- H 11         +47.6% ( 70.3%)     99.9%
 TRAVEL      0.1140         C  4 -- C  5          +2.5% ( 16.1%)    100.0%
 RED. MASS   0.4649         C  2 -- C  5          +0.9% (  9.9%)     20.5%
 EFF. MASS   1.6519

 VIBRATION   35   35A         ATOM PAIR      ENERGY CONTRIBUTION    RADIAL
 FREQ.      3144.33         C  6 -- H 13         +51.9% ( 72.0%)     95.7%
 T-DIPOLE    0.3148         C  6 -- H 14         +46.4% ( 68.1%)     94.7%
 TRAVEL      0.1242         C  3 -- C  6          +1.5% ( 12.4%)     99.9%
 RED. MASS   0.4860
 EFF. MASS   1.3907

 VIBRATION   36   36A         ATOM PAIR      ENERGY CONTRIBUTION    RADIAL
 FREQ.      3146.84         C  6 -- H 14         +52.0% ( 73.9%)     97.3%
 T-DIPOLE    0.1951         C  6 -- H 13         +46.8% ( 70.1%)     96.7%
 TRAVEL      0.1155         C  3 -- C  6          +1.3% ( 11.7%)      0.1%
 RED. MASS   0.5362
 EFF. MASS   1.6058

      SYMMETRY NUMBER FOR POINT-GROUP C1  =  1


          SYSTEM IS A GROUND STATE



 InChI=1S/C6H8/c1-6-4-2-3-5-6/h2-3H,1,4-5H2


          MOLECULE IS NOT LINEAR

          THERE ARE 36 GENUINE VIBRATIONS IN THIS SYSTEM
          THIS THERMODYNAMICS CALCULATION IS LIMITED TO
          MOLECULES WHICH HAVE NO INTERNAL ROTATIONS




                    CALCULATED THERMODYNAMIC PROPERTIES
                                          *
   TEMP. (K)   PARTITION FUNCTION   H.O.F.    ENTHALPY  HEAT CAPACITY ENTROPY
                                   KCAL/MOL   CAL/MOLE    CAL/K/MOL  CAL/K/MOL


 298.00  VIB.     0.4800D+01                  1639.3417    14.9767     8.6183
         ROT.     0.1089D+06                   888.2813     2.9808    26.0279
         INT.     0.5225D+06                  2527.6230    17.9575    34.6462
         TRA.     0.6934D+27                  1480.4688     4.9680    39.0554
         TOT.                       23.651    4008.0919    22.9255    73.7017

 200.00  VIB.     0.2164D+01                   550.5323     7.4827     4.2872
         ROT.     0.5985D+05                   596.1620     2.9808    24.8393
         INT.     0.1295D+06                  1146.6942    10.4635    29.1264
         TRA.     0.3813D+27                   993.6033     4.9680    37.0743
         TOT.                       21.783    2140.2975    15.4315    66.2007

 210.00  VIB.     0.2323D+01                   628.7521     8.1657     4.6687
         ROT.     0.6439D+05                   625.9700     2.9808    24.9847
         INT.     0.1496D+06                  1254.7221    11.1466    29.6533
         TRA.     0.4102D+27                  1043.2834     4.9680    37.3167
         TOT.                       21.941    2298.0055    16.1146    66.9700

 220.00  VIB.     0.2498D+01                   713.9326     8.8744     5.0648
         ROT.     0.6905D+05                   655.7781     2.9808    25.1234
         INT.     0.1725D+06                  1369.7107    11.8552    30.1881
         TRA.     0.4399D+27                  1092.9636     4.9680    37.5478
         TOT.                       22.106    2462.6743    16.8232    67.7359

 230.00  VIB.     0.2694D+01                   806.3175     9.6062     5.4753
         ROT.     0.7381D+05                   685.5862     2.9808    25.2559
         INT.     0.1989D+06                  1491.9038    12.5870    30.7312
         TRA.     0.4702D+27                  1142.6437     4.9680    37.7686
         TOT.                       22.278    2634.5475    17.5550    68.4998

 240.00  VIB.     0.2913D+01                   906.1250    10.3584     5.9000
         ROT.     0.7867D+05                   715.3943     2.9808    25.3827
         INT.     0.2292D+06                  1621.5193    13.3393    31.2827
         TRA.     0.5012D+27                  1192.3239     4.9680    37.9801
         TOT.                       22.457    2813.8432    18.3073    69.2628

 250.00  VIB.     0.3156D+01                  1013.5450    11.1282     6.3384
         ROT.     0.8364D+05                   745.2024     2.9808    25.5044
         INT.     0.2640D+06                  1758.7475    14.1091    31.8428
         TRA.     0.5328D+27                  1242.0041     4.9680    38.1829
         TOT.                       22.644    3000.7515    19.0771    70.0257

 260.00  VIB.     0.3429D+01                  1128.7388    11.9127     6.7901
         ROT.     0.8871D+05                   775.0105     2.9808    25.6213
         INT.     0.3042D+06                  1903.7493    14.8935    32.4114
         TRA.     0.5651D+27                  1291.6842     4.9680    38.3777
         TOT.                       22.839    3195.4335    19.8615    70.7891

 270.00  VIB.     0.3734D+01                  1251.8379    12.7089     7.2546
         ROT.     0.9388D+05                   804.8186     2.9808    25.7338
         INT.     0.3505D+06                  2056.6565    15.6897    32.9884
         TRA.     0.5980D+27                  1341.3644     4.9680    38.5652
         TOT.                       23.041    3398.0209    20.6577    71.5536

 280.00  VIB.     0.4076D+01                  1382.9453    13.5139     7.7313
         ROT.     0.9914D+05                   834.6267     2.9808    25.8422
         INT.     0.4041D+06                  2217.5721    16.4947    33.5735
         TRA.     0.6316D+27                  1391.0445     4.9680    38.7459
         TOT.                       23.252    3608.6166    21.4627    72.3194

 290.00  VIB.     0.4459D+01                  1522.1360    14.3250     8.2197
         ROT.     0.1045D+06                   864.4348     2.9808    25.9468
         INT.     0.4660D+06                  2386.5708    17.3059    34.1665
         TRA.     0.6657D+27                  1440.7247     4.9680    38.9202
         TOT.                       23.470    3827.2955    22.2739    73.0867

 300.00  VIB.     0.4890D+01                  1669.4581    15.1398     8.7190
         ROT.     0.1100D+06                   894.2429     2.9808    26.0479
         INT.     0.5377D+06                  2563.7011    18.1206    34.7669
         TRA.     0.7004D+27                  1490.4049     4.9680    39.0887
         TOT.                       23.697    4054.1059    23.0886    73.8556

 310.00  VIB.     0.5375D+01                  1824.9353    15.9557     9.2288
         ROT.     0.1155D+06                   924.0510     2.9808    26.1456
         INT.     0.6207D+06                  2748.9863    18.9365    35.3744
         TRA.     0.7357D+27                  1540.0850     4.9680    39.2516
         TOT.                       23.932    4289.0713    23.9045    74.6259

 320.00  VIB.     0.5920D+01                  1988.5679    16.7705     9.7482
         ROT.     0.1211D+06                   953.8591     2.9808    26.2402
         INT.     0.7171D+06                  2942.4270    19.7513    35.9885
         TRA.     0.7716D+27                  1589.7652     4.9680    39.4093
         TOT.                       24.175    4532.1922    24.7193    75.3977

 330.00  VIB.     0.6535D+01                  2160.3357    17.5824    10.2767
         ROT.     0.1268D+06                   983.6672     2.9808    26.3320
         INT.     0.8289D+06                  3144.0029    20.5632    36.6087
         TRA.     0.8081D+27                  1639.4454     4.9680    39.5622
         TOT.                       24.427    4783.4482    25.5312    76.1708

 340.00  VIB.     0.7228D+01                  2340.1993    18.3894    10.8136
         ROT.     0.1327D+06                  1013.4753     2.9808    26.4210
         INT.     0.9589D+06                  3353.6746    21.3702    37.2345
         TRA.     0.8451D+27                  1689.1255     4.9680    39.7105
         TOT.                       24.686    5042.8001    26.3382    76.9450

 350.00  VIB.     0.8011D+01                  2528.1028    19.1901    11.3582
         ROT.     0.1386D+06                  1043.2834     2.9808    26.5074
         INT.     0.1110D+07                  3571.3862    22.1709    37.8656
         TRA.     0.8827D+27                  1738.8057     4.9680    39.8545
         TOT.                       24.953    5310.1919    27.1389    77.7201

 360.00  VIB.     0.8896D+01                  2723.9756    19.9831    11.9100
         ROT.     0.1445D+06                  1073.0915     2.9808    26.5913
         INT.     0.1286D+07                  3797.0671    22.9639    38.5013
         TRA.     0.9207D+27                  1788.4859     4.9680    39.9944
         TOT.                       25.229    5585.5529    27.9319    78.4957

 370.00  VIB.     0.9898D+01                  2927.7341    20.7671    12.4682
         ROT.     0.1506D+06                  1102.8996     2.9808    26.6730
         INT.     0.1491D+07                  4030.6337    23.7479    39.1412
         TRA.     0.9594D+27                  1838.1660     4.9680    40.1306
         TOT.                       25.512    5868.7997    28.7159    79.2717

 380.00  VIB.     0.1103D+02                  3139.2840    21.5412    13.0323
         ROT.     0.1567D+06                  1132.7077     2.9808    26.7525
         INT.     0.1729D+07                  4271.9917    24.5220    39.7848
         TRA.     0.9985D+27                  1887.8462     4.9680    40.2630
         TOT.                       25.803    6159.8379    29.4900    80.0478

 390.00  VIB.     0.1232D+02                  3358.5218    22.3045    13.6017
         ROT.     0.1630D+06                  1162.5158     2.9808    26.8299
         INT.     0.2008D+07                  4521.0376    25.2853    40.4317
         TRA.     0.1038D+28                  1937.5263     4.9680    40.3921
         TOT.                       26.102    6458.5639    30.2533    80.8238

 400.00  VIB.     0.1378D+02                  3585.3362    23.0564    14.1759
         ROT.     0.1693D+06                  1192.3239     2.9808    26.9054
         INT.     0.2332D+07                  4777.6601    26.0372    41.0813
         TRA.     0.1078D+28                  1987.2065     4.9680    40.5179
         TOT.                       26.408    6764.8666    31.0052    81.5992

   *: NOTE: HEATS OF FORMATION ARE RELATIVE TO THE
            ELEMENTS IN THEIR STANDARD STATE AT 298K
              (=  Standard Enthalpy of Formation).

            Hvib:  Zero-point energy is not included.
                   frequencies of less than zero cm-1 are not included.
            Hrot = (3/2)RT
            Htra = (3/2)RT + pV = (5/2)RT

            Heat capacity is Cp, not Cv

          For more information, see: HTTP://OpenMOPAC.net/Manual/thermochemistry.html


           FORCE CONSTANT IN CARTESIAN COORDINATES (Millidynes/A)

    ATOM   CHEMICAL       X               Y               Z
   NUMBER   SYMBOL  FORCE CONSTANT  FORCE CONSTANT  FORCE CONSTANT

      1       C        9.550423        8.326126        7.856360
      2       C        9.550571        8.326642        7.856001
      3       C        8.231863       16.985498        2.750040
      4       C       15.037460        9.955197        2.354121
      5       C       15.038841        9.955139        2.353670
      6       C        9.158758       15.511806        1.955478
      7       H        2.002653        0.757390        3.544786
      8       H        2.009617        0.759850        3.536110
      9       H        2.002967        0.757729        3.544232
     10       H        2.009411        0.759549        3.536492
     11       H        2.378431        3.705079        0.349845
     12       H        2.379243        3.704460        0.349380
     13       H        4.077135        2.034525        0.333679
     14       H        4.079141        2.034274        0.333649

 **********************
 *                    *
 * JOB ENDED NORMALLY *
 *                    *
 **********************



 TOTAL JOB TIME:             3.10 SECONDS

 == MOPAC DONE ==
