 *******************************************************************************
 ** Site#: 14399        For non-commercial use only    Version 18.184L 64BITS **
 *******************************************************************************
 ** Cite this program as: MOPAC2016, Version: 18.184L, James J. P. Stewart,   **
 ** Stewart Computational Chemistry, web: HTTP://OpenMOPAC.net. Days left:  20**
 *******************************************************************************
 **                                                                           **
 **                                MOPAC2016                                  **
 **                                                                           **
 *******************************************************************************

                              PM3 CALCULATION RESULTS

 *******************************************************************************
 *  CALCULATION DONE:                                Thu Jun 13 15:55:15 2019  *
 *  PM3        - The PM3 Hamiltonian to be used
 *  PRECISE    - CRITERIA TO BE INCREASED BY 100 TIMES
 *  NOSYM      - POINT-GROUP SYMMETRY SET TO C1
 *  THREADS=1  - MULTI-THREADING NOT USED
 *  T=         - A TIME OF 172800.0 SECONDS REQUESTED
 *  DUMP=N     - RESTART FILE WRITTEN EVERY  7200.000 SECONDS
 *******************************************************************************
pm3  precise nosym THREADS=1
 InChI=1S/C10H12/c1-8-6-7-9-4-2-3-5-10(8)9/h3-6,10H,2,7H2,1H3

   ATOM   CHEMICAL          X               Y               Z
  NUMBER   SYMBOL      (ANGSTROMS)     (ANGSTROMS)     (ANGSTROMS)
 
     1       C         -0.18050000  *  -0.44910000  *   0.45320000  *
     2       C         -0.46790000  *   2.00050000  *   0.23480000  *
     3       C          2.67190000  *  -0.23590000  *   0.28970000  *
     4       C         -2.63470000  *  -1.05960000  *  -0.34060000  *
     5       C          0.49290000  *   0.89030000  *   0.50320000  *
     6       C         -1.53450000  *  -0.07890000  *  -0.06380000  *
     7       C         -1.69650000  *   1.24400000  *  -0.15200000  *
     8       C          1.82860000  *   1.01090000  *   0.42430000  *
     9       C          0.59230000  *  -1.38620000  *  -0.44830000  *
    10       C          1.93530000  *  -1.29800000  *  -0.50370000  *
    11       H         -0.26030000  *  -0.88170000  *   1.47360000  *
    12       H         -0.12810000  *   2.63240000  *  -0.61360000  *
    13       H         -0.64340000  *   2.60660000  *   1.14810000  *
    14       H          2.89700000  *  -0.63310000  *   1.30190000  *
    15       H          3.62860000  *   0.01290000  *  -0.21600000  *
    16       H         -2.29480000  *  -2.09500000  *  -0.12980000  *
    17       H         -2.93820000  *  -0.98960000  *  -1.40610000  *
    18       H         -3.50930000  *  -0.83520000  *   0.30560000  *
    19       H         -2.62300000  *   1.71770000  *  -0.46150000  *
    20       H          0.08000000  *  -2.16790000  *  -1.00070000  *
    21       H          2.49700000  *  -1.99450000  *  -1.11820000  *
    22       H          2.28770000  *   1.98950000  *   0.31980000  *
 


          CARTESIAN COORDINATES 

    NO.       ATOM           X           Y           Z

     1         C         -0.1805     -0.4491      0.4532
     2         C         -0.4679      2.0005      0.2348
     3         C          2.6719     -0.2359      0.2897
     4         C         -2.6347     -1.0596     -0.3406
     5         C          0.4929      0.8903      0.5032
     6         C         -1.5345     -0.0789     -0.0638
     7         C         -1.6965      1.2440     -0.1520
     8         C          1.8286      1.0109      0.4243
     9         C          0.5923     -1.3862     -0.4483
    10         C          1.9353     -1.2980     -0.5037
    11         H         -0.2603     -0.8817      1.4736
    12         H         -0.1281      2.6324     -0.6136
    13         H         -0.6434      2.6066      1.1481
    14         H          2.8970     -0.6331      1.3019
    15         H          3.6286      0.0129     -0.2160
    16         H         -2.2948     -2.0950     -0.1298
    17         H         -2.9382     -0.9896     -1.4061
    18         H         -3.5093     -0.8352      0.3056
    19         H         -2.6230      1.7177     -0.4615
    20         H          0.0800     -2.1679     -1.0007
    21         H          2.4970     -1.9945     -1.1182
    22         H          2.2877      1.9895      0.3198

  H: (PM3): J. J. P. STEWART, J. COMP. CHEM. 10, 209 (1989).
  C: (PM3): J. J. P. STEWART, J. COMP. CHEM. 10, 209 (1989).

           Empirical Formula: C10 H12  =    22 atoms



      MOLECULAR POINT GROUP   :   C1  


      RHF CALCULATION, NO. OF DOUBLY OCCUPIED LEVELS = 26


          Geometry optimization using EF

          DIAGONAL MATRIX USED AS START HESSIAN

 CYCLE:     1 TIME:   0.031 TIME LEFT:  2.00D  GRAD.:    88.105 HEAT:  35.90338
 CYCLE:     2 TIME:   0.047 TIME LEFT:  2.00D  GRAD.:    62.277 HEAT:  34.23477
 CYCLE:     3 TIME:   0.027 TIME LEFT:  2.00D  GRAD.:    50.631 HEAT:  33.34692
 CYCLE:     4 TIME:   0.027 TIME LEFT:  2.00D  GRAD.:    41.434 HEAT:  32.92378
 CYCLE:     5 TIME:   0.027 TIME LEFT:  2.00D  GRAD.:    38.044 HEAT:  32.63191
 CYCLE:     6 TIME:   0.023 TIME LEFT:  2.00D  GRAD.:    23.408 HEAT:  32.33331
 CYCLE:     7 TIME:   0.031 TIME LEFT:  2.00D  GRAD.:    22.469 HEAT:  32.16638
 CYCLE:     8 TIME:   0.027 TIME LEFT:  2.00D  GRAD.:    26.607 HEAT:  32.08081
 CYCLE:     9 TIME:   0.023 TIME LEFT:  2.00D  GRAD.:    26.513 HEAT:  31.91575
 CYCLE:    10 TIME:   0.027 TIME LEFT:  2.00D  GRAD.:    20.727 HEAT:  31.80746
 CYCLE:    11 TIME:   0.027 TIME LEFT:  2.00D  GRAD.:    16.659 HEAT:  31.69015
 CYCLE:    12 TIME:   0.023 TIME LEFT:  2.00D  GRAD.:    25.593 HEAT:  31.68025
 CYCLE:    13 TIME:   0.023 TIME LEFT:  2.00D  GRAD.:    22.585 HEAT:  31.59821
 CYCLE:    14 TIME:   0.031 TIME LEFT:  2.00D  GRAD.:    18.368 HEAT:  31.50886
 CYCLE:    15 TIME:   0.023 TIME LEFT:  2.00D  GRAD.:    16.229 HEAT:  31.47929
 CYCLE:    16 TIME:   0.023 TIME LEFT:  2.00D  GRAD.:    14.881 HEAT:  31.42672
 CYCLE:    17 TIME:   0.031 TIME LEFT:  2.00D  GRAD.:    13.161 HEAT:  31.40156
 CYCLE:    18 TIME:   0.027 TIME LEFT:  2.00D  GRAD.:     5.746 HEAT:  31.34749
 CYCLE:    19 TIME:   0.023 TIME LEFT:  2.00D  GRAD.:    11.950 HEAT:  31.32806
 CYCLE:    20 TIME:   0.020 TIME LEFT:  2.00D  GRAD.:    13.042 HEAT:  31.29522
 CYCLE:    21 TIME:   0.023 TIME LEFT:  2.00D  GRAD.:    10.012 HEAT:  31.24988
 CYCLE:    22 TIME:   0.023 TIME LEFT:  2.00D  GRAD.:    10.167 HEAT:  31.21685
 CYCLE:    23 TIME:   0.023 TIME LEFT:  2.00D  GRAD.:     8.429 HEAT:  31.18907
 CYCLE:    24 TIME:   0.023 TIME LEFT:  2.00D  GRAD.:     7.079 HEAT:  31.17401
 CYCLE:    25 TIME:   0.023 TIME LEFT:  2.00D  GRAD.:     5.576 HEAT:  31.15761
 CYCLE:    26 TIME:   0.023 TIME LEFT:  2.00D  GRAD.:     5.577 HEAT:  31.14705
 CYCLE:    27 TIME:   0.020 TIME LEFT:  2.00D  GRAD.:     4.199 HEAT:  31.13236
 CYCLE:    28 TIME:   0.023 TIME LEFT:  2.00D  GRAD.:     4.627 HEAT:  31.12082
 CYCLE:    29 TIME:   0.023 TIME LEFT:  2.00D  GRAD.:     4.267 HEAT:  31.10764
 CYCLE:    30 TIME:   0.023 TIME LEFT:  2.00D  GRAD.:     3.964 HEAT:  31.10096
 CYCLE:    31 TIME:   0.023 TIME LEFT:  2.00D  GRAD.:     2.630 HEAT:  31.09155
 CYCLE:    32 TIME:   0.023 TIME LEFT:  2.00D  GRAD.:     2.622 HEAT:  31.08251
 CYCLE:    33 TIME:   0.023 TIME LEFT:  2.00D  GRAD.:     3.073 HEAT:  31.07051
 CYCLE:    34 TIME:   0.020 TIME LEFT:  2.00D  GRAD.:     2.803 HEAT:  31.05912
 CYCLE:    35 TIME:   0.023 TIME LEFT:  2.00D  GRAD.:     2.377 HEAT:  31.04818
 CYCLE:    36 TIME:   0.023 TIME LEFT:  2.00D  GRAD.:     2.502 HEAT:  31.04049
 CYCLE:    37 TIME:   0.023 TIME LEFT:  2.00D  GRAD.:     1.700 HEAT:  31.03616
 CYCLE:    38 TIME:   0.023 TIME LEFT:  2.00D  GRAD.:     1.389 HEAT:  31.03281
 CYCLE:    39 TIME:   0.023 TIME LEFT:  2.00D  GRAD.:     1.572 HEAT:  31.02782
 CYCLE:    40 TIME:   0.020 TIME LEFT:  2.00D  GRAD.:     1.635 HEAT:  31.02414
 CYCLE:    41 TIME:   0.023 TIME LEFT:  2.00D  GRAD.:     1.473 HEAT:  31.02081
 CYCLE:    42 TIME:   0.023 TIME LEFT:  2.00D  GRAD.:     1.215 HEAT:  31.01809
 CYCLE:    43 TIME:   0.023 TIME LEFT:  2.00D  GRAD.:     1.201 HEAT:  31.01537
 CYCLE:    44 TIME:   0.023 TIME LEFT:  2.00D  GRAD.:     1.448 HEAT:  31.01152
 CYCLE:    45 TIME:   0.023 TIME LEFT:  2.00D  GRAD.:     1.575 HEAT:  31.00610
 CYCLE:    46 TIME:   0.023 TIME LEFT:  2.00D  GRAD.:     1.469 HEAT:  31.00145
 CYCLE:    47 TIME:   0.020 TIME LEFT:  2.00D  GRAD.:     1.171 HEAT:  30.99734
 CYCLE:    48 TIME:   0.023 TIME LEFT:  2.00D  GRAD.:     1.060 HEAT:  30.99374
 CYCLE:    49 TIME:   0.023 TIME LEFT:  2.00D  GRAD.:     1.050 HEAT:  30.99045
 CYCLE:    50 TIME:   0.023 TIME LEFT:  2.00D  GRAD.:     0.910 HEAT:  30.98807
 CYCLE:    51 TIME:   0.023 TIME LEFT:  2.00D  GRAD.:     0.777 HEAT:  30.98632
 CYCLE:    52 TIME:   0.023 TIME LEFT:  2.00D  GRAD.:     0.789 HEAT:  30.98474
 CYCLE:    53 TIME:   0.023 TIME LEFT:  2.00D  GRAD.:     0.838 HEAT:  30.98313
 CYCLE:    54 TIME:   0.020 TIME LEFT:  2.00D  GRAD.:     0.736 HEAT:  30.98167
 CYCLE:    55 TIME:   0.023 TIME LEFT:  2.00D  GRAD.:     0.627 HEAT:  30.98060
 CYCLE:    56 TIME:   0.023 TIME LEFT:  2.00D  GRAD.:     0.646 HEAT:  30.97963
 CYCLE:    57 TIME:   0.023 TIME LEFT:  2.00D  GRAD.:     0.762 HEAT:  30.97836
 CYCLE:    58 TIME:   0.023 TIME LEFT:  2.00D  GRAD.:     0.822 HEAT:  30.97674
 CYCLE:    59 TIME:   0.023 TIME LEFT:  2.00D  GRAD.:     0.914 HEAT:  30.97475
 CYCLE:    60 TIME:   0.020 TIME LEFT:  2.00D  GRAD.:     0.843 HEAT:  30.97346
 CYCLE:    61 TIME:   0.027 TIME LEFT:  2.00D  GRAD.:     1.647 HEAT:  30.96951
 CYCLE:    62 TIME:   0.020 TIME LEFT:  2.00D  GRAD.:     1.221 HEAT:  30.96721
 CYCLE:    63 TIME:   0.023 TIME LEFT:  2.00D  GRAD.:     1.823 HEAT:  30.95824
 CYCLE:    64 TIME:   0.023 TIME LEFT:  2.00D  GRAD.:     1.675 HEAT:  30.95367
 CYCLE:    65 TIME:   0.023 TIME LEFT:  2.00D  GRAD.:     5.424 HEAT:  30.94726
 CYCLE:    66 TIME:   0.031 TIME LEFT:  2.00D  GRAD.:     5.173 HEAT:  30.94092
 CYCLE:    67 TIME:   0.023 TIME LEFT:  2.00D  GRAD.:     1.811 HEAT:  30.92278
 CYCLE:    68 TIME:   0.023 TIME LEFT:  2.00D  GRAD.:     1.711 HEAT:  30.91327
 CYCLE:    69 TIME:   0.023 TIME LEFT:  2.00D  GRAD.:     5.724 HEAT:  30.89766
 CYCLE:    70 TIME:   0.023 TIME LEFT:  2.00D  GRAD.:     3.094 HEAT:  30.88648
 CYCLE:    71 TIME:   0.023 TIME LEFT:  2.00D  GRAD.:     2.515 HEAT:  30.86911
 CYCLE:    72 TIME:   0.031 TIME LEFT:  2.00D  GRAD.:     3.956 HEAT:  30.83636
 CYCLE:    73 TIME:   0.023 TIME LEFT:  2.00D  GRAD.:     4.276 HEAT:  30.81558
 CYCLE:    74 TIME:   0.023 TIME LEFT:  2.00D  GRAD.:     7.023 HEAT:  30.80008
 CYCLE:    75 TIME:   0.023 TIME LEFT:  2.00D  GRAD.:     6.382 HEAT:  30.76807
 CYCLE:    76 TIME:   0.023 TIME LEFT:  2.00D  GRAD.:     3.331 HEAT:  30.75505
 CYCLE:    77 TIME:   0.023 TIME LEFT:  2.00D  GRAD.:     1.892 HEAT:  30.73545
 CYCLE:    78 TIME:   0.023 TIME LEFT:  2.00D  GRAD.:     3.551 HEAT:  30.71585
 CYCLE:    79 TIME:   0.023 TIME LEFT:  2.00D  GRAD.:     3.430 HEAT:  30.70035
 CYCLE:    80 TIME:   0.020 TIME LEFT:  2.00D  GRAD.:     2.295 HEAT:  30.68374
 CYCLE:    81 TIME:   0.023 TIME LEFT:  2.00D  GRAD.:     3.308 HEAT:  30.67610
 CYCLE:    82 TIME:   0.023 TIME LEFT:  2.00D  GRAD.:     2.629 HEAT:  30.66526
 CYCLE:    83 TIME:   0.023 TIME LEFT:  2.00D  GRAD.:     2.689 HEAT:  30.65678
 CYCLE:    84 TIME:   0.023 TIME LEFT:  2.00D  GRAD.:     1.858 HEAT:  30.64912
 CYCLE:    85 TIME:   0.023 TIME LEFT:  2.00D  GRAD.:     2.267 HEAT:  30.63468
 CYCLE:    86 TIME:   0.023 TIME LEFT:  2.00D  GRAD.:     2.476 HEAT:  30.61582
 CYCLE:    87 TIME:   0.023 TIME LEFT:  2.00D  GRAD.:     3.247 HEAT:  30.60965
 CYCLE:    88 TIME:   0.020 TIME LEFT:  2.00D  GRAD.:     3.000 HEAT:  30.59628
 CYCLE:    89 TIME:   0.031 TIME LEFT:  2.00D  GRAD.:     2.473 HEAT:  30.58454
 CYCLE:    90 TIME:   0.125 TIME LEFT:  2.00D  GRAD.:     3.013 HEAT:  30.57123
 CYCLE:    91 TIME:   0.023 TIME LEFT:  2.00D  GRAD.:     2.641 HEAT:  30.56260
 CYCLE:    92 TIME:   0.020 TIME LEFT:  2.00D  GRAD.:     2.292 HEAT:  30.55556
 CYCLE:    93 TIME:   0.023 TIME LEFT:  2.00D  GRAD.:     1.915 HEAT:  30.54778
 CYCLE:    94 TIME:   0.023 TIME LEFT:  2.00D  GRAD.:     1.372 HEAT:  30.54027
 CYCLE:    95 TIME:   0.023 TIME LEFT:  2.00D  GRAD.:     2.561 HEAT:  30.53661
 CYCLE:    96 TIME:   0.023 TIME LEFT:  2.00D  GRAD.:     3.041 HEAT:  30.53680
 CYCLE:    97 TIME:   0.023 TIME LEFT:  2.00D  GRAD.:     1.134 HEAT:  30.52979
 CYCLE:    98 TIME:   0.023 TIME LEFT:  2.00D  GRAD.:     0.769 HEAT:  30.52804
 CYCLE:    99 TIME:   0.023 TIME LEFT:  2.00D  GRAD.:     1.142 HEAT:  30.52560
 CYCLE:   100 TIME:   0.066 TIME LEFT:  2.00D  GRAD.:     1.047 HEAT:  30.52341
 CYCLE:   101 TIME:   0.023 TIME LEFT:  2.00D  GRAD.:     1.306 HEAT:  30.51978
 CYCLE:   102 TIME:   0.023 TIME LEFT:  2.00D  GRAD.:     2.984 HEAT:  30.52181
 CYCLE:   103 TIME:   0.023 TIME LEFT:  2.00D  GRAD.:     0.529 HEAT:  30.51697
 CYCLE:   104 TIME:   0.020 TIME LEFT:  2.00D  GRAD.:     0.403 HEAT:  30.51650
 CYCLE:   105 TIME:   0.023 TIME LEFT:  2.00D  GRAD.:     0.352 HEAT:  30.51585
 CYCLE:   106 TIME:   0.023 TIME LEFT:  2.00D  GRAD.:     0.270 HEAT:  30.51564
 CYCLE:   107 TIME:   0.023 TIME LEFT:  2.00D  GRAD.:     0.176 HEAT:  30.51554
 CYCLE:   108 TIME:   0.023 TIME LEFT:  2.00D  GRAD.:     0.169 HEAT:  30.51543
 CYCLE:   109 TIME:   0.023 TIME LEFT:  2.00D  GRAD.:     0.104 HEAT:  30.51540
 CYCLE:   110 TIME:   0.020 TIME LEFT:  2.00D  GRAD.:     0.181 HEAT:  30.51540
 CYCLE:   111 TIME:   0.023 TIME LEFT:  2.00D  GRAD.:     0.067 HEAT:  30.51535
 CYCLE:   112 TIME:   0.023 TIME LEFT:  2.00D  GRAD.:     0.062 HEAT:  30.51534
 CYCLE:   113 TIME:   0.023 TIME LEFT:  2.00D  GRAD.:     0.061 HEAT:  30.51532
 CYCLE:   114 TIME:   0.023 TIME LEFT:  2.00D  GRAD.:     0.053 HEAT:  30.51531
 CYCLE:   115 TIME:   0.023 TIME LEFT:  2.00D  GRAD.:     0.037 HEAT:  30.51531

     GRADIENT =  0.03725  IS LESS THAN CUTOFF =  0.05000



 -------------------------------------------------------------------------------
 pm3  precise nosym THREADS=1
 InChI=1S/C10H12/c1-8-6-7-9-4-2-3-5-10(8)9/h3-6,10H,2,7H2,1H3



     GEOMETRY OPTIMISED USING EIGENVECTOR FOLLOWING (EF).     
     SCF FIELD WAS ACHIEVED                                   


                              PM3 CALCULATION
                                                       MOPAC2016 (Version: 18.184L)
                                                       Thu Jun 13 15:55:18 2019
                                                       No. of days remaining =  20




          FINAL HEAT OF FORMATION =         30.51531 KCAL/MOL =     127.67604 KJ/MOL


          TOTAL ENERGY            =      -1369.07303 EV
          ELECTRONIC ENERGY       =      -7551.13053 EV  POINT GROUP:     C1  
          CORE-CORE REPULSION     =       6182.05750 EV
          COSMO AREA              =        174.70 SQUARE ANGSTROMS
          COSMO VOLUME            =        178.19 CUBIC ANGSTROMS

          GRADIENT NORM           =          0.03725 = 0.00794 PER ATOM
          IONIZATION POTENTIAL    =          9.093566 EV
          HOMO LUMO ENERGIES (EV) =         -9.094  0.963
          NO. OF FILLED LEVELS    =         26
          MOLECULAR WEIGHT        =        132.2048

          MOLECULAR DIMENSIONS (Angstroms)

            Atom       Atom       Distance
            H    18    H    15     7.16843
            H    21    H    13     5.41822
            H    12    H    11     3.25414


          SCF CALCULATIONS        =        125
 
          WALL-CLOCK TIME         =          2.953 SECONDS
          COMPUTATION TIME        =          1.219 SECONDS




   ATOM   CHEMICAL          X               Y               Z
  NUMBER   SYMBOL      (ANGSTROMS)     (ANGSTROMS)     (ANGSTROMS)
 
     1       C         -0.18536855  *  -0.42284903  *   0.40955326  *
     2       C         -0.50152208  *   2.00271916  *   0.35438848  *
     3       C          2.67330852  *  -0.22686371  *   0.19004519  *
     4       C         -2.57720469  *  -1.08097933  *  -0.41308270  *
     5       C          0.52286908  *   0.91176414  *   0.42336875  *
     6       C         -1.57489225  *  -0.06084064  *  -0.06045213  *
     7       C         -1.74859363  *   1.27278389  *  -0.05551441  *
     8       C          1.85036585  *   1.00753761  *   0.34175519  *
     9       C          0.58101296  *  -1.41937533  *  -0.38927032  *
    10       C          1.91243302  *  -1.33348426  *  -0.46261192  *
    11       H         -0.26140695  *  -0.82096122  *   1.45339863  *
    12       H         -0.22654998  *   2.78760420  *  -0.37374548  *
    13       H         -0.63374166  *   2.50617775  *   1.33067922  *
    14       H          3.02890356  *  -0.56540633  *   1.18510999  *
    15       H          3.58248176  *   0.00206340  *  -0.39917264  *
    16       H         -2.71347549  *  -1.79484549  *   0.41032432  *
    17       H         -2.25812300  *  -1.65072847  *  -1.29714782  *
    18       H         -3.55376747  *  -0.63316562  *  -0.63741865  *
    19       H         -2.66318946  *   1.80760837  *  -0.30987385  *
    20       H          0.01494151  *  -2.21574867  *  -0.88288173  *
    21       H          2.50001943  *  -2.07596408  *  -1.01197688  *
    22       H          2.36521769  *   1.97261720  *   0.33816796  *

                             CARTESIAN COORDINATES

   1    C       -0.185368551    -0.422849028     0.409553256
   2    C       -0.501522082     2.002719157     0.354388482
   3    C        2.673308520    -0.226863706     0.190045186
   4    C       -2.577204688    -1.080979328    -0.413082705
   5    C        0.522869080     0.911764142     0.423368752
   6    C       -1.574892249    -0.060840643    -0.060452133
   7    C       -1.748593628     1.272783890    -0.055514409
   8    C        1.850365848     1.007537614     0.341755194
   9    C        0.581012961    -1.419375325    -0.389270321
  10    C        1.912433019    -1.333484265    -0.462611916
  11    H       -0.261406949    -0.820961220     1.453398628
  12    H       -0.226549978     2.787604196    -0.373745483
  13    H       -0.633741664     2.506177746     1.330679217
  14    H        3.028903556    -0.565406333     1.185109987
  15    H        3.582481763     0.002063403    -0.399172640
  16    H       -2.713475489    -1.794845495     0.410324318
  17    H       -2.258122998    -1.650728467    -1.297147823
  18    H       -3.553767471    -0.633165624    -0.637418652
  19    H       -2.663189455     1.807608374    -0.309873853
  20    H        0.014941512    -2.215748669    -0.882881728
  21    H        2.500019432    -2.075964079    -1.011976882
  22    H        2.365217694     1.972617200     0.338167961


           Empirical Formula: C10 H12  =    22 atoms



      MOLECULAR POINT GROUP   :   C1  


                  EIGENVALUES  
 -41.70571 -35.59821 -32.14848 -28.87502 -27.08998 -24.42906 -21.59157 -20.01744
 -18.74167 -16.86441 -16.44285 -16.04294 -15.80664 -14.93727 -14.42138 -14.24343
 -14.04931 -13.85284 -13.18724 -12.96763 -12.73771 -12.46012 -11.64053 -10.05880
  -9.73274  -9.09357   0.96270   1.00423   1.19628   3.23439   3.29540   3.42755
   3.55528   3.59754   3.75312   3.91927   4.03032   4.15996   4.33424   4.35020
   4.37533   4.44372   4.53208   4.62035   4.65663   4.77315   5.35036   5.45324
   5.56837   5.97923   6.13392   6.18660


              NET ATOMIC CHARGES AND DIPOLE CONTRIBUTIONS

  ATOM NO.   TYPE          CHARGE      No. of ELECS.   s-Pop       p-Pop       
    1          C           0.034808        3.9652     1.14250     2.82269
    2          C          -0.009669        4.0097     1.13630     2.87337
    3          C          -0.018250        4.0183     1.13297     2.88528
    4          C          -0.051549        4.0515     1.11731     2.93424
    5          C          -0.129854        4.1299     1.20711     2.92274
    6          C          -0.123016        4.1230     1.20373     2.91929
    7          C          -0.160495        4.1605     1.20262     2.95787
    8          C          -0.145598        4.1456     1.18852     2.95708
    9          C          -0.136587        4.1366     1.19315     2.94344
   10          C          -0.149696        4.1497     1.19576     2.95394
   11          H           0.082644        0.9174     0.91736
   12          H           0.062037        0.9380     0.93796
   13          H           0.063384        0.9366     0.93662
   14          H           0.063132        0.9369     0.93687
   15          H           0.055611        0.9444     0.94439
   16          H           0.044822        0.9552     0.95518
   17          H           0.047819        0.9522     0.95218
   18          H           0.042977        0.9570     0.95702
   19          H           0.114401        0.8856     0.88560
   20          H           0.107075        0.8929     0.89292
   21          H           0.100068        0.8999     0.89993
   22          H           0.105936        0.8941     0.89406
 DIPOLE           X         Y         Z       TOTAL
 POINT-CHG.    -0.078    -0.144     0.145     0.219
 HYBRID         0.013     0.002    -0.022     0.026
 SUM           -0.064    -0.142     0.122     0.199


          ATOMIC ORBITAL ELECTRON POPULATIONS

     Atom    s        px        py        pz   
    1  C   1.14250   0.91250   0.92769   0.98250
    2  C   1.13630   0.92082   0.95064   1.00190
    3  C   1.13297   0.96418   0.92753   0.99357
    4  C   1.11731   0.96396   0.96943   1.00086
    5  C   1.20711   0.95268   0.96073   1.00934
    6  C   1.20373   0.95827   0.95714   1.00387
    7  C   1.20262   0.98359   0.95028   1.02400
    8  C   1.18852   0.94802   0.98115   1.02791
    9  C   1.19315   0.95538   0.98755   1.00051
   10  C   1.19576   0.95922   0.98719   1.00753
   11  H   0.91736
   12  H   0.93796
   13  H   0.93662
   14  H   0.93687
   15  H   0.94439
   16  H   0.95518
   17  H   0.95218
   18  H   0.95702
   19  H   0.88560
   20  H   0.89292
   21  H   0.89993
   22  H   0.89406
 *******************************************************************************
 ** Site#: 14399        For non-commercial use only    Version 18.184L 64BITS **
 *******************************************************************************
 ** Cite this program as: MOPAC2016, Version: 18.184L, James J. P. Stewart,   **
 ** Stewart Computational Chemistry, web: HTTP://OpenMOPAC.net. Days left:  20**
 *******************************************************************************
 **                                                                           **
 **                                MOPAC2016                                  **
 **                                                                           **
 *******************************************************************************

                              PM3 CALCULATION RESULTS

 *******************************************************************************
 *  CALCULATION DONE:                                Thu Jun 13 15:55:18 2019  *
 *  PM3        - The PM3 Hamiltonian to be used
 *  OLDGEO     - PREVIOUS GEOMETRY TO BE USED
 *  PRECISE    - CRITERIA TO BE INCREASED BY 100 TIMES
 *  NOSYM      - POINT-GROUP SYMMETRY SET TO C1
 *  THREADS=1  - MULTI-THREADING NOT USED
 *  T=         - A TIME OF 172800.0 SECONDS REQUESTED
 *  DUMP=N     - RESTART FILE WRITTEN EVERY  7200.000 SECONDS
 *  THERMO     - THERMODYNAMIC QUANTITIES TO BE CALCULATED
 *******************************************************************************
oldgeo thermo nosym precise THREADS=1  pm3
 InChI=1S/C10H12/c1-8-6-7-9-4-2-3-5-10(8)9/h3-6,10H,2,7H2,1H3

   ATOM   CHEMICAL          X               Y               Z
  NUMBER   SYMBOL      (ANGSTROMS)     (ANGSTROMS)     (ANGSTROMS)
 
     1       C         -0.18536855  *  -0.42284903  *   0.40955326  *
     2       C         -0.50152208  *   2.00271916  *   0.35438848  *
     3       C          2.67330852  *  -0.22686371  *   0.19004519  *
     4       C         -2.57720469  *  -1.08097933  *  -0.41308270  *
     5       C          0.52286908  *   0.91176414  *   0.42336875  *
     6       C         -1.57489225  *  -0.06084064  *  -0.06045213  *
     7       C         -1.74859363  *   1.27278389  *  -0.05551441  *
     8       C          1.85036585  *   1.00753761  *   0.34175519  *
     9       C          0.58101296  *  -1.41937533  *  -0.38927032  *
    10       C          1.91243302  *  -1.33348426  *  -0.46261192  *
    11       H         -0.26140695  *  -0.82096122  *   1.45339863  *
    12       H         -0.22654998  *   2.78760420  *  -0.37374548  *
    13       H         -0.63374166  *   2.50617775  *   1.33067922  *
    14       H          3.02890356  *  -0.56540633  *   1.18510999  *
    15       H          3.58248176  *   0.00206340  *  -0.39917264  *
    16       H         -2.71347549  *  -1.79484549  *   0.41032432  *
    17       H         -2.25812300  *  -1.65072847  *  -1.29714782  *
    18       H         -3.55376747  *  -0.63316562  *  -0.63741865  *
    19       H         -2.66318946  *   1.80760837  *  -0.30987385  *
    20       H          0.01494151  *  -2.21574867  *  -0.88288173  *
    21       H          2.50001943  *  -2.07596408  *  -1.01197688  *
    22       H          2.36521769  *   1.97261720  *   0.33816796  *
 


          CARTESIAN COORDINATES 

    NO.       ATOM           X           Y           Z

     1         C         -0.1854     -0.4228      0.4096
     2         C         -0.5015      2.0027      0.3544
     3         C          2.6733     -0.2269      0.1900
     4         C         -2.5772     -1.0810     -0.4131
     5         C          0.5229      0.9118      0.4234
     6         C         -1.5749     -0.0608     -0.0605
     7         C         -1.7486      1.2728     -0.0555
     8         C          1.8504      1.0075      0.3418
     9         C          0.5810     -1.4194     -0.3893
    10         C          1.9124     -1.3335     -0.4626
    11         H         -0.2614     -0.8210      1.4534
    12         H         -0.2265      2.7876     -0.3737
    13         H         -0.6337      2.5062      1.3307
    14         H          3.0289     -0.5654      1.1851
    15         H          3.5825      0.0021     -0.3992
    16         H         -2.7135     -1.7948      0.4103
    17         H         -2.2581     -1.6507     -1.2971
    18         H         -3.5538     -0.6332     -0.6374
    19         H         -2.6632      1.8076     -0.3099
    20         H          0.0149     -2.2157     -0.8829
    21         H          2.5000     -2.0760     -1.0120
    22         H          2.3652      1.9726      0.3382

  H: (PM3): J. J. P. STEWART, J. COMP. CHEM. 10, 209 (1989).
  C: (PM3): J. J. P. STEWART, J. COMP. CHEM. 10, 209 (1989).

           Empirical Formula: C10 H12  =    22 atoms



      MOLECULAR POINT GROUP   :   C1  


      RHF CALCULATION, NO. OF DOUBLY OCCUPIED LEVELS = 26



          HEAT OF FORMATION =      30.515305 KCALS/MOLE


          CARTESIAN COORDINATE DERIVATIVES

   NUMBER  ATOM         X            Y            Z

     1       C     -0.002260     0.001508     0.000208
     2       C     -0.001790     0.004816     0.003228
     3       C     -0.004701     0.000806    -0.003965
     4       C     -0.010799     0.006189     0.012715
     5       C     -0.000549     0.001730    -0.000697
     6       C      0.001563    -0.001584     0.000377
     7       C      0.002369     0.004406     0.004577
     8       C     -0.003535     0.004558    -0.000372
     9       C     -0.001922     0.004701    -0.001982
    10       C     -0.000392    -0.003527    -0.002284
    11       H     -0.000279    -0.002111    -0.000864
    12       H      0.003639    -0.000120    -0.000111
    13       H     -0.003550    -0.004833     0.001359
    14       H      0.001065     0.003820    -0.001115
    15       H      0.000988    -0.006949    -0.003416
    16       H      0.013294     0.002117     0.006489
    17       H     -0.003536    -0.004765    -0.011014
    18       H      0.000741    -0.002231    -0.007910
    19       H     -0.000666    -0.007881    -0.004427
    20       H      0.002555    -0.001615     0.001457
    21       H      0.008882    -0.000613     0.004467
    22       H     -0.001119     0.001580     0.003282
 


          GRADIENT NORM =   0.03639


          TIME FOR SCF CALCULATION =    0.02

          TIME FOR DERIVATIVES     =    0.01

          MOLECULAR WEIGHT =  132.20



          ROTATIONAL CONSTANTS IN CM(-1)

          A =    0.07994304   B =    0.04106064   C =    0.02835830



           PRINCIPAL MOMENTS OF INERTIA IN UNITS OF 10**(-40)*GRAM-CM**2

          A =      350.1590   B =      681.7422   C =      987.1104


          ORIENTATION OF MOLECULE IN FORCE CALCULATION

    NO.       ATOM         X         Y         Z

     1          C      -0.4469   -0.3529   -0.3439
     2          C       1.9998   -0.3529   -0.3439
     3          C      -0.6170    2.5158   -0.3439
     4          C      -0.7717   -2.7376    0.6751
     5          C       0.7844    0.5160   -0.4535
     6          C       0.1021   -1.6443    0.2161
     7          C       1.4466   -1.6469    0.1810
     8          C       0.7096    1.8472   -0.4739
     9          C      -1.5158    0.3404    0.4276
    10          C      -1.6011    1.6736    0.3990
    11          H      -0.8553   -0.5600   -1.3658
    12          H       2.7588    0.0755    0.3360
    13          H       2.4940   -0.4957   -1.3234
    14          H      -1.0210    2.7470   -1.3512
    15          H      -0.4943    3.4898    0.1684
    16          H      -1.4804   -3.0272   -0.1124
    17          H      -1.3578   -2.4257    1.5510
    18          H      -0.1965   -3.6289    0.9568
    19          H       2.1007   -2.4635    0.4851
    20          H      -2.2210   -0.2821    0.9874
    21          H      -2.4007    2.2030    0.9269
    22          H       1.5999    2.4793   -0.5398


    FIRST DERIVATIVES WILL BE USED IN THE CALCULATION OF SECOND DERIVATIVES

          ESTIMATED TIME TO COMPLETE CALCULATION =        8.25 SECONDS

    FOR POINT-GROUP C1   THERE ARE   1 UNIQUE SYMMETRY FUNCTIONS.

 STEP:   1 TIME =     0.06 SECS, INTEGRAL =      0.06 TIME LEFT: 172799.91
 STEP:   2 TIME =     0.05 SECS, INTEGRAL =      0.11 TIME LEFT: 172799.86
 STEP:   3 TIME =     0.05 SECS, INTEGRAL =      0.16 TIME LEFT: 172799.81
 STEP:   4 TIME =     0.05 SECS, INTEGRAL =      0.21 TIME LEFT: 172799.76
 STEP:   5 TIME =     0.05 SECS, INTEGRAL =      0.26 TIME LEFT: 172799.71
 STEP:   6 TIME =     0.05 SECS, INTEGRAL =      0.31 TIME LEFT: 172799.66
 STEP:   7 TIME =     0.05 SECS, INTEGRAL =      0.37 TIME LEFT: 172799.60
 STEP:   8 TIME =     0.05 SECS, INTEGRAL =      0.42 TIME LEFT: 172799.55
 STEP:   9 TIME =     0.05 SECS, INTEGRAL =      0.47 TIME LEFT: 172799.50
 STEP:  10 TIME =     0.05 SECS, INTEGRAL =      0.52 TIME LEFT: 172799.45
 STEP:  11 TIME =     0.05 SECS, INTEGRAL =      0.57 TIME LEFT: 172799.40
 STEP:  12 TIME =     0.05 SECS, INTEGRAL =      0.62 TIME LEFT: 172799.35
 STEP:  13 TIME =     0.05 SECS, INTEGRAL =      0.67 TIME LEFT: 172799.30
 STEP:  14 TIME =     0.05 SECS, INTEGRAL =      0.72 TIME LEFT: 172799.25
 STEP:  15 TIME =     0.05 SECS, INTEGRAL =      0.77 TIME LEFT: 172799.20
 STEP:  16 TIME =     0.05 SECS, INTEGRAL =      0.82 TIME LEFT: 172799.15
 STEP:  17 TIME =     0.05 SECS, INTEGRAL =      0.87 TIME LEFT: 172799.10
 STEP:  18 TIME =     0.05 SECS, INTEGRAL =      0.92 TIME LEFT: 172799.05
 STEP:  19 TIME =     0.05 SECS, INTEGRAL =      0.97 TIME LEFT: 172799.00
 STEP:  20 TIME =     0.05 SECS, INTEGRAL =      1.02 TIME LEFT: 172798.95
 STEP:  21 TIME =     0.05 SECS, INTEGRAL =      1.07 TIME LEFT: 172798.89
 STEP:  22 TIME =     0.05 SECS, INTEGRAL =      1.12 TIME LEFT: 172798.84
 STEP:  23 TIME =     0.05 SECS, INTEGRAL =      1.18 TIME LEFT: 172798.79
 STEP:  24 TIME =     0.05 SECS, INTEGRAL =      1.23 TIME LEFT: 172798.74
 STEP:  25 TIME =     0.05 SECS, INTEGRAL =      1.28 TIME LEFT: 172798.69
 STEP:  26 TIME =     0.05 SECS, INTEGRAL =      1.33 TIME LEFT: 172798.64
 STEP:  27 TIME =     0.05 SECS, INTEGRAL =      1.38 TIME LEFT: 172798.59
 STEP:  28 TIME =     0.05 SECS, INTEGRAL =      1.43 TIME LEFT: 172798.54
 STEP:  29 TIME =     0.05 SECS, INTEGRAL =      1.48 TIME LEFT: 172798.48
 STEP:  30 TIME =     0.05 SECS, INTEGRAL =      1.54 TIME LEFT: 172798.43
 STEP:  31 TIME =     0.05 SECS, INTEGRAL =      1.59 TIME LEFT: 172798.38
 STEP:  32 TIME =     0.05 SECS, INTEGRAL =      1.64 TIME LEFT: 172798.32
 STEP:  33 TIME =     0.05 SECS, INTEGRAL =      1.70 TIME LEFT: 172798.27
 STEP:  34 TIME =     0.05 SECS, INTEGRAL =      1.75 TIME LEFT: 172798.22
 STEP:  35 TIME =     0.05 SECS, INTEGRAL =      1.80 TIME LEFT: 172798.17
 STEP:  36 TIME =     0.05 SECS, INTEGRAL =      1.85 TIME LEFT: 172798.12
 STEP:  37 TIME =     0.05 SECS, INTEGRAL =      1.90 TIME LEFT: 172798.07
 STEP:  38 TIME =     0.05 SECS, INTEGRAL =      1.96 TIME LEFT: 172798.01
 STEP:  39 TIME =     0.05 SECS, INTEGRAL =      2.01 TIME LEFT: 172797.96
 STEP:  40 TIME =     0.05 SECS, INTEGRAL =      2.06 TIME LEFT: 172797.91
 STEP:  41 TIME =     0.05 SECS, INTEGRAL =      2.11 TIME LEFT: 172797.86
 STEP:  42 TIME =     0.05 SECS, INTEGRAL =      2.16 TIME LEFT: 172797.81
 STEP:  43 TIME =     0.05 SECS, INTEGRAL =      2.21 TIME LEFT: 172797.76
 STEP:  44 TIME =     0.05 SECS, INTEGRAL =      2.26 TIME LEFT: 172797.71
 STEP:  45 TIME =     0.05 SECS, INTEGRAL =      2.31 TIME LEFT: 172797.66
 STEP:  46 TIME =     0.05 SECS, INTEGRAL =      2.36 TIME LEFT: 172797.61
 STEP:  47 TIME =     0.05 SECS, INTEGRAL =      2.41 TIME LEFT: 172797.55
 STEP:  48 TIME =     0.05 SECS, INTEGRAL =      2.46 TIME LEFT: 172797.50
 STEP:  49 TIME =     0.05 SECS, INTEGRAL =      2.52 TIME LEFT: 172797.45
 STEP:  50 TIME =     0.05 SECS, INTEGRAL =      2.57 TIME LEFT: 172797.40
 STEP:  51 TIME =     0.05 SECS, INTEGRAL =      2.62 TIME LEFT: 172797.35
 STEP:  52 TIME =     0.05 SECS, INTEGRAL =      2.67 TIME LEFT: 172797.30
 STEP:  53 TIME =     0.05 SECS, INTEGRAL =      2.72 TIME LEFT: 172797.25
 STEP:  54 TIME =     0.05 SECS, INTEGRAL =      2.77 TIME LEFT: 172797.20
 STEP:  55 TIME =     0.05 SECS, INTEGRAL =      2.82 TIME LEFT: 172797.15
 STEP:  56 TIME =     0.05 SECS, INTEGRAL =      2.87 TIME LEFT: 172797.10
 STEP:  57 TIME =     0.05 SECS, INTEGRAL =      2.92 TIME LEFT: 172797.05
 STEP:  58 TIME =     0.05 SECS, INTEGRAL =      2.97 TIME LEFT: 172797.00
 STEP:  59 TIME =     0.05 SECS, INTEGRAL =      3.02 TIME LEFT: 172796.95
 STEP:  60 TIME =     0.05 SECS, INTEGRAL =      3.07 TIME LEFT: 172796.89
 STEP:  61 TIME =     0.05 SECS, INTEGRAL =      3.12 TIME LEFT: 172796.84
 STEP:  62 TIME =     0.05 SECS, INTEGRAL =      3.18 TIME LEFT: 172796.79
 STEP:  63 TIME =     0.05 SECS, INTEGRAL =      3.23 TIME LEFT: 172796.74
 STEP:  64 TIME =     0.05 SECS, INTEGRAL =      3.28 TIME LEFT: 172796.69
 STEP:  65 TIME =     0.05 SECS, INTEGRAL =      3.33 TIME LEFT: 172796.64
 STEP:  66 TIME =     0.05 SECS, INTEGRAL =      3.38 TIME LEFT: 172796.59

(To convert to Hartree/Bohr^2, multiply by (10^(-21) x N x a0^2)/(4.184 x 627.51) =  0.0642)


           FORCE MATRIX IN MILLIDYNES/ANGSTROM


                  C  1       C  2       C  3       C  4       C  5       C  6
 ------------------------------------------------------------------------------
     C    1  15.423915
     C    2   0.750773  14.959756
     C    3   0.193724   0.123393  14.926439
     C    4   0.484424   0.127142   0.001238  14.840023
     C    5   4.140903   4.580602   0.930390   0.047536  19.215088
     C    6   4.156542   1.143647   0.010022   5.444663   1.001404  18.701080
     C    7   1.146602   4.513651   0.010997   0.726199   1.066138  10.115729
     C    8   0.784687   0.653662   4.808414   0.009219  10.570498   0.050715
     C    9   4.834776   0.046222   0.856934   0.038624   0.743484   0.570049
     C   10   0.917731   0.005440   4.753143   0.002701   0.103656   0.050910
     H   11   4.104244   0.019457   0.018706   0.010419   0.414417   0.409373
     H   12   0.038240   4.515702   0.008917   0.016900   0.441068   0.037320
     H   13   0.021713   4.471952   0.015380   0.018375   0.428181   0.032460
     H   14   0.020250   0.016795   4.366472   0.000341   0.026805   0.002471
     H   15   0.012259   0.012566   4.473730   0.000416   0.047414   0.001511
     H   16   0.013564   0.016929   0.000198   4.707494   0.002355   0.451352
     H   17   0.010592   0.017565   0.000562   4.676442   0.002497   0.448425
     H   18   0.041324   0.003037   0.000459   4.746904   0.007636   0.471206
     H   19   0.103492   0.407065   0.001788   0.054881   0.043324   0.458418
     H   20   0.435987   0.005538   0.115680   0.012550   0.038985   0.015561
     H   21   0.113344   0.002070   0.427532   0.000693   0.005797   0.011585
     H   22   0.109909   0.066987   0.428991   0.002071   0.462255   0.010112


                  C  7       C  8       C  9       C 10       H 11       H 12
 ------------------------------------------------------------------------------
     C    7  18.189307
     C    8   0.050075  18.205936
     C    9   0.042978   0.085364  18.158021
     C   10   0.010365   0.752651  10.556934  18.053674
     H   11   0.032923   0.024320   0.398032   0.030732   4.558223
     H   12   0.431163   0.016988   0.004225   0.001303   0.001446   5.114562
     H   13   0.428519   0.022413   0.003245   0.001033   0.001655   0.553493
     H   14   0.001704   0.420557   0.027750   0.419883   0.007775   0.001459
     H   15   0.001668   0.425782   0.046976   0.427959   0.002106   0.000914
     H   16   0.033198   0.000988   0.002475   0.000547   0.004250   0.001830
     H   17   0.031064   0.000789   0.014337   0.000781   0.001137   0.003032
     H   18   0.028847   0.002011   0.002779   0.000591   0.001278   0.000568
     H   19   5.019187   0.006378   0.014431   0.002583   0.013584   0.014815
     H   20   0.002810   0.005849   4.852110   0.446842   0.012625   0.000832
     H   21   0.002125   0.040344   0.445495   4.858522   0.014559   0.000203
     H   22   0.003792   4.882905   0.008392   0.040067   0.013955   0.008457


                  H 13       H 14       H 15       H 16       H 17       H 18
 ------------------------------------------------------------------------------
     H   13   5.074400
     H   14   0.002410   4.961357
     H   15   0.001464   0.563406   5.048654
     H   16   0.003035   0.000141   0.000127   5.415705
     H   17   0.002326   0.000255   0.000172   0.570520   5.389916
     H   18   0.000436   0.000162   0.000070   0.556066   0.559404   5.451531
     H   19   0.010136   0.000155   0.000433   0.006333   0.006993   0.013848
     H   20   0.000559   0.015808   0.011224   0.001570   0.022175   0.001498
     H   21   0.000203   0.013280   0.036809   0.000283   0.000387   0.000171
     H   22   0.009396   0.012404   0.035887   0.000159   0.000210   0.000292


                  H 19       H 20       H 21       H 22
 ------------------------------------------------------
     H   19   5.419115
     H   20   0.000831   5.233290
     H   21   0.000711   0.064601   5.232052
     H   22   0.000849   0.001943   0.005134   5.260871


          HEAT OF FORMATION =      30.515305 KCALS/MOLE

          ZERO POINT ENERGY     118.949 KCAL/MOL


           NORMAL COORDINATE ANALYSIS (Total motion = 1 Angstrom)


   Root No.       1         2         3         4         5         6         7         8

                 1 A       2 A       3 A       4 A       5 A       6 A       7 A       8 A   

                  98.4     131.6     197.9     229.1     263.4     294.5     415.5     434.1
  
           1   -0.0018   -0.0048   -0.0065    0.0117   -0.0066    0.0197   -0.0102   -0.0158
           2    0.0055   -0.0014   -0.0096    0.0010   -0.0037    0.0014   -0.0147   -0.0206
           3    0.0203    0.0009   -0.0187   -0.0348   -0.0079    0.0342   -0.0104    0.0123
           4    0.0005   -0.0043   -0.0052    0.0107   -0.0003    0.0128   -0.0050   -0.0025
           5    0.0060   -0.0021    0.0049    0.0037    0.0143   -0.0033    0.0116    0.0217
           6    0.0284   -0.0114    0.0022    0.0103    0.0462   -0.0032    0.0014   -0.0011
           7   -0.0131    0.0069    0.0107   -0.0184    0.0075   -0.0064    0.0066    0.0132
           8   -0.0086    0.0063    0.0086   -0.0222    0.0119   -0.0002    0.0091   -0.0045
           9   -0.0414    0.0113    0.0288   -0.0025    0.0126    0.0165    0.0018   -0.0054
          10   -0.0052    0.0077   -0.0017   -0.0352    0.0121   -0.0313   -0.0069   -0.0083
          11   -0.0199   -0.0095   -0.0096    0.0485   -0.0068    0.0258    0.0072    0.0148
          12   -0.0452   -0.0007   -0.0219    0.0113    0.0229   -0.0145   -0.0001   -0.0089
          13    0.0001   -0.0046   -0.0103    0.0119   -0.0075    0.0127   -0.0172   -0.0252
          14    0.0017   -0.0020   -0.0070    0.0036   -0.0022    0.0020   -0.0125   -0.0172
          15    0.0075   -0.0055   -0.0373   -0.0146   -0.0056    0.0114   -0.0346   -0.0142
          16   -0.0027   -0.0016   -0.0018    0.0008   -0.0062    0.0183    0.0059    0.0245
          17   -0.0039    0.0006    0.0055    0.0052   -0.0102   -0.0011   -0.0105    0.0015
          18   -0.0028    0.0050    0.0131   -0.0218   -0.0215    0.0189   -0.0169    0.0300
          19   -0.0026   -0.0015   -0.0009    0.0009   -0.0065    0.0174    0.0064    0.0247
          20   -0.0011    0.0028    0.0254    0.0031   -0.0132   -0.0127    0.0082    0.0052
          21    0.0071    0.0024    0.0571    0.0043   -0.0327   -0.0110    0.0046   -0.0157
          22   -0.0061    0.0011   -0.0051   -0.0035   -0.0055   -0.0092   -0.0031    0.0016
          23    0.0011   -0.0016   -0.0068    0.0033   -0.0023    0.0001   -0.0109   -0.0176
          24   -0.0266   -0.0013   -0.0408    0.0016   -0.0345   -0.0341    0.0263    0.0134
          25    0.0194   -0.0034    0.0023    0.0179   -0.0022    0.0016    0.0346   -0.0245
          26    0.0116    0.0042   -0.0060   -0.0261    0.0021   -0.0084    0.0027    0.0033
          27    0.0457   -0.0018   -0.0095   -0.0021   -0.0072    0.0131    0.0401   -0.0141
          28    0.0137    0.0021    0.0164    0.0136    0.0083   -0.0230   -0.0120    0.0154
          29    0.0110    0.0046   -0.0048   -0.0269    0.0034   -0.0115   -0.0014    0.0076
          30    0.0179    0.0024    0.0207    0.0345    0.0044   -0.0194   -0.0361    0.0118
          31   -0.0223   -0.0066   -0.0139    0.0130   -0.0076    0.0220   -0.0654   -0.0221
          32    0.0191   -0.0059   -0.0283    0.0134    0.0016   -0.0050   -0.0156   -0.0690
          33    0.0257    0.0026   -0.0113   -0.0369   -0.0087    0.0331    0.0129    0.0243
          34   -0.0175    0.0035   -0.0087   -0.0055   -0.0714    0.0166   -0.0388   -0.0408
          35    0.0056    0.0021    0.0432    0.0051    0.0045   -0.0114    0.0388    0.0460
          36    0.0489   -0.0228   -0.0182    0.0276    0.1337   -0.0024    0.0231    0.0280
          37    0.0240   -0.0147   -0.0026    0.0334    0.0912    0.0077    0.0329    0.0345
          38    0.0153   -0.0104   -0.0423    0.0032    0.0697    0.0064    0.0127    0.0546
          39    0.0389   -0.0155    0.0103    0.0221    0.0855   -0.0071    0.0209    0.0135
          40   -0.0334    0.0060   -0.0191   -0.0399   -0.0124   -0.0108    0.0472    0.0126
          41   -0.0688    0.0246    0.0704   -0.0708    0.0632    0.0751    0.0592   -0.0444
          42   -0.0471    0.0159    0.0553   -0.0053    0.0328    0.0361   -0.0020   -0.0149
          43   -0.0201    0.0165    0.0495   -0.0381    0.0393    0.0184    0.0062    0.0122
          44    0.0202   -0.0021   -0.0206   -0.0005   -0.0121   -0.0361   -0.0143    0.0152
          45   -0.0952    0.0253    0.0761   -0.0403    0.0518    0.0810    0.0481   -0.0442
          46    0.0237    0.1828   -0.0077   -0.0261   -0.0030   -0.0146   -0.0159    0.0069
          47   -0.0156   -0.1816    0.0256    0.0275   -0.0413    0.0633    0.0067    0.0617
          48   -0.0730   -0.0954   -0.0295    0.0108    0.0497   -0.0442    0.0082   -0.0410
          49   -0.0372   -0.1859    0.0050   -0.0465    0.0296   -0.0523    0.0020   -0.0280
          50   -0.0403    0.0577   -0.0447    0.1092    0.0165    0.0416    0.0344    0.0154
          51   -0.0595   -0.1544   -0.0051   -0.0171    0.0265   -0.0340   -0.0033   -0.0223
          52   -0.0043    0.0327   -0.0022   -0.0661    0.0281   -0.0779   -0.0226   -0.0489
          53   -0.0180    0.0793   -0.0230    0.0483    0.0086    0.0006    0.0022   -0.0115
          54   -0.0409    0.2299   -0.0634    0.0717    0.0402   -0.0022    0.0147   -0.0136
          55   -0.0039    0.0002    0.0020   -0.0048   -0.0084    0.0201    0.0152    0.0422
          56   -0.0058    0.0061    0.0463    0.0084   -0.0268   -0.0227    0.0244    0.0016
          57   -0.0025    0.0079    0.1071    0.0300   -0.0645   -0.0444    0.0291   -0.0640
          58    0.0429   -0.0113   -0.0031    0.0353   -0.0095   -0.0017    0.0800   -0.0597
          59    0.0198    0.0092   -0.0088   -0.0428    0.0047   -0.0105    0.0177    0.0171
          60    0.0841   -0.0058   -0.0191    0.0016   -0.0133    0.0067    0.1141   -0.0429
          61    0.0318    0.0012    0.0254    0.0359    0.0113   -0.0564   -0.0443    0.0363
          62    0.0227    0.0049   -0.0108   -0.0376    0.0017   -0.0175   -0.0057    0.0213
          63    0.0331    0.0010    0.0408    0.0782    0.0111   -0.0632   -0.0802    0.0297
          64   -0.0109    0.0043   -0.0008   -0.0130   -0.0026   -0.0211    0.0133    0.0195
          65    0.0058   -0.0065   -0.0151    0.0185   -0.0093    0.0103   -0.0259   -0.0392
          66   -0.0420   -0.0054   -0.0674    0.0232   -0.0657   -0.1011    0.0993    0.0490


   Root No.       9        10        11        12        13        14        15        16

                 9 A      10 A      11 A      12 A      13 A      14 A      15 A      16 A   

                 492.3     515.3     537.6     647.7     696.7     765.2     785.6     808.6
  
           1   -0.0144    0.0240   -0.0035   -0.0166   -0.0020   -0.0029   -0.0014   -0.0027
           2    0.0326    0.0003   -0.0042   -0.0036   -0.0073    0.0066    0.0056   -0.0029
           3    0.0035   -0.0119   -0.0045   -0.0256   -0.0166    0.0289   -0.0093    0.0055
           4    0.0259    0.0067    0.0238   -0.0127    0.0485    0.0287   -0.0178    0.0027
           5   -0.0167   -0.0204   -0.0299   -0.0141    0.0317   -0.0060   -0.0022   -0.0147
           6    0.0024   -0.0005    0.0059    0.0126   -0.0119   -0.0053   -0.0005   -0.0314
           7    0.0070   -0.0278   -0.0254   -0.0023   -0.0013   -0.0114    0.0041   -0.0006
           8   -0.0450    0.0231    0.0195    0.0077   -0.0159    0.0151   -0.0240    0.0172
           9    0.0126    0.0033    0.0027   -0.0141   -0.0021   -0.0289    0.0056    0.0042
          10    0.0260   -0.0050    0.0173    0.0258   -0.0247   -0.0058   -0.0022    0.0033
          11    0.0216   -0.0153    0.0182    0.0336   -0.0210   -0.0070   -0.0113    0.0066
          12   -0.0095    0.0060   -0.0102   -0.0098    0.0114   -0.0004    0.0039    0.0035
          13    0.0213    0.0165    0.0041   -0.0157    0.0172    0.0175    0.0005   -0.0017
          14   -0.0186    0.0046   -0.0317   -0.0096   -0.0254    0.0045    0.0151   -0.0015
          15   -0.0381   -0.0425    0.0100    0.0346    0.0311   -0.0156   -0.0094    0.0106
          16   -0.0111   -0.0046    0.0291    0.0020   -0.0215   -0.0027    0.0154   -0.0009
          17    0.0471    0.0099   -0.0168    0.0380    0.0008   -0.0048   -0.0158    0.0046
          18    0.0043    0.0505   -0.0437    0.0169    0.0127   -0.0096    0.0030    0.0040
          19   -0.0122   -0.0077    0.0323   -0.0019   -0.0142   -0.0013    0.0164   -0.0027
          20    0.0061   -0.0225   -0.0254   -0.0137    0.0479    0.0054   -0.0152   -0.0068
          21   -0.0032   -0.0082    0.0198   -0.0018   -0.0191   -0.0004    0.0049   -0.0155
          22    0.0187   -0.0239   -0.0447   -0.0133   -0.0164   -0.0083    0.0322   -0.0062
          23   -0.0226    0.0091   -0.0340   -0.0131   -0.0370    0.0072    0.0190    0.0012
          24   -0.0017    0.0128    0.0043    0.0008    0.0057   -0.0010   -0.0013    0.0170
          25   -0.0294    0.0320   -0.0052    0.0039    0.0124   -0.0388   -0.0249   -0.0045
          26    0.0036    0.0152    0.0444   -0.0121    0.0135   -0.0164    0.0122   -0.0073
          27    0.0201   -0.0205   -0.0135   -0.0012   -0.0128    0.0087   -0.0183    0.0005
          28   -0.0371   -0.0082   -0.0264    0.0140   -0.0135    0.0184   -0.0435    0.0092
          29    0.0001    0.0122    0.0476   -0.0125    0.0114   -0.0130    0.0127   -0.0057
          30    0.0075    0.0069    0.0221   -0.0140    0.0003   -0.0127   -0.0049   -0.0098
          31   -0.0445    0.0240   -0.0151    0.0063    0.0323   -0.0154    0.0356    0.0093
          32    0.0358   -0.0530    0.0129   -0.0156    0.0081    0.0134   -0.0114    0.0116
          33    0.0145   -0.0007   -0.0032   -0.0316   -0.0326    0.0327   -0.0196   -0.0024
          34   -0.0152   -0.0269    0.0392    0.0163    0.0669    0.0288   -0.0345   -0.0824
          35   -0.0114   -0.0304   -0.0170   -0.0322    0.0193   -0.0144    0.0084   -0.0424
          36    0.0469    0.0444   -0.0207   -0.0103   -0.0228    0.0010    0.0118    0.0861
          37    0.0886    0.0606    0.0015   -0.0583    0.0356    0.0500   -0.0036    0.1178
          38   -0.0266   -0.0248   -0.0479    0.0007    0.0581   -0.0302    0.0025    0.0643
          39    0.0366    0.0285   -0.0033   -0.0129   -0.0233    0.0086    0.0065    0.0191
          40    0.0165   -0.0313   -0.0361    0.0073    0.0159   -0.0113    0.0515    0.0253
          41   -0.0560    0.0166    0.0188    0.0807    0.0259    0.1302   -0.0059   -0.0163
          42    0.0058    0.0032    0.0068    0.0006    0.0018   -0.0002   -0.0081   -0.0151
          43    0.0121   -0.0333    0.0208    0.0212    0.0451    0.0081   -0.0057   -0.0329
          44   -0.0412    0.0280    0.0249   -0.0254   -0.0348   -0.0336   -0.0359    0.0353
          45    0.0030   -0.0043   -0.0179    0.0464    0.0238    0.0658    0.0301   -0.0230
          46    0.0391    0.0238   -0.0089    0.0507   -0.0180   -0.0189   -0.0048    0.0282
          47    0.0074    0.0080    0.0118    0.0447   -0.0228   -0.0202    0.0100    0.0307
          48   -0.0157   -0.0294    0.0165   -0.0362    0.0051    0.0164   -0.0020   -0.0288
          49    0.0164   -0.0371    0.0474    0.0061   -0.0391    0.0061   -0.0042   -0.0225
          50   -0.0216   -0.0731    0.0833   -0.0095   -0.0523    0.0112    0.0103   -0.0352
          51   -0.0014    0.0040   -0.0125   -0.0089    0.0131    0.0017   -0.0043   -0.0002
          52    0.0668    0.0037   -0.0090    0.0502   -0.0159   -0.0080   -0.0399    0.0078
          53    0.0406   -0.0196    0.0113    0.0417   -0.0194   -0.0051   -0.0315    0.0017
          54   -0.0302   -0.0233    0.0193   -0.0334   -0.0005    0.0103    0.0154   -0.0211
          55   -0.0475   -0.0158    0.0211   -0.0268   -0.0131   -0.0139    0.0442   -0.0066
          56   -0.0248   -0.0523   -0.0114   -0.0498    0.0474    0.0052    0.0076    0.0712
          57   -0.0094   -0.0697    0.0827   -0.0462   -0.0235    0.0276    0.0081    0.2027
          58   -0.0273    0.0528   -0.0180    0.0657    0.0687   -0.0493    0.1166    0.0005
          59   -0.0150   -0.0011    0.0479   -0.0015    0.0115    0.0081    0.0147    0.0047
          60    0.0016   -0.0114   -0.0254    0.0883    0.0559    0.0230    0.1625    0.0205
          61   -0.0513   -0.0108   -0.0161    0.0635    0.0241    0.1114    0.0821    0.0189
          62    0.0244   -0.0189    0.0433   -0.0141    0.0122    0.0125    0.0398   -0.0137
          63   -0.0390    0.0336    0.0425    0.0623    0.0560    0.1038    0.1593    0.0128
          64    0.0100   -0.0315   -0.0446   -0.0026   -0.0186   -0.0088    0.0158   -0.0145
          65   -0.0090    0.0272   -0.0339   -0.0284   -0.0387    0.0240    0.0381   -0.0014
          66    0.0133    0.0761   -0.0000    0.0025   -0.0388    0.1412   -0.0463   -0.1144


   Root No.      17        18        19        20        21        22        23        24

                17 A      18 A      19 A      20 A      21 A      22 A      23 A      24 A   

                 850.1     897.6     938.0     950.7     962.1     983.3     997.9    1020.1
  
           1    0.0087    0.0311    0.0125    0.0059   -0.0069   -0.0027    0.0103    0.0038
           2    0.0085    0.0130   -0.0065    0.0234   -0.0108   -0.0032    0.0027    0.0112
           3   -0.0065    0.0347    0.0283   -0.0076   -0.0060   -0.0114    0.0158   -0.0115
           4   -0.0198   -0.0306    0.0009   -0.0053   -0.0011    0.0064   -0.0083    0.0021
           5    0.0028    0.0046    0.0043   -0.0042   -0.0112    0.0023    0.0080    0.0063
           6   -0.0035   -0.0134    0.0044   -0.0172   -0.0252   -0.0028    0.0180    0.0158
           7   -0.0022   -0.0012    0.0084    0.0065   -0.0056   -0.0032   -0.0012    0.0036
           8   -0.0254   -0.0172    0.0129    0.0200   -0.0127   -0.0059   -0.0208    0.0098
           9   -0.0160   -0.0100    0.0233    0.0035   -0.0073   -0.0099    0.0010   -0.0094
          10    0.0004    0.0004   -0.0041   -0.0039    0.0081   -0.0361    0.0102   -0.0000
          11   -0.0001    0.0094    0.0111   -0.0080   -0.0066    0.0128    0.0039   -0.0146
          12    0.0076   -0.0154   -0.0133    0.0094   -0.0182   -0.0030    0.0100   -0.0168
          13   -0.0025   -0.0060   -0.0024   -0.0041    0.0020   -0.0005    0.0044    0.0002
          14    0.0025   -0.0082   -0.0041   -0.0075    0.0057    0.0034    0.0005   -0.0013
          15    0.0123   -0.0052    0.0002    0.0051    0.0166   -0.0013   -0.0184   -0.0197
          16    0.0035   -0.0074   -0.0069    0.0054   -0.0016    0.0089   -0.0046    0.0020
          17   -0.0015    0.0031    0.0045   -0.0028    0.0025    0.0024   -0.0048    0.0116
          18    0.0060   -0.0061   -0.0024   -0.0000    0.0097   -0.0019   -0.0095    0.0248
          19    0.0032   -0.0094   -0.0083    0.0114   -0.0057    0.0233   -0.0096    0.0019
          20   -0.0110    0.0053    0.0009   -0.0019    0.0125   -0.0203   -0.0014   -0.0123
          21   -0.0143    0.0120   -0.0098    0.0187    0.0146    0.0068   -0.0180   -0.0150
          22    0.0059   -0.0125   -0.0015   -0.0111    0.0053    0.0014   -0.0189   -0.0103
          23   -0.0030   -0.0183   -0.0062   -0.0120    0.0078    0.0067   -0.0044   -0.0047
          24   -0.0202    0.0179   -0.0264   -0.0098    0.0019    0.0116    0.0190    0.0068
          25    0.0119    0.0240   -0.0058   -0.0216   -0.0043   -0.0138   -0.0120   -0.0134
          26    0.0101    0.0048   -0.0039   -0.0116    0.0047    0.0008    0.0035   -0.0083
          27    0.0012   -0.0101   -0.0211    0.0042   -0.0066    0.0028   -0.0166    0.0145
          28   -0.0075   -0.0029   -0.0043    0.0058    0.0132    0.0100    0.0306   -0.0011
          29    0.0079   -0.0004   -0.0032   -0.0048    0.0045    0.0040    0.0024   -0.0014
          30    0.0158   -0.0069   -0.0057    0.0029    0.0122    0.0112    0.0024    0.0159
          31    0.0212    0.0668    0.0471    0.1041    0.0398    0.0045    0.0768    0.0881
          32    0.0288    0.0280   -0.0702    0.1768   -0.0723   -0.0375    0.0011   -0.0048
          33   -0.0153    0.0156    0.0262   -0.0783   -0.0117   -0.0070   -0.0112   -0.0418
          34   -0.0268   -0.0890    0.0182   -0.0619   -0.0504   -0.0045    0.0123    0.0458
          35   -0.0248    0.0619   -0.0126    0.0563   -0.0360    0.0414    0.0503   -0.0272
          36    0.0221    0.0161   -0.0050    0.0098    0.0485   -0.0147   -0.0342   -0.0137
          37   -0.0290    0.0134   -0.0243    0.0506    0.0761    0.0092   -0.0406   -0.0627
          38    0.0801    0.0017    0.0241   -0.0037    0.0128    0.0200   -0.0806    0.0530
          39   -0.0185    0.0112   -0.0116    0.0123    0.0124   -0.0041    0.0135   -0.0247
          40   -0.0453    0.0493   -0.0404   -0.0192   -0.0660   -0.0162   -0.0335    0.1066
          41    0.0526    0.0300   -0.0771   -0.0151    0.0203    0.0299   -0.0060    0.0324
          42    0.0216   -0.0183    0.0207    0.0045    0.0254    0.0041    0.0176   -0.0458
          43    0.0610    0.0253   -0.0004    0.0247    0.0149    0.0088    0.0194    0.0092
          44   -0.0654   -0.0414    0.0549    0.0426   -0.0320   -0.0225   -0.0353    0.0090
          45    0.0467    0.0300   -0.0582   -0.0444    0.0261    0.0210    0.0248   -0.0078
          46    0.0240   -0.0290   -0.0244    0.0074   -0.0412   -0.0390    0.0411   -0.0545
          47    0.0273   -0.0546   -0.0526    0.0112   -0.0266   -0.1274    0.0626   -0.0519
          48   -0.0248    0.0370    0.0302   -0.0087    0.0355    0.0518   -0.0404    0.0475
          49   -0.0265    0.0419    0.0268   -0.0235    0.0652   -0.0348   -0.0207    0.0558
          50   -0.0374    0.0365    0.0128   -0.0287    0.1054   -0.1222   -0.0132    0.0827
          51    0.0018    0.0032    0.0068    0.0039   -0.0180    0.0452   -0.0059   -0.0116
          52   -0.0052    0.0525    0.0595   -0.0236   -0.0250    0.1354   -0.0205   -0.0286
          53   -0.0104    0.0475    0.0526   -0.0230   -0.0100    0.1041   -0.0206   -0.0156
          54   -0.0130    0.0010   -0.0088    0.0035    0.0346   -0.0482   -0.0087    0.0380
          55    0.0247    0.0033   -0.0213    0.0333   -0.0138    0.0524   -0.0104   -0.0054
          56    0.0545   -0.0014    0.0171   -0.0206   -0.0149   -0.0031    0.0209    0.0129
          57    0.1149   -0.0368    0.0597   -0.0772   -0.0427   -0.0040    0.0412    0.0689
          58   -0.0101   -0.0008    0.0759    0.0365    0.0134   -0.0022    0.0253    0.0027
          59   -0.0152   -0.0229    0.0042   -0.0288    0.0399    0.0144    0.0569   -0.0426
          60   -0.0555   -0.0728    0.0915    0.0585    0.0538    0.0321    0.0874   -0.0017
          61   -0.0261    0.0507   -0.0137   -0.0226   -0.0391   -0.0178   -0.0037   -0.0209
          62    0.0202   -0.0103   -0.0294    0.0038    0.0193    0.0370    0.0437    0.0185
          63   -0.0247    0.0824    0.0056   -0.0493   -0.0807   -0.0627   -0.0911   -0.0337
          64    0.0178   -0.0105    0.0334    0.0244   -0.0136   -0.0189   -0.0574   -0.0014
          65   -0.0014   -0.0287   -0.0414   -0.0562    0.0364    0.0306    0.0432   -0.0222
          66    0.1538   -0.0419    0.1109    0.0553    0.0152   -0.0391   -0.0377   -0.0363


   Root No.      25        26        27        28        29        30        31        32

                25 A      26 A      27 A      28 A      29 A      30 A      31 A      32 A   

                1028.8    1043.0    1052.8    1057.8    1060.6    1091.4    1141.1    1166.7
  
           1   -0.0019    0.0002    0.0082   -0.0012   -0.0074    0.0039    0.0104   -0.0001
           2    0.0113   -0.0170    0.0032    0.0005    0.0054    0.0045    0.0242   -0.0282
           3   -0.0041   -0.0059    0.0163    0.0037    0.0023   -0.0089   -0.0051    0.0100
           4   -0.0025   -0.0005   -0.0036    0.0193   -0.0035   -0.0032   -0.0004    0.0073
           5    0.0019   -0.0025   -0.0010    0.0152   -0.0063    0.0007   -0.0035    0.0098
           6    0.0006   -0.0060   -0.0047   -0.0127    0.0016   -0.0072   -0.0013   -0.0027
           7    0.0028    0.0044    0.0006   -0.0025   -0.0018    0.0213   -0.0030    0.0006
           8   -0.0181   -0.0072    0.0034   -0.0050   -0.0056   -0.0017   -0.0017   -0.0101
           9    0.0247    0.0167   -0.0126   -0.0000    0.0030    0.0079    0.0073   -0.0002
          10   -0.0036    0.0011    0.0029    0.0038   -0.0031    0.0001   -0.0005   -0.0046
          11   -0.0085    0.0095    0.0060   -0.0061   -0.0023   -0.0029   -0.0061    0.0062
          12   -0.0063    0.0055    0.0100    0.0039   -0.0059    0.0003    0.0037   -0.0045
          13    0.0058    0.0010    0.0043   -0.0069   -0.0007    0.0068   -0.0040   -0.0314
          14   -0.0021    0.0032    0.0002   -0.0001   -0.0014    0.0113   -0.0023    0.0123
          15   -0.0089    0.0028   -0.0124    0.0087    0.0167    0.0149    0.0076   -0.0055
          16    0.0037   -0.0021   -0.0015   -0.0029    0.0026    0.0011    0.0006    0.0124
          17    0.0063   -0.0076   -0.0093    0.0065    0.0036    0.0023    0.0048   -0.0086
          18    0.0126   -0.0117   -0.0208   -0.0052    0.0121   -0.0006   -0.0087    0.0104
          19    0.0079   -0.0039   -0.0034    0.0002    0.0041   -0.0002    0.0017    0.0073
          20   -0.0093    0.0079    0.0101   -0.0305    0.0032   -0.0047    0.0018    0.0110
          21    0.0113    0.0095    0.0241    0.0108   -0.0139   -0.0000    0.0017   -0.0063
          22   -0.0196   -0.0149   -0.0054    0.0041   -0.0066   -0.0298   -0.0079   -0.0045
          23   -0.0051    0.0021   -0.0025    0.0051   -0.0019    0.0050   -0.0048    0.0169
          24   -0.0012   -0.0213    0.0047   -0.0096   -0.0186   -0.0037   -0.0027    0.0017
          25    0.0047    0.0015   -0.0109    0.0029    0.0032   -0.0037   -0.0049    0.0090
          26    0.0061    0.0038   -0.0042    0.0042    0.0043   -0.0114    0.0017   -0.0009
          27   -0.0063    0.0217   -0.0213   -0.0088   -0.0218    0.0046    0.0037   -0.0100
          28    0.0210   -0.0009    0.0057    0.0056    0.0141   -0.0078    0.0097   -0.0062
          29   -0.0023    0.0050    0.0001    0.0013    0.0001   -0.0028    0.0030    0.0027
          30   -0.0300   -0.0042    0.0250    0.0075    0.0139   -0.0046   -0.0072    0.0050
          31   -0.0851    0.1414   -0.0629   -0.0209   -0.1012   -0.0794   -0.0243   -0.0017
          32    0.1135   -0.0591   -0.0127   -0.0122    0.0661   -0.0641   -0.1027    0.1390
          33    0.0088   -0.0542    0.0479    0.0137    0.0279    0.0390    0.0345   -0.0236
          34    0.0176    0.0010    0.0216   -0.0339   -0.0178   -0.0294   -0.0055    0.0505
          35   -0.0615   -0.0474   -0.1203    0.1962    0.0269    0.0406   -0.0049   -0.1080
          36    0.0179    0.0209    0.0424   -0.0668   -0.0029   -0.0030    0.0052    0.0230
          37   -0.0473    0.0116   -0.0337    0.0222    0.0301    0.0268    0.0050    0.0346
          38    0.1351    0.0114    0.1288    0.0949   -0.1092   -0.0406   -0.0069   -0.0819
          39   -0.0412   -0.0016   -0.0382   -0.0227    0.0335    0.0146    0.0022    0.0243
          40   -0.0380    0.1437    0.0906    0.0583    0.1411    0.0566   -0.0376    0.0110
          41   -0.0719   -0.0337    0.0385    0.0040    0.0007   -0.0280   -0.0167   -0.0084
          42    0.0280   -0.0456   -0.0405   -0.0220   -0.0526   -0.0129    0.0175   -0.0034
          43   -0.0316   -0.0721    0.0141   -0.0700   -0.0994    0.1967   -0.1559    0.0266
          44   -0.0080    0.0012   -0.0059   -0.0149   -0.0155    0.0254   -0.0082   -0.0193
          45    0.0121    0.0189    0.0028    0.0346    0.0442   -0.0839    0.0574    0.0096
          46   -0.0294    0.0253    0.0326    0.0060   -0.0202   -0.0027   -0.0022   -0.0078
          47   -0.0345    0.0228    0.0376    0.0140   -0.0246   -0.0014    0.0004   -0.0198
          48    0.0270   -0.0215   -0.0291   -0.0061    0.0181    0.0020    0.0018    0.0087
          49    0.0194   -0.0195   -0.0270   -0.0032    0.0135    0.0005   -0.0094    0.0041
          50    0.0242   -0.0306   -0.0347    0.0021    0.0158    0.0013   -0.0116   -0.0055
          51   -0.0014    0.0043    0.0035   -0.0035   -0.0003   -0.0003    0.0009    0.0054
          52   -0.0081    0.0242    0.0004   -0.0298    0.0035   -0.0131   -0.0289    0.0286
          53   -0.0055    0.0159   -0.0026   -0.0265    0.0059   -0.0093   -0.0223    0.0260
          54    0.0139   -0.0218   -0.0124    0.0094    0.0068    0.0081    0.0127   -0.0074
          55    0.0138   -0.0030   -0.0097   -0.1865    0.0672   -0.0119    0.0192   -0.1250
          56   -0.0118   -0.0079   -0.0241   -0.1599    0.0605   -0.0116    0.0125   -0.0796
          57   -0.0058   -0.0354   -0.0550    0.0630    0.0059    0.0064   -0.0074    0.0354
          58   -0.0296   -0.0744    0.0713    0.0114    0.0374    0.0474    0.0767    0.0336
          59    0.0680    0.0574   -0.0460    0.0094    0.0029   -0.0976   -0.1341   -0.0337
          60    0.0157   -0.0155    0.0375    0.0072    0.0191   -0.0247   -0.0449   -0.0161
          61    0.0659    0.0339   -0.0549   -0.0195   -0.0415    0.0407    0.0913    0.0341
          62    0.0299    0.0511   -0.0259   -0.0188   -0.0470    0.0764    0.1842    0.0963
          63    0.0049    0.0047   -0.0418   -0.0100   -0.0240   -0.0131   -0.0629   -0.0267
          64   -0.0643   -0.0446   -0.0063   -0.0020   -0.0230   -0.0958    0.0525    0.0331
          65    0.0578    0.0528   -0.0036    0.0175    0.0276    0.1045   -0.0939   -0.0365
          66    0.0112    0.0633   -0.0175    0.0242    0.0493    0.0345   -0.0054   -0.0022


   Root No.      33        34        35        36        37        38        39        40

                33 A      34 A      35 A      36 A      37 A      38 A      39 A      40 A   

                1186.9    1202.4    1259.9    1310.5    1333.9    1362.2    1375.7    1388.5
  
           1   -0.0116    0.0229    0.0172    0.0129    0.0212    0.0062   -0.0349    0.0014
           2   -0.0272   -0.0228   -0.0007    0.0014    0.0223    0.0405   -0.0005   -0.0030
           3    0.0095   -0.0109   -0.0089   -0.0208   -0.0046   -0.0073    0.0087   -0.0048
           4    0.0027   -0.0027   -0.0256   -0.0118   -0.0106    0.0087    0.0101   -0.0235
           5   -0.0031    0.0035   -0.0033    0.0336    0.0444   -0.0380    0.0230   -0.0155
           6    0.0043   -0.0019    0.0030   -0.0110   -0.0120    0.0122   -0.0093    0.0080
           7    0.0041   -0.0110   -0.0005    0.0185    0.0158   -0.0069   -0.0269   -0.0001
           8    0.0138    0.0064    0.0126    0.0006   -0.0018   -0.0066   -0.0318   -0.0165
           9   -0.0041    0.0013   -0.0015   -0.0063   -0.0028    0.0055    0.0241    0.0076
          10    0.0049    0.0058   -0.0046   -0.0083    0.0019   -0.0314   -0.0068    0.0110
          11    0.0105    0.0070   -0.0010   -0.0009   -0.0027   -0.0211   -0.0027   -0.0054
          12   -0.0058   -0.0039    0.0004   -0.0001    0.0018    0.0110    0.0010   -0.0127
          13    0.0062    0.0257    0.0233    0.0256   -0.0248   -0.0334    0.0220    0.0122
          14   -0.0182    0.0061   -0.0148    0.0045   -0.0142   -0.0043    0.0050    0.0057
          15   -0.0050    0.0023    0.0044    0.0033    0.0049    0.0008   -0.0012   -0.0004
          16   -0.0094   -0.0128    0.0195    0.0032   -0.0065    0.0089   -0.0010    0.0058
          17   -0.0135   -0.0127    0.0052   -0.0288    0.0050   -0.0233    0.0003   -0.0110
          18    0.0094    0.0116   -0.0009    0.0141   -0.0022    0.0076   -0.0013    0.0046
          19   -0.0121   -0.0194    0.0163   -0.0044   -0.0057    0.0117    0.0036    0.0016
          20    0.0009   -0.0088    0.0342   -0.0080   -0.0277    0.0297   -0.0150    0.0135
          21   -0.0012    0.0017   -0.0143    0.0020    0.0107   -0.0109    0.0059   -0.0055
          22    0.0231   -0.0016    0.0137   -0.0157    0.0128    0.0058    0.0032   -0.0072
          23   -0.0071    0.0050   -0.0213   -0.0071   -0.0201    0.0018    0.0031    0.0026
          24   -0.0003   -0.0017   -0.0016    0.0014   -0.0006   -0.0007   -0.0020    0.0001
          25   -0.0022   -0.0019   -0.0054   -0.0264    0.0061    0.0054    0.0053   -0.0076
          26    0.0003   -0.0140   -0.0080    0.0109   -0.0097   -0.0021    0.0106    0.0067
          27    0.0012   -0.0036    0.0021    0.0185   -0.0047   -0.0032   -0.0026    0.0052
          28   -0.0057   -0.0143   -0.0085    0.0085   -0.0130    0.0023    0.0174    0.0076
          29    0.0077   -0.0074   -0.0030    0.0151   -0.0099   -0.0080    0.0013    0.0063
          30    0.0029    0.0133    0.0069   -0.0080    0.0093   -0.0011   -0.0122   -0.0061
          31    0.0247   -0.0814   -0.0321   -0.0315   -0.0153   -0.0011    0.0274   -0.0056
          32    0.0759    0.0434   -0.0041   -0.0118   -0.0220   -0.0313   -0.0036    0.0014
          33   -0.0260    0.0187    0.0126    0.0018    0.0183    0.0101   -0.0157   -0.0019
          34   -0.0029   -0.0219   -0.0883   -0.0108    0.0975    0.0071   -0.0576    0.0570
          35    0.0454    0.0612   -0.0091   -0.0390   -0.0899    0.0289   -0.0132    0.0125
          36   -0.0195   -0.0163    0.0677    0.0310   -0.0397   -0.0259    0.0790   -0.0869
          37   -0.0158   -0.0072   -0.0928   -0.0074    0.1022    0.0069   -0.0745    0.0819
          38    0.0485    0.0314   -0.0459   -0.0550   -0.0424    0.0406   -0.0518    0.0530
          39   -0.0133   -0.0082   -0.0190    0.0060    0.0516   -0.0021   -0.0334    0.0421
          40   -0.0434    0.0331   -0.0136   -0.0325   -0.0232    0.0143    0.0396    0.0057
          41    0.0332    0.0245    0.0499   -0.0514    0.1085    0.0415    0.1562    0.0667
          42    0.0176   -0.0132    0.0093    0.0055    0.0297    0.0044    0.0258    0.0176
          43   -0.0713    0.0159   -0.0516   -0.0380   -0.0736    0.0094   -0.0035   -0.0213
          44    0.0257    0.0168    0.0381   -0.0293    0.0584    0.0209    0.0721    0.0278
          45   -0.0017   -0.0220   -0.0294    0.0565   -0.0780   -0.0440   -0.1533   -0.0602
          46    0.0181    0.0230   -0.0274    0.0400    0.0083    0.0861    0.0283   -0.1065
          47    0.0243    0.0313   -0.0389    0.0360    0.0041    0.0477    0.0033    0.1143
          48   -0.0196   -0.0248    0.0310   -0.0487   -0.0061   -0.1040   -0.0284    0.0517
          49    0.0261    0.0288   -0.0280    0.0484    0.0055    0.0924    0.0332   -0.0609
          50    0.0363    0.0459   -0.0444    0.0580    0.0087    0.1072    0.0139   -0.0586
          51   -0.0027   -0.0058    0.0034    0.0099   -0.0010    0.0322    0.0187   -0.0267
          52    0.0408    0.0440   -0.0264    0.0785   -0.0058    0.1132    0.0091    0.0506
          53    0.0347    0.0307   -0.0165    0.0525   -0.0089    0.0625    0.0075    0.0656
          54   -0.0096   -0.0158    0.0055   -0.0199   -0.0018   -0.0399    0.0023    0.1059
          55    0.0259    0.0356   -0.1157   -0.0460    0.0228   -0.0440    0.0117   -0.0301
          56    0.0284    0.0304   -0.0549   -0.0366   -0.0079   -0.0096   -0.0106   -0.0076
          57   -0.0107   -0.0137    0.0240    0.0149    0.0044    0.0043    0.0052    0.0035
          58    0.0663   -0.0576   -0.0343    0.0110   -0.0349   -0.0134    0.0311    0.0077
          59   -0.1159    0.0918    0.0444   -0.0540    0.0648    0.0321   -0.0369   -0.0200
          60   -0.0387    0.0431    0.0243   -0.0036    0.0246    0.0082   -0.0241   -0.0047
          61    0.0118    0.0373    0.0049   -0.0358    0.0035    0.0094    0.0118   -0.0064
          62    0.0496    0.1239    0.0331   -0.0925    0.0276    0.0078   -0.0120   -0.0286
          63   -0.0106   -0.0359   -0.0063    0.0325   -0.0021   -0.0079   -0.0113    0.0064
          64   -0.0796    0.0605   -0.0361   -0.0002   -0.0517   -0.0102    0.0376    0.0132
          65    0.1407   -0.0824    0.0490   -0.0308    0.0699    0.0238   -0.0454   -0.0272
          66    0.0040   -0.0055    0.0005   -0.0021    0.0028   -0.0007    0.0029   -0.0011


   Root No.      41        42        43        44        45        46        47        48

                41 A      42 A      43 A      44 A      45 A      46 A      47 A      48 A   

                1391.2    1394.3    1398.7    1444.5    1489.4    1852.2    1868.3    1932.3
  
           1    0.0029   -0.0065    0.0213    0.0639    0.0595   -0.0201   -0.0002   -0.0057
           2    0.0080   -0.0048   -0.0185    0.0012   -0.0741    0.0119   -0.0146   -0.0208
           3    0.0020    0.0021   -0.0041   -0.0253    0.0006    0.0073   -0.0032   -0.0006
           4    0.0279   -0.0247    0.0209    0.0260   -0.0163    0.0100    0.0077    0.0202
           5    0.0103    0.0033   -0.0245   -0.0028   -0.0043   -0.0025    0.0008   -0.0241
           6   -0.0070    0.0024    0.0043   -0.0013    0.0024   -0.0001   -0.0010    0.0030
           7    0.0036   -0.0195    0.0590   -0.0503   -0.0204   -0.0117    0.0045   -0.0114
           8    0.0102    0.0081   -0.0258   -0.0103   -0.0073   -0.0119    0.0123    0.0173
           9   -0.0062    0.0038   -0.0105    0.0209    0.0093    0.0070   -0.0046    0.0001
          10   -0.0019   -0.0170   -0.0012    0.0225   -0.0370   -0.0148   -0.0232    0.0079
          11   -0.0171    0.0128    0.0118    0.0299   -0.0621   -0.0133   -0.0218    0.0078
          12   -0.0151   -0.0178   -0.0071   -0.0122    0.0254    0.0057    0.0092   -0.0033
          13   -0.0190    0.0173   -0.0167   -0.0490   -0.0100   -0.0049   -0.0024   -0.0244
          14   -0.0045   -0.0038    0.0171   -0.0132   -0.0016    0.0433    0.0140    0.2345
          15    0.0005    0.0001   -0.0014    0.0043    0.0021   -0.0016    0.0016   -0.0108
          16   -0.0061    0.0044   -0.0033   -0.0055   -0.0121    0.1007    0.1584   -0.0505
          17    0.0048    0.0037    0.0050   -0.0279    0.1068    0.0140    0.0265   -0.0158
          18   -0.0029   -0.0019   -0.0008    0.0137   -0.0404   -0.0069   -0.0156    0.0066
          19   -0.0014    0.0024   -0.0077   -0.0252    0.0258   -0.0854   -0.1325    0.0400
          20   -0.0106    0.0028    0.0056    0.0023   -0.0046   -0.0106   -0.0139   -0.0023
          21    0.0043   -0.0014   -0.0021   -0.0007    0.0002    0.0063    0.0088   -0.0007
          22    0.0049    0.0092   -0.0343    0.0294    0.0118    0.0086    0.0035    0.0383
          23   -0.0006   -0.0065    0.0178   -0.0017   -0.0013   -0.0389   -0.0172   -0.1950
          24    0.0000   -0.0012    0.0041   -0.0042   -0.0016   -0.0004    0.0003    0.0015
          25    0.0064   -0.0002   -0.0071   -0.0340   -0.0290    0.0263   -0.0184   -0.0046
          26   -0.0056    0.0005    0.0018    0.0150    0.0096   -0.1373    0.1030    0.0318
          27   -0.0043    0.0000    0.0046    0.0215    0.0174   -0.0103    0.0056    0.0023
          28   -0.0069    0.0047   -0.0122    0.0279    0.0133    0.0078   -0.0055   -0.0004
          29   -0.0059    0.0005    0.0070    0.0204    0.0267    0.1408   -0.1028   -0.0320
          30    0.0053   -0.0025    0.0057   -0.0191   -0.0098   -0.0142    0.0106    0.0031
          31    0.0026    0.0037   -0.0160   -0.0436   -0.0273   -0.0023    0.0096   -0.0111
          32   -0.0058    0.0010    0.0203    0.0048    0.0429    0.0036    0.0204    0.0049
          33    0.0039   -0.0029    0.0031    0.0182    0.0100    0.0006   -0.0070    0.0020
          34   -0.0607    0.0488   -0.0350   -0.0127    0.0103    0.0019    0.0013   -0.0039
          35   -0.0071   -0.0106    0.0384    0.0074   -0.0170    0.0179    0.0212    0.0214
          36    0.0894   -0.0611    0.0215    0.0292   -0.0178   -0.0066   -0.0119    0.0025
          37   -0.0867    0.0661   -0.0391   -0.0290    0.0204    0.0014    0.0013    0.0070
          38   -0.0497    0.0241    0.0139   -0.0105   -0.0025    0.0122    0.0165    0.0044
          39   -0.0465    0.0381   -0.0278   -0.0237    0.0189   -0.0032   -0.0025   -0.0039
          40   -0.0063    0.0148   -0.0459    0.0438    0.0137   -0.0093    0.0041   -0.0094
          41   -0.0393   -0.0320    0.0962    0.0139    0.0081    0.0004   -0.0008   -0.0019
          42   -0.0095   -0.0158    0.0492   -0.0127   -0.0019    0.0059   -0.0038    0.0021
          43    0.0102    0.0315   -0.1041    0.0590    0.0126   -0.0259    0.0106   -0.0278
          44   -0.0169   -0.0102    0.0296    0.0048   -0.0005   -0.0124    0.0122    0.0163
          45    0.0369    0.0207   -0.0599   -0.0324   -0.0100    0.0135   -0.0090   -0.0010
          46   -0.0584    0.1071    0.0450   -0.0105    0.0197   -0.0084   -0.0127    0.0041
          47    0.1523   -0.0475   -0.0507   -0.0553    0.0806   -0.0068   -0.0101    0.0033
          48   -0.0105   -0.0886   -0.0225    0.0409   -0.0665    0.0012    0.0014   -0.0003
          49    0.0247    0.1797    0.0617   -0.0140    0.0223   -0.0066   -0.0103    0.0033
          50   -0.0671   -0.1151   -0.0513   -0.0607    0.1040   -0.0035   -0.0067    0.0016
          51    0.0339    0.1609    0.0582    0.0022   -0.0050    0.0043    0.0068   -0.0023
          52    0.0486   -0.0957   -0.0673   -0.0628    0.0549    0.0211    0.0318   -0.0085
          53    0.0823   -0.0051   -0.0262   -0.0270    0.0007    0.0073    0.0097   -0.0016
          54    0.1789    0.1503    0.0409    0.0088   -0.0055   -0.0035   -0.0047    0.0010
          55    0.0251   -0.0129    0.0182    0.0018    0.0430   -0.0155   -0.0278    0.0184
          56    0.0067   -0.0065    0.0236    0.0226    0.0068    0.0558    0.0894   -0.0334
          57   -0.0027    0.0035   -0.0117   -0.0116   -0.0053   -0.0221   -0.0349    0.0124
          58   -0.0129    0.0002   -0.0080    0.0011    0.0114   -0.0658    0.0517    0.0192
          59    0.0271   -0.0028    0.0061   -0.0395   -0.0544   -0.0215    0.0161   -0.0017
          60    0.0070   -0.0032    0.0091    0.0053    0.0014    0.0462   -0.0375   -0.0161
          61    0.0040    0.0068   -0.0286   -0.0036   -0.0139   -0.0680    0.0509    0.0183
          62    0.0203    0.0089   -0.0413   -0.0519   -0.0351    0.0122   -0.0067    0.0037
          63   -0.0036   -0.0075    0.0300    0.0051    0.0147    0.0472   -0.0355   -0.0159
          64   -0.0134    0.0059   -0.0046    0.0022    0.0043   -0.0197   -0.0139   -0.1243
          65    0.0258   -0.0012   -0.0262    0.0378    0.0104   -0.0115    0.0030   -0.0328
          66    0.0007    0.0006   -0.0032    0.0006    0.0004    0.0030   -0.0010    0.0049


   Root No.      49        50        51        52        53        54        55        56

                49 A      50 A      51 A      52 A      53 A      54 A      55 A      56 A   

                2844.2    2939.7    2971.3    3020.4    3044.5    3056.7    3063.7    3075.3
  
           1   -0.0273    0.0002    0.0001   -0.0001   -0.0005    0.0002    0.0000    0.0001
           2   -0.0134    0.0002   -0.0000   -0.0001    0.0001   -0.0001    0.0001   -0.0001
           3   -0.0663    0.0005   -0.0002   -0.0002   -0.0000   -0.0002   -0.0000   -0.0000
           4    0.0002    0.0000   -0.0061   -0.0000    0.0412   -0.0001   -0.0000    0.0001
           5    0.0001    0.0001   -0.0189   -0.0000    0.0108   -0.0000   -0.0000   -0.0001
           6    0.0000    0.0001   -0.0574    0.0000   -0.0050   -0.0000   -0.0001    0.0001
           7   -0.0002   -0.0188   -0.0000    0.0057    0.0000   -0.0002    0.0000   -0.0001
           8   -0.0001   -0.0196   -0.0001   -0.0392   -0.0001    0.0016   -0.0005   -0.0003
           9   -0.0003   -0.0529   -0.0002    0.0070    0.0000    0.0004   -0.0001   -0.0002
          10   -0.0000   -0.0000   -0.0000   -0.0000    0.0000    0.0019    0.0060   -0.0053
          11   -0.0001    0.0000   -0.0000    0.0000    0.0001   -0.0039   -0.0210    0.0019
          12   -0.0001   -0.0000   -0.0000    0.0000   -0.0000   -0.0067   -0.0406   -0.0051
          13   -0.0008   -0.0002    0.0001   -0.0003    0.0005   -0.0002    0.0000   -0.0002
          14   -0.0011   -0.0003   -0.0004    0.0004   -0.0003    0.0001   -0.0000    0.0027
          15   -0.0001   -0.0002   -0.0001    0.0000    0.0000    0.0001   -0.0000   -0.0001
          16   -0.0010    0.0000   -0.0001   -0.0000   -0.0008    0.0002    0.0001   -0.0001
[...]
 T-DIPOLE    0.0462         C  3 -- H 14         +15.0% ( 49.7%)      3.8%
 TRAVEL      0.0928         C  3 -- C 10         +11.3% ( 43.2%)     99.3%
 RED. MASS   0.6491         C  1 -- C  5          +7.7% ( 35.7%)     74.9%
 EFF. MASS   5.6916

 VIBRATION   40   40A         ATOM PAIR      ENERGY CONTRIBUTION    RADIAL
 FREQ.      1388.51         C  4 -- H 16         +14.7% ( 41.4%)      0.2%
 T-DIPOLE    0.0289         C  2 -- H 13         +11.3% ( 36.3%)      5.6%
 TRAVEL      0.1168         C  2 -- H 12         +10.9% ( 35.6%)      6.8%
 RED. MASS   0.2400         C  4 -- H 18         +10.2% ( 34.5%)      1.9%
 EFF. MASS   3.5589

 VIBRATION   41   41A         ATOM PAIR      ENERGY CONTRIBUTION    RADIAL
 FREQ.      1391.23         C  4 -- H 18         +21.3% ( 48.6%)      0.9%
 T-DIPOLE    0.0710         C  4 -- H 16         +14.1% ( 39.6%)      5.6%
 TRAVEL      0.1216         C  2 -- H 13         +11.2% ( 35.2%)      6.3%
 RED. MASS   0.2825         C  2 -- H 12         +10.7% ( 34.5%)      7.5%
 EFF. MASS   3.2779

 VIBRATION   42   42A         ATOM PAIR      ENERGY CONTRIBUTION    RADIAL
 FREQ.      1394.26         C  4 -- H 17         +31.9% ( 56.4%)      0.0%
 T-DIPOLE    0.0805         C  4 -- H 18         +14.3% ( 37.8%)     11.5%
 TRAVEL      0.1327         C  4 -- H 16         +10.5% ( 32.3%)     11.0%
 RED. MASS   0.3098         C  2 -- C  5          +6.3% ( 25.0%)     79.5%
 EFF. MASS   2.7446

 VIBRATION   43   43A         ATOM PAIR      ENERGY CONTRIBUTION    RADIAL
 FREQ.      1398.71         C  3 -- C  8         +19.2% ( 62.9%)     99.6%
 T-DIPOLE    0.0690         C  3 -- H 15         +13.6% ( 53.0%)      3.2%
 TRAVEL      0.0790         C  3 -- H 14         +13.1% ( 52.0%)      2.6%
 RED. MASS   1.3913         C  3 -- C 10         +11.1% ( 47.8%)     20.8%
 EFF. MASS   7.7283

 VIBRATION   44   44A         ATOM PAIR      ENERGY CONTRIBUTION    RADIAL
 FREQ.      1444.46         C  1 -- C  5         +11.8% ( 53.5%)     75.8%
 T-DIPOLE    0.0396         C  1 -- C  9         +11.5% ( 52.9%)     85.1%
 TRAVEL      0.0663         C  3 -- C 10          +8.0% ( 44.2%)     91.0%
 RED. MASS   1.3208         C  1 -- C  6          +7.4% ( 42.3%)      2.8%
 EFF. MASS  10.6311

 VIBRATION   45   45A         ATOM PAIR      ENERGY CONTRIBUTION    RADIAL
 FREQ.      1489.43         C  1 -- C  6         +22.0% ( 73.2%)     97.0%
 T-DIPOLE    0.1155         C  4 -- C  6         +19.0% ( 68.0%)     77.1%
 TRAVEL      0.0642         C  6 -- C  7         +11.1% ( 52.0%)      8.9%
 RED. MASS   2.8426         C  1 -- C  9          +9.5% ( 48.2%)     81.7%
 EFF. MASS  10.9976

 VIBRATION   46   46A         ATOM PAIR      ENERGY CONTRIBUTION    RADIAL
 FREQ.      1852.23         C  9 -- C 10         +28.7% ( 79.8%)    100.0%
 T-DIPOLE    0.1531         C  6 -- C  7         +12.7% ( 53.1%)     98.0%
 TRAVEL      0.0553         C  1 -- C  9          +9.2% ( 45.1%)     50.6%
 RED. MASS   2.7915         C  3 -- C 10          +9.2% ( 45.1%)     49.7%
 EFF. MASS  11.8920

 VIBRATION   47   47A         ATOM PAIR      ENERGY CONTRIBUTION    RADIAL
 FREQ.      1868.29         C  6 -- C  7         +29.0% ( 79.5%)     97.7%
 T-DIPOLE    0.0770         C  9 -- C 10         +14.5% ( 56.3%)    100.0%
 TRAVEL      0.0551         C  4 -- C  6         +12.3% ( 51.7%)     63.7%
 RED. MASS   3.0668         C  1 -- C  6         +10.9% ( 48.7%)      1.2%
 EFF. MASS  11.8782

 VIBRATION   48   48A         ATOM PAIR      ENERGY CONTRIBUTION    RADIAL
 FREQ.      1932.34         C  5 -- C  8         +41.1% ( 94.7%)     99.2%
 T-DIPOLE    0.1203         C  2 -- C  5         +16.3% ( 59.7%)     50.7%
 TRAVEL      0.0541         C  1 -- C  5         +15.9% ( 58.9%)     26.7%
 RED. MASS   5.0439         C  3 -- C  8         +10.2% ( 47.2%)     40.8%
 EFF. MASS  11.9210

 VIBRATION   49   49A         ATOM PAIR      ENERGY CONTRIBUTION    RADIAL
 FREQ.      2844.19         C  1 -- H 11         +97.1% (100.0%)    100.0%
 T-DIPOLE    0.1030         C  1 -- C  9          +1.0% (  9.9%)      7.4%
 TRAVEL      0.1288         C  1 -- C  5          +1.0% (  9.9%)     10.8%
 RED. MASS   0.9297         C  1 -- C  6          +1.0% (  9.9%)      9.0%
 EFF. MASS   1.4281

 VIBRATION   50   50A         ATOM PAIR      ENERGY CONTRIBUTION    RADIAL
 FREQ.      2939.74         C  3 -- H 14         +62.9% ( 82.2%)     97.8%
 T-DIPOLE    0.0395         C  3 -- H 15         +34.8% ( 61.1%)     94.6%
 TRAVEL      0.1223         C  3 -- C  8          +1.1% ( 10.8%)      0.3%
 RED. MASS   0.5566         C  3 -- C 10          +1.1% ( 10.8%)      0.2%
 EFF. MASS   1.5325

 VIBRATION   51   51A         ATOM PAIR      ENERGY CONTRIBUTION    RADIAL
 FREQ.      2971.34         C  2 -- H 13         +56.3% ( 77.7%)     97.4%
 T-DIPOLE    0.0473         C  2 -- H 12         +41.6% ( 66.8%)     95.8%
 TRAVEL      0.1216         C  2 -- C  7          +1.1% ( 10.8%)      0.1%
 RED. MASS   0.5286         C  2 -- C  5          +1.1% ( 10.8%)      0.1%
 EFF. MASS   1.5347

 VIBRATION   52   52A         ATOM PAIR      ENERGY CONTRIBUTION    RADIAL
 FREQ.      3020.40         C  3 -- H 15         +63.9% ( 79.0%)     99.0%
 T-DIPOLE    0.0893         C  3 -- H 14         +33.7% ( 57.4%)     95.0%
 TRAVEL      0.1315         C  3 -- C 10          +0.7% (  8.3%)     21.7%
 RED. MASS   0.5138         C  3 -- C  8          +0.7% (  8.2%)     23.5%
 EFF. MASS   1.2905

 VIBRATION   53   53A         ATOM PAIR      ENERGY CONTRIBUTION    RADIAL
 FREQ.      3044.50         C  2 -- H 12         +57.3% ( 74.8%)     98.3%
 T-DIPOLE    0.1096         C  2 -- H 13         +41.2% ( 63.4%)     96.3%
 TRAVEL      0.1311         C  2 -- C  5          +0.7% (  8.4%)     38.1%
 RED. MASS   0.4947         C  2 -- C  7          +0.7% (  8.4%)     33.7%
 EFF. MASS   1.2879

 VIBRATION   54   54A         ATOM PAIR      ENERGY CONTRIBUTION    RADIAL
 FREQ.      3056.66         C 10 -- H 21         +47.6% ( 70.0%)    100.0%
 T-DIPOLE    0.3052         C  9 -- H 20         +46.8% ( 69.5%)    100.0%
 TRAVEL      0.1230         C  4 -- H 17          +2.1% ( 14.8%)     99.0%
 RED. MASS   0.4361         C  9 -- C 10          +1.1% ( 10.4%)      0.0%
 EFF. MASS   1.4590

 VIBRATION   55   55A         ATOM PAIR      ENERGY CONTRIBUTION    RADIAL
 FREQ.      3063.65         C  4 -- H 17         +60.8% ( 80.4%)     98.5%
 T-DIPOLE    0.0874         C  4 -- H 16         +31.0% ( 57.4%)     93.6%
 TRAVEL      0.1210         C  4 -- H 18          +3.6% ( 19.5%)     44.8%
 RED. MASS   0.4938         C 10 -- H 21          +3.2% ( 18.5%)    100.0%
 EFF. MASS   1.5022

 VIBRATION   56   56A         ATOM PAIR      ENERGY CONTRIBUTION    RADIAL
 FREQ.      3075.31         C  8 -- H 22         +53.8% ( 74.5%)    100.0%
 T-DIPOLE    0.3953         C  9 -- H 20         +21.8% ( 47.5%)     99.9%
 TRAVEL      0.1191         C 10 -- H 21         +17.8% ( 42.9%)     99.9%
 RED. MASS   0.3676         C  4 -- H 16          +2.0% ( 14.3%)     98.1%
 EFF. MASS   1.5470

 VIBRATION   57   57A         ATOM PAIR      ENERGY CONTRIBUTION    RADIAL
 FREQ.      3076.82         C  4 -- H 18         +46.3% ( 70.0%)     98.3%
 T-DIPOLE    0.1128         C  4 -- H 16         +29.1% ( 55.5%)     94.0%
 TRAVEL      0.1200         C  8 -- H 22         +13.6% ( 37.9%)    100.0%
 RED. MASS   0.3388         C  4 -- H 17          +5.3% ( 23.6%)     60.8%
 EFF. MASS   1.5211

 VIBRATION   58   58A         ATOM PAIR      ENERGY CONTRIBUTION    RADIAL
 FREQ.      3077.53         C  8 -- H 22         +28.4% ( 54.2%)    100.0%
 T-DIPOLE    0.1830         C  9 -- H 20         +26.2% ( 52.1%)     99.9%
 TRAVEL      0.1181         C 10 -- H 21         +24.9% ( 50.7%)     99.9%
 RED. MASS   0.2269         C  4 -- H 18         +10.5% ( 33.0%)     98.7%
 EFF. MASS   1.5702

 VIBRATION   59   59A         ATOM PAIR      ENERGY CONTRIBUTION    RADIAL
 FREQ.      3125.39         C  7 -- H 19         +96.5% ( 99.9%)    100.0%
 T-DIPOLE    0.3897         C  6 -- C  7          +1.8% ( 13.6%)     48.5%
 TRAVEL      0.1178         C  2 -- C  7          +1.6% ( 13.0%)     23.9%
 RED. MASS   0.9279
 EFF. MASS   1.5539

 VIBRATION   60   60A         ATOM PAIR      ENERGY CONTRIBUTION    RADIAL
 FREQ.      3164.09         C  4 -- H 18         +38.7% ( 60.0%)     97.8%
 T-DIPOLE    0.0569         C  4 -- H 16         +32.7% ( 55.1%)     97.0%
 TRAVEL      0.1367         C  4 -- H 17         +28.2% ( 51.2%)     96.2%
 RED. MASS   0.3314         C  4 -- C  6          +0.3% (  5.5%)     98.7%
 EFF. MASS   1.1404

      SYMMETRY NUMBER FOR POINT-GROUP C1  =  1


          SYSTEM IS A GROUND STATE



 InChI=1S/C10H12/c1-8-6-7-9-4-2-3-5-10(8)9/h3-6,10H,2,7H2,1H3


          MOLECULE IS NOT LINEAR

          THERE ARE 60 GENUINE VIBRATIONS IN THIS SYSTEM
          THIS THERMODYNAMICS CALCULATION IS LIMITED TO
          MOLECULES WHICH HAVE NO INTERNAL ROTATIONS




                    CALCULATED THERMODYNAMIC PROPERTIES
                                          *
   TEMP. (K)   PARTITION FUNCTION   H.O.F.    ENTHALPY  HEAT CAPACITY ENTROPY
                                   KCAL/MOL   CAL/MOLE    CAL/K/MOL  CAL/K/MOL


 298.00  VIB.     0.5772D+02                  3642.5823    28.8528    20.2827
         ROT.     0.5476D+06                   888.2813     2.9808    29.2384
         INT.     0.3161D+08                  4530.8636    31.8336    49.5211
         TRA.     0.1470D+28                  1480.4688     4.9680    40.5480
         TOT.                       30.515    6011.3324    36.8016    90.0690

 200.00  VIB.     0.8692D+01                  1421.5444    16.7803    11.4048
         ROT.     0.3011D+06                   596.1620     2.9808    28.0497
         INT.     0.2617D+07                  2017.7064    19.7611    39.4545
         TRA.     0.8080D+27                   993.6033     4.9680    38.5668
         TOT.                       27.515    3011.3096    24.7291    78.0214

 210.00  VIB.     0.1041D+02                  1594.9746    17.9108    12.2508
         ROT.     0.3239D+06                   625.9700     2.9808    28.1951
         INT.     0.3372D+07                  2220.9447    20.8917    40.4459
         TRA.     0.8694D+27                  1043.2834     4.9680    38.8092
         TOT.                       27.768    3264.2281    25.8597    79.2551

 220.00  VIB.     0.1251D+02                  1779.8613    19.0713    13.1107
         ROT.     0.3474D+06                   655.7781     2.9808    28.3338
         INT.     0.4345D+07                  2435.6395    22.0522    41.4445
         TRA.     0.9322D+27                  1092.9636     4.9680    39.0403
         TOT.                       28.033    3528.6030    27.0202    80.4848

 230.00  VIB.     0.1507D+02                  1976.4953    20.2599    13.9846
         ROT.     0.3713D+06                   685.5862     2.9808    28.4663
         INT.     0.5597D+07                  2662.0815    23.2407    42.4509
         TRA.     0.9965D+27                  1142.6437     4.9680    39.2612
         TOT.                       28.309    3804.7253    28.2088    81.7120

 240.00  VIB.     0.1822D+02                  2185.1451    21.4741    14.8724
         ROT.     0.3958D+06                   715.3943     2.9808    28.5932
         INT.     0.7210D+07                  2900.5395    24.4549    43.4655
         TRA.     0.1062D+28                  1192.3239     4.9680    39.4726
         TOT.                       28.597    4092.8634    29.4229    82.9381

 250.00  VIB.     0.2208D+02                  2406.0518    22.7108    15.7740
         ROT.     0.4208D+06                   745.2024     2.9808    28.7149
         INT.     0.9291D+07                  3151.2542    25.6916    44.4888
         TRA.     0.1129D+28                  1242.0041     4.9680    39.6754
         TOT.                       28.897    4393.2583    30.6596    84.1643

 260.00  VIB.     0.2684D+02                  2639.4246    23.9667    16.6891
         ROT.     0.4463D+06                   775.0105     2.9808    28.8318
         INT.     0.1198D+08                  3414.4351    26.9475    45.5209
         TRA.     0.1198D+28                  1291.6842     4.9680    39.8703
         TOT.                       29.210    4706.1193    31.9155    85.3912

 270.00  VIB.     0.3271D+02                  2885.4386    25.2384    17.6174
         ROT.     0.4723D+06                   804.8186     2.9808    28.9443
         INT.     0.1545D+08                  3690.2572    28.2192    46.5617
         TRA.     0.1267D+28                  1341.3644     4.9680    40.0578
         TOT.                       29.536    5031.6216    33.1872    86.6195

 280.00  VIB.     0.3997D+02                  3144.2335    26.5223    18.5585
         ROT.     0.4987D+06                   834.6267     2.9808    29.0527
         INT.     0.1993D+08                  3978.8603    29.5031    47.6111
         TRA.     0.1338D+28                  1391.0445     4.9680    40.2384
         TOT.                       29.874    5369.9048    34.4711    87.8496

 290.00  VIB.     0.4897D+02                  3415.9135    27.8148    19.5117
         ROT.     0.5257D+06                   864.4348     2.9808    29.1573
         INT.     0.2574D+08                  4280.3483    30.7956    48.6690
         TRA.     0.1411D+28                  1440.7247     4.9680    40.4128
         TOT.                       30.225    5721.0731    35.7637    89.0817

 300.00  VIB.     0.6015D+02                  3700.5476    29.1126    20.4765
         ROT.     0.5531D+06                   894.2429     2.9808    29.2583
         INT.     0.3327D+08                  4594.7906    32.0934    49.7349
         TRA.     0.1484D+28                  1490.4049     4.9680    40.5812
         TOT.                       30.589    6085.1954    37.0614    90.3160

 310.00  VIB.     0.7407D+02                  3998.1713    30.4122    21.4523
         ROT.     0.5810D+06                   924.0510     2.9808    29.3561
         INT.     0.4304D+08                  4922.2223    33.3930    50.8084
         TRA.     0.1559D+28                  1540.0850     4.9680    40.7441
         TOT.                       30.966    6462.3074    38.3610    91.5525

 320.00  VIB.     0.9143D+02                  4308.7881    31.7107    22.4384
         ROT.     0.6093D+06                   953.8591     2.9808    29.4507
         INT.     0.5571D+08                  5262.6473    34.6915    51.8891
         TRA.     0.1635D+28                  1589.7652     4.9680    40.9018
         TOT.                       31.356    6852.4125    39.6595    92.7909

 330.00  VIB.     0.1131D+03                  4632.3721    33.0052    23.4340
         ROT.     0.6381D+06                   983.6672     2.9808    29.5424
         INT.     0.7219D+08                  5616.0393    35.9860    52.9764
         TRA.     0.1713D+28                  1639.4454     4.9680    41.0547
         TOT.                       31.759    7255.4847    40.9540    94.0311

 340.00  VIB.     0.1403D+03                  4968.8699    34.2931    24.4385
         ROT.     0.6674D+06                  1013.4753     2.9808    29.6314
         INT.     0.9362D+08                  5982.3452    37.2739    54.0699
         TRA.     0.1791D+28                  1689.1255     4.9680    41.2030
         TOT.                       32.175    7671.4707    42.2419    95.2729

 350.00  VIB.     0.1744D+03                  5318.2036    35.5720    25.4510
         ROT.     0.6970D+06                  1043.2834     2.9808    29.7178
         INT.     0.1215D+09                  6361.4870    38.5528    55.1688
         TRA.     0.1871D+28                  1738.8057     4.9680    41.3470
         TOT.                       32.604    8100.2927    43.5208    96.5158

 360.00  VIB.     0.2172D+03                  5680.2731    36.8399    26.4709
         ROT.     0.7271D+06                  1073.0915     2.9808    29.8018
         INT.     0.1579D+09                  6753.3646    39.8207    56.2727
         TRA.     0.1951D+28                  1788.4859     4.9680    41.4870
         TOT.                       33.046    8541.8505    44.7887    97.7596

 370.00  VIB.     0.2710D+03                  6054.9590    38.0950    27.4974
         ROT.     0.7576D+06                  1102.8996     2.9808    29.8835
         INT.     0.2053D+09                  7157.8586    41.0758    57.3809
         TRA.     0.2033D+28                  1838.1660     4.9680    41.6231
         TOT.                       33.500    8996.0246    46.0438    99.0040

 380.00  VIB.     0.3389D+03                  6442.1245    39.3356    28.5298
         ROT.     0.7885D+06                  1132.7077     2.9808    29.9629
         INT.     0.2672D+09                  7574.8322    42.3164    58.4928
         TRA.     0.2116D+28                  1887.8462     4.9680    41.7556
         TOT.                       33.967    9462.6784    47.2844   100.2484

 390.00  VIB.     0.4246D+03                  6841.6186    40.5605    29.5675
         ROT.     0.8199D+06                  1162.5158     2.9808    30.0404
         INT.     0.3481D+09                  8004.1344    43.5413    59.6079
         TRA.     0.2200D+28                  1937.5263     4.9680    41.8846
         TOT.                       34.446    9941.6607    48.5093   101.4925

 400.00  VIB.     0.5329D+03                  7253.2776    41.7684    30.6096
         ROT.     0.8516D+06                  1192.3239     2.9808    30.1158
         INT.     0.4538D+09                  8445.6015    44.7492    60.7255
         TRA.     0.2285D+28                  1987.2065     4.9680    42.0104
         TOT.                       34.937   10432.8080    49.7173   102.7359

   *: NOTE: HEATS OF FORMATION ARE RELATIVE TO THE
            ELEMENTS IN THEIR STANDARD STATE AT 298K
              (=  Standard Enthalpy of Formation).

            Hvib:  Zero-point energy is not included.
                   frequencies of less than zero cm-1 are not included.
            Hrot = (3/2)RT
            Htra = (3/2)RT + pV = (5/2)RT

            Heat capacity is Cp, not Cv

          For more information, see: HTTP://OpenMOPAC.net/Manual/thermochemistry.html


           FORCE CONSTANT IN CARTESIAN COORDINATES (Millidynes/A)

    ATOM   CHEMICAL       X               Y               Z
   NUMBER   SYMBOL  FORCE CONSTANT  FORCE CONSTANT  FORCE CONSTANT

      1       C        9.814327        9.039171        7.613116
      2       C        9.711582        8.174469        7.882209
      3       C        8.773995        9.168534        7.843094
      4       C        8.662941        8.892489        8.095852
      5       C        8.747698       16.750992        2.912574
      6       C       15.128175        9.237897        3.910801
      7       C       14.848200        9.070229        3.352441
      8       C        9.562194       15.262850        2.464560
      9       C        7.194108       15.151945        4.944536
     10       C        7.355106       15.045651        4.709370
     11       H        1.134216        0.747874        3.813964
     12       H        2.638548        1.320929        2.384980
     13       H        1.448501        0.708545        4.111092
     14       H        1.180487        0.778968        4.173492
     15       H        0.773002        3.889876        1.653791
     16       H        2.534598        0.948464        3.159137
     17       H        1.912557        1.098585        3.612818
     18       H        2.082315        3.700226        0.952796
     19       H        2.381336        3.283290        0.758216
     20       H        2.463345        2.153035        1.654019
     21       H        2.990846        1.774327        1.513497
     22       H        3.707871        2.208717        0.363171

 **********************
 *                    *
 * JOB ENDED NORMALLY *
 *                    *
 **********************



 TOTAL JOB TIME:            10.05 SECONDS

 == MOPAC DONE ==
