 *******************************************************************************
 ** Site#: 14399        For non-commercial use only    Version 18.184L 64BITS **
 *******************************************************************************
 ** Cite this program as: MOPAC2016, Version: 18.184L, James J. P. Stewart,   **
 ** Stewart Computational Chemistry, web: HTTP://OpenMOPAC.net. Days left:  19**
 *******************************************************************************
 **                                                                           **
 **                                MOPAC2016                                  **
 **                                                                           **
 *******************************************************************************

                              PM3 CALCULATION RESULTS

 *******************************************************************************
 *  CALCULATION DONE:                                Fri Jun 14 02:23:23 2019  *
 *  PM3        - The PM3 Hamiltonian to be used
 *  PRECISE    - CRITERIA TO BE INCREASED BY 100 TIMES
 *  NOSYM      - POINT-GROUP SYMMETRY SET TO C1
 *  THREADS=1  - MULTI-THREADING NOT USED
 *  T=         - A TIME OF 172800.0 SECONDS REQUESTED
 *  DUMP=N     - RESTART FILE WRITTEN EVERY  7200.000 SECONDS
 *******************************************************************************
pm3  precise nosym THREADS=1
 InChI=1S/C7H10O/c1-2-6-4-5-7(3-1)8-6/h4-7H,1-3H2

   ATOM   CHEMICAL          X               Y               Z
  NUMBER   SYMBOL      (ANGSTROMS)     (ANGSTROMS)     (ANGSTROMS)
 
     1       O         -0.58540000  *  -0.31970000  *  -1.49480000  *
     2       C         -0.54700000  *   0.95440000  *  -0.89510000  *
     3       C         -0.70380000  *  -1.17150000  *  -0.37900000  *
     4       C          0.89710000  *   1.17860000  *  -0.39160000  *
     5       C          0.71140000  *  -1.33900000  *   0.21960000  *
     6       C          1.34030000  *   0.03940000  *   0.56940000  *
     7       C         -1.49680000  *   0.85120000  *   0.25240000  *
     8       C         -1.59100000  *  -0.42570000  *   0.56240000  *
     9       H         -0.86450000  *   1.73610000  *  -1.61720000  *
    10       H         -1.15070000  *  -2.14400000  *  -0.67520000  *
    11       H          0.97550000  *   2.16110000  *   0.12250000  *
    12       H          1.57850000  *   1.19720000  *  -1.26970000  *
    13       H          0.67010000  *  -1.97890000  *   1.12770000  *
    14       H          1.35370000  *  -1.85030000  *  -0.52980000  *
    15       H          1.03070000  *   0.31290000  *   1.60200000  *
    16       H          2.44860000  *  -0.04170000  *   0.57200000  *
    17       H         -1.94110000  *   1.66990000  *   0.80870000  *
    18       H         -2.12540000  *  -0.82990000  *   1.41560000  *
 


          CARTESIAN COORDINATES 

    NO.       ATOM           X           Y           Z

     1         O         -0.5854     -0.3197     -1.4948
     2         C         -0.5470      0.9544     -0.8951
     3         C         -0.7038     -1.1715     -0.3790
     4         C          0.8971      1.1786     -0.3916
     5         C          0.7114     -1.3390      0.2196
     6         C          1.3403      0.0394      0.5694
     7         C         -1.4968      0.8512      0.2524
     8         C         -1.5910     -0.4257      0.5624
     9         H         -0.8645      1.7361     -1.6172
    10         H         -1.1507     -2.1440     -0.6752
    11         H          0.9755      2.1611      0.1225
    12         H          1.5785      1.1972     -1.2697
    13         H          0.6701     -1.9789      1.1277
    14         H          1.3537     -1.8503     -0.5298
    15         H          1.0307      0.3129      1.6020
    16         H          2.4486     -0.0417      0.5720
    17         H         -1.9411      1.6699      0.8087
    18         H         -2.1254     -0.8299      1.4156

  H: (PM3): J. J. P. STEWART, J. COMP. CHEM. 10, 209 (1989).
  C: (PM3): J. J. P. STEWART, J. COMP. CHEM. 10, 209 (1989).
  O: (PM3): J. J. P. STEWART, J. COMP. CHEM. 10, 209 (1989).

           Empirical Formula: C7 H10 O  =    18 atoms



      MOLECULAR POINT GROUP   :   C1  


      RHF CALCULATION, NO. OF DOUBLY OCCUPIED LEVELS = 22


          Geometry optimization using EF

          DIAGONAL MATRIX USED AS START HESSIAN

 CYCLE:     1 TIME:   0.019 TIME LEFT:  2.00D  GRAD.:   118.425 HEAT: -14.71902
 CYCLE:     2 TIME:   0.037 TIME LEFT:  2.00D  GRAD.:   133.363 HEAT: -15.48684
 CYCLE:     3 TIME:   0.028 TIME LEFT:  2.00D  GRAD.:    66.275 HEAT: -18.01799
 CYCLE:     4 TIME:   0.030 TIME LEFT:  2.00D  GRAD.:    23.217 HEAT: -19.02644
 CYCLE:     5 TIME:   0.036 TIME LEFT:  2.00D  GRAD.:    24.211 HEAT: -19.24364
 CYCLE:     6 TIME:   0.026 TIME LEFT:  2.00D  GRAD.:    16.520 HEAT: -19.63416
 CYCLE:     7 TIME:   0.023 TIME LEFT:  2.00D  GRAD.:    23.295 HEAT: -19.81184
 CYCLE:     8 TIME:   0.032 TIME LEFT:  2.00D  GRAD.:    24.789 HEAT: -19.84557
 CYCLE:     9 TIME:   0.034 TIME LEFT:  2.00D  GRAD.:    10.775 HEAT: -19.98468
 CYCLE:    10 TIME:   0.035 TIME LEFT:  2.00D  GRAD.:     8.109 HEAT: -20.01044
 CYCLE:    11 TIME:   0.024 TIME LEFT:  2.00D  GRAD.:     8.756 HEAT: -20.01285
 CYCLE:    12 TIME:   0.028 TIME LEFT:  2.00D  GRAD.:    10.421 HEAT: -20.01337
 CYCLE:    13 TIME:   0.022 TIME LEFT:  2.00D  GRAD.:     8.916 HEAT: -20.02044
 CYCLE:    14 TIME:   0.021 TIME LEFT:  2.00D  GRAD.:     7.751 HEAT: -20.03203
 CYCLE:    15 TIME:   0.023 TIME LEFT:  2.00D  GRAD.:     7.314 HEAT: -20.03767
 CYCLE:    16 TIME:   0.059 TIME LEFT:  2.00D  GRAD.:     3.692 HEAT: -20.05175
 CYCLE:    17 TIME:   0.023 TIME LEFT:  2.00D  GRAD.:     5.963 HEAT: -20.04736
 CYCLE:    18 TIME:   0.021 TIME LEFT:  2.00D  GRAD.:     4.052 HEAT: -20.05690
 CYCLE:    19 TIME:   0.022 TIME LEFT:  2.00D  GRAD.:     4.663 HEAT: -20.05701
 CYCLE:    20 TIME:   0.023 TIME LEFT:  2.00D  GRAD.:     2.413 HEAT: -20.06648
 CYCLE:    21 TIME:   0.024 TIME LEFT:  2.00D  GRAD.:     4.324 HEAT: -20.06576
 CYCLE:    22 TIME:   0.028 TIME LEFT:  2.00D  GRAD.:     1.658 HEAT: -20.07595
 CYCLE:    23 TIME:   0.021 TIME LEFT:  2.00D  GRAD.:     2.031 HEAT: -20.08235
 CYCLE:    24 TIME:   0.024 TIME LEFT:  2.00D  GRAD.:     4.391 HEAT: -20.08941
 CYCLE:    25 TIME:   0.028 TIME LEFT:  2.00D  GRAD.:     2.828 HEAT: -20.09680
 CYCLE:    26 TIME:   0.028 TIME LEFT:  2.00D  GRAD.:     2.925 HEAT: -20.10217
 CYCLE:    27 TIME:   0.028 TIME LEFT:  2.00D  GRAD.:     2.997 HEAT: -20.10580
 CYCLE:    28 TIME:   0.022 TIME LEFT:  2.00D  GRAD.:     1.999 HEAT: -20.11145
 CYCLE:    29 TIME:   0.029 TIME LEFT:  2.00D  GRAD.:     1.888 HEAT: -20.11585
 CYCLE:    30 TIME:   0.028 TIME LEFT:  2.00D  GRAD.:     1.480 HEAT: -20.11954
 CYCLE:    31 TIME:   0.023 TIME LEFT:  2.00D  GRAD.:     1.160 HEAT: -20.12217
 CYCLE:    32 TIME:   0.028 TIME LEFT:  2.00D  GRAD.:     1.132 HEAT: -20.12453
 CYCLE:    33 TIME:   0.029 TIME LEFT:  2.00D  GRAD.:     0.993 HEAT: -20.12646
 CYCLE:    34 TIME:   0.026 TIME LEFT:  2.00D  GRAD.:     1.052 HEAT: -20.12830
 CYCLE:    35 TIME:   0.022 TIME LEFT:  2.00D  GRAD.:     1.261 HEAT: -20.13102
 CYCLE:    36 TIME:   0.022 TIME LEFT:  2.00D  GRAD.:     1.149 HEAT: -20.13382
 CYCLE:    37 TIME:   0.023 TIME LEFT:  2.00D  GRAD.:     0.776 HEAT: -20.13551
 CYCLE:    38 TIME:   0.022 TIME LEFT:  2.00D  GRAD.:     0.519 HEAT: -20.13632
 CYCLE:    39 TIME:   0.022 TIME LEFT:  2.00D  GRAD.:     0.352 HEAT: -20.13671
 CYCLE:    40 TIME:   0.022 TIME LEFT:  2.00D  GRAD.:     0.208 HEAT: -20.13690
 CYCLE:    41 TIME:   0.023 TIME LEFT:  2.00D  GRAD.:     0.124 HEAT: -20.13696
 CYCLE:    42 TIME:   0.022 TIME LEFT:  2.00D  GRAD.:     0.097 HEAT: -20.13698
 CYCLE:    43 TIME:   0.022 TIME LEFT:  2.00D  GRAD.:     0.081 HEAT: -20.13700
 CYCLE:    44 TIME:   0.024 TIME LEFT:  2.00D  GRAD.:     0.059 HEAT: -20.13701
 CYCLE:    45 TIME:   0.022 TIME LEFT:  2.00D  GRAD.:     0.051 HEAT: -20.13701
 CYCLE:    46 TIME:   0.022 TIME LEFT:  2.00D  GRAD.:     0.054 HEAT: -20.13702
 CYCLE:    47 TIME:   0.022 TIME LEFT:  2.00D  GRAD.:     0.047 HEAT: -20.13702

     GRADIENT =  0.04659  IS LESS THAN CUTOFF =  0.05000



 -------------------------------------------------------------------------------
 pm3  precise nosym THREADS=1
 InChI=1S/C7H10O/c1-2-6-4-5-7(3-1)8-6/h4-7H,1-3H2



     GEOMETRY OPTIMISED USING EIGENVECTOR FOLLOWING (EF).     
     SCF FIELD WAS ACHIEVED                                   


                              PM3 CALCULATION
                                                       MOPAC2016 (Version: 18.184L)
                                                       Fri Jun 14 02:23:24 2019
                                                       No. of days remaining =  19




          FINAL HEAT OF FORMATION =        -20.13702 KCAL/MOL =     -84.25331 KJ/MOL


          TOTAL ENERGY            =      -1276.60785 EV
          ELECTRONIC ENERGY       =      -6249.57433 EV  POINT GROUP:     C1  
          CORE-CORE REPULSION     =       4972.96648 EV
          COSMO AREA              =        142.07 SQUARE ANGSTROMS
          COSMO VOLUME            =        140.59 CUBIC ANGSTROMS

          GRADIENT NORM           =          0.04659 = 0.01098 PER ATOM
          IONIZATION POTENTIAL    =          9.953495 EV
          HOMO LUMO ENERGIES (EV) =         -9.953  0.804
          NO. OF FILLED LEVELS    =         22
          MOLECULAR WEIGHT        =        110.1554

          MOLECULAR DIMENSIONS (Angstroms)

            Atom       Atom       Distance
            H    17    H    14     5.03794
            H    18    H    12     4.73532
            O     1    H    15     3.52373


          SCF CALCULATIONS        =         56
 
          WALL-CLOCK TIME         =          1.296 SECONDS
          COMPUTATION TIME        =          0.555 SECONDS




   ATOM   CHEMICAL          X               Y               Z
  NUMBER   SYMBOL      (ANGSTROMS)     (ANGSTROMS)     (ANGSTROMS)
 
     1       O         -0.63048078  *  -0.31983934  *  -1.50940694  *
     2       C         -0.53334286  *   0.98544750  *  -0.89723300  *
     3       C         -0.69454087  *  -1.20156204  *  -0.36643824  *
     4       C          0.91215894  *   1.15708175  *  -0.40024203  *
     5       C          0.72893934  *  -1.32605995  *   0.20286376  *
     6       C          1.29673339  *   0.04486832  *   0.57861018  *
     7       C         -1.48248859  *   0.87128816  *   0.28874149  *
     8       C         -1.57832908  *  -0.42887494  *   0.60429215  *
     9       H         -0.82941589  *   1.72387359  *  -1.66612263  *
    10       H         -1.11567880  *  -2.16030772  *  -0.72358443  *
    11       H          1.03126286  *   2.14559098  *   0.08050939  *
    12       H          1.59629538  *   1.15414415  *  -1.27068480  *
    13       H          0.72543319  *  -1.99181806  *   1.08561324  *
    14       H          1.37744149  *  -1.81584894  *  -0.54897070  *
    15       H          0.93853297  *   0.31739617  *   1.59194294  *
    16       H          2.39848809  *  -0.01666642  *   0.65986067  *
    17       H         -1.95383893  *   1.73022841  *   0.75822742  *
    18       H         -2.14789908  *  -0.90468918  *   1.39774995  *

                             CARTESIAN COORDINATES

   1    O       -0.630480785    -0.319839337    -1.509406936
   2    C       -0.533342861     0.985447504    -0.897232999
   3    C       -0.694540867    -1.201562035    -0.366438235
   4    C        0.912158940     1.157081755    -0.400242030
   5    C        0.728939342    -1.326059949     0.202863756
   6    C        1.296733386     0.044868318     0.578610184
   7    C       -1.482488594     0.871288155     0.288741485
   8    C       -1.578329076    -0.428874937     0.604292153
   9    H       -0.829415893     1.723873589    -1.666122635
  10    H       -1.115678797    -2.160307715    -0.723584426
  11    H        1.031262865     2.145590980     0.080509387
  12    H        1.596295381     1.154144146    -1.270684800
  13    H        0.725433194    -1.991818058     1.085613240
  14    H        1.377441487    -1.815848939    -0.548970703
  15    H        0.938532966     0.317396171     1.591942941
  16    H        2.398488088    -0.016666423     0.659860667
  17    H       -1.953838929     1.730228414     0.758227419
  18    H       -2.147899084    -0.904689176     1.397749950


           Empirical Formula: C7 H10 O  =    18 atoms



      MOLECULAR POINT GROUP   :   C1  


                  EIGENVALUES  
 -42.49897 -33.47169 -31.00741 -30.87323 -23.26442 -23.06088 -19.72237 -19.41451
 -18.06910 -16.29710 -15.76026 -15.18953 -14.27456 -14.25783 -13.77791 -13.67819
 -12.93712 -12.37954 -11.92904 -11.46062 -10.97696  -9.95350   0.80415   3.02887
   3.12708   3.18546   3.44780   3.49957   3.72939   3.89092   3.93618   3.99327
   4.17640   4.22658   4.55039   4.63093   4.63155   4.89775   4.96005   5.11438
   5.50906   5.81108


              NET ATOMIC CHARGES AND DIPOLE CONTRIBUTIONS

  ATOM NO.   TYPE          CHARGE      No. of ELECS.   s-Pop       p-Pop       
    1          O          -0.261232        6.2612     1.87565     4.38558
    2          C           0.094718        3.9053     1.17703     2.72825
    3          C           0.094711        3.9053     1.17702     2.72826
    4          C          -0.118821        4.1188     1.16756     2.95127
    5          C          -0.118819        4.1188     1.16755     2.95127
    6          C          -0.090809        4.0908     1.16095     2.92986
    7          C          -0.168087        4.1681     1.21375     2.95434
    8          C          -0.168103        4.1681     1.21376     2.95434
    9          H           0.080110        0.9199     0.91989
   10          H           0.080115        0.9199     0.91989
   11          H           0.054680        0.9453     0.94532
   12          H           0.061355        0.9386     0.93864
   13          H           0.054674        0.9453     0.94533
   14          H           0.061348        0.9387     0.93865
   15          H           0.048687        0.9513     0.95131
   16          H           0.049839        0.9502     0.95016
   17          H           0.122816        0.8772     0.87718
   18          H           0.122819        0.8772     0.87718
 DIPOLE           X         Y         Z       TOTAL
 POINT-CHG.     0.165     0.257     1.111     1.152
 HYBRID         0.067     0.094     0.406     0.422
 SUM            0.232     0.351     1.517     1.574


          ATOMIC ORBITAL ELECTRON POPULATIONS

     Atom    s        px        py        pz   
    1  O   1.87565   1.95504   1.15509   1.27545
    2  C   1.17703   0.92850   0.88033   0.91943
    3  C   1.17702   0.93163   0.93723   0.85940
    4  C   1.16756   0.96874   0.98248   1.00004
    5  C   1.16755   0.96791   0.97023   1.01313
    6  C   1.16095   0.99977   0.94503   0.98506
    7  C   1.21375   0.98552   0.97264   0.99617
    8  C   1.21376   0.98854   0.96464   1.00117
    9  H   0.91989
   10  H   0.91989
   11  H   0.94532
   12  H   0.93864
   13  H   0.94533
   14  H   0.93865
   15  H   0.95131
   16  H   0.95016
   17  H   0.87718
   18  H   0.87718
 *******************************************************************************
 ** Site#: 14399        For non-commercial use only    Version 18.184L 64BITS **
 *******************************************************************************
 ** Cite this program as: MOPAC2016, Version: 18.184L, James J. P. Stewart,   **
 ** Stewart Computational Chemistry, web: HTTP://OpenMOPAC.net. Days left:  19**
 *******************************************************************************
 **                                                                           **
 **                                MOPAC2016                                  **
 **                                                                           **
 *******************************************************************************

                              PM3 CALCULATION RESULTS

 *******************************************************************************
 *  CALCULATION DONE:                                Fri Jun 14 02:23:24 2019  *
 *  PM3        - The PM3 Hamiltonian to be used
 *  OLDGEO     - PREVIOUS GEOMETRY TO BE USED
 *  PRECISE    - CRITERIA TO BE INCREASED BY 100 TIMES
 *  NOSYM      - POINT-GROUP SYMMETRY SET TO C1
 *  THREADS=1  - MULTI-THREADING NOT USED
 *  T=         - A TIME OF 172800.0 SECONDS REQUESTED
 *  DUMP=N     - RESTART FILE WRITTEN EVERY  7200.000 SECONDS
 *  THERMO     - THERMODYNAMIC QUANTITIES TO BE CALCULATED
 *******************************************************************************
oldgeo thermo nosym precise THREADS=1  pm3
 InChI=1S/C7H10O/c1-2-6-4-5-7(3-1)8-6/h4-7H,1-3H2

   ATOM   CHEMICAL          X               Y               Z
  NUMBER   SYMBOL      (ANGSTROMS)     (ANGSTROMS)     (ANGSTROMS)
 
     1       O         -0.63048078  *  -0.31983934  *  -1.50940694  *
     2       C         -0.53334286  *   0.98544750  *  -0.89723300  *
     3       C         -0.69454087  *  -1.20156204  *  -0.36643824  *
     4       C          0.91215894  *   1.15708175  *  -0.40024203  *
     5       C          0.72893934  *  -1.32605995  *   0.20286376  *
     6       C          1.29673339  *   0.04486832  *   0.57861018  *
     7       C         -1.48248859  *   0.87128816  *   0.28874149  *
     8       C         -1.57832908  *  -0.42887494  *   0.60429215  *
     9       H         -0.82941589  *   1.72387359  *  -1.66612263  *
    10       H         -1.11567880  *  -2.16030772  *  -0.72358443  *
    11       H          1.03126286  *   2.14559098  *   0.08050939  *
    12       H          1.59629538  *   1.15414415  *  -1.27068480  *
    13       H          0.72543319  *  -1.99181806  *   1.08561324  *
    14       H          1.37744149  *  -1.81584894  *  -0.54897070  *
    15       H          0.93853297  *   0.31739617  *   1.59194294  *
    16       H          2.39848809  *  -0.01666642  *   0.65986067  *
    17       H         -1.95383893  *   1.73022841  *   0.75822742  *
    18       H         -2.14789908  *  -0.90468918  *   1.39774995  *
 


          CARTESIAN COORDINATES 

    NO.       ATOM           X           Y           Z

     1         O         -0.6305     -0.3198     -1.5094
     2         C         -0.5333      0.9854     -0.8972
     3         C         -0.6945     -1.2016     -0.3664
     4         C          0.9122      1.1571     -0.4002
     5         C          0.7289     -1.3261      0.2029
     6         C          1.2967      0.0449      0.5786
     7         C         -1.4825      0.8713      0.2887
     8         C         -1.5783     -0.4289      0.6043
     9         H         -0.8294      1.7239     -1.6661
    10         H         -1.1157     -2.1603     -0.7236
    11         H          1.0313      2.1456      0.0805
    12         H          1.5963      1.1541     -1.2707
    13         H          0.7254     -1.9918      1.0856
    14         H          1.3774     -1.8158     -0.5490
    15         H          0.9385      0.3174      1.5919
    16         H          2.3985     -0.0167      0.6599
    17         H         -1.9538      1.7302      0.7582
    18         H         -2.1479     -0.9047      1.3977

  H: (PM3): J. J. P. STEWART, J. COMP. CHEM. 10, 209 (1989).
  C: (PM3): J. J. P. STEWART, J. COMP. CHEM. 10, 209 (1989).
  O: (PM3): J. J. P. STEWART, J. COMP. CHEM. 10, 209 (1989).

           Empirical Formula: C7 H10 O  =    18 atoms



      MOLECULAR POINT GROUP   :   C1  


      RHF CALCULATION, NO. OF DOUBLY OCCUPIED LEVELS = 22



          HEAT OF FORMATION =     -20.137024 KCALS/MOLE


          CARTESIAN COORDINATE DERIVATIVES

   NUMBER  ATOM         X            Y            Z

     1       O     -0.000825    -0.004172     0.002833
     2       C      0.002652    -0.003892    -0.006910
     3       C     -0.001875     0.003149     0.007739
     4       C      0.002719    -0.004046     0.009559
     5       C      0.011550     0.001318     0.008640
     6       C     -0.011177     0.005224    -0.001931
     7       C      0.005151    -0.008113     0.014087
     8       C      0.003183    -0.001182     0.014656
     9       H      0.008193     0.004701    -0.007410
    10       H      0.005927    -0.003494    -0.006270
    11       H     -0.007102    -0.001013    -0.000037
    12       H     -0.007936     0.002485    -0.011714
    13       H      0.003197    -0.000467    -0.011315
    14       H      0.002779     0.004284    -0.004377
    15       H     -0.001898     0.002618    -0.000649
    16       H      0.001920    -0.000098     0.006332
    17       H     -0.007079    -0.001281    -0.011355
    18       H     -0.009378     0.003979    -0.001878
 


          GRADIENT NORM =   0.04672


          TIME FOR SCF CALCULATION =    0.03

          TIME FOR DERIVATIVES     =    0.01

          MOLECULAR WEIGHT =  110.16



          ROTATIONAL CONSTANTS IN CM(-1)

          A =    0.09922317   B =    0.08839121   C =    0.07208177



           PRINCIPAL MOMENTS OF INERTIA IN UNITS OF 10**(-40)*GRAM-CM**2

          A =      282.1193   B =      316.6918   C =      388.3475


          ORIENTATION OF MOLECULE IN FORCE CALCULATION

    NO.       ATOM         X         Y         Z

     1          O      -0.8385   -1.0476   -0.3866
     2          C       0.6065   -1.0476   -0.3866
     3          C      -1.1550    0.3622   -0.3866
     4          C       1.0693   -0.7138    1.0418
     5          C      -0.9306    0.8873    1.0416
     6          C       0.5051    0.6311    1.5064
     7          C       0.9420    0.1037   -1.3259
     8          C      -0.1052    0.9418   -1.3259
     9          H       0.9279   -2.0472   -0.7355
    10          H      -2.2007    0.4566   -0.7355
    11          H       2.1739   -0.6997    1.0872
    12          H       0.7439   -1.5218    1.7252
    13          H      -1.1583    1.9684    1.0864
    14          H      -1.6480    0.3936    1.7252
    15          H       1.1566    1.4447    1.1281
    16          H       0.5580    0.6973    2.6096
    17          H       1.8852    0.1803   -1.8598
    18          H      -0.2371    1.8789   -1.8596


    FIRST DERIVATIVES WILL BE USED IN THE CALCULATION OF SECOND DERIVATIVES

          ESTIMATED TIME TO COMPLETE CALCULATION =        8.02 SECONDS

    FOR POINT-GROUP C1   THERE ARE   1 UNIQUE SYMMETRY FUNCTIONS.

 STEP:   1 TIME =     0.04 SECS, INTEGRAL =      0.04 TIME LEFT: 172799.92
 STEP:   2 TIME =     0.03 SECS, INTEGRAL =      0.08 TIME LEFT: 172799.89
 STEP:   3 TIME =     0.03 SECS, INTEGRAL =      0.11 TIME LEFT: 172799.86
 STEP:   4 TIME =     0.03 SECS, INTEGRAL =      0.14 TIME LEFT: 172799.83
 STEP:   5 TIME =     0.03 SECS, INTEGRAL =      0.17 TIME LEFT: 172799.79
 STEP:   6 TIME =     0.03 SECS, INTEGRAL =      0.21 TIME LEFT: 172799.76
 STEP:   7 TIME =     0.04 SECS, INTEGRAL =      0.24 TIME LEFT: 172799.72
 STEP:   8 TIME =     0.04 SECS, INTEGRAL =      0.28 TIME LEFT: 172799.68
 STEP:   9 TIME =     0.04 SECS, INTEGRAL =      0.31 TIME LEFT: 172799.65
 STEP:  10 TIME =     0.03 SECS, INTEGRAL =      0.35 TIME LEFT: 172799.61
 STEP:  11 TIME =     0.03 SECS, INTEGRAL =      0.38 TIME LEFT: 172799.58
 STEP:  12 TIME =     0.03 SECS, INTEGRAL =      0.42 TIME LEFT: 172799.55
 STEP:  13 TIME =     0.03 SECS, INTEGRAL =      0.45 TIME LEFT: 172799.51
 STEP:  14 TIME =     0.04 SECS, INTEGRAL =      0.49 TIME LEFT: 172799.48
 STEP:  15 TIME =     0.03 SECS, INTEGRAL =      0.52 TIME LEFT: 172799.44
 STEP:  16 TIME =     0.03 SECS, INTEGRAL =      0.55 TIME LEFT: 172799.41
 STEP:  17 TIME =     0.03 SECS, INTEGRAL =      0.58 TIME LEFT: 172799.38
 STEP:  18 TIME =     0.03 SECS, INTEGRAL =      0.62 TIME LEFT: 172799.35
 STEP:  19 TIME =     0.05 SECS, INTEGRAL =      0.66 TIME LEFT: 172799.30
 STEP:  20 TIME =     0.04 SECS, INTEGRAL =      0.71 TIME LEFT: 172799.26
 STEP:  21 TIME =     0.04 SECS, INTEGRAL =      0.74 TIME LEFT: 172799.22
 STEP:  22 TIME =     0.03 SECS, INTEGRAL =      0.77 TIME LEFT: 172799.19
 STEP:  23 TIME =     0.04 SECS, INTEGRAL =      0.81 TIME LEFT: 172799.15
 STEP:  24 TIME =     0.04 SECS, INTEGRAL =      0.85 TIME LEFT: 172799.11
 STEP:  25 TIME =     0.04 SECS, INTEGRAL =      0.89 TIME LEFT: 172799.08
 STEP:  26 TIME =     0.03 SECS, INTEGRAL =      0.92 TIME LEFT: 172799.05
 STEP:  27 TIME =     0.03 SECS, INTEGRAL =      0.95 TIME LEFT: 172799.02
 STEP:  28 TIME =     0.03 SECS, INTEGRAL =      0.98 TIME LEFT: 172798.98
 STEP:  29 TIME =     0.03 SECS, INTEGRAL =      1.01 TIME LEFT: 172798.95
 STEP:  30 TIME =     0.05 SECS, INTEGRAL =      1.06 TIME LEFT: 172798.91
 STEP:  31 TIME =     0.04 SECS, INTEGRAL =      1.10 TIME LEFT: 172798.86
 STEP:  32 TIME =     0.04 SECS, INTEGRAL =      1.14 TIME LEFT: 172798.82
 STEP:  33 TIME =     0.04 SECS, INTEGRAL =      1.18 TIME LEFT: 172798.78
 STEP:  34 TIME =     0.04 SECS, INTEGRAL =      1.22 TIME LEFT: 172798.74
 STEP:  35 TIME =     0.03 SECS, INTEGRAL =      1.25 TIME LEFT: 172798.71
 STEP:  36 TIME =     0.03 SECS, INTEGRAL =      1.29 TIME LEFT: 172798.68
 STEP:  37 TIME =     0.04 SECS, INTEGRAL =      1.32 TIME LEFT: 172798.64
 STEP:  38 TIME =     0.03 SECS, INTEGRAL =      1.35 TIME LEFT: 172798.61
 STEP:  39 TIME =     0.03 SECS, INTEGRAL =      1.39 TIME LEFT: 172798.58
 STEP:  40 TIME =     0.03 SECS, INTEGRAL =      1.42 TIME LEFT: 172798.55
 STEP:  41 TIME =     0.03 SECS, INTEGRAL =      1.45 TIME LEFT: 172798.51
 STEP:  42 TIME =     0.03 SECS, INTEGRAL =      1.48 TIME LEFT: 172798.48
 STEP:  43 TIME =     0.03 SECS, INTEGRAL =      1.52 TIME LEFT: 172798.45
 STEP:  44 TIME =     0.03 SECS, INTEGRAL =      1.55 TIME LEFT: 172798.41
 STEP:  45 TIME =     0.03 SECS, INTEGRAL =      1.58 TIME LEFT: 172798.38
 STEP:  46 TIME =     0.03 SECS, INTEGRAL =      1.61 TIME LEFT: 172798.35
 STEP:  47 TIME =     0.03 SECS, INTEGRAL =      1.65 TIME LEFT: 172798.32
 STEP:  48 TIME =     0.03 SECS, INTEGRAL =      1.68 TIME LEFT: 172798.29
 STEP:  49 TIME =     0.03 SECS, INTEGRAL =      1.71 TIME LEFT: 172798.25
 STEP:  50 TIME =     0.03 SECS, INTEGRAL =      1.74 TIME LEFT: 172798.22
 STEP:  51 TIME =     0.03 SECS, INTEGRAL =      1.78 TIME LEFT: 172798.19
 STEP:  52 TIME =     0.03 SECS, INTEGRAL =      1.81 TIME LEFT: 172798.15
 STEP:  53 TIME =     0.04 SECS, INTEGRAL =      1.85 TIME LEFT: 172798.11
 STEP:  54 TIME =     0.04 SECS, INTEGRAL =      1.89 TIME LEFT: 172798.08

(To convert to Hartree/Bohr^2, multiply by (10^(-21) x N x a0^2)/(4.184 x 627.51) =  0.0642)


           FORCE MATRIX IN MILLIDYNES/ANGSTROM


                  O  1       C  2       C  3       C  4       C  5       C  6
 ------------------------------------------------------------------------------
     O    1   9.092125
     C    2   4.091736  14.873893
     C    3   4.091519   1.665349  14.875243
     C    4   0.900346   3.554957   0.087160  14.097839
     C    5   0.899124   0.087345   3.555704   0.572239  14.099204
     C    6   0.063547   0.627468   0.627718   3.896832   3.897561  14.074764
     C    7   1.109128   3.823362   1.294148   0.623070   0.052664   0.067949
     C    8   1.109393   1.294011   3.823525   0.052920   0.623293   0.068171
     H    9   0.346202   4.505777   0.093187   0.424167   0.009155   0.047157
     H   10   0.346295   0.093248   4.505452   0.009128   0.424185   0.047082
     H   11   0.065196   0.415246   0.010285   4.535141   0.047571   0.437452
     H   12   0.034613   0.451463   0.010730   4.501758   0.006429   0.441618
     H   13   0.065237   0.010224   0.415131   0.047599   4.534849   0.437471
     H   14   0.034436   0.010685   0.451416   0.006376   4.502143   0.441613
     H   15   0.003209   0.013159   0.013161   0.441007   0.440879   4.437902
     H   16   0.006795   0.050690   0.050535   0.437934   0.437889   4.513440
     H   17   0.053408   0.383551   0.120759   0.014315   0.016630   0.003442
     H   18   0.053433   0.120623   0.383608   0.016482   0.014280   0.003417


                  C  7       C  8       H  9       H 10       H 11       H 12
 ------------------------------------------------------------------------------
     C    7  18.126064
     C    8  10.415294  18.126875
     H    9   0.410770   0.044195   4.908017
     H   10   0.044229   0.410705   0.013333   4.908390
     H   11   0.012279   0.003023   0.020376   0.001479   5.144120
     H   12   0.048108   0.005789   0.026803   0.000757   0.562820   5.110355
     H   13   0.002990   0.012296   0.001465   0.020326   0.007084   0.001110
     H   14   0.005746   0.048050   0.000726   0.026790   0.001116   0.002629
     H   15   0.013807   0.013722   0.000950   0.000955   0.035937   0.043509
     H   16   0.003721   0.003701   0.007579   0.007554   0.019264   0.035161
     H   17   5.129732   0.453383   0.010064   0.011365   0.002648   0.002104
     H   18   0.453402   5.129515   0.011328   0.010092   0.001106   0.002643


                  H 13       H 14       H 15       H 16       H 17       H 18
 ------------------------------------------------------------------------------
     H   13   5.143804
     H   14   0.562592   5.110707
     H   15   0.035868   0.043455   5.040355
     H   16   0.019237   0.035154   0.575462   5.121841
     H   17   0.001095   0.002619   0.001461   0.000542   5.517697
     H   18   0.002647   0.002060   0.001452   0.000544   0.046222   5.517533


          HEAT OF FORMATION =     -20.137024 KCALS/MOLE

          ZERO POINT ENERGY      97.289 KCAL/MOL


           NORMAL COORDINATE ANALYSIS (Total motion = 1 Angstrom)


   Root No.       1         2         3         4         5         6         7         8

                 1 A       2 A       3 A       4 A       5 A       6 A       7 A       8 A   

                 197.0     242.8     362.0     407.0     458.0     583.1     602.6     770.1
  
           1    0.0038    0.0133   -0.0144    0.0231    0.0230    0.0003   -0.0139    0.0233
           2    0.0049   -0.0106   -0.0178   -0.0186    0.0287   -0.0002   -0.0173    0.0292
           3    0.0188    0.0001    0.0061   -0.0000    0.1071   -0.0002    0.0437   -0.0139
           4    0.0029    0.0151   -0.0156    0.0203    0.0220   -0.0027   -0.0139    0.0244
           5    0.0042    0.0142   -0.0206   -0.0095    0.0081    0.0145    0.0025   -0.0200
           6   -0.0032   -0.0002   -0.0054   -0.0264   -0.0133    0.0380   -0.0210    0.0025
           7    0.0035   -0.0105   -0.0167    0.0136    0.0031   -0.0148    0.0054   -0.0249
           8    0.0040   -0.0178   -0.0196   -0.0179    0.0232   -0.0004   -0.0130    0.0194
           9   -0.0032    0.0002   -0.0056    0.0264   -0.0133   -0.0378   -0.0213    0.0024
          10    0.0248   -0.0217    0.0224   -0.0321    0.0095    0.0288   -0.0247    0.0198
          11    0.0084   -0.0318    0.0034    0.0051   -0.0454   -0.0120    0.0191   -0.0030
          12   -0.0135    0.0199   -0.0271   -0.0068   -0.0081    0.0452   -0.0197   -0.0109
          13    0.0025    0.0264   -0.0015   -0.0120   -0.0463    0.0179    0.0241   -0.0073
          14    0.0257    0.0284    0.0225    0.0304   -0.0006   -0.0253   -0.0202    0.0186
          15   -0.0134   -0.0201   -0.0272    0.0066   -0.0081   -0.0451   -0.0201   -0.0109
          16   -0.0266    0.0148   -0.0014   -0.0161   -0.0310    0.0149    0.0194    0.0061
          17   -0.0331   -0.0121   -0.0018    0.0129   -0.0387   -0.0121    0.0242    0.0075
          18    0.0484    0.0003   -0.0289   -0.0001   -0.0536   -0.0001    0.0198   -0.0267
          19   -0.0066   -0.0035    0.0084   -0.0106    0.0102   -0.0442    0.0052   -0.0153
          20   -0.0080    0.0356    0.0112   -0.0189    0.0136   -0.0057    0.0089   -0.0229
          21   -0.0206    0.0166    0.0449   -0.0480   -0.0103   -0.0177   -0.0055    0.0202
          22   -0.0060   -0.0356    0.0090    0.0162    0.0110   -0.0042    0.0075   -0.0189
          23   -0.0082   -0.0045    0.0105    0.0146    0.0130    0.0443    0.0073   -0.0199
          24   -0.0204   -0.0168    0.0445    0.0483   -0.0102    0.0179   -0.0053    0.0201
          25   -0.0042    0.0356   -0.0228    0.0390   -0.0131    0.0030   -0.0048   -0.0112
          26    0.0006    0.0299   -0.0171   -0.0103    0.0130    0.0109    0.0059   -0.0361
          27   -0.0008   -0.0276   -0.0200   -0.0067   -0.0609    0.0531   -0.0218    0.0133
          28    0.0018   -0.0214   -0.0117    0.0184    0.0156   -0.0100    0.0069   -0.0327
          29   -0.0035   -0.0413   -0.0258   -0.0359   -0.0100   -0.0053   -0.0034   -0.0189
          30   -0.0011    0.0277   -0.0200    0.0067   -0.0609   -0.0529   -0.0223    0.0132
          31    0.0261   -0.0236    0.0250   -0.0352    0.0066    0.0293   -0.0272    0.0159
          32    0.0685   -0.0862    0.0493   -0.0246   -0.0386   -0.0159   -0.0539   -0.0666
          33   -0.0507    0.0728   -0.0812    0.0532    0.0432    0.0389    0.0134    0.0639
          34    0.0957   -0.0931    0.0890   -0.0917   -0.0151    0.0350   -0.1030   -0.0723
          35   -0.0272   -0.0249    0.0025    0.0102   -0.0551   -0.0099    0.0359    0.0277
          36   -0.0219   -0.0048    0.0013   -0.0271   -0.0305    0.0508   -0.0339   -0.0143
          37    0.0603    0.0795    0.0425    0.0167   -0.0389    0.0224   -0.0463   -0.0684
          38    0.0399    0.0422    0.0349    0.0399   -0.0019   -0.0248   -0.0385    0.0009
          39   -0.0499   -0.0732   -0.0809   -0.0539    0.0429   -0.0392    0.0131    0.0639
          40   -0.0475    0.0036   -0.0168   -0.0301   -0.0505    0.0168    0.0576    0.0428
          41    0.0863    0.0971    0.0869    0.0879   -0.0265   -0.0311   -0.0929   -0.0645
          42   -0.0221    0.0045    0.0011    0.0270   -0.0304   -0.0505   -0.0342   -0.0143
          43   -0.0012    0.0478    0.0015   -0.0083   -0.0462    0.0279    0.0409    0.0358
          44   -0.0009   -0.0382    0.0018    0.0067   -0.0578   -0.0227    0.0510    0.0448
          45    0.1632    0.0009   -0.0174    0.0001   -0.1238   -0.0006    0.1221    0.1159
          46   -0.1004    0.0014   -0.0081   -0.0067    0.0089   -0.0334   -0.0434   -0.0859
          47   -0.1254   -0.0022   -0.0102    0.0052    0.0112    0.0272   -0.0540   -0.1074
          48    0.0582    0.0003   -0.0284   -0.0000   -0.0603   -0.0002    0.0296   -0.0128
          49   -0.0128    0.0056    0.0383   -0.0509    0.0086   -0.0840    0.0374   -0.0214
          50   -0.0164    0.0698    0.0473   -0.0401    0.0170   -0.0597    0.0365    0.0163
          51   -0.0327    0.0375    0.1031   -0.1219   -0.0138   -0.0950    0.0552    0.0158
          52   -0.0124   -0.0670    0.0374    0.0282    0.0147    0.0394    0.0276    0.0206
          53   -0.0158   -0.0208    0.0472    0.0587    0.0123    0.0945    0.0451   -0.0173
          54   -0.0324   -0.0377    0.1022    0.1226   -0.0135    0.0943    0.0558    0.0157


   Root No.       9        10        11        12        13        14        15        16

                 9 A      10 A      11 A      12 A      13 A      14 A      15 A      16 A   

                 791.0     804.8     884.0     896.3     925.0     930.1     935.4     984.2
  
           1    0.0121   -0.0345   -0.0056   -0.0336   -0.0222   -0.0132    0.0031   -0.0220
           2    0.0152    0.0276    0.0045   -0.0420   -0.0277    0.0106    0.0037    0.0176
           3   -0.0055   -0.0000    0.0000   -0.0007   -0.0106    0.0000    0.0042   -0.0000
           4    0.0046    0.0089    0.0015    0.0220   -0.0189    0.0012    0.0180    0.0098
           5   -0.0057    0.0544    0.0076    0.0075    0.0072   -0.0290   -0.0236   -0.0134
           6   -0.0058    0.0016   -0.0058    0.0016    0.0022   -0.0169   -0.0354   -0.0178
           7   -0.0066   -0.0511   -0.0071    0.0025    0.0114    0.0284   -0.0272    0.0152
           8    0.0032   -0.0206   -0.0031    0.0231   -0.0168    0.0053    0.0124   -0.0066
           9   -0.0059   -0.0016    0.0058    0.0016    0.0023    0.0167   -0.0355    0.0178
          10    0.0037    0.0258   -0.0211    0.0159    0.0543    0.0213    0.0118    0.0134
          11   -0.0000    0.0137   -0.0206    0.0079   -0.0354   -0.0019   -0.0069   -0.0063
          12    0.0144   -0.0007    0.0188    0.0031    0.0198    0.0177   -0.0043    0.0046
          13   -0.0008   -0.0078    0.0154    0.0042   -0.0464    0.0066   -0.0094    0.0091
          14    0.0035   -0.0282    0.0251    0.0173    0.0450   -0.0205    0.0102   -0.0116
          15    0.0143    0.0006   -0.0188    0.0031    0.0197   -0.0178   -0.0041   -0.0046
          16   -0.0036    0.0109   -0.0059   -0.0104    0.0182   -0.0115    0.0151   -0.0148
          17   -0.0045   -0.0087    0.0047   -0.0130    0.0229    0.0092    0.0187    0.0118
          18    0.0174   -0.0000   -0.0000   -0.0179    0.0078    0.0001    0.0625    0.0000
          19   -0.0149    0.0499    0.0268   -0.0074    0.0089   -0.0035   -0.0096    0.0037
          20   -0.0213   -0.0026    0.0104   -0.0046    0.0136    0.0033   -0.0110    0.0072
          21   -0.0329   -0.0253   -0.0179   -0.0009   -0.0213   -0.0193    0.0220    0.0319
          22   -0.0175    0.0135   -0.0042   -0.0028    0.0113   -0.0040   -0.0086   -0.0062
          23   -0.0191   -0.0481   -0.0285   -0.0082    0.0117    0.0026   -0.0118   -0.0052
          24   -0.0326    0.0254    0.0179   -0.0009   -0.0212    0.0195    0.0218   -0.0319
          25   -0.0171   -0.0379   -0.0097    0.2122   -0.0637   -0.0710    0.0402    0.0514
          26   -0.0240    0.0360    0.0119    0.0644    0.0178   -0.0480    0.0020    0.0314
          27    0.0281    0.0155   -0.0255    0.0009   -0.0642   -0.0221   -0.0959   -0.1119
          28   -0.0197   -0.0433   -0.0137    0.0164    0.0315    0.0311   -0.0071   -0.0194
          29   -0.0220    0.0294    0.0067    0.2215   -0.0575    0.0804    0.0391   -0.0570
          30    0.0279   -0.0157    0.0255    0.0007   -0.0639    0.0218   -0.0961    0.1121
          31    0.0034    0.0225   -0.0167    0.0132    0.0548    0.0174    0.0113    0.0095
          32    0.0208   -0.0624    0.0825    0.0200   -0.1401   -0.0088   -0.0174    0.0248
          33    0.0221    0.0765   -0.0634    0.0843    0.0228    0.0730    0.0012    0.0650
          34    0.0176   -0.0731    0.1102   -0.0178    0.0000   -0.0136    0.0037    0.0009
          35   -0.0121    0.0082   -0.0555   -0.0048   -0.0099    0.0271   -0.0374   -0.0140
          36    0.0060   -0.0505    0.0348   -0.0260    0.0257    0.0351   -0.0472   -0.0123
          37    0.0196    0.0657   -0.0844    0.0166   -0.1484    0.0128   -0.0196   -0.0220
          38    0.0078   -0.0084   -0.0016    0.0173    0.0228   -0.0151    0.0074   -0.0147
          39    0.0218   -0.0766    0.0636    0.0845    0.0223   -0.0732    0.0018   -0.0646
          40   -0.0156   -0.0240    0.0783   -0.0007   -0.0101   -0.0296   -0.0369    0.0139
          41    0.0145    0.0696   -0.0957   -0.0185   -0.0020    0.0074   -0.0048    0.0020
          42    0.0060    0.0504   -0.0347   -0.0260    0.0254   -0.0354   -0.0469    0.0120
          43   -0.0180   -0.0141    0.0583   -0.0076    0.0265   -0.0313   -0.0107   -0.0319
          44   -0.0225    0.0113   -0.0466   -0.0095    0.0335    0.0250   -0.0139    0.0254
          45   -0.0508    0.0000    0.0001   -0.0064    0.0563   -0.0002   -0.0590   -0.0001
          46    0.0413    0.0144   -0.0571   -0.0229   -0.0098   -0.0660    0.1041   -0.0531
          47    0.0518   -0.0116    0.0455   -0.0286   -0.0118    0.0534    0.1296    0.0426
          48    0.0111   -0.0000   -0.0000   -0.0160    0.0110    0.0001    0.0497   -0.0000
          49    0.1007    0.0318   -0.0022    0.0015    0.0305    0.0175   -0.0517   -0.0469
          50    0.1389   -0.0018    0.0399    0.0375   -0.0132    0.1228    0.0231   -0.1005
          51    0.1940   -0.0592   -0.0653    0.0198    0.0120    0.0361   -0.0474   -0.0740
          52    0.1129    0.0086   -0.0395    0.0361   -0.0203   -0.1159    0.0349    0.0878
          53    0.1284   -0.0308   -0.0066    0.0097    0.0266   -0.0446   -0.0450    0.0680
          54    0.1938    0.0590    0.0654    0.0197    0.0116   -0.0369   -0.0469    0.0744


   Root No.      17        18        19        20        21        22        23        24

                17 A      18 A      19 A      20 A      21 A      22 A      23 A      24 A   

                 993.7    1010.7    1012.3    1033.1    1063.6    1074.0    1106.6    1111.6
  
           1    0.0198   -0.0325   -0.0059   -0.0079   -0.0025   -0.0065    0.0008   -0.0018
           2   -0.0157    0.0259   -0.0077   -0.0099    0.0020   -0.0081   -0.0007   -0.0021
           3    0.0000   -0.0000   -0.0047    0.0028   -0.0000    0.0015   -0.0001   -0.0052
           4   -0.0079    0.0139   -0.0087    0.0022    0.0094    0.0017   -0.0002   -0.0083
           5   -0.0082   -0.0259    0.0073   -0.0243   -0.0042    0.0012    0.0049    0.0292
           6    0.0063    0.0135    0.0009   -0.0186    0.0064    0.0123    0.0037    0.0138
           7    0.0063    0.0283    0.0088   -0.0243    0.0061    0.0009   -0.0041    0.0305
           8    0.0095   -0.0079   -0.0067   -0.0032   -0.0084    0.0019   -0.0009   -0.0017
           9   -0.0063   -0.0135    0.0009   -0.0185   -0.0064    0.0123   -0.0034    0.0138
          10    0.0004   -0.0060    0.0180    0.0004   -0.0048    0.0051   -0.0076   -0.0074
          11    0.0029    0.0055    0.0212    0.0082   -0.0001   -0.0023   -0.0099    0.0008
          12   -0.0041   -0.0062   -0.0113    0.0219   -0.0051   -0.0127    0.0153    0.0023
          13   -0.0028   -0.0066    0.0168    0.0079   -0.0009   -0.0033    0.0081    0.0022
          14   -0.0011    0.0050    0.0221    0.0022    0.0047    0.0045    0.0094   -0.0073
          15    0.0041    0.0061   -0.0113    0.0219    0.0052   -0.0127   -0.0153    0.0026
          16   -0.0007    0.0109   -0.0155   -0.0031    0.0019   -0.0042    0.0025    0.0068
          17    0.0006   -0.0089   -0.0192   -0.0038   -0.0015   -0.0052   -0.0018    0.0086
          18   -0.0000    0.0001    0.0106   -0.0112   -0.0000    0.0095   -0.0001   -0.0140
          19    0.0170    0.0070    0.0025    0.0100   -0.0049    0.0036   -0.0006   -0.0173
          20    0.0238    0.0120    0.0013    0.0125    0.0028    0.0068   -0.0047   -0.0129
          21    0.0170    0.0026    0.0054   -0.0065    0.0077   -0.0018   -0.0093    0.0091
          22   -0.0196   -0.0101    0.0007    0.0100   -0.0038    0.0058    0.0042   -0.0089
          23   -0.0219   -0.0094    0.0027    0.0124    0.0042    0.0050    0.0011   -0.0197
          24   -0.0170   -0.0026    0.0054   -0.0065   -0.0077   -0.0019    0.0095    0.0089
          25   -0.1389    0.1322   -0.0871   -0.0561   -0.0686   -0.0049   -0.0153   -0.0678
          26   -0.0495   -0.0197   -0.0271   -0.0399   -0.0466   -0.0392    0.0339    0.0575
          27    0.0140    0.0958    0.0348   -0.0213    0.0595    0.1222   -0.0898   -0.1115
          28    0.0180    0.0479   -0.0076   -0.0267    0.0304   -0.0370   -0.0346    0.0718
          29    0.1468   -0.1256   -0.0892   -0.0633    0.0768   -0.0128    0.0061   -0.0538
          30   -0.0143   -0.0951    0.0353   -0.0211   -0.0597    0.1219    0.0869   -0.1135
          31    0.0010   -0.0039    0.0118   -0.0036   -0.0100    0.0080   -0.0090   -0.0088
          32   -0.0429   -0.0060    0.0163    0.0806    0.1057   -0.0720    0.0461    0.0415
          33   -0.0317   -0.0228    0.1121    0.0912    0.1072   -0.0542    0.0252    0.0151
          34   -0.0243   -0.0081   -0.0577    0.0137    0.0153   -0.0184    0.0214    0.0119
          35    0.0483    0.0390   -0.0167    0.0432   -0.0902   -0.0029    0.0155   -0.0578
          36    0.0387    0.0342   -0.0893    0.0691   -0.1002   -0.0228    0.0603   -0.0588
          37    0.0420    0.0051    0.0138    0.0797   -0.1050   -0.0720   -0.0460    0.0437
          38    0.0084    0.0053    0.0152    0.0142   -0.0134   -0.0080   -0.0013    0.0006
          39    0.0310    0.0241    0.1122    0.0912   -0.1068   -0.0544   -0.0249    0.0158
          40   -0.0523   -0.0398   -0.0038    0.0389    0.0912    0.0013   -0.0117   -0.0587
          41    0.0135   -0.0012   -0.0598    0.0229    0.0048   -0.0185   -0.0244   -0.0004
          42   -0.0381   -0.0349   -0.0893    0.0689    0.1002   -0.0226   -0.0618   -0.0573
          43   -0.0326   -0.0097   -0.0325    0.0059    0.0226   -0.0131   -0.1578    0.0157
          44    0.0263    0.0074   -0.0406    0.0074   -0.0181   -0.0166    0.1266    0.0161
          45    0.0002   -0.0004   -0.0704    0.0265    0.0000   -0.0279    0.0000    0.0161
          46    0.0226    0.0785    0.0270   -0.0214    0.0632    0.0146    0.1970   -0.0206
          47   -0.0182   -0.0626    0.0343   -0.0266   -0.0507    0.0185   -0.1580   -0.0210
          48   -0.0000    0.0000    0.0039   -0.0059   -0.0000    0.0055   -0.0001   -0.0118
          49   -0.0577   -0.0422    0.0081   -0.0286   -0.0174   -0.0498    0.0124   -0.0479
          50   -0.0080    0.0815   -0.0485    0.0807    0.0139    0.1527    0.0024    0.1096
          51   -0.1179   -0.0728    0.0087   -0.0663   -0.0116   -0.0746    0.0142   -0.0234
          52   -0.0049   -0.0893   -0.0488    0.0853   -0.0176    0.1599    0.0037    0.1171
          53    0.0583    0.0232   -0.0028   -0.0102    0.0140   -0.0150   -0.0133   -0.0223
          54    0.1185    0.0727    0.0085   -0.0663    0.0117   -0.0744   -0.0150   -0.0229


   Root No.      25        26        27        28        29        30        31        32

                25 A      26 A      27 A      28 A      29 A      30 A      31 A      32 A   

                1142.4    1148.9    1211.3    1214.6    1290.5    1300.1    1308.3    1313.6
  
           1    0.0034    0.0008    0.0018    0.0268   -0.0025   -0.0058    0.0001   -0.0344
           2    0.0042   -0.0007   -0.0015   -0.0215    0.0021   -0.0072   -0.0003   -0.0430
           3   -0.0021    0.0000    0.0000    0.0000    0.0000   -0.0052   -0.0000    0.0002
           4   -0.0057   -0.0045    0.0005   -0.0681   -0.0014    0.0279    0.0102    0.0767
           5    0.0089   -0.0023   -0.0056   -0.0083   -0.0096   -0.0432    0.0235    0.0297
           6    0.0015   -0.0150    0.0328   -0.0066   -0.0230    0.0695   -0.0367   -0.0117
           7    0.0100    0.0012    0.0055   -0.0068    0.0093   -0.0479   -0.0210    0.0124
           8   -0.0036    0.0050    0.0008    0.0684    0.0032    0.0180   -0.0144    0.0814
           9    0.0016    0.0150   -0.0328    0.0066    0.0226    0.0694    0.0373   -0.0119
          10    0.0083   -0.0038    0.0007    0.0100    0.0040   -0.0061   -0.0110   -0.0105
          11    0.0199    0.0270    0.0116    0.0050    0.0279   -0.0089    0.0130   -0.0073
          12   -0.0038    0.0085   -0.0072    0.0069    0.0415   -0.0368    0.0211    0.0006
          13    0.0175   -0.0273   -0.0112   -0.0027   -0.0261   -0.0074   -0.0152   -0.0048
          14    0.0124   -0.0023   -0.0032   -0.0108   -0.0099   -0.0081    0.0077   -0.0119
          15   -0.0038   -0.0085    0.0071   -0.0069   -0.0411   -0.0370   -0.0215    0.0006
          16   -0.0262    0.0268   -0.0075    0.0112   -0.0167    0.0026    0.0428   -0.0004
          17   -0.0329   -0.0213    0.0060   -0.0089    0.0134    0.0040   -0.0343   -0.0001
          18    0.0084   -0.0000    0.0000    0.0000   -0.0001    0.0178    0.0001    0.0005
          19   -0.0082    0.0014   -0.0014    0.0200    0.0005    0.0153   -0.0093   -0.0032
          20   -0.0061    0.0031   -0.0228    0.0035    0.0053    0.0187   -0.0412   -0.0120
          21    0.0044    0.0010    0.0049   -0.0021    0.0023   -0.0274    0.0358    0.0076
          22   -0.0042   -0.0027    0.0220    0.0010   -0.0051    0.0144    0.0382   -0.0114
          23   -0.0093   -0.0021    0.0064   -0.0203   -0.0017    0.0188    0.0182   -0.0059
          24    0.0044   -0.0010   -0.0049    0.0021   -0.0021   -0.0269   -0.0360    0.0079
          25   -0.0060   -0.0109   -0.0147    0.1148    0.0022   -0.0176   -0.0219   -0.1522
          26    0.0427    0.0064    0.0505    0.0394   -0.0194    0.0080   -0.0102   -0.0512
          27   -0.0909   -0.0405   -0.1427    0.0198    0.0077   -0.1296    0.0333    0.0198
          28    0.0430   -0.0088   -0.0525   -0.0132    0.0194    0.0120    0.0052   -0.0165
          29    0.0034    0.0092    0.0034   -0.1206    0.0025   -0.0157    0.0225   -0.1597
          30   -0.0907    0.0410    0.1428   -0.0200   -0.0071   -0.1296   -0.0343    0.0200
          31    0.0100   -0.0046    0.0016    0.0056    0.0126   -0.0107   -0.0103   -0.0075
          32   -0.0645    0.0662   -0.0187    0.0247   -0.1139    0.0590    0.0344    0.0056
          33   -0.0431    0.0614   -0.0207    0.0831   -0.0742    0.0099   -0.0487   -0.0709
          34   -0.0536   -0.0052   -0.0200   -0.0043    0.0338   -0.0501   -0.0152    0.0022
          35    0.1341    0.0875   -0.0166   -0.0358   -0.0884    0.0224    0.0003    0.0272
          36    0.1010    0.0786   -0.0508   -0.0459   -0.0787   -0.0225   -0.0001    0.0436
          37   -0.0657   -0.0652    0.0186   -0.0229    0.1131    0.0617   -0.0351    0.0077
          38   -0.0045   -0.0100    0.0025   -0.0110    0.0126    0.0026    0.0026   -0.0061
          39   -0.0436   -0.0612    0.0206   -0.0833    0.0739    0.0103    0.0484   -0.0711
          40    0.1421   -0.0877    0.0118    0.0340    0.0932    0.0340   -0.0031    0.0263
          41   -0.0230   -0.0140    0.0232    0.0120   -0.0134   -0.0443    0.0143    0.0079
          42    0.1006   -0.0795    0.0509    0.0459    0.0785   -0.0216    0.0002    0.0437
          43   -0.0408    0.1757    0.0734   -0.0429    0.0495    0.0031   -0.0926    0.0043
          44   -0.0525   -0.1403   -0.0588    0.0344   -0.0397    0.0021    0.0743    0.0045
          45   -0.0554    0.0002    0.0000    0.0000   -0.0002    0.0086    0.0003    0.0161
          46    0.0085    0.0592    0.0148   -0.0123    0.1163    0.0390   -0.0617    0.0109
          47    0.0104   -0.0475   -0.0118    0.0099   -0.0937    0.0465    0.0501    0.0128
          48    0.0051   -0.0000    0.0000    0.0000   -0.0001    0.0147    0.0001    0.0005
          49   -0.0141    0.0083   -0.0407   -0.0094    0.0040    0.0358   -0.0639    0.0171
          50    0.0223   -0.0306    0.1158    0.0502   -0.0200    0.0065    0.1051   -0.0454
          51   -0.0002    0.0077   -0.0432   -0.0470    0.0044    0.0015   -0.0391    0.0351
          52    0.0250    0.0317   -0.1219   -0.0511    0.0204    0.0002   -0.1168   -0.0470
          53   -0.0088   -0.0013    0.0144   -0.0018    0.0002    0.0359    0.0396    0.0065
          54   -0.0003   -0.0076    0.0431    0.0471   -0.0045    0.0010    0.0393    0.0348


   Root No.      33        34        35        36        37        38        39        40

                33 A      34 A      35 A      36 A      37 A      38 A      39 A      40 A   

                1324.1    1334.1    1393.4    1403.5    1409.0    1797.1    2953.4    2957.5
  
           1   -0.0023   -0.0043   -0.0011   -0.0010   -0.0002    0.0031   -0.0001    0.0005
           2   -0.0029    0.0034   -0.0013    0.0008   -0.0002    0.0039   -0.0001   -0.0004
           3    0.0003    0.0000   -0.0001   -0.0000    0.0001   -0.0030   -0.0001   -0.0000
           4    0.0113    0.0053    0.0057    0.0052    0.0031    0.0124   -0.0002   -0.0104
           5   -0.0232   -0.0206    0.0008   -0.0029   -0.0042   -0.0093    0.0006    0.0332
           6    0.0017    0.0177    0.0047    0.0063    0.0030   -0.0031    0.0001    0.0111
           7   -0.0251    0.0213   -0.0004    0.0039   -0.0048   -0.0118    0.0008   -0.0339
           8    0.0060   -0.0007    0.0057   -0.0044    0.0021    0.0100   -0.0001    0.0028
           9    0.0016   -0.0177    0.0048   -0.0063    0.0030   -0.0031    0.0001   -0.0109
          10   -0.0019   -0.0089   -0.0160   -0.0224   -0.0101   -0.0010    0.0080   -0.0009
          11    0.0346    0.0210    0.0078    0.0220    0.0202    0.0007    0.0053   -0.0012
          12    0.0344    0.0136   -0.0204   -0.0153   -0.0003    0.0027   -0.0042    0.0016
          13    0.0342   -0.0225    0.0111   -0.0262    0.0222    0.0009    0.0034    0.0010
          14    0.0058    0.0040   -0.0139    0.0170   -0.0056   -0.0008    0.0089    0.0012
          15    0.0345   -0.0137   -0.0204    0.0153   -0.0004    0.0027   -0.0042   -0.0016
          16   -0.0036    0.0433    0.0114    0.0211   -0.0207    0.0001   -0.0158    0.0001
          17   -0.0047   -0.0347    0.0142   -0.0171   -0.0257    0.0001   -0.0197   -0.0002
          18   -0.0125    0.0000    0.0153   -0.0001   -0.0220   -0.0002    0.0311    0.0001
          19    0.0065    0.0025   -0.0003   -0.0007    0.0009   -0.1726    0.0000    0.0004
          20    0.0050    0.0213   -0.0004    0.0010    0.0009    0.1520   -0.0000    0.0002
          21   -0.0063   -0.0168    0.0000   -0.0009   -0.0009   -0.0094    0.0000   -0.0004
          22    0.0034   -0.0202   -0.0003   -0.0011    0.0007    0.1861   -0.0000   -0.0001
          23    0.0075   -0.0071   -0.0004    0.0005    0.0010   -0.1351    0.0000   -0.0004
          24   -0.0062    0.0168    0.0000    0.0009   -0.0010   -0.0094    0.0000    0.0004
          25   -0.0117   -0.0130   -0.0088   -0.0102   -0.0052   -0.0234    0.0025    0.1180
          26   -0.0129   -0.0005    0.0010    0.0024   -0.0001   -0.0293   -0.0082   -0.3944
          27   -0.0530   -0.0567   -0.0084   -0.0217   -0.0162    0.0362   -0.0032   -0.1378
          28   -0.0101   -0.0024    0.0029   -0.0045    0.0011   -0.0234   -0.0105    0.4015
          29   -0.0141    0.0128   -0.0083    0.0094   -0.0052   -0.0292    0.0008   -0.0280
          30   -0.0529    0.0569   -0.0084    0.0216   -0.0164    0.0362   -0.0039    0.1347
          31    0.0048   -0.0099   -0.0086   -0.0122   -0.0029   -0.0011   -0.0672    0.0031
          32   -0.0783    0.0454   -0.1014   -0.1328   -0.1047   -0.0016   -0.0012    0.0003
          33   -0.0943   -0.0591    0.1067    0.1116    0.0417   -0.0043   -0.0041    0.0020
          34   -0.0073   -0.0597    0.1474    0.1743    0.0959   -0.0005   -0.0271    0.0081
          35   -0.0701   -0.0240   -0.0112   -0.0332   -0.0355   -0.0022   -0.0632    0.0194
          36   -0.0916   -0.0689    0.0520    0.0345   -0.0033    0.0007    0.0574   -0.0138
          37   -0.0779   -0.0463   -0.0971    0.1262   -0.1026   -0.0013    0.0135    0.0005
          38   -0.0125   -0.0002   -0.0305    0.0407   -0.0260   -0.0014   -0.0657   -0.0036
          39   -0.0943    0.0593    0.1067   -0.1113    0.0425   -0.0044   -0.0040   -0.0020
          40   -0.0671    0.0105   -0.0431    0.0701   -0.0562   -0.0020   -0.0554   -0.0172
          41   -0.0223    0.0636    0.1413   -0.1622    0.0870   -0.0009   -0.0400   -0.0122
          42   -0.0918    0.0691    0.0519   -0.0345   -0.0032    0.0007    0.0571    0.0139
          43   -0.0220   -0.0733   -0.0285   -0.0457    0.0413   -0.0004    0.2066    0.0007
          44   -0.0269    0.0587   -0.0355    0.0370    0.0512   -0.0005    0.2580    0.0011
          45   -0.0759    0.0002   -0.1298    0.0009    0.1997   -0.0024   -0.1193   -0.0004
          46   -0.0685   -0.0755   -0.0800   -0.0459    0.1357   -0.0007   -0.0165    0.0005
          47   -0.0849    0.0608   -0.0998    0.0380    0.1690   -0.0009   -0.0206   -0.0005
          48   -0.0106    0.0000    0.0157   -0.0001   -0.0243   -0.0002   -0.2509   -0.0010
          49    0.0119    0.0301    0.0011    0.0009    0.0017   -0.1402   -0.0001   -0.0003
          50   -0.0098   -0.0534   -0.0008   -0.0031   -0.0013   -0.0563   -0.0000    0.0008
          51   -0.0016    0.0210    0.0025    0.0017   -0.0001    0.1102    0.0000   -0.0003
          52   -0.0121    0.0587   -0.0010    0.0032   -0.0016   -0.0241   -0.0000   -0.0008
          53    0.0094   -0.0177    0.0010   -0.0002    0.0013   -0.1492   -0.0001   -0.0001
          54   -0.0016   -0.0210    0.0025   -0.0017   -0.0001    0.1103    0.0000    0.0004


   Root No.      41        42        43        44        45        46        47        48

                41 A      42 A      43 A      44 A      45 A      46 A      47 A      48 A   

                2961.4    2975.5    2979.0    3039.6    3050.8    3052.8    3148.2    3166.5
  
           1    0.0002    0.0002    0.0001   -0.0000   -0.0001    0.0001    0.0001    0.0005
           2    0.0002   -0.0002    0.0001   -0.0000    0.0001    0.0001   -0.0001    0.0006
           3    0.0002    0.0000    0.0002   -0.0000   -0.0000    0.0001    0.0000   -0.0003
           4    0.0107    0.0002    0.0002    0.0001    0.0005   -0.0005   -0.0000   -0.0007
           5   -0.0324   -0.0013   -0.0013    0.0000   -0.0007    0.0008   -0.0004    0.0012
           6   -0.0105   -0.0003   -0.0003    0.0002    0.0002   -0.0000    0.0003   -0.0001
           7   -0.0347    0.0013   -0.0013   -0.0000    0.0008    0.0009    0.0004    0.0013
           8    0.0034    0.0000   -0.0001    0.0001   -0.0003   -0.0003    0.0001   -0.0004
           9   -0.0107    0.0003   -0.0003    0.0002   -0.0002   -0.0000   -0.0003   -0.0001
          10    0.0012   -0.0230   -0.0185    0.0044    0.0139   -0.0118   -0.0000   -0.0001
          11    0.0014   -0.0147   -0.0116   -0.0047   -0.0112    0.0091    0.0000    0.0001
          12   -0.0017    0.0114    0.0091    0.0038    0.0106   -0.0087   -0.0001   -0.0001
          13    0.0012    0.0093   -0.0073   -0.0056    0.0142    0.0112   -0.0000    0.0001
          14    0.0015    0.0256   -0.0207    0.0033   -0.0113   -0.0094    0.0000   -0.0001
          15   -0.0017   -0.0114    0.0091    0.0038   -0.0108   -0.0085    0.0001   -0.0001
          16   -0.0001   -0.0000   -0.0045   -0.0131    0.0005   -0.0033    0.0000   -0.0000
          17   -0.0002   -0.0000   -0.0056   -0.0164   -0.0004   -0.0042   -0.0000   -0.0000
          18    0.0007    0.0000    0.0099   -0.0205   -0.0001   -0.0064   -0.0000   -0.0001
          19   -0.0000   -0.0001   -0.0000   -0.0000   -0.0000    0.0001   -0.0336   -0.0387
          20   -0.0004    0.0001    0.0000    0.0000    0.0000   -0.0000   -0.0027    0.0015
          21    0.0000   -0.0002   -0.0002   -0.0000   -0.0001    0.0000    0.0190    0.0189
          22   -0.0003   -0.0001    0.0001    0.0000   -0.0000   -0.0000   -0.0047    0.0100
          23   -0.0001    0.0001   -0.0000   -0.0000    0.0000    0.0001    0.0335   -0.0373
          24    0.0000    0.0002   -0.0002   -0.0000    0.0001    0.0000   -0.0190    0.0189
          25   -0.1099   -0.0048   -0.0044   -0.0003   -0.0021    0.0021   -0.0006    0.0013
          26    0.3713    0.0142    0.0135    0.0019    0.0091   -0.0089   -0.0013   -0.0073
          27    0.1296    0.0057    0.0052    0.0014    0.0045   -0.0041    0.0006   -0.0014
          28    0.3953   -0.0150    0.0141    0.0020   -0.0096   -0.0090    0.0011   -0.0074
          29   -0.0264    0.0015   -0.0013    0.0002    0.0001    0.0001    0.0009   -0.0004
          30    0.1325   -0.0057    0.0052    0.0014   -0.0046   -0.0040   -0.0006   -0.0015
          31   -0.0050    0.2076    0.1666   -0.0787   -0.2472    0.2050    0.0001    0.0011
          32   -0.0002   -0.0007   -0.0008   -0.0068   -0.0141    0.0114   -0.0000    0.0000
          33   -0.0022    0.0116    0.0094   -0.0011   -0.0009    0.0006    0.0001    0.0002
          34   -0.0093    0.0686    0.0538    0.0281    0.0764   -0.0618   -0.0001   -0.0004
          35   -0.0223    0.1766    0.1410    0.0565    0.1524   -0.1234   -0.0001   -0.0007
          36    0.0164   -0.1505   -0.1190   -0.0486   -0.1287    0.1039    0.0001    0.0006
          37    0.0009    0.0460   -0.0373    0.0105   -0.0408   -0.0331    0.0001   -0.0002
          38   -0.0051   -0.2025    0.1630   -0.0783    0.2478    0.1989   -0.0002    0.0010
          39   -0.0022   -0.0115    0.0093   -0.0011    0.0008    0.0005   -0.0001    0.0002
          40   -0.0201   -0.1570    0.1259    0.0491   -0.1343   -0.1052    0.0001   -0.0006
          41   -0.0142   -0.1052    0.0832    0.0398   -0.1096   -0.0858    0.0001   -0.0005
          42    0.0167    0.1503   -0.1191   -0.0487    0.1310    0.1023   -0.0001    0.0005
          43    0.0041   -0.0032    0.0595    0.1552    0.0010    0.0411   -0.0000    0.0001
          44    0.0051    0.0029    0.0743    0.1938    0.0000    0.0514    0.0000    0.0001
          45   -0.0027   -0.0001   -0.0317   -0.1127   -0.0003   -0.0305   -0.0000   -0.0001
          46    0.0001    0.0011   -0.0062    0.0036    0.0024    0.0019   -0.0000    0.0000
          47    0.0002   -0.0009   -0.0077    0.0045   -0.0019    0.0025    0.0000    0.0000
          48    0.0012   -0.0003   -0.0863    0.3597    0.0012    0.1107    0.0000    0.0004
          49    0.0072   -0.0000    0.0003    0.0002    0.0002   -0.0010    0.3968    0.3868
          50   -0.0010   -0.0000    0.0000    0.0000   -0.0000   -0.0001    0.0341    0.0318
          51   -0.0039   -0.0001   -0.0002   -0.0001   -0.0001    0.0005   -0.2260   -0.2193
          52   -0.0025    0.0000   -0.0000   -0.0000    0.0000    0.0002    0.0538   -0.0536
          53    0.0068    0.0000    0.0003    0.0002   -0.0002   -0.0010   -0.3958    0.3832
          54   -0.0039    0.0001   -0.0003   -0.0001    0.0001    0.0005    0.2266   -0.2185


           MASS-WEIGHTED COORDINATE ANALYSIS (NORMAL COORDINATES)


   Root No.       1         2         3         4         5         6         7         8

                 1 A       2 A       3 A       4 A       5 A       6 A       7 A       8 A   

                 197.0     242.8     362.0     407.0     458.0     583.1     602.6     770.1
  
           1    0.0352    0.1284   -0.1332    0.2005    0.1457    0.0029   -0.1314    0.2257
           2    0.0455   -0.1025   -0.1650   -0.1617    0.1816   -0.0016   -0.1640    0.2821
           3    0.1743    0.0006    0.0568   -0.0003    0.6784   -0.0019    0.4136   -0.1347
           4    0.0234    0.1266   -0.1256    0.1530    0.1210   -0.0197   -0.1139    0.2042
           5    0.0335    0.1188   -0.1655   -0.0716    0.0445    0.1039    0.0203   -0.1680
           6   -0.0257   -0.0015   -0.0435   -0.1986   -0.0730    0.2727   -0.1724    0.0206
           7    0.0284   -0.0878   -0.1345    0.1024    0.0171   -0.1061    0.0441   -0.2086
           8    0.0318   -0.1493   -0.1579   -0.1349    0.1274   -0.0030   -0.1066    0.1625
           9   -0.0259    0.0013   -0.0446    0.1984   -0.0728   -0.2712   -0.1747    0.0202
          10    0.1992   -0.1821    0.1802   -0.2413    0.0523    0.2066   -0.2025    0.1661
          11    0.0675   -0.2671    0.0275    0.0385   -0.2490   -0.0865    0.1563   -0.0255
          12   -0.1088    0.1673   -0.2181   -0.0514   -0.0443    0.3247   -0.1619   -0.0913
          13    0.0202    0.2213   -0.0120   -0.0900   -0.2543    0.1282    0.1977   -0.0613
          14    0.2065    0.2381    0.1805    0.2284   -0.0030   -0.1814   -0.1654    0.1560
          15   -0.1073   -0.1684   -0.2184    0.0497   -0.0446   -0.3236   -0.1645   -0.0913
          16   -0.2141    0.1244   -0.0112   -0.1214   -0.1701    0.1067    0.1595    0.0507
          17   -0.2661   -0.1016   -0.0148    0.0972   -0.2125   -0.0866    0.1983    0.0632
          18    0.3893    0.0022   -0.2322   -0.0005   -0.2944   -0.0008    0.1625   -0.2237
          19   -0.0532   -0.0295    0.0671   -0.0798    0.0558   -0.3171    0.0423   -0.1283
          20   -0.0644    0.2990    0.0901   -0.1423    0.0747   -0.0408    0.0730   -0.1917
          21   -0.1653    0.1392    0.3605   -0.3609   -0.0563   -0.1274   -0.0447    0.1690
          22   -0.0482   -0.2989    0.0723    0.1217    0.0606   -0.0298    0.0619   -0.1588
          23   -0.0655   -0.0375    0.0843    0.1095    0.0711    0.3182    0.0602   -0.1666
          24   -0.1640   -0.1411    0.3579    0.3637   -0.0558    0.1285   -0.0435    0.1688
          25   -0.0098    0.0865   -0.0532    0.0849   -0.0208    0.0062   -0.0114   -0.0272
          26    0.0015    0.0726   -0.0397   -0.0224    0.0207    0.0227    0.0141   -0.0876
          27   -0.0019   -0.0671   -0.0465   -0.0146   -0.0968    0.1104   -0.0518    0.0323
          28    0.0041   -0.0519   -0.0273    0.0402    0.0248   -0.0208    0.0163   -0.0795
          29   -0.0082   -0.1004   -0.0601   -0.0783   -0.0159   -0.0109   -0.0080   -0.0460
          30   -0.0026    0.0673   -0.0464    0.0145   -0.0968   -0.1101   -0.0530    0.0321
          31    0.0606   -0.0574    0.0582   -0.0767    0.0105    0.0610   -0.0647    0.0385
          32    0.1595   -0.2095    0.1147   -0.0537   -0.0613   -0.0330   -0.1279   -0.1618
          33   -0.1179    0.1768   -0.1890    0.1160    0.0687    0.0810    0.0318    0.1552
          34    0.2226   -0.2262    0.2071   -0.1998   -0.0241    0.0729   -0.2446   -0.1756
          35   -0.0634   -0.0606    0.0058    0.0223   -0.0877   -0.0206    0.0853    0.0672
          36   -0.0511   -0.0116    0.0029   -0.0590   -0.0485    0.1056   -0.0805   -0.0348
          37    0.1404    0.1932    0.0989    0.0363   -0.0618    0.0466   -0.1101   -0.1661
          38    0.0929    0.1026    0.0812    0.0871   -0.0029   -0.0516   -0.0914    0.0023
          39   -0.1161   -0.1780   -0.1882   -0.1175    0.0683   -0.0815    0.0311    0.1550
          40   -0.1106    0.0087   -0.0392   -0.0657   -0.0804    0.0349    0.1368    0.1038
          41    0.2008    0.2359    0.2021    0.1917   -0.0422   -0.0646   -0.2206   -0.1565
          42   -0.0514    0.0109    0.0025    0.0589   -0.0484   -0.1049   -0.0813   -0.0346
          43   -0.0027    0.1161    0.0035   -0.0180   -0.0734    0.0579    0.0972    0.0868
          44   -0.0020   -0.0929    0.0042    0.0146   -0.0919   -0.0471    0.1212    0.1088
          45    0.3799    0.0021   -0.0406    0.0002   -0.1969   -0.0012    0.2901    0.2815
          46   -0.2336    0.0035   -0.0188   -0.0147    0.0142   -0.0695   -0.1031   -0.2086
          47   -0.2919   -0.0053   -0.0236    0.0113    0.0178    0.0566   -0.1282   -0.2608
          48    0.1354    0.0008   -0.0660   -0.0001   -0.0960   -0.0003    0.0704   -0.0311
          49   -0.0297    0.0136    0.0892   -0.1109    0.0136   -0.1747    0.0888   -0.0520
          50   -0.0381    0.1696    0.1101   -0.0874    0.0270   -0.1242    0.0866    0.0396
          51   -0.0762    0.0912    0.2400   -0.2658   -0.0219   -0.1976    0.1311    0.0383
          52   -0.0289   -0.1628    0.0871    0.0614    0.0234    0.0819    0.0655    0.0501
          53   -0.0368   -0.0506    0.1099    0.1279    0.0195    0.1965    0.1072   -0.0420
          54   -0.0754   -0.0917    0.2378    0.2673   -0.0214    0.1962    0.1326    0.0380


   Root No.       9        10        11        12        13        14        15        16

                 9 A      10 A      11 A      12 A      13 A      14 A      15 A      16 A   

                 791.0     804.8     884.0     896.3     925.0     930.1     935.4     984.2
  
           1    0.1061   -0.2735   -0.0600   -0.3014   -0.1798   -0.1422    0.0275   -0.2284
           2    0.1333    0.2184    0.0480   -0.3774   -0.2244    0.1152    0.0333    0.1824
           3   -0.0485   -0.0000    0.0000   -0.0067   -0.0862    0.0002    0.0370   -0.0001
           4    0.0345    0.0612    0.0139    0.1712   -0.1331    0.0117    0.1387    0.0882
           5   -0.0430    0.3734    0.0700    0.0585    0.0507   -0.2718   -0.1814   -0.1202
           6   -0.0443    0.0110   -0.0537    0.0125    0.0152   -0.1588   -0.2726   -0.1605
           7   -0.0499   -0.3507   -0.0652    0.0197    0.0801    0.2658   -0.2092    0.1366
           8    0.0241   -0.1414   -0.0290    0.1800   -0.1182    0.0495    0.0952   -0.0597
           9   -0.0444   -0.0108    0.0540    0.0122    0.0159    0.1569   -0.2736    0.1605
          10    0.0281    0.1773   -0.1948    0.1241    0.3815    0.1992    0.0908    0.1207
          11   -0.0001    0.0941   -0.1898    0.0613   -0.2491   -0.0176   -0.0531   -0.0564
          12    0.1089   -0.0046    0.1732    0.0238    0.1391    0.1659   -0.0329    0.0411
          13   -0.0061   -0.0532    0.1425    0.0327   -0.3263    0.0617   -0.0720    0.0818
          14    0.0267   -0.1934    0.2319    0.1348    0.3165   -0.1920    0.0786   -0.1047
          15    0.1082    0.0043   -0.1734    0.0239    0.1382   -0.1667   -0.0318   -0.0413
          16   -0.0273    0.0746   -0.0540   -0.0809    0.1281   -0.1079    0.1159   -0.1331
          17   -0.0342   -0.0597    0.0434   -0.1012    0.1607    0.0866    0.1442    0.1062
          18    0.1317   -0.0001   -0.0003   -0.1389    0.0547    0.0013    0.4808    0.0001
          19   -0.1126    0.3423    0.2478   -0.0579    0.0622   -0.0329   -0.0737    0.0330
          20   -0.1617   -0.0179    0.0959   -0.0355    0.0953    0.0307   -0.0844    0.0648
          21   -0.2493   -0.1737   -0.1652   -0.0072   -0.1497   -0.1808    0.1694    0.2868
          22   -0.1323    0.0925   -0.0392   -0.0221    0.0792   -0.0378   -0.0663   -0.0561
          23   -0.1449   -0.3300   -0.2627   -0.0640    0.0821    0.0246   -0.0910   -0.0464
          24   -0.2475    0.1741    0.1651   -0.0071   -0.1488    0.1832    0.1679   -0.2871
          25   -0.0375   -0.0754   -0.0259    0.4782   -0.1296   -0.1928    0.0898    0.1340
          26   -0.0528    0.0716    0.0319    0.1451    0.0363   -0.1302    0.0045    0.0818
          27    0.0617    0.0309   -0.0683    0.0021   -0.1307   -0.0601   -0.2138   -0.2916
          28   -0.0433   -0.0861   -0.0367    0.0370    0.0641    0.0844   -0.0158   -0.0506
          29   -0.0484    0.0585    0.0178    0.4991   -0.1171    0.2184    0.0873   -0.1486
          30    0.0612   -0.0312    0.0682    0.0016   -0.1301    0.0591   -0.2144    0.2921
          31    0.0074    0.0448   -0.0448    0.0298    0.1116    0.0471    0.0252    0.0248
          32    0.0456   -0.1241    0.2207    0.0452   -0.2851   -0.0239   -0.0387    0.0645
          33    0.0484    0.1522   -0.1695    0.1901    0.0464    0.1982    0.0026    0.1695
          34    0.0387   -0.1453    0.2948   -0.0401    0.0000   -0.0370    0.0082    0.0023
          35   -0.0266    0.0163   -0.1483   -0.0109   -0.0202    0.0736   -0.0834   -0.0366
          36    0.0133   -0.1004    0.0929   -0.0586    0.0524    0.0954   -0.1054   -0.0320
          37    0.0430    0.1307   -0.2256    0.0375   -0.3022    0.0349   -0.0436   -0.0574
          38    0.0170   -0.0167   -0.0044    0.0391    0.0463   -0.0411    0.0164   -0.0383
          39    0.0480   -0.1523    0.1701    0.1903    0.0453   -0.1988    0.0041   -0.1684
          40   -0.0344   -0.0477    0.2094   -0.0017   -0.0205   -0.0803   -0.0823    0.0361
          41    0.0319    0.1384   -0.2558   -0.0417   -0.0041    0.0202   -0.0106    0.0053
          42    0.0131    0.1002   -0.0929   -0.0585    0.0518   -0.0961   -0.1046    0.0312
          43   -0.0395   -0.0280    0.1560   -0.0172    0.0539   -0.0851   -0.0239   -0.0831
          44   -0.0494    0.0224   -0.1246   -0.0215    0.0682    0.0678   -0.0311    0.0663
          45   -0.1116    0.0001    0.0004   -0.0143    0.1147   -0.0006   -0.1315   -0.0002
          46    0.0907    0.0286   -0.1528   -0.0516   -0.0200   -0.1793    0.2321   -0.1383
          47    0.1138   -0.0231    0.1217   -0.0645   -0.0241    0.1451    0.2891    0.1109
          48    0.0244   -0.0000   -0.0000   -0.0360    0.0224    0.0003    0.1107   -0.0000
          49    0.2212    0.0632   -0.0059    0.0035    0.0622    0.0474   -0.1154   -0.1222
          50    0.3049   -0.0036    0.1067    0.0845   -0.0270    0.3333    0.0516   -0.2618
          51    0.4260   -0.1178   -0.1747    0.0445    0.0244    0.0981   -0.1056   -0.1928
          52    0.2480    0.0170   -0.1056    0.0813   -0.0414   -0.3146    0.0778    0.2287
          53    0.2820   -0.0613   -0.0176    0.0219    0.0541   -0.1210   -0.1003    0.1772
          54    0.4257    0.1173    0.1748    0.0444    0.0236   -0.1001   -0.1046    0.1939


   Root No.      17        18        19        20        21        22        23        24

                17 A      18 A      19 A      20 A      21 A      22 A      23 A      24 A   

                 993.7    1010.7    1012.3    1033.1    1063.6    1074.0    1106.6    1111.6
  
           1    0.2121   -0.3234   -0.0679   -0.0881   -0.0288   -0.0719    0.0084   -0.0192
           2   -0.1685    0.2578   -0.0892   -0.1111    0.0231   -0.0902   -0.0073   -0.0232
           3    0.0000   -0.0002   -0.0541    0.0313   -0.0001    0.0162   -0.0007   -0.0565
           4   -0.0731    0.1193   -0.0869    0.0211    0.0946    0.0161   -0.0017   -0.0776
           5   -0.0765   -0.2230    0.0735   -0.2362   -0.0416    0.0119    0.0437    0.2735
           6    0.0582    0.1161    0.0087   -0.1807    0.0639    0.1179    0.0332    0.1294
           7    0.0584    0.2439    0.0889   -0.2357    0.0610    0.0083   -0.0361    0.2857
           8    0.0882   -0.0683   -0.0671   -0.0307   -0.0837    0.0185   -0.0081   -0.0158
           9   -0.0582   -0.1165    0.0091   -0.1803   -0.0644    0.1179   -0.0299    0.1294
          10    0.0033   -0.0521    0.1803    0.0038   -0.0479    0.0492   -0.0676   -0.0695
          11    0.0270    0.0474    0.2132    0.0800   -0.0013   -0.0217   -0.0881    0.0076
          12   -0.0381   -0.0534   -0.1131    0.2129   -0.0510   -0.1222    0.1358    0.0211
          13   -0.0264   -0.0565    0.1686    0.0771   -0.0090   -0.0321    0.0720    0.0210
          14   -0.0103    0.0428    0.2218    0.0210    0.0472    0.0430    0.0838   -0.0682
          15    0.0386    0.0529   -0.1133    0.2127    0.0517   -0.1221   -0.1358    0.0248
          16   -0.0061    0.0940   -0.1553   -0.0297    0.0188   -0.0403    0.0218    0.0636
          17    0.0055   -0.0767   -0.1933   -0.0371   -0.0148   -0.0502   -0.0163    0.0804
          18   -0.0002    0.0005    0.1059   -0.1091   -0.0002    0.0914   -0.0012   -0.1309
          19    0.1582    0.0605    0.0248    0.0973   -0.0494    0.0350   -0.0055   -0.1618
          20    0.2214    0.1033    0.0126    0.1213    0.0283    0.0658   -0.0415   -0.1210
          21    0.1578    0.0222    0.0544   -0.0635    0.0774   -0.0177   -0.0822    0.0851
          22   -0.1820   -0.0870    0.0071    0.0969   -0.0384    0.0560    0.0372   -0.0837
          23   -0.2035   -0.0808    0.0269    0.1210    0.0423    0.0481    0.0098   -0.1847
          24   -0.1582   -0.0221    0.0545   -0.0635   -0.0776   -0.0183    0.0845    0.0829
          25   -0.3739    0.3297   -0.2533   -0.1580   -0.1991   -0.0136   -0.0393   -0.1837
          26   -0.1333   -0.0491   -0.0788   -0.1122   -0.1351   -0.1094    0.0874    0.1558
          27    0.0377    0.2390    0.1012   -0.0601    0.1727    0.3407   -0.2311   -0.3023
          28    0.0484    0.1195   -0.0220   -0.0751    0.0881   -0.1033   -0.0891    0.1946
          29    0.3953   -0.3132   -0.2594   -0.1782    0.2230   -0.0358    0.0157   -0.1459
          30   -0.0386   -0.2373    0.1027   -0.0594   -0.1731    0.3399    0.2237   -0.3078
          31    0.0026   -0.0097    0.0343   -0.0101   -0.0289    0.0222   -0.0232   -0.0237
          32   -0.1154   -0.0150    0.0475    0.2269    0.3066   -0.2007    0.1185    0.1126
          33   -0.0855   -0.0568    0.3261    0.2567    0.3110   -0.1512    0.0649    0.0408
          34   -0.0654   -0.0203   -0.1677    0.0384    0.0444   -0.0512    0.0550    0.0323
          35    0.1300    0.0974   -0.0487    0.1215   -0.2617   -0.0081    0.0398   -0.1568
          36    0.1041    0.0853   -0.2598    0.1944   -0.2907   -0.0636    0.1552   -0.1594
          37    0.1130    0.0128    0.0400    0.2242   -0.3048   -0.2009   -0.1183    0.1183
          38    0.0225    0.0133    0.0442    0.0399   -0.0388   -0.0224   -0.0033    0.0016
          39    0.0836    0.0600    0.3264    0.2568   -0.3100   -0.1516   -0.0640    0.0428
          40   -0.1409   -0.0993   -0.0111    0.1095    0.2648    0.0037   -0.0302   -0.1593
          41    0.0363   -0.0029   -0.1741    0.0644    0.0141   -0.0517   -0.0629   -0.0011
          42   -0.1026   -0.0871   -0.2597    0.1939    0.2906   -0.0629   -0.1590   -0.1553
          43   -0.0879   -0.0242   -0.0946    0.0167    0.0657   -0.0364   -0.4062    0.0426
          44    0.0707    0.0185   -0.1182    0.0209   -0.0525   -0.0462    0.3258    0.0436
          45    0.0004   -0.0009   -0.2047    0.0746    0.0001   -0.0778    0.0001    0.0436
          46    0.0609    0.1959    0.0784   -0.0602    0.1834    0.0408    0.5070   -0.0557
          47   -0.0491   -0.1561    0.0997   -0.0748   -0.1471    0.0515   -0.4067   -0.0570
          48   -0.0000    0.0001    0.0115   -0.0167   -0.0000    0.0153   -0.0003   -0.0319
          49   -0.1553   -0.1052    0.0236   -0.0805   -0.0506   -0.1390    0.0320   -0.1299
          50   -0.0215    0.2034   -0.1411    0.2273    0.0404    0.4257    0.0063    0.2971
          51   -0.3174   -0.1817    0.0254   -0.1867   -0.0336   -0.2081    0.0366   -0.0635
          52   -0.0132   -0.2228   -0.1420    0.2400   -0.0512    0.4459    0.0095    0.3175
          53    0.1570    0.0580   -0.0082   -0.0287    0.0407   -0.0419   -0.0343   -0.0606
          54    0.3190    0.1814    0.0248   -0.1865    0.0339   -0.2074   -0.0386   -0.0620


   Root No.      25        26        27        28        29        30        31        32

                25 A      26 A      27 A      28 A      29 A      30 A      31 A      32 A   

                1142.4    1148.9    1211.3    1214.6    1290.5    1300.1    1308.3    1313.6
  
           1    0.0354    0.0087    0.0190    0.2313   -0.0237   -0.0419    0.0008   -0.2514
           2    0.0446   -0.0072   -0.0154   -0.1853    0.0199   -0.0521   -0.0028   -0.3137
           3   -0.0222    0.0000    0.0001    0.0000    0.0001   -0.0378   -0.0002    0.0016
           4   -0.0522   -0.0409    0.0044   -0.5087   -0.0114    0.1743    0.0716    0.4854
           5    0.0816   -0.0207   -0.0514   -0.0621   -0.0788   -0.2698    0.1654    0.1879
           6    0.0138   -0.1351    0.3003   -0.0489   -0.1898    0.4341   -0.2588   -0.0741
           7    0.0914    0.0110    0.0504   -0.0508    0.0764   -0.2990   -0.1480    0.0782
           8   -0.0332    0.0448    0.0074    0.5105    0.0263    0.1122   -0.1015    0.5151
           9    0.0147    0.1354   -0.3003    0.0490    0.1860    0.4332    0.2630   -0.0754
          10    0.0757   -0.0340    0.0060    0.0743    0.0328   -0.0379   -0.0775   -0.0665
          11    0.1820    0.2436    0.1061    0.0376    0.2296   -0.0553    0.0913   -0.0461
          12   -0.0347    0.0769   -0.0654    0.0512    0.3415   -0.2296    0.1490    0.0038
          13    0.1593   -0.2463   -0.1022   -0.0204   -0.2151   -0.0465   -0.1072   -0.0301
          14    0.1136   -0.0210   -0.0292   -0.0809   -0.0814   -0.0505    0.0545   -0.0755
          15   -0.0349   -0.0768    0.0653   -0.0513   -0.3383   -0.2312   -0.1516    0.0041
          16   -0.2390    0.2420   -0.0688    0.0834   -0.1378    0.0160    0.3019   -0.0027
          17   -0.3002   -0.1919    0.0552   -0.0668    0.1099    0.0247   -0.2415   -0.0009
          18    0.0770   -0.0003    0.0001    0.0000   -0.0008    0.1109    0.0006    0.0034
          19   -0.0748    0.0129   -0.0129    0.1491    0.0040    0.0955   -0.0654   -0.0201
          20   -0.0558    0.0283   -0.2085    0.0261    0.0437    0.1170   -0.2901   -0.0762
          21    0.0400    0.0092    0.0450   -0.0155    0.0186   -0.1708    0.2522    0.0484
          22   -0.0381   -0.0248    0.2008    0.0071   -0.0424    0.0898    0.2693   -0.0719
          23   -0.0850   -0.0185    0.0587   -0.1514   -0.0144    0.1174    0.1283   -0.0371
[...]
 T-DIPOLE    0.0404         C  2 -- H  9         +14.8% ( 49.4%)      0.2%
 TRAVEL      0.1232         C  8 -- H 18          +9.6% ( 39.7%)      0.4%
 RED. MASS   0.3503         C  7 -- H 17          +9.5% ( 39.7%)      0.3%
 EFF. MASS   3.6701

 VIBRATION   28   28A         ATOM PAIR      ENERGY CONTRIBUTION    RADIAL
 FREQ.      1214.61         C  2 -- C  3         +12.3% ( 57.6%)      0.0%
 T-DIPOLE    0.4490         C  3 -- H 10         +10.9% ( 54.3%)      0.6%
 TRAVEL      0.0802         C  2 -- H  9         +10.9% ( 54.2%)      0.6%
 RED. MASS   1.8451         O  1 -- C  3         +10.9% ( 54.1%)     96.9%
 EFF. MASS   8.6410         O  1 -- C  2         +10.9% ( 54.1%)     96.9%

 VIBRATION   29   29A         ATOM PAIR      ENERGY CONTRIBUTION    RADIAL
 FREQ.      1290.54         C  4 -- H 11         +12.4% ( 47.7%)      0.2%
 T-DIPOLE    0.0526         C  5 -- H 13         +12.2% ( 47.3%)      0.2%
 TRAVEL      0.0994         C  4 -- H 12         +11.3% ( 45.6%)      0.1%
 RED. MASS   0.7927         C  5 -- H 14         +11.2% ( 45.3%)      0.1%
 EFF. MASS   5.2911

 VIBRATION   30   30A         ATOM PAIR      ENERGY CONTRIBUTION    RADIAL
 FREQ.      1300.13         C  2 -- C  3         +14.4% ( 66.0%)    100.0%
 T-DIPOLE    0.6429         C  2 -- C  7         +10.0% ( 54.8%)     80.5%
 TRAVEL      0.0715         C  3 -- C  8          +9.8% ( 54.4%)     80.1%
 RED. MASS   2.1817         C  2 -- C  4          +9.6% ( 53.9%)     75.5%
 EFF. MASS  10.1375

 VIBRATION   31   31A         ATOM PAIR      ENERGY CONTRIBUTION    RADIAL
 FREQ.      1308.30         C  3 -- C  8         +10.3% ( 49.2%)     97.4%
 T-DIPOLE    0.1751         C  2 -- C  7         +10.1% ( 48.9%)     97.6%
 TRAVEL      0.0766         C  7 -- C  8          +9.5% ( 47.4%)      0.0%
 RED. MASS   1.1176         C  8 -- H 18          +7.3% ( 41.3%)      5.5%
 EFF. MASS   8.7946

 VIBRATION   32   32A         ATOM PAIR      ENERGY CONTRIBUTION    RADIAL
 FREQ.      1313.59         C  2 -- C  3         +15.2% ( 59.5%)    100.0%
 T-DIPOLE    0.6391         O  1 -- C  3         +13.5% ( 56.2%)     67.7%
 TRAVEL      0.0746         O  1 -- C  2         +13.5% ( 56.2%)     67.8%
 RED. MASS   2.2781         C  3 -- H 10         +11.6% ( 52.1%)      0.0%
 EFF. MASS   9.2146         C  2 -- H  9         +11.6% ( 52.0%)      0.0%

 VIBRATION   33   33A         ATOM PAIR      ENERGY CONTRIBUTION    RADIAL
 FREQ.      1324.13         C  5 -- H 13         +11.2% ( 46.2%)      0.0%
 T-DIPOLE    0.0622         C  4 -- H 11         +11.2% ( 46.1%)      0.0%
 TRAVEL      0.0931         C  5 -- H 14         +10.7% ( 45.2%)      0.1%
 RED. MASS   0.8580         C  4 -- H 12         +10.7% ( 45.1%)      0.1%
 EFF. MASS   5.8739

 VIBRATION   34   34A         ATOM PAIR      ENERGY CONTRIBUTION    RADIAL
 FREQ.      1334.08         C  5 -- C  6         +11.1% ( 47.9%)     87.0%
 T-DIPOLE    0.2379         C  4 -- C  6         +11.1% ( 47.8%)     87.0%
 TRAVEL      0.0840         C  6 -- H 16         +11.1% ( 47.8%)      0.0%
 RED. MASS   0.9568         C  6 -- H 15         +10.9% ( 47.3%)      0.0%
 EFF. MASS   7.1563

 VIBRATION   35   35A         ATOM PAIR      ENERGY CONTRIBUTION    RADIAL
 FREQ.      1393.40         C  4 -- H 12         +14.9% ( 39.1%)      3.3%
 T-DIPOLE    0.0732         C  5 -- H 14         +14.8% ( 39.0%)      3.4%
 TRAVEL      0.1375         C  4 -- H 11         +13.0% ( 36.6%)      5.5%
 RED. MASS   0.2193         C  5 -- H 13         +13.0% ( 36.6%)      5.4%
 EFF. MASS   2.5589         C  6 -- H 15         +11.4% ( 34.2%)      3.4%

 VIBRATION   36   36A         ATOM PAIR      ENERGY CONTRIBUTION    RADIAL
 FREQ.      1403.52         C  4 -- H 12         +16.2% ( 43.6%)      4.3%
 T-DIPOLE    0.1417         C  5 -- H 14         +16.0% ( 43.4%)      4.3%
 TRAVEL      0.1213         C  4 -- H 11         +14.7% ( 41.6%)      6.4%
 RED. MASS   0.3329         C  5 -- H 13         +14.6% ( 41.4%)      6.4%
 EFF. MASS   3.2658

 VIBRATION   37   37A         ATOM PAIR      ENERGY CONTRIBUTION    RADIAL
 FREQ.      1409.02         C  6 -- H 16         +24.7% ( 51.2%)      5.2%
 T-DIPOLE    0.0560         C  6 -- H 15         +23.3% ( 49.7%)      5.2%
 TRAVEL      0.1307         C  5 -- C  6          +9.5% ( 31.8%)     69.6%
 RED. MASS   0.3387         C  4 -- C  6          +9.5% ( 31.6%)     68.7%
 EFF. MASS   2.8029

 VIBRATION   38   38A         ATOM PAIR      ENERGY CONTRIBUTION    RADIAL
 FREQ.      1797.11         C  7 -- C  8         +46.4% (101.0%)    100.0%
 T-DIPOLE    0.2555         C  3 -- C  8         +13.9% ( 55.3%)     12.0%
 TRAVEL      0.0561         C  2 -- C  7         +13.9% ( 55.3%)     12.0%
 RED. MASS   5.2957         C  8 -- H 18         +12.7% ( 52.9%)     14.3%
 EFF. MASS  11.9061         C  7 -- H 17         +12.7% ( 52.9%)     14.3%

 VIBRATION   39   39A         ATOM PAIR      ENERGY CONTRIBUTION    RADIAL
 FREQ.      2953.41         C  6 -- H 15         +55.5% ( 77.5%)     97.8%
 T-DIPOLE    0.0316         C  6 -- H 16         +30.3% ( 57.3%)     94.1%
 TRAVEL      0.1214         C  4 -- H 12          +3.7% ( 19.9%)     97.2%
 RED. MASS   0.4387         C  5 -- H 14          +3.6% ( 19.8%)     97.2%
 EFF. MASS   1.5503

 VIBRATION   40   40A         ATOM PAIR      ENERGY CONTRIBUTION    RADIAL
 FREQ.      2957.46         C  2 -- H  9         +48.5% ( 71.4%)    100.0%
 T-DIPOLE    0.1809         C  3 -- H 10         +46.3% ( 69.8%)    100.0%
 TRAVEL      0.1248         C  2 -- C  3          +1.1% ( 10.8%)      0.0%
 RED. MASS   0.4619         O  1 -- C  2          +0.6% (  8.2%)      8.7%
 EFF. MASS   1.4649

 VIBRATION   41   41A         ATOM PAIR      ENERGY CONTRIBUTION    RADIAL
 FREQ.      2961.42         C  3 -- H 10         +48.0% ( 71.3%)    100.0%
 T-DIPOLE    0.1016         C  2 -- H  9         +45.9% ( 69.7%)    100.0%
 TRAVEL      0.1226         C  2 -- C  3          +1.5% ( 12.5%)    100.0%
 RED. MASS   0.4601         C  3 -- C  5          +0.7% (  8.5%)     12.2%
 EFF. MASS   1.5160

 VIBRATION   42   42A         ATOM PAIR      ENERGY CONTRIBUTION    RADIAL
 FREQ.      2975.48         C  4 -- H 12         +27.7% ( 54.7%)     97.3%
 T-DIPOLE    0.0060         C  5 -- H 14         +27.6% ( 54.6%)     97.3%
 TRAVEL      0.1212         C  5 -- H 13         +21.0% ( 47.6%)     95.7%
 RED. MASS   0.2626         C  4 -- H 11         +21.0% ( 47.6%)     95.6%
 EFF. MASS   1.5429

 VIBRATION   43   43A         ATOM PAIR      ENERGY CONTRIBUTION    RADIAL
 FREQ.      2978.98         C  5 -- H 14         +24.2% ( 51.0%)     97.3%
 T-DIPOLE    0.1108         C  4 -- H 12         +24.2% ( 50.9%)     97.3%
 TRAVEL      0.1213         C  5 -- H 13         +18.8% ( 44.9%)     95.8%
 RED. MASS   0.2106         C  4 -- H 11         +18.7% ( 44.8%)     95.8%
 EFF. MASS   1.5394

 VIBRATION   44   44A         ATOM PAIR      ENERGY CONTRIBUTION    RADIAL
 FREQ.      3039.60         C  6 -- H 16         +56.5% ( 74.1%)     98.9%
 T-DIPOLE    0.0224         C  6 -- H 15         +31.3% ( 55.2%)     95.3%
 TRAVEL      0.1315         C  5 -- H 14          +2.8% ( 16.4%)     97.3%
 RED. MASS   0.4127         C  4 -- H 12          +2.7% ( 16.3%)     97.3%
 EFF. MASS   1.2824

 VIBRATION   45   45A         ATOM PAIR      ENERGY CONTRIBUTION    RADIAL
 FREQ.      3050.81         C  5 -- H 13         +28.9% ( 53.0%)     98.4%
 T-DIPOLE    0.1064         C  4 -- H 11         +28.1% ( 52.2%)     98.4%
 TRAVEL      0.1320         C  5 -- H 14         +21.2% ( 45.4%)     96.6%
 RED. MASS   0.2464         C  4 -- H 12         +20.5% ( 44.7%)     96.5%
 EFF. MASS   1.2690

 VIBRATION   46   46A         ATOM PAIR      ENERGY CONTRIBUTION    RADIAL
 FREQ.      3052.76         C  4 -- H 11         +26.4% ( 50.6%)     98.5%
 T-DIPOLE    0.0826         C  5 -- H 13         +25.4% ( 49.7%)     98.5%
 TRAVEL      0.1314         C  4 -- H 12         +18.3% ( 42.1%)     96.2%
 RED. MASS   0.2033         C  5 -- H 14         +17.7% ( 41.5%)     96.2%
 EFF. MASS   1.2783

 VIBRATION   47   47A         ATOM PAIR      ENERGY CONTRIBUTION    RADIAL
 FREQ.      3148.17         C  8 -- H 18         +48.8% ( 71.0%)    100.0%
 T-DIPOLE    0.4372         C  7 -- H 17         +48.6% ( 70.8%)    100.0%
 TRAVEL      0.1209         C  7 -- C  8          +1.1% ( 10.7%)      0.0%
 RED. MASS   0.4649         C  3 -- C  8          +0.7% (  8.8%)     28.8%
 EFF. MASS   1.4653

 VIBRATION   48   48A         ATOM PAIR      ENERGY CONTRIBUTION    RADIAL
 FREQ.      3166.55         C  7 -- H 17         +47.8% ( 70.5%)     99.9%
 T-DIPOLE    0.4247         C  8 -- H 18         +47.5% ( 70.3%)     99.9%
 TRAVEL      0.1129         C  7 -- C  8          +2.6% ( 16.6%)    100.0%
 RED. MASS   0.4680         C  2 -- C  7          +1.0% ( 10.1%)     21.8%
 EFF. MASS   1.6718

      SYMMETRY NUMBER FOR POINT-GROUP C1  =  1


          SYSTEM IS A GROUND STATE



 InChI=1S/C7H10O/c1-2-6-4-5-7(3-1)8-6/h4-7H,1-3H2


          MOLECULE IS NOT LINEAR

          THERE ARE 48 GENUINE VIBRATIONS IN THIS SYSTEM
          THIS THERMODYNAMICS CALCULATION IS LIMITED TO
          MOLECULES WHICH HAVE NO INTERNAL ROTATIONS




                    CALCULATED THERMODYNAMIC PROPERTIES
                                          *
   TEMP. (K)   PARTITION FUNCTION   H.O.F.    ENTHALPY  HEAT CAPACITY ENTROPY
                                   KCAL/MOL   CAL/MOLE    CAL/K/MOL  CAL/K/MOL


 298.00  VIB.     0.5216D+01                  2033.7343    19.5509    10.1070
         ROT.     0.2101D+06                   888.2813     2.9808    27.3350
         INT.     0.1096D+07                  2922.0156    22.5317    37.4420
         TRA.     0.1118D+28                  1480.4688     4.9680    40.0041
         TOT.                      -20.137    4402.4844    27.4997    77.4461

 200.00  VIB.     0.1996D+01                   636.3425     9.3932     4.5555
         ROT.     0.1155D+06                   596.1620     2.9808    26.1463
         INT.     0.2306D+06                  1232.5045    12.3740    30.7018
         TRA.     0.6145D+27                   993.6033     4.9680    38.0229
         TOT.                      -22.313    2226.1077    17.3420    68.7247

 210.00  VIB.     0.2167D+01                   734.7284    10.2909     5.0353
         ROT.     0.1243D+06                   625.9700     2.9808    26.2917
         INT.     0.2693D+06                  1360.6985    13.2717    31.3271
         TRA.     0.6612D+27                  1043.2834     4.9680    38.2653
         TOT.                      -22.136    2403.9819    18.2398    69.5924

 220.00  VIB.     0.2361D+01                   842.2961    11.2291     5.5356
         ROT.     0.1333D+06                   655.7781     2.9808    26.4304
         INT.     0.3147D+06                  1498.0742    14.2100    31.9660
         TRA.     0.7090D+27                  1092.9636     4.9680    38.4965
         TOT.                      -21.948    2591.0378    19.1780    70.4624

 230.00  VIB.     0.2582D+01                   959.4375    12.2052     6.0561
         ROT.     0.1425D+06                   685.5862     2.9808    26.5629
         INT.     0.3678D+06                  1645.0238    15.1860    32.6190
         TRA.     0.7579D+27                  1142.6437     4.9680    38.7173
         TOT.                      -21.752    2787.6675    20.1540    71.3363

 240.00  VIB.     0.2833D+01                  1086.5150    13.2158     6.5968
         ROT.     0.1519D+06                   715.3943     2.9808    26.6898
         INT.     0.4303D+06                  1801.9094    16.1966    33.2866
         TRA.     0.8078D+27                  1192.3239     4.9680    38.9287
         TOT.                      -21.545    2994.2333    21.1646    72.2153

 250.00  VIB.     0.3121D+01                  1223.8553    14.2571     7.1573
         ROT.     0.1615D+06                   745.2024     2.9808    26.8114
         INT.     0.5040D+06                  1969.0577    17.2379    33.9687
         TRA.     0.8589D+27                  1242.0041     4.9680    39.1315
         TOT.                      -21.328    3211.0618    22.2059    73.1003

 260.00  VIB.     0.3451D+01                  1371.7453    15.3250     7.7372
         ROT.     0.1712D+06                   775.0105     2.9808    26.9284
         INT.     0.5909D+06                  2146.7559    18.3058    34.6656
         TRA.     0.9109D+27                  1291.6842     4.9680    39.3264
         TOT.                      -21.101    3438.4401    23.2738    73.9919

 270.00  VIB.     0.3828D+01                  1530.4303    16.4153     8.3360
         ROT.     0.1812D+06                   804.8186     2.9808    27.0408
         INT.     0.6938D+06                  2335.2489    19.3961    35.3768
         TRA.     0.9640D+27                  1341.3644     4.9680    39.5139
         TOT.                      -20.863    3676.6133    24.3642    74.8907

 280.00  VIB.     0.4262D+01                  1700.1122    17.5237     8.9529
         ROT.     0.1914D+06                   834.6267     2.9808    27.1493
         INT.     0.8157D+06                  2534.7390    20.5045    36.1022
         TRA.     0.1018D+28                  1391.0445     4.9680    39.6946
         TOT.                      -20.614    3925.7835    25.4725    75.7967

 290.00  VIB.     0.4762D+01                  1880.9505    18.6459     9.5874
         ROT.     0.2017D+06                   864.4348     2.9808    27.2539
         INT.     0.9606D+06                  2745.3854    21.6267    36.8413
         TRA.     0.1073D+28                  1440.7247     4.9680    39.8689
         TOT.                      -20.353    4186.1101    26.5947    76.7101

 300.00  VIB.     0.5338D+01                  2073.0630    19.7779    10.2386
         ROT.     0.2122D+06                   894.2429     2.9808    27.3549
         INT.     0.1133D+07                  2967.3059    22.7587    37.5935
         TRA.     0.1129D+28                  1490.4049     4.9680    40.0373
         TOT.                      -20.082    4457.7108    27.7267    77.6308

 310.00  VIB.     0.6004D+01                  2276.5275    20.9157    10.9056
         ROT.     0.2229D+06                   924.0510     2.9808    27.4526
         INT.     0.1339D+07                  3200.5785    23.8965    38.3583
         TRA.     0.1186D+28                  1540.0850     4.9680    40.2002
         TOT.                      -19.799    4740.6636    28.8645    78.5585

 320.00  VIB.     0.6775D+01                  2491.3850    22.0559    11.5877
         ROT.     0.2338D+06                   953.8591     2.9808    27.5473
         INT.     0.1584D+07                  3445.2441    25.0367    39.1350
         TRA.     0.1244D+28                  1589.7652     4.9680    40.3579
         TOT.                      -19.504    5035.0093    30.0047    79.4929

 330.00  VIB.     0.7670D+01                  2717.6417    23.1950    12.2838
         ROT.     0.2449D+06                   983.6672     2.9808    27.6390
         INT.     0.1878D+07                  3701.3089    26.1758    39.9228
         TRA.     0.1303D+28                  1639.4454     4.9680    40.5108
         TOT.                      -19.199    5340.7543    31.1439    80.4337

 340.00  VIB.     0.8710D+01                  2955.2724    24.3302    12.9931
         ROT.     0.2561D+06                  1013.4753     2.9808    27.7280
         INT.     0.2230D+07                  3968.7477    27.3110    40.7211
         TRA.     0.1362D+28                  1689.1255     4.9680    40.6591
         TOT.                      -18.882    5657.8732    32.2790    81.3803

 350.00  VIB.     0.9920D+01                  3204.2236    25.4587    13.7147
         ROT.     0.2675D+06                  1043.2834     2.9808    27.8144
         INT.     0.2653D+07                  4247.5070    28.4395    41.5291
         TRA.     0.1423D+28                  1738.8057     4.9680    40.8031
         TOT.                      -18.553    5986.3127    33.4075    82.3322

 360.00  VIB.     0.1133D+02                  3464.4164    26.5782    14.4476
         ROT.     0.2790D+06                  1073.0915     2.9808    27.8984
         INT.     0.3162D+07                  4537.5079    29.5590    42.3460
         TRA.     0.1484D+28                  1788.4859     4.9680    40.9431
         TOT.                      -18.214    6325.9938    34.5270    83.2891

 370.00  VIB.     0.1298D+02                  3735.7500    27.6865    15.1910
         ROT.     0.2907D+06                  1102.8996     2.9808    27.9800
         INT.     0.3774D+07                  4838.6496    30.6673    43.1710
         TRA.     0.1546D+28                  1838.1660     4.9680    41.0792
         TOT.                      -17.863    6676.8156    35.6354    84.2502

 380.00  VIB.     0.1491D+02                  4018.1041    28.7820    15.9439
         ROT.     0.3026D+06                  1132.7077     2.9808    28.0595
         INT.     0.4512D+07                  5150.8118    31.7628    44.0034
         TRA.     0.1609D+28                  1887.8462     4.9680    41.2117
         TOT.                      -17.501    7038.6580    36.7308    85.2151

 390.00  VIB.     0.1718D+02                  4311.3421    29.8631    16.7055
         ROT.     0.3146D+06                  1162.5158     2.9808    28.1370
         INT.     0.5404D+07                  5473.8579    32.8439    44.8425
         TRA.     0.1673D+28                  1937.5263     4.9680    41.3407
         TOT.                      -17.128    7411.3842    37.8119    86.1833

 400.00  VIB.     0.1984D+02                  4615.3134    30.9285    17.4751
         ROT.     0.3268D+06                  1192.3239     2.9808    28.2124
         INT.     0.6482D+07                  5807.6373    33.9093    45.6875
         TRA.     0.1738D+28                  1987.2065     4.9680    41.4665
         TOT.                      -16.745    7794.8438    38.8773    87.1540

   *: NOTE: HEATS OF FORMATION ARE RELATIVE TO THE
            ELEMENTS IN THEIR STANDARD STATE AT 298K
              (=  Standard Enthalpy of Formation).

            Hvib:  Zero-point energy is not included.
                   frequencies of less than zero cm-1 are not included.
            Hrot = (3/2)RT
            Htra = (3/2)RT + pV = (5/2)RT

            Heat capacity is Cp, not Cv

          For more information, see: HTTP://OpenMOPAC.net/Manual/thermochemistry.html


           FORCE CONSTANT IN CARTESIAN COORDINATES (Millidynes/A)

    ATOM   CHEMICAL       X               Y               Z
   NUMBER   SYMBOL  FORCE CONSTANT  FORCE CONSTANT  FORCE CONSTANT

      1       O        6.124037        6.410448        1.800965
      2       C        7.800103       10.125208        7.326438
      3       C       10.631715        7.295039        7.327319
      4       C        8.683982        7.934006        7.739057
      5       C        7.948602        8.670092        7.740901
      6       C        7.799522        7.909494        8.634984
      7       C       13.367452        8.213472        5.372498
      8       C       10.032010       11.551028        5.372376
      9       H        0.904174        4.092709        1.113062
     10       H        4.387635        0.609653        1.112942
     11       H        5.041312        0.720404        0.681629
     12       H        1.110297        2.973080        2.349745
     13       H        0.871133        4.890612        0.681512
     14       H        2.465948        1.616728        2.351075
     15       H        2.166524        2.960531        1.232984
     16       H        0.720997        0.717427        5.010194
     17       H        4.224925        0.619738        1.641437
     18       H        0.692350        4.153237        1.640906

 **********************
 *                    *
 * JOB ENDED NORMALLY *
 *                    *
 **********************



 TOTAL JOB TIME:             5.10 SECONDS

 == MOPAC DONE ==
