 *******************************************************************************
 ** Site#: 14399        For non-commercial use only    Version 18.184L 64BITS **
 *******************************************************************************
 ** Cite this program as: MOPAC2016, Version: 18.184L, James J. P. Stewart,   **
 ** Stewart Computational Chemistry, web: HTTP://OpenMOPAC.net. Days left:  20**
 *******************************************************************************
 **                                                                           **
 **                                MOPAC2016                                  **
 **                                                                           **
 *******************************************************************************

                              PM3 CALCULATION RESULTS

 *******************************************************************************
 *  CALCULATION DONE:                                Thu Jun 13 16:03:12 2019  *
 *  PM3        - The PM3 Hamiltonian to be used
 *  NONR       - DO NOT USE NEWTON-RAPHSON STEP IN EF
 *  PRECISE    - CRITERIA TO BE INCREASED BY 100 TIMES
 *  NOSYM      - POINT-GROUP SYMMETRY SET TO C1
 *  THREADS=1  - MULTI-THREADING NOT USED
 *  T=         - A TIME OF 172800.0 SECONDS REQUESTED
 *  DUMP=N     - RESTART FILE WRITTEN EVERY  7200.000 SECONDS
 *  GNORM=     - EXIT WHEN GRADIENT NORM DROPS BELOW   0.00    
 *******************************************************************************
pm3  precise nosym gnorm=0.0 nonr THREADS=1
 InChI=1S/C10H12/c1-2-3-7-10-8-5-4-6-9-10/h2-8H,9H2,1H3

   ATOM   CHEMICAL          X               Y               Z
  NUMBER   SYMBOL      (ANGSTROMS)     (ANGSTROMS)     (ANGSTROMS)
 
     1       C         -1.20290000  *  -0.77650000  *  -0.49890000  *
     2       C          4.04650000  *  -0.51710000  *  -0.48160000  *
     3       C         -0.75230000  *   0.39310000  *   0.35940000  *
     4       C         -2.69990000  *  -0.94000000  *  -0.57070000  *
     5       C          2.92670000  *   0.25790000  *   0.13480000  *
     6       C          0.55040000  *   0.68460000  *   0.53340000  *
     7       C         -1.76630000  *   1.24080000  *   1.02650000  *
     8       C         -3.54790000  *  -0.12730000  *   0.06470000  *
     9       C          1.65460000  *  -0.08500000  *  -0.07850000  *
    10       C         -3.06830000  *   0.99350000  *   0.88560000  *
    11       H         -0.77670000  *  -1.71620000  *  -0.08730000  *
    12       H         -0.82540000  *  -0.63570000  *  -1.53420000  *
    13       H          3.96380000  *  -0.48750000  *  -1.58870000  *
    14       H          4.01260000  *  -1.57210000  *  -0.13640000  *
    15       H          5.01900000  *  -0.07300000  *  -0.18270000  *
    16       H         -3.09910000  *  -1.75280000  *  -1.16430000  *
    17       H          3.16730000  *   1.10860000  *   0.76210000  *
    18       H          1.44350000  *  -0.93940000  *  -0.70950000  *
    19       H         -3.79030000  *   1.62800000  *   1.38380000  *
    20       H         -4.61390000  *  -0.29410000  *  -0.02400000  *
    21       H          0.81650000  *   1.53190000  *   1.15710000  *
    22       H         -1.45800000  *   2.07830000  *   1.64170000  *
 


          CARTESIAN COORDINATES 

    NO.       ATOM           X           Y           Z

     1         C         -1.2029     -0.7765     -0.4989
     2         C          4.0465     -0.5171     -0.4816
     3         C         -0.7523      0.3931      0.3594
     4         C         -2.6999     -0.9400     -0.5707
     5         C          2.9267      0.2579      0.1348
     6         C          0.5504      0.6846      0.5334
     7         C         -1.7663      1.2408      1.0265
     8         C         -3.5479     -0.1273      0.0647
     9         C          1.6546     -0.0850     -0.0785
    10         C         -3.0683      0.9935      0.8856
    11         H         -0.7767     -1.7162     -0.0873
    12         H         -0.8254     -0.6357     -1.5342
    13         H          3.9638     -0.4875     -1.5887
    14         H          4.0126     -1.5721     -0.1364
    15         H          5.0190     -0.0730     -0.1827
    16         H         -3.0991     -1.7528     -1.1643
    17         H          3.1673      1.1086      0.7621
    18         H          1.4435     -0.9394     -0.7095
    19         H         -3.7903      1.6280      1.3838
    20         H         -4.6139     -0.2941     -0.0240
    21         H          0.8165      1.5319      1.1571
    22         H         -1.4580      2.0783      1.6417

  H: (PM3): J. J. P. STEWART, J. COMP. CHEM. 10, 209 (1989).
  C: (PM3): J. J. P. STEWART, J. COMP. CHEM. 10, 209 (1989).

           Empirical Formula: C10 H12  =    22 atoms



      MOLECULAR POINT GROUP   :   C1  


      RHF CALCULATION, NO. OF DOUBLY OCCUPIED LEVELS = 26


          Geometry optimization using EF

  GNORM HAS BEEN SET TOO LOW, RESET TO 0.01

  SPECIFY LET AS KEYWORD TO ALLOW GNORM LESS THAN 0.01

          DIAGONAL MATRIX USED AS START HESSIAN

 CYCLE:     1 TIME:   0.031 TIME LEFT:  2.00D  GRAD.:    89.730 HEAT:  47.76046
 CYCLE:     2 TIME:   0.047 TIME LEFT:  2.00D  GRAD.:    35.593 HEAT:  45.74354
 CYCLE:     3 TIME:   0.031 TIME LEFT:  2.00D  GRAD.:    34.133 HEAT:  45.29884
 CYCLE:     4 TIME:   0.035 TIME LEFT:  2.00D  GRAD.:    30.086 HEAT:  45.04465
 CYCLE:     5 TIME:   0.027 TIME LEFT:  2.00D  GRAD.:    26.987 HEAT:  44.89117
 CYCLE:     6 TIME:   0.020 TIME LEFT:  2.00D  GRAD.:    26.570 HEAT:  44.74976
 CYCLE:     7 TIME:   0.023 TIME LEFT:  2.00D  GRAD.:    24.517 HEAT:  44.65014
 CYCLE:     8 TIME:   0.023 TIME LEFT:  2.00D  GRAD.:    27.907 HEAT:  44.62165
 CYCLE:     9 TIME:   0.023 TIME LEFT:  2.00D  GRAD.:    26.509 HEAT:  44.58912
 CYCLE:    10 TIME:   0.023 TIME LEFT:  2.00D  GRAD.:    25.013 HEAT:  44.53014
 CYCLE:    11 TIME:   0.023 TIME LEFT:  2.00D  GRAD.:    24.453 HEAT:  44.52915
 CYCLE:    12 TIME:   0.035 TIME LEFT:  2.00D  GRAD.:    12.018 HEAT:  44.42438
 CYCLE:    13 TIME:   0.035 TIME LEFT:  2.00D  GRAD.:     9.767 HEAT:  44.41162
 CYCLE:    14 TIME:   0.027 TIME LEFT:  2.00D  GRAD.:     5.840 HEAT:  44.39742
 CYCLE:    15 TIME:   0.031 TIME LEFT:  2.00D  GRAD.:     3.320 HEAT:  44.39172
 CYCLE:    16 TIME:   0.023 TIME LEFT:  2.00D  GRAD.:     3.131 HEAT:  44.39103
 CYCLE:    17 TIME:   0.023 TIME LEFT:  2.00D  GRAD.:     3.209 HEAT:  44.38970
 CYCLE:    18 TIME:   0.023 TIME LEFT:  2.00D  GRAD.:     3.300 HEAT:  44.38991
 CYCLE:    19 TIME:   0.023 TIME LEFT:  2.00D  GRAD.:     3.098 HEAT:  44.38817
 CYCLE:    20 TIME:   0.020 TIME LEFT:  2.00D  GRAD.:     2.343 HEAT:  44.38703
 CYCLE:    21 TIME:   0.023 TIME LEFT:  2.00D  GRAD.:     2.381 HEAT:  44.38674
 CYCLE:    22 TIME:   0.023 TIME LEFT:  2.00D  GRAD.:     1.481 HEAT:  44.38583
 CYCLE:    23 TIME:   0.023 TIME LEFT:  2.00D  GRAD.:     1.959 HEAT:  44.38602
 CYCLE:    24 TIME:   0.023 TIME LEFT:  2.00D  GRAD.:     2.418 HEAT:  44.38653
 CYCLE:    25 TIME:   0.023 TIME LEFT:  2.00D  GRAD.:     1.455 HEAT:  44.38560
 CYCLE:    26 TIME:   0.023 TIME LEFT:  2.00D  GRAD.:     0.884 HEAT:  44.38506
 CYCLE:    27 TIME:   0.020 TIME LEFT:  2.00D  GRAD.:     0.590 HEAT:  44.38483
 CYCLE:    28 TIME:   0.023 TIME LEFT:  2.00D  GRAD.:     0.464 HEAT:  44.38472
 CYCLE:    29 TIME:   0.023 TIME LEFT:  2.00D  GRAD.:     0.315 HEAT:  44.38458
 CYCLE:    30 TIME:   0.023 TIME LEFT:  2.00D  GRAD.:     0.376 HEAT:  44.38443
 CYCLE:    31 TIME:   0.023 TIME LEFT:  2.00D  GRAD.:     0.516 HEAT:  44.38425
 CYCLE:    32 TIME:   0.062 TIME LEFT:  2.00D  GRAD.:     0.296 HEAT:  44.38411
 CYCLE:    33 TIME:   0.023 TIME LEFT:  2.00D  GRAD.:     0.296 HEAT:  44.38398
 CYCLE:    34 TIME:   0.023 TIME LEFT:  2.00D  GRAD.:     0.337 HEAT:  44.38386
 CYCLE:    35 TIME:   0.023 TIME LEFT:  2.00D  GRAD.:     0.465 HEAT:  44.38351
 CYCLE:    36 TIME:   0.020 TIME LEFT:  2.00D  GRAD.:     0.305 HEAT:  44.38340
 CYCLE:    37 TIME:   0.023 TIME LEFT:  2.00D  GRAD.:     0.241 HEAT:  44.38326
 CYCLE:    38 TIME:   0.023 TIME LEFT:  2.00D  GRAD.:     0.304 HEAT:  44.38313
 CYCLE:    39 TIME:   0.023 TIME LEFT:  2.00D  GRAD.:     0.263 HEAT:  44.38302
 CYCLE:    40 TIME:   0.023 TIME LEFT:  2.00D  GRAD.:     0.223 HEAT:  44.38290
 CYCLE:    41 TIME:   0.023 TIME LEFT:  2.00D  GRAD.:     0.255 HEAT:  44.38277
 CYCLE:    42 TIME:   0.023 TIME LEFT:  2.00D  GRAD.:     0.261 HEAT:  44.38266
 CYCLE:    43 TIME:   0.020 TIME LEFT:  2.00D  GRAD.:     0.197 HEAT:  44.38259
 CYCLE:    44 TIME:   0.023 TIME LEFT:  2.00D  GRAD.:     0.150 HEAT:  44.38253
 CYCLE:    45 TIME:   0.023 TIME LEFT:  2.00D  GRAD.:     0.164 HEAT:  44.38248
 CYCLE:    46 TIME:   0.023 TIME LEFT:  2.00D  GRAD.:     0.155 HEAT:  44.38244
 CYCLE:    47 TIME:   0.023 TIME LEFT:  2.00D  GRAD.:     0.086 HEAT:  44.38242
 CYCLE:    48 TIME:   0.023 TIME LEFT:  2.00D  GRAD.:     0.049 HEAT:  44.38241
 CYCLE:    49 TIME:   0.020 TIME LEFT:  2.00D  GRAD.:     0.050 HEAT:  44.38240
 CYCLE:    50 TIME:   0.023 TIME LEFT:  2.00D  GRAD.:     0.038 HEAT:  44.38240
 CYCLE:    51 TIME:   0.023 TIME LEFT:  2.00D  GRAD.:     0.027 HEAT:  44.38240
 CYCLE:    52 TIME:   0.023 TIME LEFT:  2.00D  GRAD.:     0.027 HEAT:  44.38240
 CYCLE:    53 TIME:   0.023 TIME LEFT:  2.00D  GRAD.:     0.031 HEAT:  44.38239
 CYCLE:    54 TIME:   0.023 TIME LEFT:  2.00D  GRAD.:     0.020 HEAT:  44.38239
 CYCLE:    55 TIME:   0.023 TIME LEFT:  2.00D  GRAD.:     0.021 HEAT:  44.38239
 CYCLE:    56 TIME:   0.020 TIME LEFT:  2.00D  GRAD.:     0.024 HEAT:  44.38239
 CYCLE:    57 TIME:   0.023 TIME LEFT:  2.00D  GRAD.:     0.026 HEAT:  44.38239
 CYCLE:    58 TIME:   0.023 TIME LEFT:  2.00D  GRAD.:     0.028 HEAT:  44.38239
 CYCLE:    59 TIME:   0.023 TIME LEFT:  2.00D  GRAD.:     0.027 HEAT:  44.38238
 CYCLE:    60 TIME:   0.023 TIME LEFT:  2.00D  GRAD.:     0.017 HEAT:  44.38238
 CYCLE:    61 TIME:   0.023 TIME LEFT:  2.00D  GRAD.:     0.016 HEAT:  44.38238
 CYCLE:    62 TIME:   0.020 TIME LEFT:  2.00D  GRAD.:     0.013 HEAT:  44.38238
 CYCLE:    63 TIME:   0.023 TIME LEFT:  2.00D  GRAD.:     0.018 HEAT:  44.38238
 CYCLE:    64 TIME:   0.023 TIME LEFT:  2.00D  GRAD.:     0.017 HEAT:  44.38238
 CYCLE:    65 TIME:   0.023 TIME LEFT:  2.00D  GRAD.:     0.018 HEAT:  44.38238
 CYCLE:    66 TIME:   0.023 TIME LEFT:  2.00D  GRAD.:     0.019 HEAT:  44.38237
 CYCLE:    67 TIME:   0.023 TIME LEFT:  2.00D  GRAD.:     0.016 HEAT:  44.38237
 CYCLE:    68 TIME:   0.023 TIME LEFT:  2.00D  GRAD.:     0.013 HEAT:  44.38237
 CYCLE:    69 TIME:   0.020 TIME LEFT:  2.00D  GRAD.:     0.012 HEAT:  44.38237
 CYCLE:    70 TIME:   0.023 TIME LEFT:  2.00D  GRAD.:     0.012 HEAT:  44.38237
 CYCLE:    71 TIME:   0.023 TIME LEFT:  2.00D  GRAD.:     0.013 HEAT:  44.38237
 CYCLE:    72 TIME:   0.023 TIME LEFT:  2.00D  GRAD.:     0.012 HEAT:  44.38237
 NUMERICAL PROBLEMS IN BRACKETING LAMDA  -232.237447309718     
  -1000000.00000000       -232.237447309950        1000000.00000000     
   212.382563326391     
  GOING FOR FIXED STEP SIZE....
 CYCLE:    73 TIME:   0.180 TIME LEFT:  2.00D  GRAD.:     0.025 HEAT:  44.38237
 CYCLE:    74 TIME:   0.027 TIME LEFT:  2.00D  GRAD.:     0.025 HEAT:  44.38237
 CYCLE:    75 TIME:   0.020 TIME LEFT:  2.00D  GRAD.:     0.020 HEAT:  44.38236
 CYCLE:    76 TIME:   0.023 TIME LEFT:  2.00D  GRAD.:     0.018 HEAT:  44.38236
 CYCLE:    77 TIME:   0.023 TIME LEFT:  2.00D  GRAD.:     0.021 HEAT:  44.38236
 CYCLE:    78 TIME:   0.023 TIME LEFT:  2.00D  GRAD.:     0.027 HEAT:  44.38235
 CYCLE:    79 TIME:   0.023 TIME LEFT:  2.00D  GRAD.:     0.034 HEAT:  44.38234
 CYCLE:    80 TIME:   0.113 TIME LEFT:  2.00D  GRAD.:     0.184 HEAT:  44.38237
 CYCLE:    81 TIME:   0.023 TIME LEFT:  2.00D  GRAD.:     0.194 HEAT:  44.38235
 CYCLE:    82 TIME:   0.023 TIME LEFT:  2.00D  GRAD.:     0.527 HEAT:  44.38254
 CYCLE:    83 TIME:   0.023 TIME LEFT:  2.00D  GRAD.:     0.050 HEAT:  44.38227
 CYCLE:    84 TIME:   0.023 TIME LEFT:  2.00D  GRAD.:     0.040 HEAT:  44.38224
 CYCLE:    85 TIME:   0.023 TIME LEFT:  2.00D  GRAD.:     0.043 HEAT:  44.38218
 CYCLE:    86 TIME:   0.066 TIME LEFT:  2.00D  GRAD.:     0.051 HEAT:  44.38206
 CYCLE:    87 TIME:   0.055 TIME LEFT:  2.00D  GRAD.:     0.098 HEAT:  44.38155
 CYCLE:    88 TIME:   0.055 TIME LEFT:  2.00D  GRAD.:     0.154 HEAT:  44.38090
 CYCLE:    89 TIME:   0.051 TIME LEFT:  2.00D  GRAD.:     0.467 HEAT:  44.37794
 CYCLE:    90 TIME:   0.137 TIME LEFT:  2.00D  GRAD.:     7.444 HEAT:  44.36460
 CYCLE:    91 TIME:   0.066 TIME LEFT:  2.00D  GRAD.:     3.488 HEAT:  44.33802
 CYCLE:    92 TIME:   0.027 TIME LEFT:  2.00D  GRAD.:     0.858 HEAT:  44.33362
 CYCLE:    93 TIME:   0.023 TIME LEFT:  2.00D  GRAD.:     0.869 HEAT:  44.33252
 CYCLE:    94 TIME:   0.020 TIME LEFT:  2.00D  GRAD.:     0.893 HEAT:  44.32909
 CYCLE:    95 TIME:   0.023 TIME LEFT:  2.00D  GRAD.:     0.959 HEAT:  44.31825
 CYCLE:    96 TIME:   0.027 TIME LEFT:  2.00D  GRAD.:     2.442 HEAT:  44.28383
 CYCLE:    97 TIME:   0.035 TIME LEFT:  2.00D  GRAD.:     5.809 HEAT:  44.25589
 CYCLE:    98 TIME:   0.023 TIME LEFT:  2.00D  GRAD.:    15.189 HEAT:  44.21968
 CYCLE:    99 TIME:   0.023 TIME LEFT:  2.00D  GRAD.:     6.259 HEAT:  44.18299
 CYCLE:   100 TIME:   0.023 TIME LEFT:  2.00D  GRAD.:     5.335 HEAT:  44.12329
 CYCLE:   101 TIME:   0.023 TIME LEFT:  2.00D  GRAD.:     7.457 HEAT:  44.07768
 CYCLE:   102 TIME:   0.020 TIME LEFT:  2.00D  GRAD.:     5.786 HEAT:  44.02766
 CYCLE:   103 TIME:   0.023 TIME LEFT:  2.00D  GRAD.:     5.687 HEAT:  44.00025
 CYCLE:   104 TIME:   0.023 TIME LEFT:  2.00D  GRAD.:     3.060 HEAT:  43.92524
 CYCLE:   105 TIME:   0.023 TIME LEFT:  2.00D  GRAD.:     2.623 HEAT:  43.91505
 CYCLE:   106 TIME:   0.031 TIME LEFT:  2.00D  GRAD.:     4.586 HEAT:  43.91356
 CYCLE:   107 TIME:   0.027 TIME LEFT:  2.00D  GRAD.:     1.958 HEAT:  43.90079
 CYCLE:   108 TIME:   0.023 TIME LEFT:  2.00D  GRAD.:     1.544 HEAT:  43.89667
 CYCLE:   109 TIME:   0.020 TIME LEFT:  2.00D  GRAD.:     1.761 HEAT:  43.88990
 CYCLE:   110 TIME:   0.023 TIME LEFT:  2.00D  GRAD.:     1.684 HEAT:  43.88497
 CYCLE:   111 TIME:   0.023 TIME LEFT:  2.00D  GRAD.:     1.079 HEAT:  43.88265
 CYCLE:   112 TIME:   0.023 TIME LEFT:  2.00D  GRAD.:     0.982 HEAT:  43.88022
 CYCLE:   113 TIME:   0.023 TIME LEFT:  2.00D  GRAD.:     1.206 HEAT:  43.87787
 CYCLE:   114 TIME:   0.023 TIME LEFT:  2.00D  GRAD.:     1.334 HEAT:  43.87446
 CYCLE:   115 TIME:   0.020 TIME LEFT:  2.00D  GRAD.:     1.212 HEAT:  43.87162
 CYCLE:   116 TIME:   0.023 TIME LEFT:  2.00D  GRAD.:     0.841 HEAT:  43.86958
 CYCLE:   117 TIME:   0.023 TIME LEFT:  2.00D  GRAD.:     0.758 HEAT:  43.86810
 CYCLE:   118 TIME:   0.023 TIME LEFT:  2.00D  GRAD.:     0.846 HEAT:  43.86670
 CYCLE:   119 TIME:   0.023 TIME LEFT:  2.00D  GRAD.:     1.084 HEAT:  43.86497
 CYCLE:   120 TIME:   0.023 TIME LEFT:  2.00D  GRAD.:     1.013 HEAT:  43.86286
 CYCLE:   121 TIME:   0.023 TIME LEFT:  2.00D  GRAD.:     1.111 HEAT:  43.86085
 CYCLE:   122 TIME:   0.020 TIME LEFT:  2.00D  GRAD.:     0.995 HEAT:  43.85844
 CYCLE:   123 TIME:   0.023 TIME LEFT:  2.00D  GRAD.:     1.124 HEAT:  43.85539
 CYCLE:   124 TIME:   0.023 TIME LEFT:  2.00D  GRAD.:     1.310 HEAT:  43.85200
 CYCLE:   125 TIME:   0.023 TIME LEFT:  2.00D  GRAD.:     1.288 HEAT:  43.84818
 CYCLE:   126 TIME:   0.023 TIME LEFT:  2.00D  GRAD.:     1.304 HEAT:  43.84308
 CYCLE:   127 TIME:   0.023 TIME LEFT:  2.00D  GRAD.:     1.156 HEAT:  43.83994
 CYCLE:   128 TIME:   0.023 TIME LEFT:  2.00D  GRAD.:     1.095 HEAT:  43.83687
 CYCLE:   129 TIME:   0.020 TIME LEFT:  2.00D  GRAD.:     1.303 HEAT:  43.83243
 CYCLE:   130 TIME:   0.023 TIME LEFT:  2.00D  GRAD.:     1.086 HEAT:  43.83015
 CYCLE:   131 TIME:   0.023 TIME LEFT:  2.00D  GRAD.:     0.977 HEAT:  43.82777
 CYCLE:   132 TIME:   0.023 TIME LEFT:  2.00D  GRAD.:     1.853 HEAT:  43.82150
 CYCLE:   133 TIME:   0.023 TIME LEFT:  2.00D  GRAD.:     1.299 HEAT:  43.81901
 CYCLE:   134 TIME:   0.023 TIME LEFT:  2.00D  GRAD.:     0.908 HEAT:  43.81577
 CYCLE:   135 TIME:   0.023 TIME LEFT:  2.00D  GRAD.:     1.592 HEAT:  43.81072
 CYCLE:   136 TIME:   0.066 TIME LEFT:  2.00D  GRAD.:     1.518 HEAT:  43.80795
 CYCLE:   137 TIME:   0.023 TIME LEFT:  2.00D  GRAD.:     1.557 HEAT:  43.80408
 CYCLE:   138 TIME:   0.023 TIME LEFT:  2.00D  GRAD.:     1.392 HEAT:  43.79846
 CYCLE:   139 TIME:   0.023 TIME LEFT:  2.00D  GRAD.:     0.858 HEAT:  43.79611
 CYCLE:   140 TIME:   0.020 TIME LEFT:  2.00D  GRAD.:     1.115 HEAT:  43.79431
 CYCLE:   141 TIME:   0.023 TIME LEFT:  2.00D  GRAD.:     0.601 HEAT:  43.79337
 CYCLE:   142 TIME:   0.023 TIME LEFT:  2.00D  GRAD.:     0.552 HEAT:  43.79255
 CYCLE:   143 TIME:   0.023 TIME LEFT:  2.00D  GRAD.:     0.618 HEAT:  43.79179
 CYCLE:   144 TIME:   0.023 TIME LEFT:  2.00D  GRAD.:     0.636 HEAT:  43.79121
 CYCLE:   145 TIME:   0.023 TIME LEFT:  2.00D  GRAD.:     0.594 HEAT:  43.79029
 CYCLE:   146 TIME:   0.023 TIME LEFT:  2.00D  GRAD.:     0.566 HEAT:  43.78960
 CYCLE:   147 TIME:   0.020 TIME LEFT:  2.00D  GRAD.:     0.649 HEAT:  43.78803
 CYCLE:   148 TIME:   0.023 TIME LEFT:  2.00D  GRAD.:     0.771 HEAT:  43.78646
 CYCLE:   149 TIME:   0.023 TIME LEFT:  2.00D  GRAD.:     2.033 HEAT:  43.78152
 CYCLE:   150 TIME:   0.023 TIME LEFT:  2.00D  GRAD.:     2.118 HEAT:  43.77911
 CYCLE:   151 TIME:   0.023 TIME LEFT:  2.00D  GRAD.:     1.846 HEAT:  43.77679
 CYCLE:   152 TIME:   0.023 TIME LEFT:  2.00D  GRAD.:     1.209 HEAT:  43.77022
 CYCLE:   153 TIME:   0.023 TIME LEFT:  2.00D  GRAD.:     2.775 HEAT:  43.76664
 CYCLE:   154 TIME:   0.027 TIME LEFT:  2.00D  GRAD.:     2.253 HEAT:  43.76663
 CYCLE:   155 TIME:   0.027 TIME LEFT:  2.00D  GRAD.:     1.080 HEAT:  43.76171
 CYCLE:   156 TIME:   0.023 TIME LEFT:  2.00D  GRAD.:     1.236 HEAT:  43.75945
 CYCLE:   157 TIME:   0.023 TIME LEFT:  2.00D  GRAD.:     1.433 HEAT:  43.75645
 CYCLE:   158 TIME:   0.023 TIME LEFT:  2.00D  GRAD.:     0.844 HEAT:  43.75269
 CYCLE:   159 TIME:   0.023 TIME LEFT:  2.00D  GRAD.:     0.820 HEAT:  43.75176
 CYCLE:   160 TIME:   0.020 TIME LEFT:  2.00D  GRAD.:     0.529 HEAT:  43.75075
 CYCLE:   161 TIME:   0.023 TIME LEFT:  2.00D  GRAD.:     0.408 HEAT:  43.75010
 CYCLE:   162 TIME:   0.023 TIME LEFT:  2.00D  GRAD.:     0.451 HEAT:  43.74966
 CYCLE:   163 TIME:   0.023 TIME LEFT:  2.00D  GRAD.:     0.388 HEAT:  43.74945
 CYCLE:   164 TIME:   0.023 TIME LEFT:  2.00D  GRAD.:     0.420 HEAT:  43.74926
 CYCLE:   165 TIME:   0.023 TIME LEFT:  2.00D  GRAD.:     0.266 HEAT:  43.74913
 CYCLE:   166 TIME:   0.023 TIME LEFT:  2.00D  GRAD.:     0.265 HEAT:  43.74905
 CYCLE:   167 TIME:   0.020 TIME LEFT:  2.00D  GRAD.:     0.206 HEAT:  43.74901
 CYCLE:   168 TIME:   0.023 TIME LEFT:  2.00D  GRAD.:     0.185 HEAT:  43.74898
 CYCLE:   169 TIME:   0.023 TIME LEFT:  2.00D  GRAD.:     0.163 HEAT:  43.74890
 CYCLE:   170 TIME:   0.023 TIME LEFT:  2.00D  GRAD.:     0.197 HEAT:  43.74884
 CYCLE:   171 TIME:   0.023 TIME LEFT:  2.00D  GRAD.:     0.220 HEAT:  43.74878
 CYCLE:   172 TIME:   0.023 TIME LEFT:  2.00D  GRAD.:     0.245 HEAT:  43.74868
 CYCLE:   173 TIME:   0.023 TIME LEFT:  2.00D  GRAD.:     0.253 HEAT:  43.74860
 CYCLE:   174 TIME:   0.020 TIME LEFT:  2.00D  GRAD.:     0.182 HEAT:  43.74848
 CYCLE:   175 TIME:   0.023 TIME LEFT:  2.00D  GRAD.:     0.159 HEAT:  43.74839
 CYCLE:   176 TIME:   0.023 TIME LEFT:  2.00D  GRAD.:     0.119 HEAT:  43.74833
 CYCLE:   177 TIME:   0.023 TIME LEFT:  2.00D  GRAD.:     0.093 HEAT:  43.74829
 CYCLE:   178 TIME:   0.023 TIME LEFT:  2.00D  GRAD.:     0.077 HEAT:  43.74828
 CYCLE:   179 TIME:   0.023 TIME LEFT:  2.00D  GRAD.:     0.074 HEAT:  43.74827
 CYCLE:   180 TIME:   0.020 TIME LEFT:  2.00D  GRAD.:     0.046 HEAT:  43.74826
 CYCLE:   181 TIME:   0.023 TIME LEFT:  2.00D  GRAD.:     0.035 HEAT:  43.74826
 CYCLE:   182 TIME:   0.023 TIME LEFT:  2.00D  GRAD.:     0.021 HEAT:  43.74826
 CYCLE:   183 TIME:   0.023 TIME LEFT:  2.00D  GRAD.:     0.017 HEAT:  43.74826
 CYCLE:   184 TIME:   0.023 TIME LEFT:  2.00D  GRAD.:     0.011 HEAT:  43.74826
 CYCLE:   185 TIME:   0.023 TIME LEFT:  2.00D  GRAD.:     0.008 HEAT:  43.74826

     GRADIENT =  0.00804  IS LESS THAN CUTOFF =  0.01000



 -------------------------------------------------------------------------------
 pm3  precise nosym gnorm=0.0 nonr THREADS=1
 InChI=1S/C10H12/c1-2-3-7-10-8-5-4-6-9-10/h2-8H,9H2,1H3



     GEOMETRY OPTIMISED USING EIGENVECTOR FOLLOWING (EF).     
     SCF FIELD WAS ACHIEVED                                   


                              PM3 CALCULATION
                                                       MOPAC2016 (Version: 18.184L)
                                                       Thu Jun 13 16:03:17 2019
                                                       No. of days remaining =  20




          FINAL HEAT OF FORMATION =         43.74826 KCAL/MOL =     183.04270 KJ/MOL


          TOTAL ENERGY            =      -1368.49920 EV
          ELECTRONIC ENERGY       =      -7073.95939 EV  POINT GROUP:     C1  
          CORE-CORE REPULSION     =       5705.46020 EV
          COSMO AREA              =        190.91 SQUARE ANGSTROMS
          COSMO VOLUME            =        186.91 CUBIC ANGSTROMS

          GRADIENT NORM           =          0.00804 = 0.00171 PER ATOM
          IONIZATION POTENTIAL    =          8.188456 EV
          HOMO LUMO ENERGIES (EV) =         -8.188 -0.492
          NO. OF FILLED LEVELS    =         26
          MOLECULAR WEIGHT        =        132.2048

          MOLECULAR DIMENSIONS (Angstroms)

            Atom       Atom       Distance
            H    20    H    15     9.38284
            H    22    H    16     4.77706
            H    11    H    13     2.25320


          SCF CALCULATIONS        =        199
 
          WALL-CLOCK TIME         =          5.051 SECONDS
          COMPUTATION TIME        =          1.927 SECONDS




   ATOM   CHEMICAL          X               Y               Z
  NUMBER   SYMBOL      (ANGSTROMS)     (ANGSTROMS)     (ANGSTROMS)
 
     1       C         -1.22973938  *  -0.79543012  *  -0.44092992  *
     2       C          4.05469562  *  -0.49184703  *  -0.47118962  *
     3       C         -0.75526628  *   0.38731249  *   0.33991454  *
     4       C         -2.70261402  *  -0.97032945  *  -0.49696206  *
     5       C          2.92313671  *   0.27221575  *   0.09534598  *
     6       C          0.55398097  *   0.68684697  *   0.48618454  *
     7       C         -1.75372830  *   1.24502902  *   0.96409785  *
     8       C         -3.55821644  *  -0.13420653  *   0.10611075  *
     9       C          1.64330563  *  -0.08184104  *  -0.08146855  *
    10       C         -3.07139492  *   1.00268061  *   0.85607165  *
    11       H         -0.78563139  *  -1.72013755  *  -0.01470661  *
    12       H         -0.84776157  *  -0.72668992  *  -1.48175194  *
    13       H          4.65017309  *   0.14306447  *  -1.14136216  *
    14       H          3.73521100  *  -1.37173329  *  -1.04546507  *
    15       H          4.72102049  *  -0.84221965  *   0.32885619  *
    16       H         -3.06276548  *  -1.83397934  *  -1.06705316  *
    17       H          3.18741904  *   1.16245323  *   0.68014105  *
    18       H          1.38907686  *  -0.97450323  *  -0.66844723  *
    19       H         -3.81022948  *   1.65636401  *   1.33078829  *
    20       H         -4.64109040  *  -0.28457202  *   0.05015626  *
    21       H          0.83880576  *   1.57178965  *   1.07303195  *
    22       H         -1.38913270  *   2.10848526  *   1.53390955  *

                             CARTESIAN COORDINATES

   1    C       -1.229739383    -0.795430116    -0.440929915
   2    C        4.054695619    -0.491847033    -0.471189618
   3    C       -0.755266278     0.387312491     0.339914545
   4    C       -2.702614017    -0.970329453    -0.496962057
   5    C        2.923136712     0.272215755     0.095345983
   6    C        0.553980967     0.686846965     0.486184542
   7    C       -1.753728302     1.245029015     0.964097846
   8    C       -3.558216438    -0.134206531     0.106110745
   9    C        1.643305634    -0.081841036    -0.081468547
  10    C       -3.071394924     1.002680609     0.856071647
  11    H       -0.785631392    -1.720137549    -0.014706608
  12    H       -0.847761567    -0.726689920    -1.481751945
  13    H        4.650173087     0.143064475    -1.141362164
  14    H        3.735210998    -1.371733287    -1.045465068
  15    H        4.721020495    -0.842219646     0.328856185
  16    H       -3.062765478    -1.833979345    -1.067053165
  17    H        3.187419039     1.162453226     0.680141055
  18    H        1.389076862    -0.974503230    -0.668447226
  19    H       -3.810229482     1.656364014     1.330788295
  20    H       -4.641090402    -0.284572017     0.050156259
  21    H        0.838805755     1.571789650     1.073031946
  22    H       -1.389132702     2.108485256     1.533909553


           Empirical Formula: C10 H12  =    22 atoms



      MOLECULAR POINT GROUP   :   C1  


                  EIGENVALUES  
 -40.06560 -36.07687 -31.77451 -30.31356 -27.17812 -23.86054 -21.75641 -19.88485
 -19.18197 -17.76150 -16.60637 -16.00014 -15.02280 -15.01869 -14.95259 -14.40636
 -14.31296 -13.71502 -13.04605 -12.62046 -12.35695 -11.81110 -11.80881 -11.40155
  -9.89617  -8.18846  -0.49168   0.74733   1.86749   2.49423   3.11952   3.26555
   3.40626   3.46589   3.69265   3.73651   3.80640   3.97652   4.14928   4.21629
   4.37450   4.40908   4.40951   4.44841   4.81079   5.13046   5.21257   5.39096
   5.85462   5.92965   6.25116   6.31771


              NET ATOMIC CHARGES AND DIPOLE CONTRIBUTIONS

  ATOM NO.   TYPE          CHARGE      No. of ELECS.   s-Pop       p-Pop       
    1          C          -0.020011        4.0200     1.13110     2.88891
    2          C          -0.076676        4.0767     1.12540     2.95128
    3          C          -0.069960        4.0700     1.18256     2.88740
    4          C          -0.128181        4.1282     1.19579     2.93239
    5          C          -0.130636        4.1306     1.19521     2.93542
    6          C          -0.119776        4.1198     1.18096     2.93881
    7          C          -0.095622        4.0956     1.18193     2.91369
    8          C          -0.116769        4.1168     1.17788     2.93889
    9          C          -0.121507        4.1215     1.17901     2.94250
   10          C          -0.096330        4.0963     1.17970     2.91664
   11          H           0.067915        0.9321     0.93208
   12          H           0.067935        0.9321     0.93207
   13          H           0.045536        0.9545     0.95446
   14          H           0.041484        0.9585     0.95852
   15          H           0.045527        0.9545     0.95447
   16          H           0.098387        0.9016     0.90161
   17          H           0.098367        0.9016     0.90163
   18          H           0.103469        0.8965     0.89653
   19          H           0.101229        0.8988     0.89877
   20          H           0.102588        0.8974     0.89741
   21          H           0.101380        0.8986     0.89862
   22          H           0.101652        0.8983     0.89835
 DIPOLE           X         Y         Z       TOTAL
 POINT-CHG.     0.253    -0.320    -0.229     0.468
 HYBRID         0.030     0.003     0.001     0.030
 SUM            0.283    -0.317    -0.228     0.482


          ATOMIC ORBITAL ELECTRON POPULATIONS

     Atom    s        px        py        pz   
    1  C   1.13110   0.93860   0.96176   0.98854
    2  C   1.12540   0.96864   0.98755   0.99509
    3  C   1.18256   0.94188   0.96300   0.98252
    4  C   1.19579   0.95603   0.98580   0.99056
    5  C   1.19521   0.95025   0.99188   0.99329
    6  C   1.18096   0.92918   0.99643   1.01320
    7  C   1.18193   0.94254   0.97976   0.99140
    8  C   1.17788   0.98066   0.96464   0.99359
    9  C   1.17901   0.93767   0.99574   1.00909
   10  C   1.17970   0.95902   0.97083   0.98678
   11  H   0.93208
   12  H   0.93207
   13  H   0.95446
   14  H   0.95852
   15  H   0.95447
   16  H   0.90161
   17  H   0.90163
   18  H   0.89653
   19  H   0.89877
   20  H   0.89741
   21  H   0.89862
   22  H   0.89835
 *******************************************************************************
 ** Site#: 14399        For non-commercial use only    Version 18.184L 64BITS **
 *******************************************************************************
 ** Cite this program as: MOPAC2016, Version: 18.184L, James J. P. Stewart,   **
 ** Stewart Computational Chemistry, web: HTTP://OpenMOPAC.net. Days left:  20**
 *******************************************************************************
 **                                                                           **
 **                                MOPAC2016                                  **
 **                                                                           **
 *******************************************************************************

                              PM3 CALCULATION RESULTS

 *******************************************************************************
 *  CALCULATION DONE:                                Thu Jun 13 16:03:17 2019  *
 *  PM3        - The PM3 Hamiltonian to be used
 *  OLDGEO     - PREVIOUS GEOMETRY TO BE USED
 *  PRECISE    - CRITERIA TO BE INCREASED BY 100 TIMES
 *  NOSYM      - POINT-GROUP SYMMETRY SET TO C1
 *  THREADS=1  - MULTI-THREADING NOT USED
 *  T=         - A TIME OF 172800.0 SECONDS REQUESTED
 *  DUMP=N     - RESTART FILE WRITTEN EVERY  7200.000 SECONDS
 *  THERMO     - THERMODYNAMIC QUANTITIES TO BE CALCULATED
 *******************************************************************************
oldgeo thermo nosym precise THREADS=1  pm3
 InChI=1S/C10H12/c1-2-3-7-10-8-5-4-6-9-10/h2-8H,9H2,1H3

   ATOM   CHEMICAL          X               Y               Z
  NUMBER   SYMBOL      (ANGSTROMS)     (ANGSTROMS)     (ANGSTROMS)
 
     1       C         -1.22973938  *  -0.79543012  *  -0.44092992  *
     2       C          4.05469562  *  -0.49184703  *  -0.47118962  *
     3       C         -0.75526628  *   0.38731249  *   0.33991454  *
     4       C         -2.70261402  *  -0.97032945  *  -0.49696206  *
     5       C          2.92313671  *   0.27221575  *   0.09534598  *
     6       C          0.55398097  *   0.68684697  *   0.48618454  *
     7       C         -1.75372830  *   1.24502902  *   0.96409785  *
     8       C         -3.55821644  *  -0.13420653  *   0.10611075  *
     9       C          1.64330563  *  -0.08184104  *  -0.08146855  *
    10       C         -3.07139492  *   1.00268061  *   0.85607165  *
    11       H         -0.78563139  *  -1.72013755  *  -0.01470661  *
    12       H         -0.84776157  *  -0.72668992  *  -1.48175194  *
    13       H          4.65017309  *   0.14306447  *  -1.14136216  *
    14       H          3.73521100  *  -1.37173329  *  -1.04546507  *
    15       H          4.72102049  *  -0.84221965  *   0.32885619  *
    16       H         -3.06276548  *  -1.83397934  *  -1.06705316  *
    17       H          3.18741904  *   1.16245323  *   0.68014105  *
    18       H          1.38907686  *  -0.97450323  *  -0.66844723  *
    19       H         -3.81022948  *   1.65636401  *   1.33078829  *
    20       H         -4.64109040  *  -0.28457202  *   0.05015626  *
    21       H          0.83880576  *   1.57178965  *   1.07303195  *
    22       H         -1.38913270  *   2.10848526  *   1.53390955  *
 


          CARTESIAN COORDINATES 

    NO.       ATOM           X           Y           Z

     1         C         -1.2297     -0.7954     -0.4409
     2         C          4.0547     -0.4918     -0.4712
     3         C         -0.7553      0.3873      0.3399
     4         C         -2.7026     -0.9703     -0.4970
     5         C          2.9231      0.2722      0.0953
     6         C          0.5540      0.6868      0.4862
     7         C         -1.7537      1.2450      0.9641
     8         C         -3.5582     -0.1342      0.1061
     9         C          1.6433     -0.0818     -0.0815
    10         C         -3.0714      1.0027      0.8561
    11         H         -0.7856     -1.7201     -0.0147
    12         H         -0.8478     -0.7267     -1.4818
    13         H          4.6502      0.1431     -1.1414
    14         H          3.7352     -1.3717     -1.0455
    15         H          4.7210     -0.8422      0.3289
    16         H         -3.0628     -1.8340     -1.0671
    17         H          3.1874      1.1625      0.6801
    18         H          1.3891     -0.9745     -0.6684
    19         H         -3.8102      1.6564      1.3308
    20         H         -4.6411     -0.2846      0.0502
    21         H          0.8388      1.5718      1.0730
    22         H         -1.3891      2.1085      1.5339

  H: (PM3): J. J. P. STEWART, J. COMP. CHEM. 10, 209 (1989).
  C: (PM3): J. J. P. STEWART, J. COMP. CHEM. 10, 209 (1989).

           Empirical Formula: C10 H12  =    22 atoms



      MOLECULAR POINT GROUP   :   C1  


      RHF CALCULATION, NO. OF DOUBLY OCCUPIED LEVELS = 26



          HEAT OF FORMATION =      43.748256 KCALS/MOLE


          CARTESIAN COORDINATE DERIVATIVES

   NUMBER  ATOM         X            Y            Z

     1       C     -0.000926     0.002790    -0.001786
     2       C     -0.001735     0.000909     0.002659
     3       C     -0.007761     0.003162     0.002052
     4       C      0.002841    -0.004048    -0.001938
     5       C      0.002181    -0.001398    -0.003637
     6       C      0.007932    -0.003050     0.000415
     7       C      0.009272    -0.002569    -0.000020
     8       C      0.000652     0.010216     0.000773
     9       C     -0.006579     0.004843     0.006232
    10       C     -0.007253    -0.007598     0.002369
    11       H      0.000916    -0.000235     0.000272
    12       H      0.000036    -0.001176     0.000343
    13       H      0.001103    -0.001584    -0.001876
    14       H      0.000225     0.000806     0.000465
    15       H      0.000237    -0.000580    -0.000820
    16       H     -0.001500    -0.000986    -0.001373
    17       H      0.002289     0.003475    -0.001637
    18       H     -0.000691    -0.001679    -0.000478
    19       H     -0.000363    -0.000118    -0.000523
    20       H     -0.000350    -0.000533    -0.000955
    21       H      0.000107    -0.000734    -0.000777
    22       H     -0.000632     0.000086     0.000239
 


          GRADIENT NORM =   0.02609


          TIME FOR SCF CALCULATION =    0.02

          TIME FOR DERIVATIVES     =    0.01

          MOLECULAR WEIGHT =  132.20



          ROTATIONAL CONSTANTS IN CM(-1)

          A =    0.14195211   B =    0.01945402   C =    0.01721990



           PRINCIPAL MOMENTS OF INERTIA IN UNITS OF 10**(-40)*GRAM-CM**2

          A =      197.1987   B =     1438.9200   C =     1625.6057


          ORIENTATION OF MOLECULE IN FORCE CALCULATION

    NO.       ATOM         X         Y         Z

     1          C      -0.9524   -1.0093    0.0010
     2          C       4.3408   -1.0093    0.0010
     3          C      -0.4154    0.3855    0.0010
     4          C      -2.4326   -1.1201   -0.0017
     5          C       3.2517   -0.0097   -0.0008
     6          C       0.9080    0.6572    0.0023
     7          C      -1.3666    1.4889   -0.0007
     8          C      -3.2422   -0.0527   -0.0035
     9          C       1.9547   -0.3449    0.0042
    10          C      -2.6953    1.2863   -0.0029
    11          H      -0.5645   -1.5531    0.8885
    12          H      -0.5612   -1.5544   -0.8843
    13          H       4.9755   -0.8879   -0.8874
    14          H       3.9747   -2.0446    0.0077
    15          H       4.9813   -0.8785    0.8838
    16          H      -2.8384   -2.1379   -0.0021
    17          H       3.5633    1.0425   -0.0067
    18          H       1.6531   -1.4009    0.0100
    19          H      -3.3981    2.1256   -0.0042
    20          H      -4.3316   -0.1604   -0.0055
    21          H       1.2398    1.7053    0.0019
    22          H      -0.9563    2.5061   -0.0003


    FIRST DERIVATIVES WILL BE USED IN THE CALCULATION OF SECOND DERIVATIVES

          ESTIMATED TIME TO COMPLETE CALCULATION =        8.25 SECONDS

    FOR POINT-GROUP C1   THERE ARE   1 UNIQUE SYMMETRY FUNCTIONS.

 STEP:   1 TIME =     0.05 SECS, INTEGRAL =      0.05 TIME LEFT: 172799.92
 STEP:   2 TIME =     0.05 SECS, INTEGRAL =      0.10 TIME LEFT: 172799.87
 STEP:   3 TIME =     0.05 SECS, INTEGRAL =      0.15 TIME LEFT: 172799.82
 STEP:   4 TIME =     0.05 SECS, INTEGRAL =      0.20 TIME LEFT: 172799.77
 STEP:   5 TIME =     0.05 SECS, INTEGRAL =      0.25 TIME LEFT: 172799.72
 STEP:   6 TIME =     0.05 SECS, INTEGRAL =      0.30 TIME LEFT: 172799.67
 STEP:   7 TIME =     0.05 SECS, INTEGRAL =      0.35 TIME LEFT: 172799.62
 STEP:   8 TIME =     0.05 SECS, INTEGRAL =      0.40 TIME LEFT: 172799.57
 STEP:   9 TIME =     0.05 SECS, INTEGRAL =      0.46 TIME LEFT: 172799.51
 STEP:  10 TIME =     0.05 SECS, INTEGRAL =      0.50 TIME LEFT: 172799.46
 STEP:  11 TIME =     0.05 SECS, INTEGRAL =      0.55 TIME LEFT: 172799.41
 STEP:  12 TIME =     0.05 SECS, INTEGRAL =      0.61 TIME LEFT: 172799.36
 STEP:  13 TIME =     0.05 SECS, INTEGRAL =      0.66 TIME LEFT: 172799.31
 STEP:  14 TIME =     0.05 SECS, INTEGRAL =      0.71 TIME LEFT: 172799.26
 STEP:  15 TIME =     0.05 SECS, INTEGRAL =      0.76 TIME LEFT: 172799.21
 STEP:  16 TIME =     0.05 SECS, INTEGRAL =      0.81 TIME LEFT: 172799.16
 STEP:  17 TIME =     0.05 SECS, INTEGRAL =      0.86 TIME LEFT: 172799.11
 STEP:  18 TIME =     0.05 SECS, INTEGRAL =      0.91 TIME LEFT: 172799.05
 STEP:  19 TIME =     0.05 SECS, INTEGRAL =      0.96 TIME LEFT: 172799.00
 STEP:  20 TIME =     0.05 SECS, INTEGRAL =      1.02 TIME LEFT: 172798.95
 STEP:  21 TIME =     0.05 SECS, INTEGRAL =      1.07 TIME LEFT: 172798.90
 STEP:  22 TIME =     0.05 SECS, INTEGRAL =      1.12 TIME LEFT: 172798.85
 STEP:  23 TIME =     0.05 SECS, INTEGRAL =      1.17 TIME LEFT: 172798.80
 STEP:  24 TIME =     0.05 SECS, INTEGRAL =      1.22 TIME LEFT: 172798.75
 STEP:  25 TIME =     0.05 SECS, INTEGRAL =      1.27 TIME LEFT: 172798.70
 STEP:  26 TIME =     0.05 SECS, INTEGRAL =      1.32 TIME LEFT: 172798.64
 STEP:  27 TIME =     0.05 SECS, INTEGRAL =      1.38 TIME LEFT: 172798.59
 STEP:  28 TIME =     0.05 SECS, INTEGRAL =      1.43 TIME LEFT: 172798.54
 STEP:  29 TIME =     0.05 SECS, INTEGRAL =      1.48 TIME LEFT: 172798.49
 STEP:  30 TIME =     0.05 SECS, INTEGRAL =      1.53 TIME LEFT: 172798.44
 STEP:  31 TIME =     0.05 SECS, INTEGRAL =      1.59 TIME LEFT: 172798.38
 STEP:  32 TIME =     0.05 SECS, INTEGRAL =      1.64 TIME LEFT: 172798.33
 STEP:  33 TIME =     0.05 SECS, INTEGRAL =      1.69 TIME LEFT: 172798.28
 STEP:  34 TIME =     0.05 SECS, INTEGRAL =      1.74 TIME LEFT: 172798.23
 STEP:  35 TIME =     0.05 SECS, INTEGRAL =      1.79 TIME LEFT: 172798.18
 STEP:  36 TIME =     0.05 SECS, INTEGRAL =      1.84 TIME LEFT: 172798.12
 STEP:  37 TIME =     0.05 SECS, INTEGRAL =      1.89 TIME LEFT: 172798.07
 STEP:  38 TIME =     0.05 SECS, INTEGRAL =      1.95 TIME LEFT: 172798.02
 STEP:  39 TIME =     0.05 SECS, INTEGRAL =      2.00 TIME LEFT: 172797.97
 STEP:  40 TIME =     0.05 SECS, INTEGRAL =      2.05 TIME LEFT: 172797.92
 STEP:  41 TIME =     0.05 SECS, INTEGRAL =      2.09 TIME LEFT: 172797.88
 STEP:  42 TIME =     0.05 SECS, INTEGRAL =      2.14 TIME LEFT: 172797.82
 STEP:  43 TIME =     0.05 SECS, INTEGRAL =      2.20 TIME LEFT: 172797.77
 STEP:  44 TIME =     0.05 SECS, INTEGRAL =      2.25 TIME LEFT: 172797.72
 STEP:  45 TIME =     0.05 SECS, INTEGRAL =      2.30 TIME LEFT: 172797.67
 STEP:  46 TIME =     0.05 SECS, INTEGRAL =      2.35 TIME LEFT: 172797.62
 STEP:  47 TIME =     0.05 SECS, INTEGRAL =      2.40 TIME LEFT: 172797.57
 STEP:  48 TIME =     0.05 SECS, INTEGRAL =      2.45 TIME LEFT: 172797.52
 STEP:  49 TIME =     0.05 SECS, INTEGRAL =      2.50 TIME LEFT: 172797.46
 STEP:  50 TIME =     0.05 SECS, INTEGRAL =      2.55 TIME LEFT: 172797.41
 STEP:  51 TIME =     0.05 SECS, INTEGRAL =      2.61 TIME LEFT: 172797.36
 STEP:  52 TIME =     0.05 SECS, INTEGRAL =      2.66 TIME LEFT: 172797.31
 STEP:  53 TIME =     0.05 SECS, INTEGRAL =      2.71 TIME LEFT: 172797.26
 STEP:  54 TIME =     0.05 SECS, INTEGRAL =      2.76 TIME LEFT: 172797.21
 STEP:  55 TIME =     0.05 SECS, INTEGRAL =      2.81 TIME LEFT: 172797.16
 STEP:  56 TIME =     0.05 SECS, INTEGRAL =      2.86 TIME LEFT: 172797.11
 STEP:  57 TIME =     0.05 SECS, INTEGRAL =      2.91 TIME LEFT: 172797.05
 STEP:  58 TIME =     0.05 SECS, INTEGRAL =      2.96 TIME LEFT: 172797.00
 STEP:  59 TIME =     0.05 SECS, INTEGRAL =      3.02 TIME LEFT: 172796.95
 STEP:  60 TIME =     0.05 SECS, INTEGRAL =      3.07 TIME LEFT: 172796.90
 STEP:  61 TIME =     0.05 SECS, INTEGRAL =      3.12 TIME LEFT: 172796.84
 STEP:  62 TIME =     0.05 SECS, INTEGRAL =      3.17 TIME LEFT: 172796.80
 STEP:  63 TIME =     0.05 SECS, INTEGRAL =      3.23 TIME LEFT: 172796.74
 STEP:  64 TIME =     0.05 SECS, INTEGRAL =      3.28 TIME LEFT: 172796.69
 STEP:  65 TIME =     0.05 SECS, INTEGRAL =      3.33 TIME LEFT: 172796.64
 STEP:  66 TIME =     0.05 SECS, INTEGRAL =      3.38 TIME LEFT: 172796.59

(To convert to Hartree/Bohr^2, multiply by (10^(-21) x N x a0^2)/(4.184 x 627.51) =  0.0642)


           FORCE MATRIX IN MILLIDYNES/ANGSTROM


                  C  1       C  2       C  3       C  4       C  5       C  6
 ------------------------------------------------------------------------------
     C    1  14.980430
     C    2   0.006403  14.711610
     C    3   4.699516   0.020628  18.382666
     C    4   5.015423   0.000445   0.690808  18.024949
     C    5   0.013646   5.285746   0.143335   0.004227  17.970945
     C    6   0.762238   0.144187   9.439140   0.073926   1.162296  18.237672
     C    7   0.618169   0.015102   5.355083   0.227089   0.047397   1.224928
     C    8   0.866664   0.000805   0.189477  10.205695   0.008290   0.081269
     C    9   0.105217   0.862782   1.079658   0.015475  10.243339   5.651785
     C   10   0.144079   0.002626   1.118613   1.210521   0.020337   0.188505
     H   11   4.338552   0.001268   0.420294   0.413954   0.002590   0.033113
     H   12   4.339501   0.001239   0.420458   0.413985   0.002587   0.033027
     H   13   0.000610   4.697944   0.002463   0.000303   0.437532   0.020555
     H   14   0.000485   4.725212   0.001319   0.000204   0.479070   0.002405
     H   15   0.000693   4.698324   0.002595   0.000272   0.437502   0.020523
     H   16   0.421994   0.000368   0.049418   4.829860   0.000403   0.008823
     H   17   0.005464   0.423504   0.006389   0.000735   4.773787   0.087523
     H   18   0.042374   0.082198   0.024850   0.003124   0.464971   0.442672
     H   19   0.004195   0.000771   0.119072   0.048175   0.000586   0.007415
     H   20   0.121512   0.000243   0.002585   0.444544   0.000285   0.001156
     H   21   0.105264   0.003099   0.449667   0.007396   0.047889   4.705892
     H   22   0.041835   0.000770   0.446199   0.011278   0.000697   0.056719


                  C  7       C  8       C  9       C 10       H 11       H 12
 ------------------------------------------------------------------------------
     C    7  18.315082
     C    8   1.191951  18.392637
     C    9   0.165394   0.025956  18.352960
     C   10   9.888345   5.734635   0.058767  18.258313
     H   11   0.027665   0.041542   0.017618   0.015580   4.926393
     H   12   0.027626   0.041554   0.017359   0.015470   0.562706   4.927194
     H   13   0.001886   0.000308   0.035635   0.000470   0.000153   0.000203
     H   14   0.000474   0.000296   0.041141   0.000427   0.000203   0.000246
     H   15   0.001903   0.000327   0.035661   0.000437   0.000182   0.000143
     H   16   0.010811   0.444002   0.002568   0.123484   0.030584   0.030654
     H   17   0.004858   0.000664   0.468132   0.001033   0.001803   0.001759
     H   18   0.004809   0.002166   4.733864   0.001596   0.028770   0.028923
     H   19   0.439692   0.434434   0.010388   4.861595   0.000883   0.000876
     H   20   0.048874   4.861743   0.000803   0.435437   0.015566   0.015447
     H   21   0.093522   0.006562   0.443059   0.006569   0.011792   0.011707
     H   22   4.790211   0.123216   0.003511   0.439288   0.004087   0.004093


                  H 13       H 14       H 15       H 16       H 17       H 18
 ------------------------------------------------------------------------------
     H   13   5.419009
     H   14   0.564666   5.450051
     H   15   0.575556   0.564500   5.419168
     H   16   0.000122   0.000115   0.000122   5.205331
     H   17   0.024023   0.041109   0.024072   0.000194   5.153588
     H   18   0.009162   0.029866   0.009137   0.000603   0.104127   5.120041
     H   19   0.000206   0.000090   0.000215   0.007412   0.000462   0.000481
     H   20   0.000103   0.000084   0.000096   0.064680   0.000199   0.000379
     H   21   0.000668   0.000711   0.000715   0.003404   0.029947   0.035429
     H   22   0.000142   0.000135   0.000148   0.009318   0.000695   0.000777


                  H 19       H 20       H 21       H 22
 ------------------------------------------------------
     H   19   5.223875
     H   20   0.031535   5.228126
     H   21   0.004914   0.000535   5.084030
     H   22   0.063923   0.007026   0.027996   5.163462


          HEAT OF FORMATION =      43.748256 KCALS/MOLE

          ZERO POINT ENERGY     117.436 KCAL/MOL


           NORMAL COORDINATE ANALYSIS (Total motion = 1 Angstrom)


   Root No.       1         2         3         4         5         6         7         8

                 1 A       2 A       3 A       4 A       5 A       6 A       7 A       8 A   

                  53.2      87.4     118.1     120.4     146.6     243.4     309.3     338.9
  
           1   -0.0001   -0.0006    0.0021   -0.0303    0.0000   -0.0001   -0.0232   -0.0001
           2   -0.0001   -0.0003    0.0013   -0.0192    0.0000   -0.0000   -0.0255   -0.0000
           3   -0.0387    0.0478    0.0099    0.0002    0.0030    0.0172   -0.0001    0.0117
           4    0.0002    0.0006   -0.0027    0.0395   -0.0001    0.0000   -0.0171   -0.0001
           5    0.0002    0.0007   -0.0036    0.0515   -0.0002   -0.0000   -0.0264   -0.0001
           6    0.0388   -0.0021    0.0352    0.0034   -0.0224   -0.0186   -0.0000    0.0146
           7   -0.0000   -0.0001    0.0003   -0.0040   -0.0000    0.0000    0.0031    0.0000
           8   -0.0001   -0.0004    0.0021   -0.0301    0.0001   -0.0001   -0.0331   -0.0001
           9   -0.0316    0.0128   -0.0035   -0.0005    0.0033   -0.0303    0.0000    0.0176
          10   -0.0002   -0.0005    0.0024   -0.0337    0.0000   -0.0000   -0.0304   -0.0001
          11    0.0000    0.0002   -0.0009    0.0124   -0.0000   -0.0000    0.0009   -0.0000
          12    0.0129   -0.0006   -0.0217   -0.0021    0.0084   -0.0353    0.0001   -0.0287
          13    0.0002    0.0002    0.0001    0.0000    0.0002    0.0000    0.0418    0.0002
          14    0.0001    0.0002   -0.0006    0.0072    0.0002    0.0000    0.0434    0.0002
          15    0.0308    0.0178   -0.0245   -0.0029    0.0481    0.0257   -0.0000   -0.0284
          16    0.0000   -0.0000    0.0002   -0.0022   -0.0000    0.0000   -0.0023   -0.0000
          17   -0.0002   -0.0006    0.0029   -0.0412    0.0001   -0.0000    0.0076    0.0000
          18   -0.0366   -0.0236   -0.0334   -0.0026    0.0074   -0.0133   -0.0002    0.0512
          19    0.0000    0.0002   -0.0013    0.0171   -0.0000    0.0001    0.0099    0.0000
          20   -0.0000   -0.0002    0.0008   -0.0109    0.0000   -0.0000   -0.0266   -0.0001
          21   -0.0127    0.0184    0.0263    0.0022   -0.0060   -0.0358    0.0002   -0.0305
          22   -0.0002   -0.0002    0.0009   -0.0130   -0.0000   -0.0001   -0.0176   -0.0001
          23    0.0001    0.0004   -0.0020    0.0284   -0.0001    0.0000    0.0112    0.0000
          24    0.0445   -0.0271   -0.0108   -0.0007   -0.0020    0.0163   -0.0002    0.0273
          25    0.0000    0.0001   -0.0006    0.0088   -0.0000    0.0000    0.0375    0.0002
          26   -0.0002   -0.0005    0.0022   -0.0297    0.0000    0.0001    0.0560    0.0001
          27   -0.0398   -0.0431   -0.0170   -0.0007   -0.0173    0.0344    0.0003   -0.0394
          28   -0.0000    0.0002   -0.0010    0.0132   -0.0000   -0.0000    0.0067   -0.0000
          29    0.0001    0.0003   -0.0012    0.0175   -0.0000    0.0000    0.0001   -0.0000
          30    0.0260   -0.0037    0.0286    0.0027   -0.0137    0.0387   -0.0001   -0.0000
          31    0.0314   -0.0309   -0.0181   -0.0412    0.0045   -0.0469   -0.0323   -0.0389
          32   -0.0177    0.0363    0.0190   -0.0255   -0.0010    0.0550   -0.0334    0.0211
          33   -0.0634    0.0834    0.0297    0.0010    0.0001    0.0721   -0.0014    0.0422
          34   -0.0315    0.0293    0.0236   -0.0381   -0.0045    0.0465   -0.0328    0.0385
          35    0.0175   -0.0370   -0.0152   -0.0278    0.0011   -0.0549   -0.0329   -0.0211
          36   -0.0635    0.0835    0.0297    0.0022    0.0001    0.0724    0.0006    0.0423
          37    0.0283    0.0412   -0.0411    0.0296   -0.1395   -0.0199   -0.0088    0.0238
          38    0.0244    0.0636   -0.1022    0.0667   -0.0763    0.0277   -0.0728   -0.0314
          39    0.0621    0.0354   -0.0057   -0.0017   -0.1330   -0.0294   -0.0001    0.0280
          40    0.0001    0.0009   -0.0055    0.0813    0.0003    0.0001   -0.0876   -0.0006
          41   -0.0000    0.0001   -0.0019    0.0371    0.0006   -0.0002   -0.0025    0.0002
          42   -0.0011   -0.0919    0.1641    0.0186    0.1232   -0.0436   -0.0005    0.0425
          43   -0.0277   -0.0398    0.0362    0.0393    0.1386    0.0199   -0.0085   -0.0238
          44   -0.0239   -0.0610    0.0904    0.0893    0.0747   -0.0276   -0.0738    0.0305
          45    0.0625    0.0364   -0.0070   -0.0020   -0.1348   -0.0293    0.0004    0.0278
          46   -0.0003   -0.0008    0.0039   -0.0549    0.0000    0.0001   -0.0468   -0.0000
          47    0.0001    0.0003   -0.0015    0.0208   -0.0000   -0.0000    0.0074   -0.0000
          48    0.0234   -0.0123   -0.0511   -0.0047    0.0198   -0.0975    0.0005   -0.0812
          49    0.0004   -0.0001    0.0026   -0.0354    0.0005   -0.0000    0.0811    0.0006
          50    0.0004    0.0007   -0.0016    0.0182    0.0006    0.0001    0.0300    0.0002
          51    0.0880    0.0873   -0.0694   -0.0088    0.1390    0.0253   -0.0004   -0.0033
          52   -0.0001    0.0003   -0.0017    0.0253   -0.0002    0.0000    0.0476    0.0003
          53   -0.0004   -0.0009    0.0026   -0.0338   -0.0004    0.0002    0.0516   -0.0002
          54   -0.0985   -0.1098    0.0199    0.0043   -0.1040    0.0550    0.0009   -0.0981
          55   -0.0000    0.0004   -0.0022    0.0307   -0.0000   -0.0001    0.0249    0.0001
          56    0.0001    0.0005   -0.0022    0.0321   -0.0001    0.0000    0.0153    0.0000
          57    0.0438   -0.0044    0.0570    0.0054   -0.0267    0.0878   -0.0001   -0.0262
          58   -0.0002   -0.0002    0.0011   -0.0151   -0.0000   -0.0001   -0.0194   -0.0002
          59    0.0002    0.0007   -0.0035    0.0500   -0.0001    0.0001    0.0294    0.0001
          60    0.0831   -0.0642   -0.0317   -0.0022   -0.0005    0.0155   -0.0003    0.0577
          61    0.0000   -0.0000    0.0003   -0.0041   -0.0000   -0.0000   -0.0399   -0.0002
          62   -0.0002   -0.0006    0.0028   -0.0397    0.0001   -0.0000    0.0200    0.0001
          63   -0.0316   -0.0395   -0.0552   -0.0044    0.0212   -0.0386   -0.0006    0.1239
          64    0.0001    0.0005   -0.0027    0.0374   -0.0001    0.0001    0.0216    0.0001
          65   -0.0001   -0.0003    0.0013   -0.0189    0.0000   -0.0000   -0.0307   -0.0001
          66   -0.0276    0.0358    0.0494    0.0041   -0.0102   -0.0768    0.0006   -0.0993


   Root No.       9        10        11        12        13        14        15        16

                 9 A      10 A      11 A      12 A      13 A      14 A      15 A      16 A   

                 354.3     443.3     525.9     555.0     571.1     605.2     751.2     802.1
  
           1   -0.0199    0.0000   -0.0000    0.0067   -0.0402   -0.0401   -0.0000   -0.0001
           2    0.0355   -0.0001   -0.0000   -0.0383    0.0370    0.0011   -0.0000   -0.0000
           3   -0.0001   -0.0012    0.0115    0.0000   -0.0001   -0.0001   -0.0070    0.0273
           4    0.0678    0.0001   -0.0000    0.0388   -0.0095    0.0209   -0.0000    0.0000
           5   -0.0205    0.0000    0.0000   -0.0082    0.0100   -0.0119   -0.0000   -0.0000
           6   -0.0001   -0.0035    0.0000   -0.0001   -0.0000   -0.0000   -0.0011   -0.0037
           7   -0.0003   -0.0001   -0.0000   -0.0097    0.0415   -0.0524   -0.0000    0.0000
           8    0.0292   -0.0000    0.0000   -0.0241    0.0154    0.0206    0.0000    0.0000
           9    0.0001    0.0501    0.0667   -0.0000    0.0001   -0.0000    0.0248   -0.0129
          10   -0.0212    0.0001   -0.0000    0.0015   -0.0474   -0.0252    0.0000   -0.0000
          11    0.0070   -0.0000    0.0000   -0.0004   -0.0288   -0.0761   -0.0000   -0.0000
          12   -0.0000   -0.0413    0.0044    0.0000   -0.0001    0.0000   -0.0198    0.0069
          13    0.0473   -0.0000   -0.0000   -0.0092   -0.0204    0.0185   -0.0000   -0.0000
          14   -0.0319   -0.0001    0.0000   -0.0509   -0.0130    0.0012   -0.0000   -0.0000
          15    0.0000    0.0110    0.0001    0.0001    0.0000    0.0000   -0.0041   -0.0079
          16    0.0128   -0.0000    0.0000   -0.0243    0.0345   -0.0419    0.0000    0.0000
          17    0.0033    0.0000    0.0000    0.0583    0.0475   -0.0259    0.0000    0.0000
          18    0.0001   -0.0360   -0.0086    0.0001   -0.0000    0.0000    0.0095    0.0103
          19   -0.0409   -0.0000    0.0001    0.0036    0.0473    0.0161    0.0000    0.0000
          20    0.0020    0.0000   -0.0000   -0.0151   -0.0063    0.0875   -0.0000    0.0000
          21    0.0000    0.0236   -0.0378   -0.0001    0.0001   -0.0000   -0.0201   -0.0230
          22   -0.0466    0.0000   -0.0000    0.0158   -0.0321    0.0572    0.0001   -0.0000
          23   -0.0128    0.0000    0.0000    0.0124   -0.0218   -0.0178   -0.0000   -0.0000
          24   -0.0001    0.0476   -0.0195   -0.0000    0.0000    0.0001   -0.0221    0.0173
          25    0.0333   -0.0001   -0.0000   -0.0323   -0.0196    0.0085    0.0000    0.0000
          26    0.0048    0.0000   -0.0000    0.0459    0.0027    0.0185    0.0000    0.0000
          27    0.0002    0.0083   -0.0038   -0.0002   -0.0000   -0.0000    0.0011    0.0092
          28   -0.0430    0.0001   -0.0000    0.0033    0.0565    0.0328   -0.0000    0.0000
          29   -0.0143    0.0001   -0.0000    0.0152   -0.0555    0.0038    0.0000    0.0000
          30   -0.0001   -0.0384    0.0326    0.0000    0.0001    0.0001   -0.0090   -0.0268
          31   -0.0190   -0.0379    0.0486   -0.0006   -0.0503   -0.0121   -0.0502    0.0523
          32    0.0364   -0.0323   -0.1134   -0.0444    0.0364    0.0227    0.0028   -0.0577
          33   -0.0001   -0.0043   -0.0825   -0.0004    0.0028    0.0003    0.0177   -0.0333
          34   -0.0191    0.0379   -0.0482   -0.0006   -0.0502   -0.0121    0.0499   -0.0521
          35    0.0367    0.0321    0.1131   -0.0445    0.0363    0.0230   -0.0029    0.0575
          36   -0.0003   -0.0042   -0.0827    0.0006   -0.0030   -0.0006    0.0178   -0.0336
          37    0.0675   -0.0109   -0.0003    0.0333   -0.0136    0.0241    0.0088    0.0217
          38   -0.0078    0.0127    0.0002    0.0414    0.0293   -0.0184   -0.0084   -0.0204
          39    0.0008   -0.0099   -0.0002    0.0016   -0.0003    0.0010    0.0044    0.0097
          40    0.0891    0.0002    0.0000    0.1128    0.0146    0.0162    0.0000    0.0000
          41   -0.0273   -0.0001    0.0000   -0.0320    0.0023   -0.0103    0.0000    0.0001
          42   -0.0002   -0.0146    0.0000    0.0000    0.0001   -0.0001    0.0061    0.0136
          43    0.0674    0.0109    0.0003    0.0329   -0.0137    0.0242   -0.0087   -0.0216
          44   -0.0079   -0.0124   -0.0001    0.0418    0.0296   -0.0186    0.0084    0.0205
          45   -0.0011   -0.0098   -0.0002   -0.0020    0.0003   -0.0010    0.0043    0.0097
          46    0.0049    0.0001    0.0001   -0.0279   -0.0180   -0.0409   -0.0003    0.0002
          47   -0.0035   -0.0000    0.0000    0.0111   -0.0400   -0.0691    0.0000   -0.0001
          48    0.0000   -0.0944   -0.0439   -0.0000   -0.0000    0.0001    0.1845   -0.1638
          49    0.0591   -0.0001    0.0000    0.0108   -0.0280    0.0373    0.0001    0.0001
          50   -0.0347   -0.0001    0.0000   -0.0550   -0.0099   -0.0046    0.0001    0.0002
          51   -0.0003   -0.0025    0.0046    0.0003    0.0002   -0.0003    0.0189    0.0372
          52    0.0216   -0.0001   -0.0000   -0.0852   -0.0630    0.0277    0.0000   -0.0000
          53    0.0079    0.0003   -0.0000    0.0608    0.0160    0.0123   -0.0001   -0.0003
          54    0.0005    0.0443   -0.0047   -0.0005   -0.0004    0.0004   -0.0237   -0.0492
          55   -0.0474    0.0002   -0.0001    0.0116    0.0749   -0.0231   -0.0003   -0.0002
          56   -0.0173    0.0000    0.0000    0.0216   -0.0396   -0.0424    0.0001    0.0000
          57   -0.0002   -0.1640    0.0636    0.0002   -0.0002    0.0001    0.1780    0.1077
          58   -0.0452   -0.0002    0.0002    0.0154   -0.0380    0.0520   -0.0003    0.0000
          59   -0.0256    0.0000    0.0000    0.0153    0.0418    0.0284   -0.0000    0.0000
          60   -0.0001    0.1495   -0.1169   -0.0002    0.0001   -0.0002    0.1822   -0.0037
          61    0.0177   -0.0000    0.0001   -0.0575    0.0460   -0.0488    0.0001    0.0000
          62    0.0016   -0.0000   -0.0001    0.0681    0.0439   -0.0229   -0.0000   -0.0000
          63    0.0001   -0.1311   -0.1176    0.0007   -0.0001    0.0001   -0.0876   -0.0506
          64   -0.0680    0.0001    0.0002    0.0242    0.0142    0.0198   -0.0001   -0.0002
          65    0.0127   -0.0000   -0.0000   -0.0227    0.0072    0.0854   -0.0000    0.0000
          66    0.0000    0.0002   -0.1663   -0.0002    0.0000   -0.0002    0.0684    0.1969


   Root No.      17        18        19        20        21        22        23        24

                17 A      18 A      19 A      20 A      21 A      22 A      23 A      24 A   

                 836.3     870.5     898.5     911.9     947.4     949.1     972.8     973.8
  
           1    0.0000    0.0178   -0.0001    0.0000   -0.0272    0.0002   -0.0000    0.0034
           2    0.0001    0.0228    0.0000    0.0000    0.0653   -0.0005   -0.0000   -0.0087
           3    0.0131   -0.0001    0.0301   -0.0275   -0.0002   -0.0179    0.0132    0.0000
           4    0.0000    0.0086   -0.0000   -0.0000   -0.0047   -0.0000    0.0001   -0.0435
           5    0.0001   -0.0091   -0.0000    0.0000   -0.0049   -0.0000    0.0000   -0.0160
           6    0.0143   -0.0001   -0.0114   -0.0031   -0.0002   -0.0142   -0.0034    0.0001
           7   -0.0001   -0.0390    0.0000    0.0000   -0.0059   -0.0000   -0.0000    0.0059
           8   -0.0000   -0.0123   -0.0000    0.0000   -0.0147    0.0001    0.0000    0.0028
           9    0.0094   -0.0001   -0.0101    0.0226    0.0003    0.0268    0.0042   -0.0000
          10    0.0001    0.0322   -0.0000   -0.0001    0.0071   -0.0000    0.0001   -0.0037
          11    0.0002    0.0554   -0.0000   -0.0001   -0.0186    0.0002    0.0000   -0.0008
          12   -0.0018    0.0001   -0.0112    0.0124    0.0001    0.0073   -0.0318   -0.0001
          13    0.0000   -0.0010   -0.0000   -0.0000   -0.0008    0.0000   -0.0000    0.0063
          14    0.0001   -0.0025   -0.0000   -0.0001   -0.0021    0.0001    0.0000   -0.0040
          15    0.0216   -0.0001   -0.0106   -0.0104    0.0001    0.0080    0.0024    0.0001
          16   -0.0001   -0.0537    0.0000    0.0001   -0.0133    0.0001    0.0000    0.0099
          17   -0.0001   -0.0358   -0.0000    0.0000   -0.0147    0.0000    0.0000   -0.0111
          18   -0.0152    0.0001   -0.0248   -0.0037   -0.0005   -0.0418   -0.0120    0.0000
          19    0.0001    0.0304   -0.0000   -0.0000   -0.0012    0.0000    0.0000   -0.0019
          20   -0.0000    0.0113    0.0000   -0.0001   -0.0623    0.0005    0.0000    0.0107
          21   -0.0100    0.0000    0.0093   -0.0107    0.0000    0.0020   -0.0371   -0.0001
          22   -0.0002   -0.0501    0.0000    0.0000    0.0384   -0.0003   -0.0001   -0.0042
          23   -0.0000   -0.0094   -0.0000    0.0000    0.0032   -0.0000    0.0000   -0.0003
          24   -0.0019   -0.0000   -0.0181    0.0184    0.0002    0.0141    0.0213    0.0000
          25   -0.0001   -0.0094    0.0000   -0.0000   -0.0019    0.0001   -0.0000    0.0161
          26   -0.0000    0.0254   -0.0000   -0.0001    0.0122    0.0000   -0.0000    0.0128
          27   -0.0288    0.0000    0.0072   -0.0249    0.0004    0.0328    0.0041   -0.0001
          28    0.0002    0.0441   -0.0000   -0.0000   -0.0083    0.0001   -0.0000   -0.0031
          29   -0.0002   -0.0497    0.0000    0.0001    0.0230   -0.0002   -0.0000    0.0005
          30   -0.0102    0.0001    0.0044   -0.0129   -0.0002   -0.0209    0.0291    0.0001
          31    0.0126    0.0354    0.0444   -0.0557   -0.0025   -0.0429   -0.0299    0.0050
          32   -0.0310    0.0348   -0.0591    0.0419    0.1103    0.0214   -0.0569   -0.0140
          33   -0.0119    0.0013   -0.0272    0.0245    0.0145    0.0156   -0.0091   -0.0036
          34   -0.0123    0.0356   -0.0442    0.0557   -0.0017    0.0427    0.0298    0.0051
          35    0.0313    0.0344    0.0590   -0.0417    0.1100   -0.0232    0.0568   -0.0138
          36   -0.0120   -0.0011   -0.0274    0.0248   -0.0144    0.0159   -0.0091    0.0037
          37   -0.0717    0.0097    0.0483    0.0152   -0.0096    0.0502    0.0120   -0.0818
          38    0.0667    0.0054   -0.0445   -0.0148    0.0271   -0.0446   -0.0107    0.1622
          39   -0.0303    0.0019    0.0187    0.0063    0.0003    0.0172    0.0040   -0.0038
          40    0.0000    0.0379   -0.0000   -0.0001    0.0402   -0.0002   -0.0003    0.1836
          41   -0.0003   -0.0188    0.0002    0.0001   -0.0195    0.0003    0.0002   -0.0898
          42   -0.0416    0.0003    0.0255    0.0093    0.0003    0.0220    0.0050    0.0000
          43    0.0715    0.0084   -0.0482   -0.0152   -0.0110   -0.0500   -0.0117   -0.0823
          44   -0.0668    0.0066    0.0446    0.0148    0.0284    0.0444    0.0102    0.1627
          45   -0.0301   -0.0015    0.0186    0.0062   -0.0001    0.0170    0.0039    0.0028
          46    0.0003    0.1057   -0.0001   -0.0001    0.0723   -0.0004   -0.0002   -0.0171
          47    0.0001    0.0273   -0.0000   -0.0001   -0.0442    0.0004    0.0000    0.0044
          48   -0.0200    0.0001    0.0129   -0.0175    0.0001   -0.0096    0.1632    0.0002
          49   -0.0004    0.0241    0.0003    0.0004    0.0206   -0.0004   -0.0002    0.1062
          50   -0.0007   -0.0101    0.0007    0.0008   -0.0083   -0.0002    0.0000   -0.0320
          51   -0.1385    0.0015    0.1396    0.1756   -0.0008   -0.0538   -0.0066   -0.0002
          52    0.0001    0.0243    0.0000    0.0003    0.0096   -0.0004   -0.0001    0.0676
          53    0.0006    0.0151    0.0003    0.0011    0.0087   -0.0008   -0.0001   -0.0010
          54    0.0989    0.0000    0.0698    0.2171   -0.0020   -0.1395   -0.0133    0.0001
          55    0.0002    0.0797   -0.0000   -0.0001    0.0377   -0.0005    0.0002   -0.0173
          56    0.0000   -0.0224   -0.0000    0.0001    0.0601   -0.0005   -0.0001   -0.0108
          57    0.0752   -0.0002   -0.0107    0.0654    0.0012    0.1054   -0.1427   -0.0003
          58   -0.0002   -0.0489   -0.0002    0.0002    0.0423   -0.0002    0.0002   -0.0048
          59   -0.0000   -0.0163    0.0000    0.0001   -0.0147    0.0000    0.0000    0.0014
          60    0.0419   -0.0002    0.1160   -0.1076   -0.0009   -0.0688   -0.1127   -0.0002
          61   -0.0003   -0.1087   -0.0001    0.0002   -0.0514    0.0002   -0.0001    0.0259
          62   -0.0000   -0.0197    0.0001    0.0000   -0.0034    0.0001    0.0001   -0.0162
          63    0.1461   -0.0012    0.1387    0.0255    0.0017    0.1500    0.0623    0.0001
          64    0.0001    0.0357    0.0001   -0.0000    0.0678   -0.0005   -0.0002   -0.0147
          65   -0.0000    0.0096    0.0000   -0.0001   -0.0910    0.0008    0.0000    0.0159
          66    0.0351    0.0001   -0.0556    0.0434   -0.0002   -0.0251    0.1732    0.0003


   Root No.      25        26        27        28        29        30        31        32

                25 A      26 A      27 A      28 A      29 A      30 A      31 A      32 A   

                1015.6    1029.4    1042.3    1074.5    1086.4    1150.2    1156.9    1167.8
  
           1   -0.0000    0.0001    0.0389    0.0002    0.0012    0.0015    0.0045    0.0019
           2    0.0000   -0.0001   -0.0093   -0.0000    0.0115    0.0048    0.0013   -0.0001
           3   -0.0219    0.0089   -0.0000    0.0013   -0.0000   -0.0000    0.0000    0.0000
           4   -0.0000   -0.0000    0.0025    0.0000    0.0014    0.0005   -0.0033   -0.0051
           5   -0.0001   -0.0002   -0.0016   -0.0000   -0.0025    0.0027    0.0049    0.0383
           6   -0.0130   -0.0363    0.0001   -0.0008    0.0000   -0.0000   -0.0000   -0.0002
           7   -0.0000   -0.0000   -0.0084   -0.0000   -0.0019    0.0005    0.0067   -0.0099
           8    0.0000    0.0001    0.0097    0.0001    0.0045   -0.0094   -0.0159    0.0077
           9    0.0221   -0.0121    0.0002   -0.0361   -0.0000    0.0000    0.0000   -0.0000
          10   -0.0000   -0.0001   -0.0322   -0.0002    0.0047   -0.0094   -0.0027    0.0051
          11    0.0000   -0.0001   -0.0309   -0.0002    0.0169    0.0083   -0.0018    0.0012
          12    0.0353   -0.0120   -0.0000    0.0368    0.0000   -0.0000    0.0000    0.0000
          13    0.0000    0.0001   -0.0020   -0.0000   -0.0011   -0.0015    0.0038    0.0052
          14    0.0001    0.0003    0.0014    0.0000    0.0016   -0.0032   -0.0076   -0.0284
          15    0.0166    0.0534   -0.0002    0.0028   -0.0000    0.0000    0.0000    0.0001
          16    0.0000   -0.0000   -0.0053   -0.0000   -0.0070    0.0018    0.0055   -0.0039
          17   -0.0000    0.0000    0.0030    0.0001   -0.0063    0.0021   -0.0020   -0.0150
          18   -0.0077    0.0182   -0.0002    0.0086   -0.0000   -0.0000    0.0000    0.0000
          19    0.0000   -0.0000   -0.0035   -0.0000   -0.0129    0.0118   -0.0011   -0.0041
          20   -0.0000   -0.0001   -0.0081   -0.0000   -0.0277    0.0034    0.0074   -0.0059
          21   -0.0296    0.0101   -0.0001    0.0116   -0.0000    0.0000    0.0000   -0.0000
          22    0.0001   -0.0001   -0.0251   -0.0001    0.0399   -0.0043   -0.0071    0.0034
          23   -0.0000    0.0000    0.0035   -0.0000    0.0248    0.0013    0.0030   -0.0006
          24   -0.0365    0.0100   -0.0001   -0.0107    0.0001   -0.0000   -0.0000    0.0000
          25   -0.0000   -0.0001   -0.0021   -0.0000   -0.0009   -0.0023    0.0048   -0.0088
          26   -0.0000   -0.0001   -0.0033   -0.0000    0.0001    0.0031    0.0013    0.0117
          27   -0.0040   -0.0315    0.0002   -0.0035    0.0000    0.0000   -0.0000    0.0001
          28   -0.0001    0.0000   -0.0011   -0.0000    0.0102   -0.0014   -0.0057   -0.0003
          29    0.0000    0.0000    0.0100    0.0001   -0.0439   -0.0003    0.0081   -0.0075
          30    0.0334   -0.0094    0.0001   -0.0001    0.0000   -0.0000   -0.0000    0.0000
          31   -0.0166    0.0209    0.1835   -0.2947    0.0067    0.0696   -0.0120   -0.0107
          32    0.0488   -0.0097    0.0760   -0.2186    0.0263    0.0604   -0.0166   -0.0058
          33    0.0162   -0.0064   -0.0098   -0.0040    0.0047    0.0031   -0.0017    0.0019
          34    0.0161   -0.0193    0.1826    0.2956    0.0073    0.0700   -0.0120   -0.0107
          35   -0.0488    0.0103    0.0748    0.2189    0.0268    0.0606   -0.0166   -0.0058
          36    0.0162   -0.0064    0.0105   -0.0032   -0.0047   -0.0029    0.0017   -0.0020
          37    0.0419    0.1145    0.0045    0.0023    0.0026    0.0011   -0.0100   -0.0133
          38   -0.0367   -0.1004   -0.0071   -0.0020   -0.0018   -0.0036    0.0084    0.0001
          39    0.0130    0.0348    0.0006    0.0006    0.0008   -0.0004   -0.0034   -0.0097
          40   -0.0001   -0.0002    0.0021    0.0001    0.0077   -0.0104   -0.0215   -0.1266
          41    0.0001    0.0004   -0.0020   -0.0000   -0.0049    0.0064    0.0119    0.0830
          42    0.0166    0.0444   -0.0002    0.0009   -0.0000   -0.0000    0.0000    0.0000
          43   -0.0418   -0.1140    0.0054   -0.0022    0.0026    0.0012   -0.0099   -0.0131
          44    0.0367    0.1001   -0.0079    0.0019   -0.0018   -0.0037    0.0084    0.0001
          45    0.0129    0.0345   -0.0009    0.0006   -0.0008    0.0004    0.0034    0.0098
          46    0.0002   -0.0004   -0.0450    0.0003   -0.1637   -0.1436    0.2093   -0.0190
          47    0.0000   -0.0000   -0.0248   -0.0003    0.0884    0.0638   -0.0871    0.0113
          48   -0.1232    0.0357   -0.0001   -0.0552   -0.0003   -0.0002    0.0003   -0.0000
          49   -0.0002   -0.0004   -0.0031    0.0000   -0.0068    0.0063   -0.0072    0.2722
          50   -0.0002   -0.0005    0.0015   -0.0000    0.0031   -0.0056   -0.0045   -0.1066
          51   -0.0391   -0.1261    0.0005   -0.0144    0.0000    0.0000    0.0000   -0.0002
          52   -0.0001    0.0002    0.0498    0.0004    0.0150    0.0075   -0.0389   -0.0769
          53    0.0001    0.0004   -0.0182   -0.0002   -0.0046    0.0003    0.0136    0.0298
          54    0.0109    0.0866   -0.0008   -0.0041   -0.0001   -0.0001    0.0000   -0.0001
          55    0.0001    0.0002    0.0839    0.0007   -0.0660   -0.1801   -0.1689    0.0312
          56   -0.0001    0.0003    0.0822    0.0007   -0.1090   -0.1503   -0.1258    0.0182
          57   -0.1136    0.0295   -0.0001   -0.0032   -0.0000   -0.0002   -0.0002    0.0000
          58   -0.0002   -0.0001   -0.0422   -0.0002    0.0249    0.0052   -0.0312   -0.0002
          59   -0.0001    0.0006    0.1528    0.0005    0.1867   -0.1123    0.2346    0.0380
          60    0.1273   -0.0311    0.0002    0.0158    0.0000    0.0000   -0.0000   -0.0000
          61    0.0000    0.0003    0.0153    0.0003   -0.0446    0.0222   -0.0331    0.1479
          62   -0.0000   -0.0001   -0.0035   -0.0000    0.0043   -0.0036    0.0101   -0.0644
          63    0.0232   -0.0528    0.0003   -0.0131   -0.0000    0.0000   -0.0001    0.0002
          64   -0.0001    0.0001    0.0197    0.0005   -0.1835    0.1834    0.0704    0.0174
          65   -0.0000   -0.0001   -0.0168   -0.0002    0.0363   -0.0647   -0.0213   -0.0154
          66    0.1035   -0.0335    0.0004   -0.0399   -0.0003    0.0002    0.0001    0.0000


   Root No.      33        34        35        36        37        38        39        40

                33 A      34 A      35 A      36 A      37 A      38 A      39 A      40 A   

                1181.4    1219.6    1239.1    1258.9    1318.7    1338.3    1383.7    1395.4
  
           1   -0.0013   -0.0131    0.0053    0.0124    0.0313    0.0149   -0.0434    0.0380
           2    0.0004   -0.0065    0.0085    0.0047    0.0307   -0.0267   -0.0101   -0.0002
           3   -0.0000   -0.0000    0.0000    0.0000    0.0000    0.0001   -0.0001    0.0001
           4    0.0118    0.0030   -0.0040    0.0018    0.0004   -0.0012   -0.0359   -0.0182
           5   -0.0181    0.0073    0.0121   -0.0070    0.0074    0.0030    0.0098   -0.0141
           6    0.0001   -0.0001   -0.0001    0.0000   -0.0000   -0.0000    0.0001   -0.0027
           7   -0.0120    0.0060   -0.0020    0.0108    0.0311    0.0121    0.0110   -0.0158
           8    0.0121   -0.0147    0.0080    0.0001    0.0029   -0.0256   -0.0141    0.0233
           9    0.0000    0.0000    0.0000    0.0000    0.0000    0.0000    0.0000   -0.0000
          10    0.0075   -0.0114    0.0094   -0.0002   -0.0084    0.0164    0.0199   -0.0240
          11    0.0033    0.0037   -0.0019   -0.0062   -0.0195   -0.0026    0.0136   -0.0084
          12    0.0000   -0.0000    0.0000    0.0000   -0.0000    0.0000    0.0000   -0.0000
          13   -0.0171   -0.0136    0.0036   -0.0130   -0.0283   -0.0078   -0.0030    0.0124
          14    0.0313    0.0004   -0.0187    0.0408   -0.0141   -0.0048   -0.0148   -0.0028
          15   -0.0001    0.0001    0.0001   -0.0001    0.0001    0.0000    0.0001   -0.0001
          16   -0.0113   -0.0020   -0.0029    0.0074    0.0126    0.0051    0.0196   -0.0163
          17    0.0139    0.0170    0.0200   -0.0024   -0.0485   -0.0022   -0.0043    0.0057
          18   -0.0001   -0.0001   -0.0001   -0.0000    0.0000    0.0000    0.0000   -0.0000
          19   -0.0045    0.0100   -0.0076    0.0004    0.0116    0.0029   -0.0132    0.0058
          20   -0.0087   -0.0030    0.0051    0.0054   -0.0020    0.0174    0.0200   -0.0198
          21   -0.0000    0.0000   -0.0000   -0.0000    0.0000   -0.0000   -0.0000    0.0000
          22    0.0049    0.0007    0.0005   -0.0057   -0.0130   -0.0126    0.0094   -0.0022
          23   -0.0017    0.0125   -0.0108   -0.0067   -0.0107   -0.0200   -0.0077    0.0173
          24    0.0000    0.0000    0.0000   -0.0000   -0.0000   -0.0000    0.0000   -0.0000
          25   -0.0200   -0.0128    0.0077   -0.0116   -0.0247   -0.0050    0.0042    0.0076
          26   -0.0031   -0.0098   -0.0167   -0.0305    0.0524    0.0113    0.0121   -0.0106
          27    0.0001    0.0000    0.0000    0.0001   -0.0002   -0.0000   -0.0001    0.0000
          28    0.0000    0.0081   -0.0050   -0.0038   -0.0047   -0.0072   -0.0143    0.0139
          29   -0.0093    0.0090   -0.0063    0.0057    0.0245    0.0136   -0.0157    0.0030
          30    0.0000    0.0000   -0.0000   -0.0000   -0.0000   -0.0000   -0.0000    0.0000
          31   -0.0451    0.0448   -0.0494   -0.0161   -0.0350   -0.1129    0.0696   -0.0621
          32   -0.0358    0.0234   -0.0367   -0.0008   -0.0843    0.1792    0.0130   -0.0024
          33   -0.0031   -0.0060   -0.0042    0.0081   -0.0362    0.1561   -0.0297    0.0359
          34   -0.0455    0.0449   -0.0496   -0.0160   -0.0351   -0.1125    0.0696   -0.0621
          35   -0.0360    0.0234   -0.0368   -0.0009   -0.0843    0.1790    0.0132   -0.0025
          36    0.0030    0.0061    0.0040   -0.0081    0.0362   -0.1569    0.0300   -0.0361
          37    0.0429    0.0188   -0.0219    0.0521    0.0469    0.0125    0.1513    0.1194
          38   -0.0360   -0.0284    0.0064   -0.0346   -0.0455   -0.0145    0.0039    0.1136
          39    0.0157    0.0047   -0.0112    0.0256    0.0213    0.0060    0.1169    0.1066
          40    0.0874   -0.0032   -0.0524    0.0918    0.0201    0.0076    0.0123   -0.0922
          41   -0.0471    0.0076    0.0290   -0.0404   -0.0026   -0.0013   -0.0028    0.0269
          42   -0.0001   -0.0000    0.0000   -0.0001   -0.0001   -0.0000   -0.0003    0.0276
          43    0.0428    0.0188   -0.0218    0.0519    0.0468    0.0125    0.1506    0.1135
          44   -0.0362   -0.0285    0.0065   -0.0349   -0.0457   -0.0145    0.0030    0.0800
          45   -0.0156   -0.0045    0.0113   -0.0255   -0.0211   -0.0059   -0.1180   -0.1017
          46    0.0116    0.0913   -0.0571   -0.0403   -0.0675   -0.0403    0.0063    0.0218
          47    0.0018   -0.0378    0.0249    0.0095    0.0023    0.0196    0.0212   -0.0286
          48    0.0000    0.0001   -0.0001   -0.0001   -0.0001   -0.0000    0.0000    0.0000
          49    0.0306    0.1115    0.0320    0.1857   -0.0223   -0.0093   -0.0197   -0.0099
          50    0.0182   -0.0375   -0.0291   -0.0163   -0.0179   -0.0050   -0.0117    0.0036
          51   -0.0001   -0.0002    0.0000   -0.0005    0.0002    0.0001    0.0001   -0.0002
          52    0.1063    0.1541    0.1633   -0.1471    0.0906    0.0533    0.0163   -0.0015
          53   -0.0383   -0.0584   -0.0625    0.0055    0.0222   -0.0046    0.0098   -0.0092
          54    0.0000    0.0000    0.0001    0.0003   -0.0002    0.0000   -0.0001    0.0001
          55    0.0031   -0.0525    0.0364   -0.0029   -0.0435    0.0005    0.0474   -0.0283
          56   -0.0080   -0.0410    0.0277    0.0074   -0.0046    0.0229    0.0358   -0.0339
          57    0.0000   -0.0001    0.0001   -0.0000   -0.0001   -0.0000    0.0001   -0.0000
          58   -0.0017    0.0103   -0.0060   -0.0088   -0.0164   -0.0217    0.0056    0.0045
          59    0.0689   -0.0807    0.0537    0.0151    0.0014    0.0543    0.0457   -0.0558
          60   -0.0000    0.0000   -0.0000   -0.0000   -0.0000   -0.0001    0.0000    0.0000
          61    0.1792   -0.0209   -0.1357   -0.1560   -0.0381    0.0283   -0.0076   -0.0021
          62   -0.0447    0.0231    0.0634    0.0477   -0.0355   -0.0098    0.0049    0.0013
          63    0.0002    0.0001   -0.0001   -0.0001    0.0001    0.0000   -0.0000    0.0000
          64    0.0882   -0.1192    0.1028    0.0230   -0.0427   -0.0291    0.0436   -0.0142
          65   -0.0466    0.0479   -0.0376   -0.0023    0.0205    0.0318   -0.0015   -0.0133
          66    0.0001   -0.0001    0.0001    0.0000   -0.0001   -0.0000    0.0001   -0.0000


   Root No.      41        42        43        44        45        46        47        48

                41 A      42 A      43 A      44 A      45 A      46 A      47 A      48 A   

                1395.6    1414.8    1438.0    1511.4    1824.8    1839.5    1864.7    1875.2
  
           1   -0.0052    0.0124   -0.0118   -0.0679   -0.0088    0.0004   -0.0228   -0.0169
           2    0.0001   -0.0260   -0.0224   -0.0693    0.0024   -0.0130   -0.0025   -0.0081
           3   -0.0000    0.0000   -0.0000   -0.0001   -0.0000    0.0000   -0.0000   -0.0000
           4    0.0023   -0.0164    0.0403   -0.0000   -0.0042   -0.0124   -0.0109    0.0162
           5    0.0016    0.0274   -0.0393    0.0010    0.0025    0.0079    0.0068   -0.0100
           6   -0.0405   -0.0001    0.0001   -0.0000    0.0000   -0.0000   -0.0000    0.0000
           7    0.0022    0.0004    0.0243   -0.0187   -0.0309    0.1048    0.0719    0.0952
           8   -0.0032    0.0371    0.0172    0.1258    0.0089    0.0271   -0.0004    0.0222
           9    0.0000   -0.0000    0.0000   -0.0001   -0.0000    0.0001    0.0001    0.0001
          10    0.0033   -0.0269   -0.0085    0.0577    0.0679   -0.0547    0.0715    0.0299
          11    0.0011    0.0053    0.0082    0.0035   -0.0724    0.0502   -0.0671   -0.0296
          12   -0.0000   -0.0000   -0.0000    0.0001    0.0001   -0.0001    0.0001    0.0001
          13   -0.0017   -0.0016   -0.0267    0.0000    0.0280    0.0742    0.0733   -0.1276
          14    0.0004   -0.0140    0.0194   -0.0022    0.0016    0.0009    0.0025   -0.0088
          15   -0.0007    0.0001   -0.0000    0.0000   -0.0001   -0.0002   -0.0002    0.0004
          16    0.0022    0.0102    0.0240    0.0087    0.0105   -0.1042   -0.0435   -0.1186
          17   -0.0008   -0.0156   -0.0254   -0.0189    0.0036   -0.0047   -0.0074    0.0116
          18   -0.0001    0.0000    0.0000    0.0000    0.0000   -0.0001   -0.0000   -0.0001
          19   -0.0008   -0.0155   -0.0156    0.0461    0.1558    0.0465   -0.0770    0.0018
          20    0.0027   -0.0061    0.0094   -0.0681    0.0018    0.0034    0.0085    0.0036
[...]
 TRAVEL      0.0929         C  1 -- C  4         +10.7% ( 41.9%)     92.1%
 RED. MASS   0.5249         C  1 -- H 12          +8.3% ( 37.0%)      1.7%
 EFF. MASS   5.6508

 VIBRATION   40   40A         ATOM PAIR      ENERGY CONTRIBUTION    RADIAL
 FREQ.      1395.43         C  2 -- H 13         +13.1% ( 43.7%)      1.2%
 T-DIPOLE    0.1405         C  1 -- C  4         +11.1% ( 40.2%)     99.7%
 TRAVEL      0.0973         C  2 -- H 15         +10.3% ( 38.6%)      3.4%
 RED. MASS   0.3829         C  1 -- C  3          +8.7% ( 35.5%)      0.2%
 EFF. MASS   5.1037

 VIBRATION   41   41A         ATOM PAIR      ENERGY CONTRIBUTION    RADIAL
 FREQ.      1395.59         C  2 -- H 14         +52.9% ( 63.1%)      0.0%
 T-DIPOLE    0.0661         C  2 -- H 15         +23.1% ( 41.7%)      8.7%
 TRAVEL      0.1741         C  2 -- H 13         +17.7% ( 36.5%)     14.9%
 RED. MASS   0.4172         C  2 -- C  5          +5.0% ( 19.4%)      0.3%
 EFF. MASS   1.5940

 VIBRATION   42   42A         ATOM PAIR      ENERGY CONTRIBUTION    RADIAL
 FREQ.      1414.79         C  8 -- C 10         +10.9% ( 45.0%)     97.7%
 T-DIPOLE    0.0692         C  1 -- C  3          +9.0% ( 40.8%)     72.3%
 TRAVEL      0.0799         C  2 -- H 14          +6.6% ( 35.1%)      8.9%
 RED. MASS   0.6013         C  4 -- C  8          +6.3% ( 34.1%)      0.5%
 EFF. MASS   7.4694

 VIBRATION   43   43A         ATOM PAIR      ENERGY CONTRIBUTION    RADIAL
 FREQ.      1437.97         C  2 -- C  5         +13.6% ( 53.1%)     99.9%
 T-DIPOLE    0.0306         C  2 -- H 14         +11.6% ( 49.1%)      4.6%
 TRAVEL      0.0758         C  6 -- C  9          +9.6% ( 44.6%)     99.5%
 RED. MASS   0.9230         C  2 -- H 15          +9.2% ( 43.7%)      3.6%
 EFF. MASS   8.1559

 VIBRATION   44   44A         ATOM PAIR      ENERGY CONTRIBUTION    RADIAL
 FREQ.      1511.35         C  1 -- C  3         +19.2% ( 66.4%)     98.6%
 T-DIPOLE    0.0607         C  3 -- C  7         +19.1% ( 66.3%)     85.6%
 TRAVEL      0.0627         C  3 -- C  6         +10.0% ( 48.0%)      0.0%
 RED. MASS   2.3751         C  1 -- C  4          +9.5% ( 46.7%)     81.0%
 EFF. MASS  11.3499

 VIBRATION   45   45A         ATOM PAIR      ENERGY CONTRIBUTION    RADIAL
 FREQ.      1824.76         C  7 -- C 10         +28.9% ( 80.7%)     99.5%
 T-DIPOLE    0.3358         C  8 -- C 10         +15.8% ( 59.6%)     96.3%
 TRAVEL      0.0556         C  4 -- C  8         +13.2% ( 54.5%)     97.6%
 RED. MASS   3.0684         C  3 -- C  7          +9.7% ( 46.8%)     46.4%
 EFF. MASS  11.9450

 VIBRATION   46   46A         ATOM PAIR      ENERGY CONTRIBUTION    RADIAL
 FREQ.      1839.52         C  3 -- C  6         +21.7% ( 68.6%)     99.7%
 T-DIPOLE    0.6140         C  4 -- C  8         +10.4% ( 47.6%)     99.5%
 TRAVEL      0.0556         C  5 -- C  9          +8.0% ( 41.7%)     98.5%
 RED. MASS   1.8653         C  3 -- C  7          +7.6% ( 40.5%)     10.2%
 EFF. MASS  11.8634

 VIBRATION   47   47A         ATOM PAIR      ENERGY CONTRIBUTION    RADIAL
 FREQ.      1864.69         C  4 -- C  8         +18.1% ( 62.4%)     99.7%
 T-DIPOLE    0.4853         C  5 -- C  9          +9.7% ( 45.5%)     96.8%
 TRAVEL      0.0553         C  7 -- C 10          +9.3% ( 44.6%)     97.1%
 RED. MASS   1.6094         C  3 -- C  7          +7.9% ( 41.1%)     48.6%
 EFF. MASS  11.8164

 VIBRATION   48   48A         ATOM PAIR      ENERGY CONTRIBUTION    RADIAL
 FREQ.      1875.24         C  5 -- C  9         +25.0% ( 74.3%)     94.7%
 T-DIPOLE    0.3671         C  6 -- C  9         +17.5% ( 62.1%)     57.7%
 TRAVEL      0.0552         C  3 -- C  6         +14.9% ( 57.4%)     97.7%
 RED. MASS   2.7177         C  9 -- H 18          +9.1% ( 44.8%)      1.8%
 EFF. MASS  11.8107

 VIBRATION   49   49A         ATOM PAIR      ENERGY CONTRIBUTION    RADIAL
 FREQ.      2916.36         C  1 -- H 11         +49.1% ( 72.7%)     96.5%
 T-DIPOLE    0.0790         C  1 -- H 12         +48.8% ( 72.5%)     96.5%
 TRAVEL      0.1228         C  1 -- C  3          +1.1% ( 10.8%)      0.0%
 RED. MASS   0.5175         C  1 -- C  4          +1.1% ( 10.8%)      0.0%
 EFF. MASS   1.5340

 VIBRATION   50   50A         ATOM PAIR      ENERGY CONTRIBUTION    RADIAL
 FREQ.      2995.34         C  1 -- H 12         +49.0% ( 69.0%)     97.8%
 T-DIPOLE    0.1318         C  1 -- H 11         +48.7% ( 68.8%)     97.8%
 TRAVEL      0.1327         C  1 -- C  4          +0.7% (  8.0%)     19.9%
 RED. MASS   0.4750         C  1 -- C  3          +0.6% (  7.9%)     27.7%
 EFF. MASS   1.2791

 VIBRATION   51   51A         ATOM PAIR      ENERGY CONTRIBUTION    RADIAL
 FREQ.      3015.56         C  6 -- H 21         +87.4% ( 95.0%)    100.0%
 T-DIPOLE    0.2401         C  9 -- H 18          +9.1% ( 30.7%)    100.0%
 TRAVEL      0.1212         C  6 -- C  9          +1.5% ( 12.5%)     17.5%
 RED. MASS   0.7639         C  3 -- C  6          +1.3% ( 11.6%)     32.2%
 EFF. MASS   1.5234

 VIBRATION   52   52A         ATOM PAIR      ENERGY CONTRIBUTION    RADIAL
 FREQ.      3029.28         C  9 -- H 18         +87.7% ( 94.8%)    100.0%
 T-DIPOLE    0.3127         C  6 -- H 21          +9.0% ( 30.4%)    100.0%
 TRAVEL      0.1217         C  5 -- C  9          +1.3% ( 11.7%)     37.2%
 RED. MASS   0.7626         C  6 -- C  9          +1.2% ( 11.3%)     20.2%
 EFF. MASS   1.5020

 VIBRATION   53   53A         ATOM PAIR      ENERGY CONTRIBUTION    RADIAL
 FREQ.      3038.65         C  5 -- H 17         +94.2% ( 98.5%)    100.0%
 T-DIPOLE    0.2730         C  2 -- H 14          +1.4% ( 12.2%)     98.0%
 TRAVEL      0.1211         C  5 -- C  9          +1.4% ( 12.2%)     38.0%
 RED. MASS   0.8773         C  2 -- C  5          +1.4% ( 11.9%)     11.5%
 EFF. MASS   1.5130

 VIBRATION   54   54A         ATOM PAIR      ENERGY CONTRIBUTION    RADIAL
 FREQ.      3040.67         C  7 -- H 22         +83.2% ( 92.6%)    100.0%
 T-DIPOLE    0.2765         C 10 -- H 19         +13.3% ( 37.1%)     99.9%
 TRAVEL      0.1221         C  7 -- C 10          +1.3% ( 11.5%)      9.4%
 RED. MASS   0.6986         C  3 -- C  7          +1.2% ( 11.2%)     19.7%
 EFF. MASS   1.4883

 VIBRATION   55   55A         ATOM PAIR      ENERGY CONTRIBUTION    RADIAL
 FREQ.      3051.26         C  4 -- H 16         +63.7% ( 81.0%)    100.0%
 T-DIPOLE    0.2451         C  8 -- H 20         +31.7% ( 57.2%)    100.0%
 TRAVEL      0.1227         C  4 -- C  8          +1.1% ( 10.7%)      1.8%
 RED. MASS   0.4956         C 10 -- H 19          +1.0% ( 10.3%)     99.7%
 EFF. MASS   1.4680

 VIBRATION   56   56A         ATOM PAIR      ENERGY CONTRIBUTION    RADIAL
 FREQ.      3064.80         C 10 -- H 19         +53.6% ( 74.4%)    100.0%
 T-DIPOLE    0.3428         C  4 -- H 16         +17.0% ( 41.9%)     99.9%
 TRAVEL      0.1187         C  8 -- H 20         +16.8% ( 41.7%)     99.8%
 RED. MASS   0.3519         C  7 -- H 22          +8.9% ( 30.4%)     99.7%
 EFF. MASS   1.5617

 VIBRATION   57   57A         ATOM PAIR      ENERGY CONTRIBUTION    RADIAL
 FREQ.      3067.82         C  2 -- H 13         +49.3% ( 72.4%)     97.1%
 T-DIPOLE    0.0341         C  2 -- H 15         +48.8% ( 72.1%)     97.0%
 TRAVEL      0.1210         C  2 -- C  5          +1.0% ( 10.2%)      0.0%
 RED. MASS   0.5092         C  2 -- H 14          +0.9% (  9.9%)      0.0%
 EFF. MASS   1.5004

 VIBRATION   58   58A         ATOM PAIR      ENERGY CONTRIBUTION    RADIAL
 FREQ.      3075.17         C  2 -- H 14         +61.9% ( 81.1%)     98.9%
 T-DIPOLE    0.0868         C  2 -- H 15         +17.6% ( 43.3%)     85.4%
 TRAVEL      0.1206         C  2 -- H 13         +17.2% ( 42.8%)     84.9%
 RED. MASS   0.4720         C  5 -- H 17          +2.1% ( 14.8%)    100.0%
 EFF. MASS   1.5081

 VIBRATION   59   59A         ATOM PAIR      ENERGY CONTRIBUTION    RADIAL
 FREQ.      3076.32         C  8 -- H 20         +48.2% ( 70.4%)    100.0%
 T-DIPOLE    0.4535         C 10 -- H 19         +28.8% ( 54.4%)    100.0%
 TRAVEL      0.1171         C  4 -- H 16         +15.7% ( 40.1%)     99.8%
 RED. MASS   0.3419         C  7 -- H 22          +3.5% ( 18.9%)     99.6%
 EFF. MASS   1.5984

 VIBRATION   60   60A         ATOM PAIR      ENERGY CONTRIBUTION    RADIAL
 FREQ.      3168.45         C  2 -- H 14         +35.3% ( 57.2%)     97.3%
 T-DIPOLE    0.1036         C  2 -- H 15         +32.2% ( 54.7%)     97.0%
 TRAVEL      0.1367         C  2 -- H 13         +32.2% ( 54.6%)     97.0%
 RED. MASS   0.3275         C  2 -- C  5          +0.3% (  5.4%)     99.9%
 EFF. MASS   1.1396

      SYMMETRY NUMBER FOR POINT-GROUP C1  =  1


          SYSTEM IS A GROUND STATE



 InChI=1S/C10H12/c1-2-3-7-10-8-5-4-6-9-10/h2-8H,9H2,1H3


          MOLECULE IS NOT LINEAR

          THERE ARE 60 GENUINE VIBRATIONS IN THIS SYSTEM
          THIS THERMODYNAMICS CALCULATION IS LIMITED TO
          MOLECULES WHICH HAVE NO INTERNAL ROTATIONS




                    CALCULATED THERMODYNAMIC PROPERTIES
                                          *
   TEMP. (K)   PARTITION FUNCTION   H.O.F.    ENTHALPY  HEAT CAPACITY ENTROPY
                                   KCAL/MOL   CAL/MOLE    CAL/K/MOL  CAL/K/MOL


 298.00  VIB.     0.6854D+03                  4500.8522    31.3297    28.0799
         ROT.     0.7662D+06                   888.2813     2.9808    29.9058
         INT.     0.5251D+09                  5389.1335    34.3105    57.9856
         TRA.     0.1470D+28                  1480.4688     4.9680    40.5480
         TOT.                       43.748    6869.6023    39.2786    98.5336

 200.00  VIB.     0.5758D+02                  1999.0380    20.0020    18.0496
         ROT.     0.4212D+06                   596.1620     2.9808    28.7171
         INT.     0.2425D+08                  2595.1999    22.9828    46.7667
         TRA.     0.8080D+27                   993.6033     4.9680    38.5668
         TOT.                       40.467    3588.8032    27.9508    85.3335

 210.00  VIB.     0.7404D+02                  2204.3668    21.0682    19.0512
         ROT.     0.4532D+06                   625.9700     2.9808    28.8625
         INT.     0.3356D+08                  2830.3368    24.0490    47.9137
         TRA.     0.8694D+27                  1043.2834     4.9680    38.8092
         TOT.                       40.752    3873.6202    29.0170    86.7229

 220.00  VIB.     0.9522D+02                  2420.4881    22.1603    20.0564
         ROT.     0.4860D+06                   655.7781     2.9808    29.0012
         INT.     0.4628D+08                  3076.2662    25.1411    49.0576
         TRA.     0.9322D+27                  1092.9636     4.9680    39.0403
         TOT.                       41.048    4169.2298    30.1091    88.0979

 230.00  VIB.     0.1225D+03                  2647.6549    23.2770    21.0660
         ROT.     0.5195D+06                   685.5862     2.9808    29.1337
         INT.     0.6363D+08                  3333.2411    26.2578    50.1997
         TRA.     0.9965D+27                  1142.6437     4.9680    39.2612
         TOT.                       41.355    4475.8849    31.2258    89.4609

 240.00  VIB.     0.1576D+03                  2886.1035    24.4163    22.0807
         ROT.     0.5537D+06                   715.3943     2.9808    29.2605
         INT.     0.8726D+08                  3601.4979    27.3971    51.3412
         TRA.     0.1062D+28                  1192.3239     4.9680    39.4726
         TOT.                       41.672    4793.8218    32.3651    90.8138

 250.00  VIB.     0.2028D+03                  3136.0483    25.5758    23.1008
         ROT.     0.5887D+06                   745.2024     2.9808    29.3822
         INT.     0.1194D+09                  3881.2507    28.5566    52.4831
         TRA.     0.1129D+28                  1242.0041     4.9680    39.6754
         TOT.                       42.002    5123.2548    33.5246    92.1585

 260.00  VIB.     0.2611D+03                  3397.6772    26.7526    24.1268
         ROT.     0.6244D+06                   775.0105     2.9808    29.4991
         INT.     0.1630D+09                  4172.6877    29.7335    53.6260
         TRA.     0.1198D+28                  1291.6842     4.9680    39.8703
         TOT.                       42.343    5464.3719    34.7015    93.4962

 270.00  VIB.     0.3364D+03                  3671.1492    27.9439    25.1588
         ROT.     0.6608D+06                   804.8186     2.9808    29.6116
         INT.     0.2223D+09                  4475.9678    30.9247    54.7704
         TRA.     0.1267D+28                  1341.3644     4.9680    40.0578
         TOT.                       42.696    5817.3322    35.8927    94.8282

 280.00  VIB.     0.4335D+03                  3956.5929    29.1465    26.1967
         ROT.     0.6978D+06                   834.6267     2.9808    29.7200
         INT.     0.3025D+09                  4791.2196    32.1273    55.9168
         TRA.     0.1338D+28                  1391.0445     4.9680    40.2384
         TOT.                       43.061    6182.2642    37.0953    96.1552

 290.00  VIB.     0.5590D+03                  4254.1059    30.3572    27.2406
         ROT.     0.7355D+06                   864.4348     2.9808    29.8246
         INT.     0.4111D+09                  5118.5407    33.3381    57.0653
         TRA.     0.1411D+28                  1440.7247     4.9680    40.4128
         TOT.                       43.438    6559.2655    38.3061    97.4780

 300.00  VIB.     0.7212D+03                  4563.7551    31.5732    28.2903
         ROT.     0.7739D+06                   894.2429     2.9808    29.9257
         INT.     0.5582D+09                  5457.9980    34.5540    58.2160
         TRA.     0.1484D+28                  1490.4049     4.9680    40.5812
         TOT.                       43.827    6948.4029    39.5220    98.7971

 310.00  VIB.     0.9312D+03                  4885.5775    32.7914    29.3454
         ROT.     0.8129D+06                   924.0510     2.9808    30.0234
         INT.     0.7570D+09                  5809.6285    35.7722    59.3688
         TRA.     0.1559D+28                  1540.0850     4.9680    40.7441
         TOT.                       44.228    7349.7135    40.7402   100.1129

 320.00  VIB.     0.1203D+04                  5219.5817    34.0091    30.4057
         ROT.     0.8525D+06                   953.8591     2.9808    30.1181
         INT.     0.1026D+10                  6173.4409    36.9899    60.5238
         TRA.     0.1635D+28                  1589.7652     4.9680    40.9018
         TOT.                       44.642    7763.2061    41.9580   101.4256

 330.00  VIB.     0.1555D+04                  5565.7501    35.2238    31.4708
         ROT.     0.8928D+06                   983.6672     2.9808    30.2098
         INT.     0.1389D+10                  6549.4173    38.2046    61.6806
         TRA.     0.1713D+28                  1639.4454     4.9680    41.0547
         TOT.                       45.068    8188.8626    43.1726   102.7353

 340.00  VIB.     0.2012D+04                  5924.0401    36.4331    32.5404
         ROT.     0.9337D+06                  1013.4753     2.9808    30.2988
         INT.     0.1879D+10                  6937.5154    39.4139    62.8391
         TRA.     0.1791D+28                  1689.1255     4.9680    41.2030
         TOT.                       45.505    8626.6409    44.3819   104.0421

 350.00  VIB.     0.2605D+04                  6294.3871    37.6349    33.6138
         ROT.     0.9752D+06                  1043.2834     2.9808    30.3852
         INT.     0.2541D+10                  7337.6705    40.6157    63.9990
         TRA.     0.1871D+28                  1738.8057     4.9680    41.3470
         TOT.                       45.955    9076.4762    45.5837   105.3460

 360.00  VIB.     0.3375D+04                  6676.7062    38.8272    34.6908
         ROT.     0.1017D+07                  1073.0915     2.9808    30.4692
         INT.     0.3433D+10                  7749.7977    41.8080    65.1599
         TRA.     0.1951D+28                  1788.4859     4.9680    41.4870
         TOT.                       46.417    9538.2836    46.7761   106.6469

 370.00  VIB.     0.4375D+04                  7070.8948    40.0085    35.7707
         ROT.     0.1060D+07                  1102.8996     2.9808    30.5508
         INT.     0.4638D+10                  8173.7944    42.9893    66.3216
         TRA.     0.2033D+28                  1838.1660     4.9680    41.6231
         TOT.                       46.891   10011.9604    47.9573   107.9446

 380.00  VIB.     0.5676D+04                  7476.8345    41.1772    36.8532
         ROT.     0.1103D+07                  1132.7077     2.9808    30.6303
         INT.     0.6262D+10                  8609.5423    44.1580    67.4835
         TRA.     0.2116D+28                  1887.8462     4.9680    41.7556
         TOT.                       47.376   10497.3884    49.1261   109.2391

 390.00  VIB.     0.7368D+04                  7894.3935    42.3322    37.9378
         ROT.     0.1147D+07                  1162.5158     2.9808    30.7078
         INT.     0.8451D+10                  9056.9093    45.3130    68.6455
         TRA.     0.2200D+28                  1937.5263     4.9680    41.8846
         TOT.                       47.873   10994.4356    50.2810   110.5302

 400.00  VIB.     0.9569D+04                  8323.4282    43.4722    39.0240
         ROT.     0.1191D+07                  1192.3239     2.9808    30.7832
         INT.     0.1140D+11                  9515.7521    46.4530    69.8072
         TRA.     0.2285D+28                  1987.2065     4.9680    42.0104
         TOT.                       48.382   11502.9586    51.4211   111.8176

   *: NOTE: HEATS OF FORMATION ARE RELATIVE TO THE
            ELEMENTS IN THEIR STANDARD STATE AT 298K
              (=  Standard Enthalpy of Formation).

            Hvib:  Zero-point energy is not included.
                   frequencies of less than zero cm-1 are not included.
            Hrot = (3/2)RT
            Htra = (3/2)RT + pV = (5/2)RT

            Heat capacity is Cp, not Cv

          For more information, see: HTTP://OpenMOPAC.net/Manual/thermochemistry.html


           FORCE CONSTANT IN CARTESIAN COORDINATES (Millidynes/A)

    ATOM   CHEMICAL       X               Y               Z
   NUMBER   SYMBOL  FORCE CONSTANT  FORCE CONSTANT  FORCE CONSTANT

      1       C        9.469106        8.809712        7.546849
      2       C        8.753572        8.762541        7.921085
      3       C       14.940922       10.333473        2.629974
      4       C       11.280050       13.376701        2.378003
      5       C       14.894256        9.663284        2.365421
      6       C       15.050595       10.046434        2.190752
      7       C       14.972533       10.243344        2.204598
      8       C       12.298229       13.165088        2.202580
      9       C       15.070699       10.174600        2.175783
     10       C       14.647699       10.653401        2.206148
     11       H        1.135679        1.576139        3.424648
     12       H        1.145121        1.581234        3.411812
     13       H        2.130945        0.749952        3.773767
     14       H        1.325517        4.786582        0.655171
     15       H        2.159228        0.760818        3.734726
     16       H        1.386295        4.520295        0.348668
     17       H        1.130875        4.738006        0.352776
     18       H        1.150633        4.722828        0.346445
     19       H        2.562991        3.355548        0.344397
     20       H        5.116365        0.804521        0.348408
     21       H        1.208660        4.628905        0.336741
     22       H        1.374128        4.511573        0.344130

 **********************
 *                    *
 * JOB ENDED NORMALLY *
 *                    *
 **********************



 TOTAL JOB TIME:            14.21 SECONDS

 == MOPAC DONE ==
