 *******************************************************************************
 ** Site#: 14399        For non-commercial use only    Version 18.184L 64BITS **
 *******************************************************************************
 ** Cite this program as: MOPAC2016, Version: 18.184L, James J. P. Stewart,   **
 ** Stewart Computational Chemistry, web: HTTP://OpenMOPAC.net. Days left:  19**
 *******************************************************************************
 **                                                                           **
 **                                MOPAC2016                                  **
 **                                                                           **
 *******************************************************************************

                              PM3 CALCULATION RESULTS

 *******************************************************************************
 *  CALCULATION DONE:                                Fri Jun 14 09:30:18 2019  *
 *  PM3        - The PM3 Hamiltonian to be used
 *  PRECISE    - CRITERIA TO BE INCREASED BY 100 TIMES
 *  NOSYM      - POINT-GROUP SYMMETRY SET TO C1
 *  THREADS=1  - MULTI-THREADING NOT USED
 *  T=         - A TIME OF 172800.0 SECONDS REQUESTED
 *  DUMP=N     - RESTART FILE WRITTEN EVERY  7200.000 SECONDS
 *******************************************************************************
pm3  precise nosym THREADS=1
 InChI=1S/C7H10/c1-3-6-5-7(6)4-2/h1,4,6-7H,2-3,5H2/lp1

   ATOM   CHEMICAL          X               Y               Z
  NUMBER   SYMBOL      (ANGSTROMS)     (ANGSTROMS)     (ANGSTROMS)
 
     1       C         -0.32210000  *  -0.56630000  *  -0.54200000  *
     2       C          0.09040000  *  -0.03970000  *   0.82960000  *
     3       C         -0.28900000  *  -1.50600000  *   0.65590000  *
     4       C         -1.72630000  *  -0.16800000  *  -1.00560000  *
     5       C          1.56330000  *   0.21570000  *   0.96740000  *
     6       C          2.14690000  *   1.23380000  *   0.33150000  *
     7       C         -1.65800000  *   1.11420000  *  -1.81640000  *
     8       H          0.48100000  *  -0.74530000  *  -1.29040000  *
     9       H         -0.64110000  *   0.60720000  *   1.35980000  *
    10       H          0.55950000  *  -2.22370000  *   0.64500000  *
    11       H         -1.27590000  *  -1.77140000  *   1.09180000  *
    12       H         -2.13040000  *  -0.97390000  *  -1.65270000  *
    13       H         -2.42660000  *  -0.02120000  *  -0.15420000  *
    14       H          2.15640000  *  -0.41690000  *   1.62110000  *
    15       H          1.57140000  *   1.89080000  *  -0.31400000  *
    16       H          3.20970000  *   1.41410000  *   0.45500000  *
    17       H         -1.30910000  *   1.95670000  *  -1.18170000  *
 


          CARTESIAN COORDINATES 

    NO.       ATOM           X           Y           Z

     1         C         -0.3221     -0.5663     -0.5420
     2         C          0.0904     -0.0397      0.8296
     3         C         -0.2890     -1.5060      0.6559
     4         C         -1.7263     -0.1680     -1.0056
     5         C          1.5633      0.2157      0.9674
     6         C          2.1469      1.2338      0.3315
     7         C         -1.6580      1.1142     -1.8164
     8         H          0.4810     -0.7453     -1.2904
     9         H         -0.6411      0.6072      1.3598
    10         H          0.5595     -2.2237      0.6450
    11         H         -1.2759     -1.7714      1.0918
    12         H         -2.1304     -0.9739     -1.6527
    13         H         -2.4266     -0.0212     -0.1542
    14         H          2.1564     -0.4169      1.6211
    15         H          1.5714      1.8908     -0.3140
    16         H          3.2097      1.4141      0.4550
    17         H         -1.3091      1.9567     -1.1817

  H: (PM3): J. J. P. STEWART, J. COMP. CHEM. 10, 209 (1989).
  C: (PM3): J. J. P. STEWART, J. COMP. CHEM. 10, 209 (1989).

           Empirical Formula: C7 H10  =    17 atoms



      MOLECULAR POINT GROUP   :   C1  


      RHF CALCULATION, NO. OF DOUBLY OCCUPIED LEVELS = 19


          Geometry optimization using EF

          DIAGONAL MATRIX USED AS START HESSIAN

 CYCLE:     1 TIME:   0.020 TIME LEFT:  2.00D  GRAD.:   102.109 HEAT:  139.4296
 CYCLE:     2 TIME:   0.035 TIME LEFT:  2.00D  GRAD.:   129.673 HEAT:  138.0594
 CYCLE:     3 TIME:   0.023 TIME LEFT:  2.00D  GRAD.:   130.643 HEAT:  137.2367
 CYCLE:     4 TIME:   0.023 TIME LEFT:  2.00D  GRAD.:   107.564 HEAT:  135.8934
 CYCLE:     5 TIME:   0.031 TIME LEFT:  2.00D  GRAD.:    58.122 HEAT:  133.4571
 CYCLE:     6 TIME:   0.035 TIME LEFT:  2.00D  GRAD.:    36.463 HEAT:  132.7043
 CYCLE:     7 TIME:   0.027 TIME LEFT:  2.00D  GRAD.:    27.494 HEAT:  132.1975
 CYCLE:     8 TIME:   0.023 TIME LEFT:  2.00D  GRAD.:    28.318 HEAT:  131.6607
 CYCLE:     9 TIME:   0.027 TIME LEFT:  2.00D  GRAD.:    29.991 HEAT:  131.3479
 CYCLE:    10 TIME:   0.027 TIME LEFT:  2.00D  GRAD.:    26.449 HEAT:  130.9081
 CYCLE:    11 TIME:   0.023 TIME LEFT:  2.00D  GRAD.:    38.623 HEAT:  130.6908
 CYCLE:    12 TIME:   0.023 TIME LEFT:  2.00D  GRAD.:    28.808 HEAT:  130.0938
 CYCLE:    13 TIME:   0.020 TIME LEFT:  2.00D  GRAD.:    52.194 HEAT:  129.7999
 CYCLE:    14 TIME:   0.027 TIME LEFT:  2.00D  GRAD.:    42.147 HEAT:  129.0454
 CYCLE:    15 TIME:   0.020 TIME LEFT:  2.00D  GRAD.:    50.808 HEAT:  128.8165
 CYCLE:    16 TIME:   0.023 TIME LEFT:  2.00D  GRAD.:    30.656 HEAT:  128.2009
 CYCLE:    17 TIME:   0.031 TIME LEFT:  2.00D  GRAD.:    30.472 HEAT:  128.0648
 CYCLE:    18 TIME:   0.027 TIME LEFT:  2.00D  GRAD.:     8.772 HEAT:  127.7860
 CYCLE:    19 TIME:   0.023 TIME LEFT:  2.00D  GRAD.:    13.134 HEAT:  127.6925
 CYCLE:    20 TIME:   0.023 TIME LEFT:  2.00D  GRAD.:    11.844 HEAT:  127.5735
 CYCLE:    21 TIME:   0.023 TIME LEFT:  2.00D  GRAD.:    11.851 HEAT:  127.4457
 CYCLE:    22 TIME:   0.020 TIME LEFT:  2.00D  GRAD.:    15.585 HEAT:  127.4045
 CYCLE:    23 TIME:   0.023 TIME LEFT:  2.00D  GRAD.:     9.882 HEAT:  127.2725
 CYCLE:    24 TIME:   0.023 TIME LEFT:  2.00D  GRAD.:     5.783 HEAT:  127.1952
 CYCLE:    25 TIME:   0.023 TIME LEFT:  2.00D  GRAD.:     4.324 HEAT:  127.1399
 CYCLE:    26 TIME:   0.023 TIME LEFT:  2.00D  GRAD.:     6.081 HEAT:  127.1041
 CYCLE:    27 TIME:   0.023 TIME LEFT:  2.00D  GRAD.:     4.941 HEAT:  127.0778
 CYCLE:    28 TIME:   0.020 TIME LEFT:  2.00D  GRAD.:     3.093 HEAT:  127.0579
 CYCLE:    29 TIME:   0.023 TIME LEFT:  2.00D  GRAD.:     3.244 HEAT:  127.0442
 CYCLE:    30 TIME:   0.023 TIME LEFT:  2.00D  GRAD.:     2.112 HEAT:  127.0364
 CYCLE:    31 TIME:   0.023 TIME LEFT:  2.00D  GRAD.:     2.298 HEAT:  127.0259
 CYCLE:    32 TIME:   0.023 TIME LEFT:  2.00D  GRAD.:     2.333 HEAT:  127.0154
 CYCLE:    33 TIME:   0.023 TIME LEFT:  2.00D  GRAD.:     2.064 HEAT:  127.0051
 CYCLE:    34 TIME:   0.023 TIME LEFT:  2.00D  GRAD.:     2.684 HEAT:  126.9968
 CYCLE:    35 TIME:   0.023 TIME LEFT:  2.00D  GRAD.:     1.924 HEAT:  126.9886
 CYCLE:    36 TIME:   0.020 TIME LEFT:  2.00D  GRAD.:     1.598 HEAT:  126.9820
 CYCLE:    37 TIME:   0.023 TIME LEFT:  2.00D  GRAD.:     1.337 HEAT:  126.9773
 CYCLE:    38 TIME:   0.023 TIME LEFT:  2.00D  GRAD.:     1.418 HEAT:  126.9724
 CYCLE:    39 TIME:   0.023 TIME LEFT:  2.00D  GRAD.:     1.448 HEAT:  126.9680
 CYCLE:    40 TIME:   0.113 TIME LEFT:  2.00D  GRAD.:     1.494 HEAT:  126.9625
 CYCLE:    41 TIME:   0.023 TIME LEFT:  2.00D  GRAD.:     1.694 HEAT:  126.9564
 CYCLE:    42 TIME:   0.023 TIME LEFT:  2.00D  GRAD.:     2.121 HEAT:  126.9473
 CYCLE:    43 TIME:   0.020 TIME LEFT:  2.00D  GRAD.:     2.604 HEAT:  126.9344
 CYCLE:    44 TIME:   0.023 TIME LEFT:  2.00D  GRAD.:     2.705 HEAT:  126.9168
 CYCLE:    45 TIME:   0.023 TIME LEFT:  2.00D  GRAD.:     1.725 HEAT:  126.9085
 CYCLE:    46 TIME:   0.023 TIME LEFT:  2.00D  GRAD.:     1.818 HEAT:  126.9021
 CYCLE:    47 TIME:   0.023 TIME LEFT:  2.00D  GRAD.:     1.138 HEAT:  126.8996
 CYCLE:    48 TIME:   0.020 TIME LEFT:  2.00D  GRAD.:     0.886 HEAT:  126.8964
 CYCLE:    49 TIME:   0.023 TIME LEFT:  2.00D  GRAD.:     1.006 HEAT:  126.8923
 CYCLE:    50 TIME:   0.023 TIME LEFT:  2.00D  GRAD.:     0.926 HEAT:  126.8893
 CYCLE:    51 TIME:   0.023 TIME LEFT:  2.00D  GRAD.:     0.767 HEAT:  126.8876
 CYCLE:    52 TIME:   0.023 TIME LEFT:  2.00D  GRAD.:     0.772 HEAT:  126.8860
 CYCLE:    53 TIME:   0.023 TIME LEFT:  2.00D  GRAD.:     0.786 HEAT:  126.8843
 CYCLE:    54 TIME:   0.020 TIME LEFT:  2.00D  GRAD.:     0.668 HEAT:  126.8829
 CYCLE:    55 TIME:   0.023 TIME LEFT:  2.00D  GRAD.:     0.572 HEAT:  126.8819
 CYCLE:    56 TIME:   0.023 TIME LEFT:  2.00D  GRAD.:     0.647 HEAT:  126.8810
 CYCLE:    57 TIME:   0.023 TIME LEFT:  2.00D  GRAD.:     0.919 HEAT:  126.8796
 CYCLE:    58 TIME:   0.027 TIME LEFT:  2.00D  GRAD.:     1.058 HEAT:  126.8777
 CYCLE:    59 TIME:   0.027 TIME LEFT:  2.00D  GRAD.:     1.484 HEAT:  126.8713
 CYCLE:    60 TIME:   0.023 TIME LEFT:  2.00D  GRAD.:     1.382 HEAT:  126.8686
 CYCLE:    61 TIME:   0.027 TIME LEFT:  2.00D  GRAD.:     2.966 HEAT:  126.8617
 CYCLE:    62 TIME:   0.023 TIME LEFT:  2.00D  GRAD.:     2.006 HEAT:  126.8567
 CYCLE:    63 TIME:   0.023 TIME LEFT:  2.00D  GRAD.:     3.864 HEAT:  126.8524
 CYCLE:    64 TIME:   0.020 TIME LEFT:  2.00D  GRAD.:     1.176 HEAT:  126.8464
 CYCLE:    65 TIME:   0.023 TIME LEFT:  2.00D  GRAD.:     0.974 HEAT:  126.8430
 CYCLE:    66 TIME:   0.031 TIME LEFT:  2.00D  GRAD.:     0.621 HEAT:  126.8398
 CYCLE:    67 TIME:   0.020 TIME LEFT:  2.00D  GRAD.:     1.210 HEAT:  126.8373
 CYCLE:    68 TIME:   0.023 TIME LEFT:  2.00D  GRAD.:     0.614 HEAT:  126.8360
 CYCLE:    69 TIME:   0.023 TIME LEFT:  2.00D  GRAD.:     0.560 HEAT:  126.8344
 CYCLE:    70 TIME:   0.020 TIME LEFT:  2.00D  GRAD.:     0.578 HEAT:  126.8330
 CYCLE:    71 TIME:   0.023 TIME LEFT:  2.00D  GRAD.:     0.578 HEAT:  126.8325
 CYCLE:    72 TIME:   0.023 TIME LEFT:  2.00D  GRAD.:     0.478 HEAT:  126.8319
 CYCLE:    73 TIME:   0.023 TIME LEFT:  2.00D  GRAD.:     0.390 HEAT:  126.8311
 CYCLE:    74 TIME:   0.023 TIME LEFT:  2.00D  GRAD.:     0.407 HEAT:  126.8306
 CYCLE:    75 TIME:   0.023 TIME LEFT:  2.00D  GRAD.:     0.377 HEAT:  126.8301
 CYCLE:    76 TIME:   0.023 TIME LEFT:  2.00D  GRAD.:     0.330 HEAT:  126.8297
 CYCLE:    77 TIME:   0.020 TIME LEFT:  2.00D  GRAD.:     0.311 HEAT:  126.8292
 CYCLE:    78 TIME:   0.023 TIME LEFT:  2.00D  GRAD.:     0.359 HEAT:  126.8287
 CYCLE:    79 TIME:   0.027 TIME LEFT:  2.00D  GRAD.:     0.347 HEAT:  126.8283
 CYCLE:    80 TIME:   0.027 TIME LEFT:  2.00D  GRAD.:     0.328 HEAT:  126.8280
 CYCLE:    81 TIME:   0.020 TIME LEFT:  2.00D  GRAD.:     0.267 HEAT:  126.8276
 CYCLE:    82 TIME:   0.023 TIME LEFT:  2.00D  GRAD.:     0.278 HEAT:  126.8274
 CYCLE:    83 TIME:   0.023 TIME LEFT:  2.00D  GRAD.:     0.322 HEAT:  126.8271
 CYCLE:    84 TIME:   0.023 TIME LEFT:  2.00D  GRAD.:     0.450 HEAT:  126.8265
 CYCLE:    85 TIME:   0.023 TIME LEFT:  2.00D  GRAD.:     0.478 HEAT:  126.8259
 CYCLE:    86 TIME:   0.023 TIME LEFT:  2.00D  GRAD.:     0.766 HEAT:  126.8239
 CYCLE:    87 TIME:   0.023 TIME LEFT:  2.00D  GRAD.:     0.593 HEAT:  126.8232
 CYCLE:    88 TIME:   0.020 TIME LEFT:  2.00D  GRAD.:     0.842 HEAT:  126.8216
 CYCLE:    89 TIME:   0.023 TIME LEFT:  2.00D  GRAD.:     0.881 HEAT:  126.8194
 CYCLE:    90 TIME:   0.023 TIME LEFT:  2.00D  GRAD.:     1.114 HEAT:  126.8164
 CYCLE:    91 TIME:   0.023 TIME LEFT:  2.00D  GRAD.:     1.249 HEAT:  126.8138
 CYCLE:    92 TIME:   0.023 TIME LEFT:  2.00D  GRAD.:     1.032 HEAT:  126.8105
 CYCLE:    93 TIME:   0.023 TIME LEFT:  2.00D  GRAD.:     1.326 HEAT:  126.8075
 CYCLE:    94 TIME:   0.020 TIME LEFT:  2.00D  GRAD.:     0.802 HEAT:  126.8057
 CYCLE:    95 TIME:   0.023 TIME LEFT:  2.00D  GRAD.:     0.556 HEAT:  126.8044
 CYCLE:    96 TIME:   0.023 TIME LEFT:  2.00D  GRAD.:     0.285 HEAT:  126.8039
 CYCLE:    97 TIME:   0.023 TIME LEFT:  2.00D  GRAD.:     0.159 HEAT:  126.8038
 CYCLE:    98 TIME:   0.023 TIME LEFT:  2.00D  GRAD.:     0.132 HEAT:  126.8037
 CYCLE:    99 TIME:   0.020 TIME LEFT:  2.00D  GRAD.:     0.058 HEAT:  126.8036
 CYCLE:   100 TIME:   0.023 TIME LEFT:  2.00D  GRAD.:     0.219 HEAT:  126.8037
 CYCLE:   101 TIME:   0.027 TIME LEFT:  2.00D  GRAD.:     0.043 HEAT:  126.8036

     GRADIENT =  0.04305  IS LESS THAN CUTOFF =  0.05000



 -------------------------------------------------------------------------------
 pm3  precise nosym THREADS=1
 InChI=1S/C7H10/c1-3-6-5-7(6)4-2/h1,4,6-7H,2-3,5H2/lp1



     GEOMETRY OPTIMISED USING EIGENVECTOR FOLLOWING (EF).     
     SCF FIELD WAS ACHIEVED                                   


                              PM3 CALCULATION
                                                       MOPAC2016 (Version: 18.184L)
                                                       Fri Jun 14 09:30:21 2019
                                                       No. of days remaining =  19




          FINAL HEAT OF FORMATION =        126.80362 KCAL/MOL =     530.54634 KJ/MOL


          TOTAL ENERGY            =       -978.31097 EV
          ELECTRONIC ENERGY       =      -4445.31793 EV  POINT GROUP:     C1  
          CORE-CORE REPULSION     =       3467.00696 EV
          COSMO AREA              =        154.41 SQUARE ANGSTROMS
          COSMO VOLUME            =        150.40 CUBIC ANGSTROMS

          GRADIENT NORM           =          0.04305 = 0.01044 PER ATOM
          IONIZATION POTENTIAL    =          8.704967 EV
          HOMO LUMO ENERGIES (EV) =         -8.705 -0.583
          NO. OF FILLED LEVELS    =         19
          MOLECULAR WEIGHT        =         94.1560

          MOLECULAR DIMENSIONS (Angstroms)

            Atom       Atom       Distance
            H    16    H    12     6.21572
            H    17    H    10     4.79790
            H     8    H     9     3.10546


          SCF CALCULATIONS        =        107
 
          WALL-CLOCK TIME         =          2.539 SECONDS
          COMPUTATION TIME        =          1.008 SECONDS




   ATOM   CHEMICAL          X               Y               Z
  NUMBER   SYMBOL      (ANGSTROMS)     (ANGSTROMS)     (ANGSTROMS)
 
     1       C         -0.35261866  *  -0.50145962  *  -0.51321079  *
     2       C          0.11589284  *  -0.09790210  *   0.86400499  *
     3       C         -0.21407359  *  -1.53350404  *   0.56935046  *
     4       C         -1.71893510  *  -0.08643383  *  -0.98090216  *
     5       C          1.51768991  *   0.29903886  *   1.09234835  *
     6       C          2.16728290  *   1.15202639  *   0.30936978  *
     7       C         -1.85352431  *   1.13688207  *  -1.72367698  *
     8       H          0.38979655  *  -0.50186130  *  -1.33406100  *
     9       H         -0.57218538  *   0.47987585  *   1.51067842  *
    10       H          0.58661254  *  -2.27890639  *   0.50847132  *
    11       H         -1.10924509  *  -1.98470004  *   1.01253687  *
    12       H         -2.16144922  *  -0.85650728  *  -1.65298676  *
    13       H         -2.44518452  *   0.00460049  *  -0.14170749  *
    14       H          1.98947622  *  -0.14753294  *   1.97572496  *
    15       H          1.71916379  *   1.60298253  *  -0.57272710  *
    16       H          3.19196707  *   1.45698576  *   0.49734366  *
    17       H         -0.89872678  *   1.64821693  *  -1.90323099  *

                             CARTESIAN COORDINATES

   1    C       -0.352618661    -0.501459621    -0.513210788
   2    C        0.115892839    -0.097902096     0.864004987
   3    C       -0.214073592    -1.533504044     0.569350465
   4    C       -1.718935097    -0.086433827    -0.980902164
   5    C        1.517689906     0.299038863     1.092348352
   6    C        2.167282904     1.152026387     0.309369776
   7    C       -1.853524305     1.136882073    -1.723676984
   8    H        0.389796546    -0.501861303    -1.334061002
   9    H       -0.572185379     0.479875845     1.510678423
  10    H        0.586612543    -2.278906386     0.508471316
  11    H       -1.109245091    -1.984700035     1.012536871
  12    H       -2.161449220    -0.856507284    -1.652986762
  13    H       -2.445184517     0.004600492    -0.141707490
  14    H        1.989476222    -0.147532936     1.975724963
  15    H        1.719163787     1.602982533    -0.572727101
  16    H        3.191967067     1.456985764     0.497343660
  17    H       -0.898726778     1.648216927    -1.903230989


           Empirical Formula: C7 H10  =    17 atoms



      MOLECULAR POINT GROUP   :   C1  


                  EIGENVALUES  
 -40.71194 -33.18859 -30.27688 -23.09545 -21.72242 -20.26658 -19.35797 -17.01177
 -16.84460 -15.91263 -14.46467 -14.17815 -13.39412 -13.02197 -12.35034 -12.08416
 -11.36908 -10.33953  -8.70497  -0.58337   0.96397   2.51942   2.79213   2.93914
   3.21979   3.39588   3.54526   3.59269   3.78217   3.99249   4.20995   4.34370
   4.43280   4.66259   4.70402   5.12893   5.46224   5.67018


              NET ATOMIC CHARGES AND DIPOLE CONTRIBUTIONS

  ATOM NO.   TYPE          CHARGE      No. of ELECS.   s-Pop       p-Pop       
    1          C          -0.159327        4.1593     1.18429     2.97504
    2          C          -0.102413        4.1024     1.16447     2.93794
    3          C          -0.140320        4.1403     1.16312     2.97720
    4          C          -0.195856        4.1959     1.17149     3.02437
    5          C          -0.113963        4.1140     1.18525     2.92872
    6          C          -0.157630        4.1576     1.18165     2.97598
    7          C           0.028483        3.9715     1.65107     2.32045
    8          H           0.103328        0.8967     0.89667
    9          H           0.102340        0.8977     0.89766
   10          H           0.082989        0.9170     0.91701
   11          H           0.078995        0.9210     0.92100
   12          H           0.123123        0.8769     0.87688
   13          H           0.119230        0.8808     0.88077
   14          H           0.101501        0.8985     0.89850
   15          H           0.083799        0.9162     0.91620
   16          H           0.082042        0.9180     0.91796
   17          H          -0.036317        1.0363     1.03632
 DIPOLE           X         Y         Z       TOTAL
 POINT-CHG.    -0.628    -0.652     0.308     0.956
 HYBRID         1.733    -0.748     0.667     2.002
 SUM            1.105    -1.401     0.975     2.033


          ATOMIC ORBITAL ELECTRON POPULATIONS

     Atom    s        px        py        pz   
    1  C   1.18429   0.98824   1.04831   0.93849
    2  C   1.16447   0.96894   0.98458   0.98442
    3  C   1.16312   1.03290   0.92346   1.02085
    4  C   1.17149   0.95342   1.04620   1.02475
    5  C   1.18525   0.94743   0.98808   0.99321
    6  C   1.18165   0.99694   0.98500   0.99405
    7  C   1.65107   1.24341   0.70649   0.37055
    8  H   0.89667
    9  H   0.89766
   10  H   0.91701
   11  H   0.92100
   12  H   0.87688
   13  H   0.88077
   14  H   0.89850
   15  H   0.91620
   16  H   0.91796
   17  H   1.03632
 *******************************************************************************
 ** Site#: 14399        For non-commercial use only    Version 18.184L 64BITS **
 *******************************************************************************
 ** Cite this program as: MOPAC2016, Version: 18.184L, James J. P. Stewart,   **
 ** Stewart Computational Chemistry, web: HTTP://OpenMOPAC.net. Days left:  19**
 *******************************************************************************
 **                                                                           **
 **                                MOPAC2016                                  **
 **                                                                           **
 *******************************************************************************

                              PM3 CALCULATION RESULTS

 *******************************************************************************
 *  CALCULATION DONE:                                Fri Jun 14 09:30:21 2019  *
 *  PM3        - The PM3 Hamiltonian to be used
 *  OLDGEO     - PREVIOUS GEOMETRY TO BE USED
 *  PRECISE    - CRITERIA TO BE INCREASED BY 100 TIMES
 *  NOSYM      - POINT-GROUP SYMMETRY SET TO C1
 *  THREADS=1  - MULTI-THREADING NOT USED
 *  T=         - A TIME OF 172800.0 SECONDS REQUESTED
 *  DUMP=N     - RESTART FILE WRITTEN EVERY  7200.000 SECONDS
 *  THERMO     - THERMODYNAMIC QUANTITIES TO BE CALCULATED
 *******************************************************************************
oldgeo thermo nosym precise THREADS=1  pm3
 InChI=1S/C7H10/c1-3-6-5-7(6)4-2/h1,4,6-7H,2-3,5H2/lp1

   ATOM   CHEMICAL          X               Y               Z
  NUMBER   SYMBOL      (ANGSTROMS)     (ANGSTROMS)     (ANGSTROMS)
 
     1       C         -0.35261866  *  -0.50145962  *  -0.51321079  *
     2       C          0.11589284  *  -0.09790210  *   0.86400499  *
     3       C         -0.21407359  *  -1.53350404  *   0.56935046  *
     4       C         -1.71893510  *  -0.08643383  *  -0.98090216  *
     5       C          1.51768991  *   0.29903886  *   1.09234835  *
     6       C          2.16728290  *   1.15202639  *   0.30936978  *
     7       C         -1.85352431  *   1.13688207  *  -1.72367698  *
     8       H          0.38979655  *  -0.50186130  *  -1.33406100  *
     9       H         -0.57218538  *   0.47987585  *   1.51067842  *
    10       H          0.58661254  *  -2.27890639  *   0.50847132  *
    11       H         -1.10924509  *  -1.98470004  *   1.01253687  *
    12       H         -2.16144922  *  -0.85650728  *  -1.65298676  *
    13       H         -2.44518452  *   0.00460049  *  -0.14170749  *
    14       H          1.98947622  *  -0.14753294  *   1.97572496  *
    15       H          1.71916379  *   1.60298253  *  -0.57272710  *
    16       H          3.19196707  *   1.45698576  *   0.49734366  *
    17       H         -0.89872678  *   1.64821693  *  -1.90323099  *
 


          CARTESIAN COORDINATES 

    NO.       ATOM           X           Y           Z

     1         C         -0.3526     -0.5015     -0.5132
     2         C          0.1159     -0.0979      0.8640
     3         C         -0.2141     -1.5335      0.5694
     4         C         -1.7189     -0.0864     -0.9809
     5         C          1.5177      0.2990      1.0923
     6         C          2.1673      1.1520      0.3094
     7         C         -1.8535      1.1369     -1.7237
     8         H          0.3898     -0.5019     -1.3341
     9         H         -0.5722      0.4799      1.5107
    10         H          0.5866     -2.2789      0.5085
    11         H         -1.1092     -1.9847      1.0125
    12         H         -2.1614     -0.8565     -1.6530
    13         H         -2.4452      0.0046     -0.1417
    14         H          1.9895     -0.1475      1.9757
    15         H          1.7192      1.6030     -0.5727
    16         H          3.1920      1.4570      0.4973
    17         H         -0.8987      1.6482     -1.9032

  H: (PM3): J. J. P. STEWART, J. COMP. CHEM. 10, 209 (1989).
  C: (PM3): J. J. P. STEWART, J. COMP. CHEM. 10, 209 (1989).

           Empirical Formula: C7 H10  =    17 atoms



      MOLECULAR POINT GROUP   :   C1  


      RHF CALCULATION, NO. OF DOUBLY OCCUPIED LEVELS = 19



          HEAT OF FORMATION =     126.803618 KCALS/MOLE


          CARTESIAN COORDINATE DERIVATIVES

   NUMBER  ATOM         X            Y            Z

     1       C     -0.003070     0.002233    -0.006483
     2       C     -0.003844     0.003673     0.002648
     3       C     -0.005679     0.002359    -0.002574
     4       C     -0.003816    -0.014938    -0.001000
     5       C     -0.010573    -0.008958     0.001559
     6       C      0.010343    -0.001003    -0.009204
     7       C      0.014173     0.008567    -0.005318
     8       H      0.007859     0.003299     0.008734
     9       H      0.002576    -0.004282    -0.000629
    10       H      0.000489     0.002748     0.004315
    11       H     -0.000089     0.001271    -0.001441
    12       H      0.002823    -0.008595    -0.001462
    13       H     -0.004399    -0.001742     0.004812
    14       H      0.009163     0.004512     0.003814
    15       H     -0.000065    -0.000599     0.003031
    16       H     -0.003403    -0.000694     0.002321
    17       H     -0.012488     0.012148    -0.003121
 


          GRADIENT NORM =   0.04310


          TIME FOR SCF CALCULATION =    0.02

          TIME FOR DERIVATIVES     =    0.01

          MOLECULAR WEIGHT =   94.16



          ROTATIONAL CONSTANTS IN CM(-1)

          A =    0.14364510   B =    0.06265451   C =    0.04757130



           PRINCIPAL MOMENTS OF INERTIA IN UNITS OF 10**(-40)*GRAM-CM**2

          A =      194.8746   B =      446.7798   C =      588.4383


          ORIENTATION OF MOLECULE IN FORCE CALCULATION

    NO.       ATOM         X         Y         Z

     1          C      -0.6660    0.3980   -0.0853
     2          C       0.8437    0.3980   -0.0853
     3          C       0.0887    1.6967   -0.0853
     4          C      -1.4057   -0.0376   -1.3186
     5          C       1.5931   -0.0131    1.1164
     6          C       1.3085   -1.1089    1.8098
     7          C      -1.7981   -1.4152   -1.4392
     8          H      -1.1845    0.0946    0.8442
     9          H       1.3745    0.0960   -1.0086
    10          H       0.0824    2.3274    0.8106
    11          H       0.0946    2.3257   -0.9829
    12          H      -2.3620    0.5226   -1.4288
    13          H      -0.8412    0.1841   -2.2525
    14          H       2.4261    0.6444    1.3925
    15          H       0.4852   -1.7719    1.5550
    16          H       1.8795   -1.4170    2.6801
    17          H      -1.5289   -2.0258   -0.5674


    FIRST DERIVATIVES WILL BE USED IN THE CALCULATION OF SECOND DERIVATIVES

          ESTIMATED TIME TO COMPLETE CALCULATION =        7.17 SECONDS

    FOR POINT-GROUP C1   THERE ARE   1 UNIQUE SYMMETRY FUNCTIONS.

 STEP:   1 TIME =     0.04 SECS, INTEGRAL =      0.04 TIME LEFT: 172799.92
 STEP:   2 TIME =     0.04 SECS, INTEGRAL =      0.08 TIME LEFT: 172799.89
 STEP:   3 TIME =     0.04 SECS, INTEGRAL =      0.12 TIME LEFT: 172799.85
 STEP:   4 TIME =     0.04 SECS, INTEGRAL =      0.15 TIME LEFT: 172799.81
 STEP:   5 TIME =     0.04 SECS, INTEGRAL =      0.19 TIME LEFT: 172799.78
 STEP:   6 TIME =     0.04 SECS, INTEGRAL =      0.23 TIME LEFT: 172799.74
 STEP:   7 TIME =     0.04 SECS, INTEGRAL =      0.27 TIME LEFT: 172799.70
 STEP:   8 TIME =     0.04 SECS, INTEGRAL =      0.30 TIME LEFT: 172799.66
 STEP:   9 TIME =     0.04 SECS, INTEGRAL =      0.34 TIME LEFT: 172799.62
 STEP:  10 TIME =     0.03 SECS, INTEGRAL =      0.37 TIME LEFT: 172799.59
 STEP:  11 TIME =     0.03 SECS, INTEGRAL =      0.40 TIME LEFT: 172799.56
 STEP:  12 TIME =     0.03 SECS, INTEGRAL =      0.43 TIME LEFT: 172799.54
 STEP:  13 TIME =     0.03 SECS, INTEGRAL =      0.46 TIME LEFT: 172799.50
 STEP:  14 TIME =     0.03 SECS, INTEGRAL =      0.49 TIME LEFT: 172799.48
 STEP:  15 TIME =     0.03 SECS, INTEGRAL =      0.52 TIME LEFT: 172799.45
 STEP:  16 TIME =     0.03 SECS, INTEGRAL =      0.54 TIME LEFT: 172799.42
 STEP:  17 TIME =     0.03 SECS, INTEGRAL =      0.57 TIME LEFT: 172799.39
 STEP:  18 TIME =     0.03 SECS, INTEGRAL =      0.61 TIME LEFT: 172799.36
 STEP:  19 TIME =     0.04 SECS, INTEGRAL =      0.64 TIME LEFT: 172799.32
 STEP:  20 TIME =     0.04 SECS, INTEGRAL =      0.68 TIME LEFT: 172799.28
 STEP:  21 TIME =     0.04 SECS, INTEGRAL =      0.72 TIME LEFT: 172799.24
 STEP:  22 TIME =     0.04 SECS, INTEGRAL =      0.76 TIME LEFT: 172799.20
 STEP:  23 TIME =     0.03 SECS, INTEGRAL =      0.79 TIME LEFT: 172799.17
 STEP:  24 TIME =     0.03 SECS, INTEGRAL =      0.82 TIME LEFT: 172799.14
 STEP:  25 TIME =     0.03 SECS, INTEGRAL =      0.86 TIME LEFT: 172799.11
 STEP:  26 TIME =     0.03 SECS, INTEGRAL =      0.88 TIME LEFT: 172799.08
 STEP:  27 TIME =     0.03 SECS, INTEGRAL =      0.91 TIME LEFT: 172799.05
 STEP:  28 TIME =     0.03 SECS, INTEGRAL =      0.95 TIME LEFT: 172799.02
 STEP:  29 TIME =     0.03 SECS, INTEGRAL =      0.98 TIME LEFT: 172798.99
 STEP:  30 TIME =     0.03 SECS, INTEGRAL =      1.00 TIME LEFT: 172798.96
 STEP:  31 TIME =     0.03 SECS, INTEGRAL =      1.04 TIME LEFT: 172798.93
 STEP:  32 TIME =     0.04 SECS, INTEGRAL =      1.08 TIME LEFT: 172798.89
 STEP:  33 TIME =     0.04 SECS, INTEGRAL =      1.12 TIME LEFT: 172798.85
 STEP:  34 TIME =     0.04 SECS, INTEGRAL =      1.16 TIME LEFT: 172798.81
 STEP:  35 TIME =     0.03 SECS, INTEGRAL =      1.19 TIME LEFT: 172798.78
 STEP:  36 TIME =     0.04 SECS, INTEGRAL =      1.22 TIME LEFT: 172798.74
 STEP:  37 TIME =     0.04 SECS, INTEGRAL =      1.26 TIME LEFT: 172798.71
 STEP:  38 TIME =     0.04 SECS, INTEGRAL =      1.29 TIME LEFT: 172798.67
 STEP:  39 TIME =     0.03 SECS, INTEGRAL =      1.32 TIME LEFT: 172798.64
 STEP:  40 TIME =     0.04 SECS, INTEGRAL =      1.36 TIME LEFT: 172798.61
 STEP:  41 TIME =     0.04 SECS, INTEGRAL =      1.39 TIME LEFT: 172798.57
 STEP:  42 TIME =     0.04 SECS, INTEGRAL =      1.43 TIME LEFT: 172798.54
 STEP:  43 TIME =     0.04 SECS, INTEGRAL =      1.47 TIME LEFT: 172798.50
 STEP:  44 TIME =     0.04 SECS, INTEGRAL =      1.50 TIME LEFT: 172798.46
 STEP:  45 TIME =     0.03 SECS, INTEGRAL =      1.54 TIME LEFT: 172798.43
 STEP:  46 TIME =     0.03 SECS, INTEGRAL =      1.57 TIME LEFT: 172798.40
 STEP:  47 TIME =     0.03 SECS, INTEGRAL =      1.59 TIME LEFT: 172798.37
 STEP:  48 TIME =     0.03 SECS, INTEGRAL =      1.62 TIME LEFT: 172798.34
 STEP:  49 TIME =     0.03 SECS, INTEGRAL =      1.66 TIME LEFT: 172798.31
 STEP:  50 TIME =     0.03 SECS, INTEGRAL =      1.69 TIME LEFT: 172798.28
 STEP:  51 TIME =     0.03 SECS, INTEGRAL =      1.71 TIME LEFT: 172798.25

(To convert to Hartree/Bohr^2, multiply by (10^(-21) x N x a0^2)/(4.184 x 627.51) =  0.0642)


           FORCE MATRIX IN MILLIDYNES/ANGSTROM


                  C  1       C  2       C  3       C  4       C  5       C  6
 ------------------------------------------------------------------------------
     C    1  15.488604
     C    2   4.586951  15.855256
     C    3   4.909041   4.892310  15.347160
     C    4   4.479660   0.536171   0.536175  14.525128
     C    5   0.557590   5.327873   0.576951   0.046707  18.359454
     C    6   0.035216   0.860333   0.048903   0.005357  11.078580  18.031939
     C    7   0.773581   0.024531   0.066975   6.120624   0.006347   0.003487
     H    8   4.534084   0.444730   0.439127   0.413848   0.017419   0.009061
     H    9   0.445624   4.505260   0.447454   0.022895   0.393144   0.025963
     H   10   0.458924   0.466090   4.839609   0.041437   0.024716   0.004800
     H   11   0.465857   0.454982   4.817766   0.023585   0.044336   0.007309
     H   12   0.419951   0.042753   0.013567   4.262473   0.007654   0.000924
     H   13   0.438493   0.025877   0.019451   4.267122   0.003111   0.000874
     H   14   0.039608   0.429812   0.014085   0.006927   4.797067   0.458214
     H   15   0.011275   0.101094   0.008438   0.003522   0.493652   5.056690
     H   16   0.006804   0.138487   0.015267   0.001244   0.459853   5.114906
     H   17   0.052213   0.007435   0.007506   0.570857   0.002862   0.003040


                  C  7       H  8       H  9       H 10       H 11       H 12
 ------------------------------------------------------------------------------
     C    7   9.301745
     H    8   0.029135   5.057482
     H    9   0.006409   0.034931   5.020619
     H   10   0.008860   0.021142   0.039133   5.440020
     H   11   0.006890   0.038056   0.021353   0.489567   5.423199
     H   12   0.321872   0.022331   0.003175   0.002923   0.002713   4.878450
     H   13   0.331595   0.037152   0.019502   0.001776   0.010210   0.581975
     H   14   0.001806   0.003364   0.013975   0.004302   0.002559   0.001337
     H   15   0.006019   0.011815   0.011445   0.000962   0.001625   0.000726
     H   16   0.001419   0.001686   0.015591   0.001154   0.002242   0.000286
     H   17   4.766485   0.018563   0.001919   0.000966   0.001841   0.070140


                  H 13       H 14       H 15       H 16       H 17
 ------------------------------------------------------------------
     H   13   4.891529
     H   14   0.000765   5.158515
     H   15   0.000679   0.117691   5.437090
     H   16   0.000478   0.078412   0.414686   5.496376
     H   17   0.073006   0.000755   0.012740   0.000824   4.872575


          HEAT OF FORMATION =     126.803618 KCALS/MOLE

          ZERO POINT ENERGY      89.097 KCAL/MOL


           NORMAL COORDINATE ANALYSIS (Total motion = 1 Angstrom)


   Root No.       1         2         3         4         5         6         7         8

                 1 A       2 A       3 A       4 A       5 A       6 A       7 A       8 A   

                  48.4      93.7     132.5     245.3     277.8     347.3     389.5     469.3
  
           1   -0.0119    0.0020   -0.0142    0.0383   -0.0093   -0.0076   -0.0106   -0.0083
           2    0.0274   -0.0241   -0.0023   -0.0297    0.0068    0.0014   -0.0116    0.0426
           3    0.0111    0.0075    0.0026   -0.0010   -0.0012    0.0438    0.0372   -0.0023
           4   -0.0118    0.0023   -0.0136    0.0393   -0.0097   -0.0075   -0.0122   -0.0068
           5   -0.0119   -0.0168   -0.0307    0.0130    0.0003    0.0112   -0.0330    0.0011
           6   -0.0061   -0.0136    0.0139   -0.0108    0.0046    0.0253   -0.0312   -0.0031
           7    0.0219   -0.0045    0.0113    0.0038   -0.0050   -0.0129    0.0081    0.0510
           8    0.0077   -0.0203   -0.0167   -0.0089    0.0035    0.0070   -0.0235    0.0258
           9   -0.0246    0.0204   -0.0282   -0.0081    0.0048   -0.0357    0.0128    0.0368
          10   -0.0360   -0.0177   -0.0197   -0.0180   -0.0070    0.0224    0.0235   -0.0059
          11    0.0144    0.0115    0.0150   -0.0057    0.0035   -0.0147    0.0105   -0.0462
          12    0.0304    0.0063   -0.0015    0.0264   -0.0021    0.0312    0.0130    0.0175
          13   -0.0135    0.0286   -0.0140   -0.0023    0.0017    0.0225   -0.0140   -0.0028
          14   -0.0121   -0.0114    0.0194    0.0257   -0.0067    0.0016    0.0210    0.0091
          15   -0.0050   -0.0279    0.0318    0.0223   -0.0055    0.0020   -0.0174   -0.0067
          16   -0.0201   -0.0074    0.0640   -0.0287    0.0053   -0.0091   -0.0150   -0.0014
          17   -0.0113    0.0455   -0.0057    0.0064   -0.0025   -0.0026    0.0210    0.0100
          18   -0.0064    0.0467    0.0235   -0.0181    0.0024   -0.0161   -0.0204   -0.0075
          19    0.0716   -0.0031   -0.0217   -0.0316   -0.0169   -0.0053    0.0213   -0.0280
          20   -0.0142    0.0124    0.0200    0.0022    0.0032    0.0033    0.0138   -0.0370
          21    0.0020   -0.0456   -0.0398   -0.0108    0.0175   -0.0358    0.0035   -0.0394
          22   -0.0085    0.0153   -0.0274    0.0722   -0.0204   -0.0126   -0.0029   -0.0216
          23    0.0598   -0.0466    0.0236   -0.0527    0.0127    0.0364   -0.0209    0.0834
          24    0.0234    0.0075    0.0026    0.0115   -0.0060    0.0502    0.0366    0.0035
          25   -0.0295   -0.0100   -0.0145    0.0622   -0.0115   -0.0269   -0.0477   -0.0277
          26   -0.0439   -0.0021   -0.0729    0.0272    0.0019   -0.0231   -0.0656   -0.0107
          27   -0.0056   -0.0252    0.0273   -0.0003    0.0024    0.0236   -0.0394   -0.0112
          28    0.0483    0.0069    0.0217   -0.0058   -0.0071   -0.0070    0.0795    0.0795
          29    0.0267   -0.0368    0.0092   -0.0044    0.0006    0.0693   -0.0383   -0.0278
          30   -0.0378    0.0321   -0.0464   -0.0114    0.0069   -0.0810    0.0243    0.0775
          31    0.0289   -0.0220    0.0260   -0.0231    0.0014   -0.0287   -0.0395    0.0966
          32   -0.0112   -0.0037   -0.0422   -0.0134    0.0066   -0.0546   -0.0105    0.0803
          33   -0.0379    0.0319   -0.0462   -0.0116    0.0072   -0.0806    0.0224    0.0780
          34   -0.0786   -0.0248   -0.0161   -0.0097    0.1114    0.0379    0.0510   -0.0162
          35   -0.0480    0.0073    0.0238    0.0199    0.1705    0.0044    0.0426   -0.0683
          36    0.0886    0.0471    0.0121    0.0853   -0.1192   -0.0088   -0.0479   -0.0128
          37   -0.0915   -0.0387   -0.0220   -0.0579    0.0881    0.0630    0.0826   -0.0022
          38    0.0808    0.0527    0.0288    0.0000   -0.2097   -0.0254   -0.0208   -0.0716
          39    0.0122    0.0031   -0.0003    0.0032   -0.0015    0.0509    0.0392    0.0128
          40   -0.0115    0.0825   -0.0731   -0.0398    0.0139    0.0640   -0.0652   -0.0178
          41   -0.0153   -0.0489    0.0859    0.0452   -0.0151   -0.0412    0.0718    0.0253
          42   -0.0037   -0.1002    0.0532    0.0862   -0.0217   -0.0249    0.0136    0.0003
          43   -0.0227   -0.0576    0.1230    0.0032   -0.0060   -0.0572    0.0315    0.0125
          44   -0.0070    0.0793   -0.0722   -0.0050    0.0046    0.0533   -0.0169   -0.0009
          45   -0.0101    0.1215    0.0081   -0.0940    0.0199   -0.0077   -0.0733   -0.0231
          46   -0.0240    0.0121    0.0749   -0.0874    0.0198    0.0039   -0.0672   -0.0165
          47   -0.0150    0.0619    0.0401   -0.0017   -0.0054   -0.0644    0.0591    0.0227
          48   -0.0052    0.0398    0.0326    0.0171   -0.0081   -0.0469    0.0266    0.0065
          49    0.1870    0.0333    0.0018    0.0777    0.2978   -0.0661   -0.0337   -0.0598
          50   -0.0255   -0.0254   -0.0116   -0.0537   -0.0622   -0.0419    0.0212   -0.0969
          51   -0.0413   -0.0837   -0.0697   -0.0840   -0.1254   -0.0501    0.0260   -0.0740


   Root No.       9        10        11        12        13        14        15        16

                 9 A      10 A      11 A      12 A      13 A      14 A      15 A      16 A   

                 508.7     652.8     687.0     843.0     874.2     916.9     930.1     945.9
  
           1   -0.0201    0.0136   -0.0019    0.0106   -0.0108    0.0180    0.0051   -0.0106
           2   -0.0063   -0.0129    0.0032   -0.0166   -0.0155   -0.0070   -0.0029   -0.0004
           3   -0.0134    0.0005    0.0088   -0.0096    0.0196   -0.0055    0.0066    0.0087
           4   -0.0085   -0.0041   -0.0197   -0.0152   -0.0061   -0.0164   -0.0049    0.0247
           5   -0.0270   -0.0061   -0.0082   -0.0103    0.0185   -0.0001    0.0020    0.0105
           6    0.0354   -0.0170    0.0081    0.0186    0.0191    0.0103    0.0004    0.0006
           7    0.0127    0.0172   -0.0081    0.0064    0.0286   -0.0001    0.0001   -0.0015
           8   -0.0271   -0.0056    0.0058   -0.0086   -0.0007    0.0222    0.0132   -0.0222
           9    0.0125    0.0037    0.0014    0.0037    0.0217   -0.0055    0.0002   -0.0133
          10   -0.0190    0.0169    0.0758    0.0086   -0.0107    0.0036    0.0023   -0.0043
          11    0.0082   -0.0028   -0.0162    0.0010    0.0002   -0.0026   -0.0036   -0.0004
          12   -0.0289    0.0033   -0.0214    0.0229   -0.0257   -0.0041   -0.0101   -0.0014
          13    0.0480   -0.0576    0.0002   -0.0170   -0.0088   -0.0131    0.0179    0.0036
          14    0.0374    0.0320   -0.0043    0.0040    0.0031    0.0098   -0.0167    0.0073
          15    0.0243    0.0168   -0.0125   -0.0203   -0.0092    0.0099   -0.0159    0.0055
          16   -0.0051   -0.0014   -0.0022   -0.0088   -0.0084   -0.0024    0.0067   -0.0160
          17    0.0200    0.0029    0.0027    0.0105    0.0050    0.0008   -0.0050    0.0002
          18   -0.0291   -0.0100   -0.0038   -0.0189   -0.0132    0.0004    0.0005   -0.0157
          19   -0.0008   -0.0037   -0.0417    0.0090   -0.0110   -0.0003   -0.0103   -0.0087
          20   -0.0039    0.0041    0.0193    0.0085   -0.0198   -0.0210   -0.0324   -0.0116
          21    0.0094    0.0045    0.0239    0.0021   -0.0034   -0.0076   -0.0106   -0.0043
          22   -0.0658    0.0309   -0.0487   -0.0017    0.0214    0.0181   -0.0136   -0.0744
          23    0.0182   -0.0393    0.0239    0.0205   -0.0934   -0.0271    0.0340    0.1419
          24   -0.0309    0.0022   -0.0115   -0.0017    0.0105   -0.0114    0.0080    0.0185
          25   -0.0172    0.0238   -0.0555    0.0123    0.0312   -0.0575   -0.0515    0.0391
          26   -0.0653   -0.0376   -0.0402    0.0389    0.0851   -0.1127   -0.0139    0.0035
          27    0.0422    0.0106   -0.0029    0.0156    0.0178    0.0238   -0.0222    0.0120
          28   -0.0032    0.0675   -0.0077   -0.2226    0.1155    0.0334   -0.0106   -0.0155
          29   -0.0377   -0.0329    0.0080    0.0053    0.1133   -0.0128    0.0148   -0.0873
          30    0.0208    0.0242   -0.0004   -0.0092   -0.0633    0.0210   -0.0007    0.0363
          31    0.0620   -0.0121   -0.0063    0.2557    0.0416   -0.0427    0.0038   -0.0288
          32   -0.0163    0.0168    0.0015   -0.0267   -0.1142    0.0554    0.0167    0.0438
          33    0.0211    0.0209   -0.0015   -0.0073   -0.0635    0.0197    0.0026    0.0360
          34   -0.0275    0.0087   -0.0285    0.0354   -0.0045    0.0760    0.0770    0.0082
          35   -0.0035   -0.0098   -0.1554    0.0531    0.0094    0.1425    0.1424    0.0184
          36   -0.0164    0.0328    0.1053    0.0594   -0.0310    0.1143    0.0880   -0.0196
          37   -0.0308   -0.0019   -0.0348    0.0020    0.0135   -0.0382    0.0022    0.0478
          38    0.0232    0.0205    0.1544   -0.0067    0.0557    0.0210    0.0926    0.0820
          39   -0.0308   -0.0016   -0.0407    0.0164    0.0029   -0.0238    0.0125    0.0494
          40    0.0680   -0.0117   -0.0078   -0.0168    0.0157    0.0998   -0.1361    0.0496
          41    0.0210   -0.0021    0.0081    0.0169   -0.0217   -0.0835    0.1189   -0.0663
          42   -0.0045   -0.0396   -0.0191   -0.0512   -0.0218   -0.1097    0.1245    0.0454
          43   -0.0610   -0.1119    0.0212    0.0127    0.0247    0.0664   -0.0912    0.0287
          44    0.1122    0.0842   -0.0192   -0.0282   -0.0470   -0.0601    0.0871   -0.0817
          45   -0.0969    0.1373   -0.0221    0.0186    0.0215   -0.0635    0.0738    0.0654
          46   -0.0409    0.2125   -0.0313    0.0270    0.0210   -0.0177   -0.0094    0.0608
          47   -0.1000   -0.1271    0.0376    0.0744    0.0764    0.0174   -0.0209    0.0996
          48   -0.0507   -0.1962    0.0273   -0.0203   -0.0067    0.0163    0.0052   -0.0285
          49    0.0324    0.0212    0.1709   -0.0274    0.0427   -0.0110    0.0282    0.0374
          50    0.0326   -0.0112   -0.0462   -0.0113    0.0449    0.0354    0.0683    0.0436
          51    0.0259   -0.0140   -0.0880   -0.0012    0.0284    0.0381    0.0530    0.0225


   Root No.      17        18        19        20        21        22        23        24

                17 A      18 A      19 A      20 A      21 A      22 A      23 A      24 A   

                 960.6     989.6    1023.8    1054.4    1065.0    1083.1    1111.4    1151.1
  
           1    0.0090   -0.0034    0.0034   -0.0188   -0.0034    0.0255   -0.0211    0.0377
           2   -0.0009   -0.0011    0.0105   -0.0102   -0.0273   -0.0069    0.0583   -0.0275
           3   -0.0062   -0.0065    0.0068   -0.0058    0.0228   -0.0161   -0.0111   -0.0098
           4    0.0005   -0.0030    0.0130   -0.0169   -0.0095   -0.0194   -0.0035   -0.0343
           5    0.0020   -0.0075   -0.0055    0.0132    0.0214   -0.0217   -0.0448   -0.0459
           6    0.0218    0.0019   -0.0106    0.0119    0.0049    0.0325   -0.0132   -0.0020
           7   -0.0008   -0.0007   -0.0021   -0.0023    0.0046   -0.0006   -0.0310   -0.0016
           8    0.0027   -0.0167    0.0001   -0.0005    0.0005    0.0175   -0.0069    0.0327
           9    0.0071    0.0083    0.0184   -0.0295   -0.0228   -0.0059    0.0003   -0.0018
          10    0.0002    0.0126    0.0002    0.0035    0.0048   -0.0073    0.0185   -0.0091
          11    0.0016   -0.0019   -0.0011    0.0037   -0.0100   -0.0016   -0.0097    0.0025
          12   -0.0029    0.0031   -0.0077    0.0018    0.0003    0.0135    0.0135   -0.0018
          13    0.0152   -0.0081    0.0177    0.0195   -0.0014    0.0090    0.0187    0.0180
          14   -0.0006   -0.0005   -0.0097   -0.0085   -0.0030   -0.0147    0.0096    0.0171
          15   -0.0060   -0.0037   -0.0085   -0.0066   -0.0031   -0.0188    0.0170    0.0292
          16   -0.0141    0.0037   -0.0336   -0.0138    0.0023   -0.0158   -0.0072   -0.0082
          17   -0.0024    0.0029    0.0261    0.0089   -0.0000    0.0096   -0.0021   -0.0079
          18   -0.0261    0.0027    0.0296    0.0100    0.0070   -0.0003   -0.0112   -0.0104
          19    0.0120    0.0083   -0.0020    0.0078   -0.0023   -0.0037   -0.0077    0.0019
          20    0.0150    0.0045   -0.0042    0.0036    0.0180    0.0031   -0.0047    0.0027
          21    0.0036    0.0022   -0.0051    0.0154   -0.0201   -0.0070   -0.0147    0.0037
          22   -0.0248   -0.1237   -0.0100    0.0038   -0.0032    0.0268    0.1217    0.0340
          23   -0.0276    0.1291    0.0331   -0.1021    0.0126    0.0312   -0.1144    0.0858
          24   -0.0342   -0.0318    0.0059   -0.0231    0.0377   -0.0014    0.0160    0.0251
          25   -0.0466    0.0843   -0.0740    0.0073   -0.0427    0.1324    0.0998   -0.1453
          26   -0.1069    0.1591   -0.0284    0.0641    0.0525   -0.0036    0.0756    0.1863
          27    0.0307   -0.0029   -0.0547    0.0094   -0.0254    0.1167    0.0100   -0.1477
          28    0.0272    0.0795   -0.0686    0.1132    0.0544    0.0297    0.0257    0.0233
          29    0.0184    0.0133    0.0612   -0.0809   -0.0700   -0.0082   -0.0004    0.0483
          30   -0.0042   -0.0141   -0.0275    0.0308    0.0304    0.0138   -0.0047   -0.0140
          31   -0.0622   -0.0638   -0.0147    0.0752    0.0847   -0.0959    0.0346   -0.0234
          32   -0.0178   -0.0530   -0.0572    0.0789    0.0707    0.0420   -0.0158    0.0425
          33   -0.0078   -0.0191   -0.0247    0.0295    0.0309    0.0128   -0.0066    0.0044
          34   -0.0138    0.0409    0.0009    0.0240   -0.0352   -0.0276    0.0267   -0.0161
          35   -0.0154    0.0683    0.0037    0.0443   -0.0757   -0.0500    0.0158   -0.0218
          36    0.0333    0.1112    0.0126    0.0168    0.0375   -0.0423    0.0901   -0.0647
          37   -0.0841   -0.0729   -0.0323    0.0093   -0.0613    0.0544   -0.0072    0.0252
          38   -0.1193   -0.0545   -0.0300    0.0471   -0.1530    0.0051   -0.0352    0.0261
          39   -0.0815   -0.0599   -0.0339    0.0144   -0.0691    0.0530   -0.0055    0.0215
          40   -0.0237   -0.0070   -0.0233   -0.0177   -0.0069   -0.0687    0.0400    0.0497
          41    0.0119    0.0141    0.0132    0.0082   -0.0044    0.1111   -0.0308   -0.0296
          42    0.0834   -0.0414    0.0606    0.0668    0.0159   -0.0835    0.0514    0.0445
          43   -0.0257    0.0026    0.1163    0.0399    0.0041    0.0229   -0.0025   -0.0051
          44   -0.0386    0.0167   -0.1109   -0.0454    0.0044   -0.0258   -0.0285   -0.0385
          45    0.1173   -0.0307   -0.0956   -0.0200   -0.0134   -0.0324    0.0463    0.0616
          46    0.0406   -0.0087    0.1398    0.0442   -0.0065    0.0386    0.0180    0.0100
          47    0.1284   -0.0179   -0.1049   -0.0256   -0.0227    0.0097    0.0415    0.0334
          48   -0.0139    0.0023   -0.1298   -0.0394    0.0049   -0.0380   -0.0110   -0.0055
          49   -0.0476   -0.0423    0.0067   -0.0498    0.0727    0.0339    0.0406   -0.0049
          50   -0.0408   -0.0335    0.0269   -0.1117    0.1903    0.0646    0.0954   -0.0187
          51   -0.0204   -0.0107    0.0148   -0.0512    0.0825    0.0267    0.0447   -0.0106


   Root No.      25        26        27        28        29        30        31        32

                25 A      26 A      27 A      28 A      29 A      30 A      31 A      32 A   

                1163.2    1175.2    1199.1    1256.6    1296.3    1318.1    1356.2    1404.1
  
           1   -0.0223    0.0061    0.0045   -0.0091   -0.0200   -0.0003    0.0387   -0.0022
           2    0.0130    0.0028   -0.0158    0.0067   -0.0202   -0.0017    0.0279    0.0091
           3    0.0258    0.0324    0.0102   -0.0486   -0.0120    0.0135    0.0195   -0.0046
           4   -0.0089    0.0101   -0.0293   -0.0083   -0.0174    0.0101    0.0098    0.0290
           5   -0.0034   -0.0058   -0.0180    0.0249    0.0128   -0.0068   -0.0129   -0.0128
           6    0.0112   -0.0003   -0.0052    0.0313   -0.0223   -0.0037    0.0336    0.0343
           7    0.0603   -0.0298    0.0115    0.0066    0.0136   -0.0039   -0.0139   -0.0066
           8   -0.0070    0.0004    0.0182   -0.0359    0.0056    0.0072   -0.0061   -0.0455
           9   -0.0210   -0.0010    0.0039    0.0074    0.0100   -0.0033   -0.0106   -0.0043
          10    0.0037   -0.0037   -0.0015    0.0028   -0.0023   -0.0117   -0.0034   -0.0004
          11    0.0028    0.0072    0.0016   -0.0085    0.0003    0.0280    0.0317   -0.0008
          12   -0.0182   -0.0397   -0.0121    0.0063   -0.0105   -0.0349   -0.0115    0.0011
          13    0.0032    0.0030   -0.0172   -0.0113    0.0187   -0.0010   -0.0221   -0.0221
          14    0.0007   -0.0012   -0.0040   -0.0062    0.0166   -0.0089    0.0061   -0.0001
          15    0.0047    0.0033   -0.0269   -0.0103    0.0000    0.0106   -0.0274   -0.0209
          16   -0.0042   -0.0057    0.0197    0.0053   -0.0033   -0.0025    0.0097    0.0079
          17   -0.0030   -0.0055    0.0241    0.0065   -0.0001   -0.0077    0.0209    0.0175
          18   -0.0024   -0.0016    0.0020    0.0013   -0.0025    0.0035   -0.0087   -0.0080
          19   -0.0000    0.0024    0.0019    0.0035    0.0037   -0.0016   -0.0084   -0.0000
          20   -0.0058   -0.0076    0.0010    0.0125    0.0085   -0.0124   -0.0276    0.0003
          21    0.0023    0.0079    0.0030    0.0009    0.0036    0.0036   -0.0033   -0.0003
          22    0.0684    0.1612    0.0476    0.2011    0.0285   -0.0185   -0.0259    0.0173
          23   -0.0799    0.1263    0.0519    0.0933    0.0492   -0.0063   -0.0334   -0.0143
          24    0.0472    0.1637    0.0589    0.1001    0.0388    0.0013   -0.0386   -0.0009
          25    0.0011    0.0529    0.1358   -0.1268    0.0575   -0.0043   -0.0466   -0.0501
          26    0.1079   -0.0232   -0.0229    0.0090   -0.0422    0.0047    0.0433    0.0203
          27   -0.0202    0.0331    0.0953   -0.0331    0.0403   -0.0167   -0.0185   -0.0238
          28   -0.2009    0.0449   -0.0470    0.0432   -0.0184   -0.0046    0.0116    0.0227
          29   -0.0629   -0.0103    0.0271   -0.0570    0.0400    0.0246   -0.1171    0.2269
          30    0.0185    0.0096   -0.0023    0.0202   -0.0144   -0.0141    0.0642   -0.1817
          31   -0.1783    0.0863   -0.0290   -0.0604   -0.0072    0.0137    0.0037   -0.0155
          32    0.0503    0.0204    0.0227   -0.0886   -0.0047    0.0385   -0.0674    0.2495
          33    0.0195    0.0160    0.0076   -0.0284    0.0012    0.0176   -0.0478    0.1898
          34    0.0090    0.0045   -0.0031    0.0066   -0.0173   -0.0673   -0.0390    0.0003
          35    0.0195    0.0258   -0.0004    0.0010   -0.0177   -0.0601   -0.0359    0.0009
          36    0.0126   -0.0388   -0.0070    0.0554    0.1173    0.2058    0.0156    0.0021
          37   -0.0516   -0.0830   -0.0190    0.0608    0.0918    0.1845    0.0390    0.0011
          38   -0.0153    0.0000   -0.0082   -0.0000   -0.0456   -0.1109   -0.0386   -0.0001
          39   -0.0560   -0.0930   -0.0252    0.0447    0.0458    0.0746    0.0043    0.0026
          40   -0.0108   -0.0200    0.0438   -0.0098    0.0153   -0.0043   -0.0085   -0.0140
          41    0.0409    0.0643   -0.2007   -0.0258    0.0246    0.0064   -0.0360   -0.0234
          42   -0.0472   -0.0809    0.2469    0.0286   -0.0018   -0.0169    0.0256    0.0035
          43   -0.0026   -0.0034    0.0056   -0.0050    0.0441   -0.0315    0.0351    0.0195
          44   -0.0105   -0.0149    0.0724    0.0391   -0.1306    0.0723   -0.0521   -0.0167
          45    0.0107    0.0139   -0.0698   -0.0451    0.1581   -0.0938    0.0833    0.0369
          46    0.0018    0.0007   -0.0013    0.0117   -0.1059    0.0769   -0.0893   -0.0486
          47    0.0099    0.0047   -0.0065    0.0195   -0.1455    0.1027   -0.1155   -0.0599
          48   -0.0019   -0.0022    0.0029   -0.0007    0.0228   -0.0149    0.0117    0.0023
          49   -0.0137   -0.0363   -0.0101    0.0028   -0.0039   -0.0158   -0.0048    0.0002
          50   -0.0292   -0.0781   -0.0199    0.0087   -0.0088   -0.0446   -0.0226    0.0018
          51   -0.0107   -0.0335   -0.0092   -0.0028   -0.0075   -0.0143    0.0014    0.0005


   Root No.      33        34        35        36        37        38        39        40

                33 A      34 A      35 A      36 A      37 A      38 A      39 A      40 A   

                1480.5    1619.3    1864.8    2900.7    2969.9    2986.5    2995.0    2998.0
  
           1   -0.0082   -0.1106   -0.0102    0.0007    0.0014   -0.0079   -0.0060    0.0187
           2   -0.0197   -0.0649   -0.0035    0.0006    0.0010   -0.0050   -0.0033    0.0109
           3   -0.0318   -0.0370   -0.0052   -0.0018   -0.0014    0.0124    0.0098   -0.0321
           4   -0.0409    0.1124    0.0296    0.0002   -0.0001    0.0236   -0.0042    0.0049
           5    0.0290   -0.0616   -0.0257    0.0002    0.0001   -0.0136    0.0023   -0.0024
           6   -0.0227    0.0418    0.0389    0.0005    0.0002   -0.0388    0.0073   -0.0086
           7    0.0072   -0.0009    0.0004    0.0001    0.0000    0.0002   -0.0002    0.0002
           8   -0.0288    0.1020    0.0093    0.0000   -0.0001    0.0006    0.0001   -0.0003
           9    0.0035   -0.0013    0.0010    0.0001    0.0001    0.0017   -0.0013    0.0030
          10    0.0611    0.0270    0.0004   -0.0498    0.0007   -0.0020   -0.0082   -0.0021
          11    0.1256    0.0305    0.0009    0.0111   -0.0062    0.0029    0.0154    0.0067
          12    0.0553    0.0274    0.0014    0.0268    0.0039   -0.0033   -0.0211   -0.0105
          13    0.0185   -0.0277    0.0116   -0.0000    0.0000   -0.0006    0.0001   -0.0002
          14    0.0021   -0.0131    0.1826    0.0000   -0.0000   -0.0003    0.0001   -0.0003
          15    0.0124   -0.0100   -0.1526   -0.0000    0.0001   -0.0004    0.0001   -0.0001
          16   -0.0055    0.0091   -0.0396    0.0000    0.0008    0.0000   -0.0000    0.0002
          17   -0.0132    0.0277   -0.1644    0.0000    0.0007   -0.0002    0.0000    0.0001
          18    0.0074   -0.0176    0.1068    0.0000    0.0002    0.0000    0.0000    0.0000
          19   -0.0299   -0.0043    0.0000   -0.0009   -0.0139   -0.0003   -0.0010   -0.0001
          20   -0.0918   -0.0139    0.0000    0.0004    0.0378    0.0011    0.0039    0.0008
          21   -0.0156   -0.0012    0.0000    0.0004   -0.0483   -0.0011   -0.0040   -0.0008
          22    0.0383    0.0314    0.0081   -0.0157   -0.0117    0.0869    0.0716   -0.2247
          23    0.0474    0.0112   -0.0043   -0.0082   -0.0054    0.0523    0.0411   -0.1280
          24    0.0172    0.0754    0.0061    0.0202    0.0217   -0.1559   -0.1217    0.3884
          25    0.0149   -0.0302    0.0028    0.0021    0.0010   -0.2820    0.0521   -0.0637
          26   -0.0236    0.0050    0.0096   -0.0011   -0.0006    0.1607   -0.0292    0.0340
          27    0.0286   -0.0691    0.0066   -0.0021   -0.0019    0.4734   -0.0867    0.1017
          28    0.0015    0.0200    0.0032    0.0001    0.0001   -0.0026   -0.0001    0.0012
          29    0.0478   -0.0139    0.0033   -0.0001    0.0000   -0.0059    0.0048   -0.0130
          30   -0.0498    0.0790    0.0075    0.0001   -0.0000   -0.0104    0.0077   -0.0202
          31    0.0004   -0.0187   -0.0065    0.0000   -0.0002    0.0025    0.0001   -0.0014
          32    0.0237   -0.0103    0.0041    0.0012   -0.0003    0.0089   -0.0059    0.0116
          33    0.0370   -0.0787   -0.0008   -0.0009    0.0001   -0.0135    0.0086   -0.0192
          34   -0.0416    0.0034   -0.0008    0.3862   -0.0623    0.0539    0.2683    0.1092
          35   -0.0769   -0.0085   -0.0001   -0.2368    0.0339   -0.0298   -0.1473   -0.0593
          36   -0.0857   -0.0003   -0.0004    0.0502   -0.0028    0.0032    0.0099    0.0013
          37   -0.0767   -0.0342   -0.0016    0.2214    0.0392   -0.0269   -0.1708   -0.0823
          38   -0.0723   -0.0199   -0.0007    0.0967    0.0106   -0.0076   -0.0476   -0.0236
          39   -0.0755   -0.0224    0.0000   -0.3777   -0.0576    0.0387    0.2459    0.1258
          40    0.0125   -0.0246    0.1032    0.0001   -0.0005    0.0075   -0.0021    0.0049
          41    0.0147   -0.0155    0.0323    0.0001   -0.0005    0.0050   -0.0015    0.0035
          42    0.0069   -0.0265    0.0779    0.0000   -0.0001    0.0011   -0.0004    0.0014
          43   -0.0094    0.0164   -0.1223   -0.0001   -0.0090   -0.0008    0.0001   -0.0021
          44    0.0015    0.0051   -0.0372   -0.0001   -0.0077    0.0003    0.0001   -0.0021
          45   -0.0171    0.0237   -0.0907   -0.0000   -0.0022    0.0002   -0.0000   -0.0006
          46    0.0238   -0.0292    0.1057    0.0000    0.0004    0.0012   -0.0002    0.0003
          47    0.0283   -0.0282    0.0014   -0.0000   -0.0001   -0.0009    0.0002   -0.0001
          48    0.0037   -0.0162    0.1073    0.0000    0.0005    0.0007   -0.0002    0.0003
          49    0.0078    0.0048   -0.0002   -0.0019    0.1755    0.0040    0.0134    0.0018
          50   -0.0289   -0.0032   -0.0004    0.0009   -0.4264   -0.0104   -0.0359   -0.0072
          51    0.0332    0.0088    0.0004    0.0012    0.5827    0.0143    0.0466    0.0066


   Root No.      41        42        43        44        45

                41 A      42 A      43 A      44 A      45 A   

                3043.6    3089.8    3128.1    3130.4    3147.3
  
           1    0.0001    0.0012    0.0002    0.0011    0.0000
           2   -0.0003    0.0007    0.0001    0.0002   -0.0000
           3    0.0007   -0.0027   -0.0003   -0.0002    0.0001
           4   -0.0008    0.0013    0.0001   -0.0010   -0.0001
           5    0.0002   -0.0007   -0.0004    0.0001   -0.0003
           6    0.0010   -0.0026    0.0002   -0.0000    0.0006
           7   -0.0001    0.0004    0.0000    0.0001   -0.0000
           8   -0.0001    0.0026   -0.0005   -0.0436   -0.0001
           9   -0.0001   -0.0574    0.0002   -0.0039   -0.0000
          10    0.0000    0.0001   -0.0000    0.0001    0.0000
          11   -0.0001    0.0003   -0.0001    0.0002    0.0000
          12    0.0000    0.0001    0.0000   -0.0001   -0.0000
          13   -0.0525    0.0001    0.0008    0.0000   -0.0059
          14   -0.0447   -0.0004    0.0048    0.0001   -0.0089
          15   -0.0143    0.0001   -0.0034    0.0000    0.0018
          16    0.0042   -0.0000   -0.0553    0.0004   -0.0307
          17    0.0024   -0.0000   -0.0460    0.0003    0.0254
          18    0.0022   -0.0000   -0.0159    0.0002   -0.0547
          19   -0.0000    0.0000   -0.0002   -0.0000    0.0000
          20    0.0000   -0.0001    0.0007   -0.0000   -0.0001
          21   -0.0001    0.0001   -0.0008    0.0000    0.0001
          22    0.0030   -0.0174   -0.0019   -0.0014    0.0005
          23    0.0017   -0.0127   -0.0018   -0.0008    0.0001
          24   -0.0050    0.0272    0.0041    0.0028   -0.0007
          25    0.0056   -0.0167   -0.0006   -0.0004    0.0015
          26   -0.0049    0.0122    0.0003    0.0007   -0.0011
          27   -0.0124    0.0253    0.0013   -0.0001   -0.0024
          28   -0.0002   -0.0027   -0.0001   -0.0035    0.0000
          29    0.0000    0.2425    0.0024    0.2756    0.0008
          30    0.0001    0.3216    0.0038    0.4164    0.0011
          31   -0.0002   -0.0029   -0.0000    0.0029    0.0000
          32    0.0008   -0.2736    0.0036    0.2396    0.0006
          33   -0.0006    0.3703   -0.0054   -0.3690   -0.0008
          34   -0.0006   -0.0001   -0.0001    0.0001    0.0000
          35    0.0004    0.0002    0.0000   -0.0002   -0.0000
          36   -0.0000   -0.0001   -0.0001   -0.0002    0.0000
          37    0.0003    0.0005    0.0000   -0.0009   -0.0000
          38    0.0001    0.0007    0.0000   -0.0007   -0.0000
          39   -0.0006    0.0006   -0.0001    0.0012    0.0000
          40    0.6150    0.0010    0.0007   -0.0003    0.0532
          41    0.4837    0.0005    0.0036   -0.0007    0.0446
          42    0.2057    0.0001   -0.0024   -0.0001    0.0154
          43    0.0062    0.0010    0.6420   -0.0043   -0.0390
          44    0.0066    0.0008    0.5157   -0.0035   -0.0178
          45    0.0006    0.0003    0.2015   -0.0013   -0.0242
          46   -0.0447   -0.0001    0.0044   -0.0006    0.4214
          47    0.0187    0.0000   -0.0228    0.0005   -0.2191
          48   -0.0632   -0.0000    0.0252   -0.0012    0.6348
          49    0.0002   -0.0003    0.0039    0.0000   -0.0003
          50   -0.0005    0.0005   -0.0072   -0.0001    0.0005
          51    0.0007   -0.0010    0.0110    0.0001   -0.0008


           MASS-WEIGHTED COORDINATE ANALYSIS (NORMAL COORDINATES)


   Root No.       1         2         3         4         5         6         7         8

                 1 A       2 A       3 A       4 A       5 A       6 A       7 A       8 A   

                  48.4      93.7     132.5     245.3     277.8     347.3     389.5     469.3
  
           1   -0.0878    0.0153   -0.1066    0.3165   -0.0668   -0.0657   -0.0919   -0.0598
           2    0.2028   -0.1859   -0.0176   -0.2451    0.0486    0.0119   -0.1004    0.3065
           3    0.0821    0.0576    0.0197   -0.0080   -0.0086    0.3768    0.3211   -0.0169
           4   -0.0877    0.0175   -0.1022    0.3250   -0.0696   -0.0645   -0.1050   -0.0487
           5   -0.0880   -0.1297   -0.2312    0.1077    0.0019    0.0966   -0.2845    0.0076
           6   -0.0450   -0.1048    0.1044   -0.0895    0.0333    0.2176   -0.2688   -0.0224
           7    0.1622   -0.0346    0.0847    0.0311   -0.0359   -0.1108    0.0698    0.3668
           8    0.0568   -0.1567   -0.1256   -0.0732    0.0254    0.0605   -0.2029    0.1856
           9   -0.1820    0.1576   -0.2126   -0.0668    0.0345   -0.3069    0.1106    0.2651
          10   -0.2662   -0.1364   -0.1483   -0.1487   -0.0500    0.1925    0.2023   -0.0427
          11    0.1066    0.0888    0.1126   -0.0467    0.0249   -0.1261    0.0909   -0.3323
          12    0.2251    0.0483   -0.0115    0.2180   -0.0148    0.2683    0.1125    0.1257
          13   -0.1000    0.2207   -0.1056   -0.0191    0.0121    0.1934   -0.1210   -0.0201
          14   -0.0896   -0.0880    0.1459    0.2125   -0.0479    0.0133    0.1813    0.0656
          15   -0.0372   -0.2155    0.2398    0.1843   -0.0392    0.0171   -0.1503   -0.0484
          16   -0.1490   -0.0571    0.4816   -0.2374    0.0378   -0.0780   -0.1298   -0.0103
          17   -0.0840    0.3515   -0.0427    0.0532   -0.0182   -0.0221    0.1810    0.0720
          18   -0.0472    0.3607    0.1766   -0.1499    0.0171   -0.1383   -0.1757   -0.0543
          19    0.5299   -0.0236   -0.1632   -0.2615   -0.1209   -0.0454    0.1838   -0.2015
          20   -0.1053    0.0957    0.1507    0.0182    0.0229    0.0288    0.1189   -0.2662
          21    0.0149   -0.3517   -0.2996   -0.0893    0.1255   -0.3081    0.0304   -0.2835
          22   -0.0181    0.0342   -0.0598    0.1728   -0.0424   -0.0314   -0.0073   -0.0450
          23    0.1282   -0.1041    0.0514   -0.1262    0.0263    0.0907   -0.0523    0.1739
          24    0.0501    0.0167    0.0057    0.0276   -0.0125    0.1250    0.0916    0.0073
          25   -0.0634   -0.0224   -0.0317    0.1489   -0.0239   -0.0671   -0.1191   -0.0578
          26   -0.0942   -0.0048   -0.1590    0.0652    0.0040   -0.0576   -0.1640   -0.0222
          27   -0.0121   -0.0564    0.0594   -0.0008    0.0051    0.0587   -0.0985   -0.0233
          28    0.1035    0.0154    0.0473   -0.0139   -0.0148   -0.0175    0.1987    0.1657
          29    0.0573   -0.0823    0.0200   -0.0105    0.0013    0.1728   -0.0957   -0.0579
          30   -0.0811    0.0718   -0.1012   -0.0273    0.0143   -0.2018    0.0608    0.1615
          31    0.0621   -0.0492    0.0567   -0.0554    0.0029   -0.0715   -0.0987    0.2015
          32   -0.0241   -0.0083   -0.0921   -0.0320    0.0136   -0.1361   -0.0262    0.1674
          33   -0.0812    0.0714   -0.1008   -0.0278    0.0150   -0.2008    0.0559    0.1626
          34   -0.1685   -0.0555   -0.0352   -0.0232    0.2315    0.0943    0.1274   -0.0337
          35   -0.1029    0.0164    0.0518    0.0476    0.3543    0.0109    0.1064   -0.1424
          36    0.1899    0.1053    0.0264    0.2043   -0.2478   -0.0218   -0.1198   -0.0267
          37   -0.1963   -0.0865   -0.0480   -0.1386    0.1831    0.1570    0.2065   -0.0047
          38    0.1733    0.1178    0.0628    0.0001   -0.4359   -0.0633   -0.0521   -0.1492
          39    0.0262    0.0069   -0.0006    0.0076   -0.0032    0.1268    0.0981    0.0267
          40   -0.0247    0.1845   -0.1595   -0.0952    0.0289    0.1593   -0.1629   -0.0371
          41   -0.0329   -0.1094    0.1873    0.1082   -0.0314   -0.1026    0.1793    0.0527
          42   -0.0080   -0.2241    0.1162    0.2065   -0.0452   -0.0619    0.0339    0.0007
          43   -0.0486   -0.1287    0.2684    0.0078   -0.0125   -0.1426    0.0788    0.0261
          44   -0.0151    0.1773   -0.1576   -0.0119    0.0095    0.1327   -0.0423   -0.0018
          45   -0.0216    0.2716    0.0178   -0.2250    0.0414   -0.0193   -0.1833   -0.0482
          46   -0.0515    0.0271    0.1634   -0.2091    0.0411    0.0096   -0.1678   -0.0344
          47   -0.0321    0.1383    0.0874   -0.0041   -0.0112   -0.1603    0.1477    0.0474
          48   -0.0111    0.0890    0.0712    0.0409   -0.0168   -0.1169    0.0665    0.0136
          49    0.4010    0.0745    0.0039    0.1861    0.6189   -0.1646   -0.0842   -0.1246
          50   -0.0546   -0.0568   -0.0252   -0.1286   -0.1294   -0.1043    0.0529   -0.2021
          51   -0.0885   -0.1870   -0.1522   -0.2012   -0.2606   -0.1249    0.0649   -0.1543


   Root No.       9        10        11        12        13        14        15        16

                 9 A      10 A      11 A      12 A      13 A      14 A      15 A      16 A   

                 508.7     652.8     687.0     843.0     874.2     916.9     930.1     945.9
  
           1   -0.1567    0.0984   -0.0133    0.0868   -0.0998    0.1674    0.0447   -0.1053
           2   -0.0488   -0.0934    0.0232   -0.1363   -0.1424   -0.0648   -0.0251   -0.0044
           3   -0.1046    0.0038    0.0627   -0.0785    0.1808   -0.0515    0.0578    0.0865
           4   -0.0660   -0.0297   -0.1407   -0.1245   -0.0559   -0.1525   -0.0425    0.2446
           5   -0.2106   -0.0442   -0.0584   -0.0847    0.1703   -0.0010    0.0178    0.1042
           6    0.2754   -0.1229    0.0579    0.1524    0.1756    0.0960    0.0036    0.0060
           7    0.0986    0.1248   -0.0576    0.0524    0.2639   -0.0009    0.0008   -0.0144
           8   -0.2108   -0.0405    0.0412   -0.0702   -0.0064    0.2069    0.1148   -0.2200
           9    0.0970    0.0271    0.0096    0.0300    0.1997   -0.0516    0.0015   -0.1320
          10   -0.1482    0.1228    0.5400    0.0704   -0.0986    0.0340    0.0196   -0.0428
          11    0.0639   -0.0205   -0.1158    0.0084    0.0022   -0.0245   -0.0316   -0.0036
          12   -0.2247    0.0241   -0.1524    0.1872   -0.2367   -0.0383   -0.0882   -0.0143
          13    0.3736   -0.4172    0.0016   -0.1396   -0.0809   -0.1218    0.1556    0.0357
          14    0.2910    0.2319   -0.0306    0.0331    0.0287    0.0912   -0.1453    0.0721
          15    0.1889    0.1217   -0.0889   -0.1661   -0.0849    0.0923   -0.1385    0.0548
          16   -0.0400   -0.0099   -0.0157   -0.0717   -0.0772   -0.0220    0.0582   -0.1585
          17    0.1555    0.0210    0.0196    0.0861    0.0462    0.0072   -0.0435    0.0023
          18   -0.2263   -0.0723   -0.0274   -0.1549   -0.1217    0.0041    0.0045   -0.1562
          19   -0.0064   -0.0271   -0.2972    0.0736   -0.1010   -0.0030   -0.0895   -0.0867
          20   -0.0302    0.0299    0.1373    0.0700   -0.1824   -0.1958   -0.2818   -0.1151
          21    0.0728    0.0327    0.1706    0.0168   -0.0316   -0.0703   -0.0925   -0.0424
          22   -0.1484    0.0648   -0.1005   -0.0041    0.0571    0.0488   -0.0343   -0.2138
          23    0.0412   -0.0825    0.0493    0.0487   -0.2493   -0.0730    0.0857    0.4080
          24   -0.0698    0.0045   -0.0237   -0.0040    0.0281   -0.0309    0.0203    0.0531
          25   -0.0389    0.0499   -0.1145    0.0293    0.0832   -0.1551   -0.1300    0.1123
          26   -0.1472   -0.0789   -0.0829    0.0924    0.2270   -0.3040   -0.0350    0.0101
          27    0.0952    0.0222   -0.0061    0.0370    0.0474    0.0642   -0.0559    0.0345
          28   -0.0073    0.1417   -0.0158   -0.5282    0.3083    0.0902   -0.0266   -0.0444
          29   -0.0850   -0.0690    0.0164    0.0125    0.3024   -0.0345    0.0374   -0.2508
          30    0.0469    0.0509   -0.0009   -0.0218   -0.1688    0.0566   -0.0018    0.1044
          31    0.1399   -0.0255   -0.0131    0.6068    0.1110   -0.1152    0.0097   -0.0827
          32   -0.0369    0.0353    0.0030   -0.0634   -0.3048    0.1494    0.0421    0.1259
          33    0.0476    0.0439   -0.0031   -0.0174   -0.1695    0.0533    0.0066    0.1035
          34   -0.0621    0.0182   -0.0588    0.0840   -0.0119    0.2050    0.1942    0.0234
          35   -0.0078   -0.0207   -0.3208    0.1261    0.0251    0.3844    0.3592    0.0529
          36   -0.0369    0.0689    0.2174    0.1410   -0.0827    0.3083    0.2219   -0.0565
          37   -0.0695   -0.0041   -0.0719    0.0048    0.0360   -0.1032    0.0055    0.1375
          38    0.0523    0.0431    0.3188   -0.0158    0.1487    0.0566    0.2336    0.2356
          39   -0.0696   -0.0034   -0.0840    0.0388    0.0079   -0.0642    0.0315    0.1419
          40    0.1533   -0.0245   -0.0160   -0.0399    0.0418    0.2692   -0.3432    0.1425
          41    0.0473   -0.0044    0.0168    0.0400   -0.0578   -0.2253    0.2998   -0.1906
          42   -0.0102   -0.0831   -0.0394   -0.1216   -0.0582   -0.2958    0.3139    0.1306
          43   -0.1376   -0.2347    0.0437    0.0301    0.0659    0.1791   -0.2299    0.0826
          44    0.2531    0.1766   -0.0396   -0.0669   -0.1255   -0.1620    0.2197   -0.2349
          45   -0.2186    0.2880   -0.0457    0.0441    0.0573   -0.1714    0.1860    0.1881
          46   -0.0923    0.4460   -0.0646    0.0640    0.0560   -0.0478   -0.0237    0.1748
          47   -0.2255   -0.2668    0.0775    0.1766    0.2037    0.0469   -0.0528    0.2864
          48   -0.1144   -0.4116    0.0563   -0.0481   -0.0180    0.0439    0.0132   -0.0820
          49    0.0731    0.0444    0.3529   -0.0649    0.1139   -0.0298    0.0711    0.1075
          50    0.0736   -0.0235   -0.0955   -0.0269    0.1199    0.0954    0.1723    0.1255
          51    0.0585   -0.0293   -0.1816   -0.0028    0.0758    0.1028    0.1337    0.0647


   Root No.      17        18        19        20        21        22        23        24

                17 A      18 A      19 A      20 A      21 A      22 A      23 A      24 A   

                 960.6     989.6    1023.8    1054.4    1065.0    1083.1    1111.4    1151.1
  
           1    0.0879   -0.0332    0.0287   -0.1856   -0.0297    0.2309   -0.1686    0.2823
           2   -0.0093   -0.0108    0.0899   -0.1011   -0.2369   -0.0624    0.4659   -0.2058
           3   -0.0604   -0.0627    0.0579   -0.0574    0.1984   -0.1462   -0.0888   -0.0736
           4    0.0053   -0.0289    0.1107   -0.1666   -0.0822   -0.1759   -0.0280   -0.2571
           5    0.0193   -0.0723   -0.0467    0.1305    0.1854   -0.1967   -0.3578   -0.3444
           6    0.2131    0.0186   -0.0907    0.1178    0.0426    0.2944   -0.1051   -0.0147
           7   -0.0082   -0.0071   -0.0175   -0.0232    0.0396   -0.0051   -0.2479   -0.0118
           8    0.0262   -0.1617    0.0010   -0.0046    0.0045    0.1584   -0.0549    0.2448
           9    0.0694    0.0808    0.1574   -0.2918   -0.1982   -0.0533    0.0027   -0.0132
          10    0.0018    0.1223    0.0019    0.0346    0.0414   -0.0665    0.1476   -0.0680
          11    0.0160   -0.0182   -0.0096    0.0369   -0.0864   -0.0149   -0.0776    0.0187
          12   -0.0279    0.0303   -0.0657    0.0181    0.0022    0.1221    0.1080   -0.0136
          13    0.1483   -0.0785    0.1508    0.1926   -0.0125    0.0817    0.1492    0.1351
          14   -0.0054   -0.0051   -0.0827   -0.0836   -0.0265   -0.1332    0.0768    0.1280
          15   -0.0583   -0.0355   -0.0723   -0.0654   -0.0271   -0.1703    0.1354    0.2192
          16   -0.1384    0.0355   -0.2864   -0.1359    0.0197   -0.1429   -0.0574   -0.0613
          17   -0.0236    0.0278    0.2226    0.0884   -0.0000    0.0869   -0.0171   -0.0592
          18   -0.2558    0.0263    0.2523    0.0985    0.0605   -0.0024   -0.0895   -0.0779
          19    0.1173    0.0804   -0.0174    0.0773   -0.0200   -0.0337   -0.0613    0.0140
          20    0.1472    0.0436   -0.0360    0.0356    0.1565    0.0278   -0.0373    0.0205
          21    0.0355    0.0213   -0.0439    0.1519   -0.1746   -0.0637   -0.1173    0.0275
          22   -0.0702   -0.3478   -0.0248    0.0110   -0.0080    0.0704    0.2815    0.0738
          23   -0.0782    0.3627    0.0820   -0.2923    0.0317    0.0820   -0.2646    0.1863
          24   -0.0968   -0.0894    0.0146   -0.0661    0.0947   -0.0038    0.0371    0.0545
          25   -0.1321    0.2368   -0.1831    0.0209   -0.1075    0.3478    0.2309   -0.3156
          26   -0.3031    0.4473   -0.0702    0.1834    0.1320   -0.0095    0.1748    0.4046
          27    0.0871   -0.0081   -0.1352    0.0269   -0.0639    0.3067    0.0231   -0.3206
          28    0.0770    0.2234   -0.1695    0.3241    0.1369    0.0781    0.0595    0.0506
          29    0.0521    0.0373    0.1513   -0.2315   -0.1761   -0.0216   -0.0008    0.1050
          30   -0.0120   -0.0396   -0.0679    0.0882    0.0765    0.0362   -0.0109   -0.0303
          31   -0.1764   -0.1792   -0.0363    0.2152    0.2131   -0.2520    0.0800   -0.0508
          32   -0.0504   -0.1490   -0.1415    0.2258    0.1780    0.1105   -0.0366    0.0923
          33   -0.0221   -0.0537   -0.0610    0.0844    0.0776    0.0337   -0.0153    0.0096
          34   -0.0391    0.1149    0.0023    0.0688   -0.0886   -0.0724    0.0617   -0.0350
          35   -0.0437    0.1919    0.0093    0.1268   -0.1904   -0.1312    0.0365   -0.0474
          36    0.0944    0.3124    0.0313    0.0481    0.0944   -0.1111    0.2084   -0.1405
          37   -0.2383   -0.2048   -0.0798    0.0267   -0.1541    0.1429   -0.0166    0.0547
          38   -0.3383   -0.1532   -0.0741    0.1348   -0.3848    0.0135   -0.0816    0.0566
          39   -0.2310   -0.1684   -0.0837    0.0413   -0.1738    0.1394   -0.0128    0.0467
          40   -0.0671   -0.0197   -0.0576   -0.0507   -0.0175   -0.1804    0.0925    0.1080
          41    0.0337    0.0395    0.0326    0.0235   -0.0111    0.2919   -0.0712   -0.0642
          42    0.2364   -0.1164    0.1498    0.1912    0.0400   -0.2193    0.1189    0.0967
          43   -0.0727    0.0072    0.2876    0.1142    0.0103    0.0602   -0.0058   -0.0111
          44   -0.1093    0.0469   -0.2742   -0.1298    0.0111   -0.0676   -0.0660   -0.0837
          45    0.3326   -0.0863   -0.2365   -0.0572   -0.0337   -0.0850    0.1071    0.1338
          46    0.1151   -0.0243    0.3456    0.1265   -0.0162    0.1013    0.0417    0.0218
          47    0.3641   -0.0503   -0.2595   -0.0734   -0.0571    0.0254    0.0961    0.0725
          48   -0.0395    0.0066   -0.3210   -0.1128    0.0122   -0.0998   -0.0254   -0.0118
          49   -0.1350   -0.1189    0.0165   -0.1426    0.1829    0.0891    0.0940   -0.0105
          50   -0.1156   -0.0942    0.0666   -0.3196    0.4787    0.1696    0.2208   -0.0406
          51   -0.0578   -0.0301    0.0366   -0.1465    0.2075    0.0701    0.1035   -0.0231


   Root No.      25        26        27        28        29        30        31        32

                25 A      26 A      27 A      28 A      29 A      30 A      31 A      32 A   

                1163.2    1175.2    1199.1    1256.6    1296.3    1318.1    1356.2    1404.1
  
           1   -0.1770    0.0513    0.0339   -0.0732   -0.1754   -0.0025    0.3220   -0.0146
           2    0.1030    0.0233   -0.1203    0.0542   -0.1770   -0.0140    0.2324    0.0612
           3    0.2044    0.2728    0.0779   -0.3926   -0.1048    0.1106    0.1627   -0.0307
           4   -0.0704    0.0853   -0.2223   -0.0675   -0.1524    0.0829    0.0819    0.1947
           5   -0.0267   -0.0487   -0.1368    0.2016    0.1123   -0.0561   -0.1078   -0.0857
           6    0.0884   -0.0026   -0.0392    0.2532   -0.1951   -0.0306    0.2798    0.2301
           7    0.4774   -0.2503    0.0872    0.0537    0.1194   -0.0318   -0.1161   -0.0440
           8   -0.0553    0.0035    0.1383   -0.2900    0.0492    0.0590   -0.0506   -0.3053
           9   -0.1667   -0.0085    0.0294    0.0597    0.0874   -0.0272   -0.0886   -0.0288
          10    0.0289   -0.0308   -0.0115    0.0229   -0.0206   -0.0959   -0.0281   -0.0030
          11    0.0221    0.0607    0.0125   -0.0688    0.0028    0.2304    0.2635   -0.0055
          12   -0.1442   -0.3333   -0.0916    0.0508   -0.0916   -0.2871   -0.0960    0.0075
          13    0.0256    0.0252   -0.1307   -0.0913    0.1638   -0.0079   -0.1837   -0.1483
          14    0.0058   -0.0100   -0.0303   -0.0502    0.1456   -0.0730    0.0505   -0.0008
          15    0.0370    0.0273   -0.2043   -0.0830    0.0003    0.0870   -0.2282   -0.1398
          16   -0.0334   -0.0475    0.1501    0.0429   -0.0291   -0.0203    0.0807    0.0530
          17   -0.0236   -0.0463    0.1830    0.0529   -0.0008   -0.0632    0.1740    0.1174
          18   -0.0192   -0.0134    0.0151    0.0101   -0.0223    0.0291   -0.0727   -0.0535
          19   -0.0001    0.0202    0.0147    0.0283    0.0323   -0.0134   -0.0696   -0.0001
          20   -0.0458   -0.0637    0.0076    0.1009    0.0747   -0.1021   -0.2300    0.0023
          21    0.0185    0.0662    0.0225    0.0076    0.0317    0.0293   -0.0276   -0.0023
          22    0.1570    0.3925    0.1048    0.4706    0.0722   -0.0440   -0.0624    0.0336
          23   -0.1833    0.3077    0.1142    0.2185    0.1248   -0.0151   -0.0805   -0.0278
          24    0.1084    0.3986    0.1298    0.2344    0.0985    0.0031   -0.0930   -0.0018
          25    0.0024    0.1287    0.2990   -0.2968    0.1460   -0.0102   -0.1123   -0.0972
          26    0.2476   -0.0565   -0.0505    0.0211   -0.1070    0.0112    0.1043    0.0393
          27   -0.0464    0.0807    0.2099   -0.0775    0.1022   -0.0399   -0.0446   -0.0463
          28   -0.4610    0.1094   -0.1034    0.1010   -0.0467   -0.0108    0.0279    0.0441
          29   -0.1443   -0.0251    0.0597   -0.1335    0.1014    0.0587   -0.2823    0.4405
          30    0.0423    0.0234   -0.0050    0.0473   -0.0366   -0.0336    0.1547   -0.3529
          31   -0.4091    0.2101   -0.0638   -0.1413   -0.0184    0.0327    0.0090   -0.0301
          32    0.1154    0.0497    0.0500   -0.2074   -0.0120    0.0917   -0.1625    0.4844
          33    0.0448    0.0391    0.0167   -0.0664    0.0031    0.0420   -0.1152    0.3684
          34    0.0206    0.0111   -0.0069    0.0155   -0.0438   -0.1604   -0.0940    0.0005
[...]
 RED. MASS   1.1446         C  1 -- C  4         +10.2% ( 45.7%)      5.9%
 EFF. MASS   7.0806

 VIBRATION   24   24A         ATOM PAIR      ENERGY CONTRIBUTION    RADIAL
 FREQ.      1151.06         C  2 -- H  9         +24.8% ( 68.2%)      0.1%
 T-DIPOLE    0.0849         C  1 -- C  2         +12.4% ( 48.1%)     92.8%
 TRAVEL      0.0965         C  2 -- C  3         +11.2% ( 45.9%)     36.6%
 RED. MASS   0.8732         C  2 -- C  5         +10.8% ( 45.0%)     15.4%
 EFF. MASS   6.2878

 VIBRATION   25   25A         ATOM PAIR      ENERGY CONTRIBUTION    RADIAL
 FREQ.      1163.22         C  3 -- H 10         +24.7% ( 62.5%)      1.7%
 T-DIPOLE    0.0784         C  3 -- H 11         +22.4% ( 59.5%)      0.7%
 TRAVEL      0.1131         C  1 -- C  3         +14.0% ( 47.0%)      6.2%
 RED. MASS   0.9968         C  2 -- C  3         +10.0% ( 39.9%)     24.6%
 EFF. MASS   4.5282

 VIBRATION   26   26A         ATOM PAIR      ENERGY CONTRIBUTION    RADIAL
 FREQ.      1175.16         C  1 -- H  8         +26.7% ( 62.8%)      8.2%
 T-DIPOLE    0.0178         C  1 -- C  4         +15.8% ( 48.4%)     74.0%
 TRAVEL      0.1166         C  4 -- H 13          +7.9% ( 34.2%)     80.0%
 RED. MASS   0.4691         C  1 -- C  3          +7.2% ( 32.7%)     16.7%
 EFF. MASS   4.2217

 VIBRATION   27   27A         ATOM PAIR      ENERGY CONTRIBUTION    RADIAL
 FREQ.      1199.05         C  5 -- H 14         +37.5% ( 72.2%)      1.7%
 T-DIPOLE    0.0524         C  2 -- H  9         +13.6% ( 43.4%)      0.1%
 TRAVEL      0.1282         C  5 -- C  6          +8.2% ( 33.9%)      8.6%
 RED. MASS   0.4299         C  6 -- H 15          +5.6% ( 28.0%)     52.1%
 EFF. MASS   3.4223

 VIBRATION   28   28A         ATOM PAIR      ENERGY CONTRIBUTION    RADIAL
 FREQ.      1256.56         C  1 -- H  8         +23.4% ( 65.4%)      7.2%
 T-DIPOLE    0.1032         C  1 -- C  3         +12.4% ( 47.6%)     16.1%
 TRAVEL      0.0975         C  2 -- C  3         +12.3% ( 47.5%)     80.4%
 RED. MASS   0.6875         C  1 -- C  2         +12.2% ( 47.2%)      0.0%
 EFF. MASS   5.6474

 VIBRATION   29   29A         ATOM PAIR      ENERGY CONTRIBUTION    RADIAL
 FREQ.      1296.28         C  6 -- H 15         +15.3% ( 45.0%)      0.0%
 T-DIPOLE    0.2563         C  6 -- H 16         +10.9% ( 38.1%)      0.9%
 TRAVEL      0.1223         C  2 -- C  5          +9.6% ( 35.8%)     69.3%
 RED. MASS   0.3105         C  2 -- H  9          +9.0% ( 34.5%)      0.9%
 EFF. MASS   3.4771

 VIBRATION   30   30A         ATOM PAIR      ENERGY CONTRIBUTION    RADIAL
 FREQ.      1318.06         C  4 -- H 13         +26.5% ( 54.2%)      6.3%
 T-DIPOLE    0.5468         C  4 -- H 12         +25.6% ( 53.4%)      5.9%
 TRAVEL      0.1295         C  1 -- C  4         +10.7% ( 34.5%)     40.1%
 RED. MASS   0.4461         C  4 -- C  7         +10.5% ( 34.2%)     33.4%
 EFF. MASS   3.0526

 VIBRATION   31   31A         ATOM PAIR      ENERGY CONTRIBUTION    RADIAL
 FREQ.      1356.16         C  2 -- C  5         +10.6% ( 46.4%)     99.5%
 T-DIPOLE    0.5722         C  1 -- C  4         +10.5% ( 46.1%)     74.1%
 TRAVEL      0.0828         C  1 -- C  2         +10.3% ( 45.7%)     30.8%
 RED. MASS   0.7923         C  1 -- C  3          +9.9% ( 44.8%)     64.5%
 EFF. MASS   7.2549

 VIBRATION   32   32A         ATOM PAIR      ENERGY CONTRIBUTION    RADIAL
 FREQ.      1404.09         C  3 -- H 11         +26.5% ( 59.7%)      2.1%
 T-DIPOLE    0.0818         C  3 -- H 10         +22.9% ( 55.5%)      4.0%
 TRAVEL      0.1141         C  2 -- C  5         +11.2% ( 38.7%)     95.3%
 RED. MASS   0.4953         C  2 -- C  3          +9.5% ( 35.6%)      2.8%
 EFF. MASS   3.6913

 VIBRATION   33   33A         ATOM PAIR      ENERGY CONTRIBUTION    RADIAL
 FREQ.      1480.53         C  4 -- C  7         +29.4% ( 84.3%)     94.4%
 T-DIPOLE    1.0575         C  1 -- C  4         +17.1% ( 64.4%)     65.1%
 TRAVEL      0.0648         C  4 -- H 13         +16.2% ( 62.6%)      0.1%
 RED. MASS   4.1126         C  4 -- H 12         +16.0% ( 62.1%)      0.0%
 EFF. MASS  10.8482

 VIBRATION   34   34A         ATOM PAIR      ENERGY CONTRIBUTION    RADIAL
 FREQ.      1619.33         C  1 -- C  2         +19.7% ( 73.5%)     88.9%
 T-DIPOLE    0.2565         C  2 -- C  3         +15.9% ( 66.1%)     94.9%
 TRAVEL      0.0597         C  1 -- C  3         +15.5% ( 65.2%)     96.6%
 RED. MASS   3.1541         C  1 -- C  4          +9.7% ( 51.7%)     68.3%
 EFF. MASS  11.6731

 VIBRATION   35   35A         ATOM PAIR      ENERGY CONTRIBUTION    RADIAL
 FREQ.      1864.84         C  5 -- C  6         +44.2% ( 98.3%)     98.5%
 T-DIPOLE    0.1996         C  2 -- C  5         +17.6% ( 62.1%)     62.0%
 TRAVEL      0.0553         C  5 -- H 14         +15.4% ( 58.0%)      3.5%
 RED. MASS   5.2107         C  6 -- H 15         +10.5% ( 47.9%)     10.4%
 EFF. MASS  11.8334         C  6 -- H 16         +10.2% ( 47.3%)     13.2%

 VIBRATION   36   36A         ATOM PAIR      ENERGY CONTRIBUTION    RADIAL
 FREQ.      2900.74         C  4 -- H 12         +49.7% ( 73.1%)     96.7%
 T-DIPOLE    0.3825         C  4 -- H 13         +48.2% ( 72.0%)     96.6%
 TRAVEL      0.1242         C  1 -- C  4          +1.0% ( 10.2%)      0.1%
 RED. MASS   0.5107         C  4 -- C  7          +1.0% ( 10.2%)      0.0%
 EFF. MASS   1.5072

 VIBRATION   37   37A         ATOM PAIR      ENERGY CONTRIBUTION    RADIAL
 FREQ.      2969.95         C  7 -- H 17         +97.3% ( 99.1%)     99.9%
 T-DIPOLE    0.4801         C  4 -- C  7          +0.9% (  9.5%)     23.5%
 TRAVEL      0.1251         C  4 -- H 12          +0.8% (  9.2%)     96.1%
 RED. MASS   0.8953         C  4 -- H 13          +0.8% (  9.1%)     96.3%
 EFF. MASS   1.4499

 VIBRATION   38   38A         ATOM PAIR      ENERGY CONTRIBUTION    RADIAL
 FREQ.      2986.48         C  2 -- H  9         +85.8% ( 94.3%)    100.0%
 T-DIPOLE    0.1566         C  1 -- H  8          +9.1% ( 30.7%)    100.0%
 TRAVEL      0.1245         C  1 -- C  2          +1.2% ( 11.2%)     26.9%
 RED. MASS   0.7423         C  2 -- C  3          +1.0% ( 10.1%)     24.2%
 EFF. MASS   1.4560

 VIBRATION   39   39A         ATOM PAIR      ENERGY CONTRIBUTION    RADIAL
 FREQ.      2995.02         C  4 -- H 12         +41.0% ( 63.3%)     98.0%
 T-DIPOLE    0.3129         C  4 -- H 13         +40.2% ( 62.6%)     97.9%
 TRAVEL      0.1316         C  1 -- H  8         +10.2% ( 31.6%)     99.9%
 RED. MASS   0.3462         C  2 -- H  9          +5.2% ( 22.6%)    100.0%
 EFF. MASS   1.3003

 VIBRATION   40   40A         ATOM PAIR      ENERGY CONTRIBUTION    RADIAL
 FREQ.      2997.99         C  1 -- H  8         +78.3% ( 89.4%)    100.0%
 T-DIPOLE    0.3456         C  4 -- H 13          +7.7% ( 28.1%)     98.5%
 TRAVEL      0.1260         C  2 -- H  9          +5.5% ( 23.8%)     99.9%
 RED. MASS   0.6088         C  4 -- H 12          +5.1% ( 22.8%)     96.8%
 EFF. MASS   1.4169

 VIBRATION   41   41A         ATOM PAIR      ENERGY CONTRIBUTION    RADIAL
 FREQ.      3043.55         C  5 -- H 14         +96.2% ( 99.5%)    100.0%
 T-DIPOLE    0.2698         C  5 -- C  6          +1.4% ( 12.1%)     31.6%
 TRAVEL      0.1213         C  2 -- C  5          +1.4% ( 11.8%)     14.0%
 RED. MASS   0.9122         C  6 -- H 16          +0.9% (  9.7%)     95.7%
 EFF. MASS   1.5048

 VIBRATION   42   42A         ATOM PAIR      ENERGY CONTRIBUTION    RADIAL
 FREQ.      3089.80         C  3 -- H 11         +54.6% ( 76.3%)     97.8%
 T-DIPOLE    0.2059         C  3 -- H 10         +42.6% ( 67.4%)     96.4%
 TRAVEL      0.1186         C  2 -- C  3          +1.1% ( 11.1%)      0.3%
 RED. MASS   0.5222         C  1 -- C  3          +1.1% ( 11.1%)      0.1%
 EFF. MASS   1.5512

 VIBRATION   43   43A         ATOM PAIR      ENERGY CONTRIBUTION    RADIAL
 FREQ.      3128.12         C  6 -- H 15         +97.0% ( 99.8%)    100.0%
 T-DIPOLE    0.2108         C  6 -- H 16          +1.5% ( 12.5%)     26.2%
 TRAVEL      0.1197         C  5 -- C  6          +1.4% ( 11.9%)     38.1%
 RED. MASS   0.9257
 EFF. MASS   1.5042

 VIBRATION   44   44A         ATOM PAIR      ENERGY CONTRIBUTION    RADIAL
 FREQ.      3130.44         C  3 -- H 10         +55.6% ( 74.1%)     97.2%
 T-DIPOLE    0.2237         C  3 -- H 11         +42.7% ( 65.0%)     95.2%
 TRAVEL      0.1286         C  1 -- C  3          +0.8% (  9.1%)     76.2%
 RED. MASS   0.4917         C  2 -- C  3          +0.8% (  9.1%)     76.2%
 EFF. MASS   1.3017

 VIBRATION   45   45A         ATOM PAIR      ENERGY CONTRIBUTION    RADIAL
 FREQ.      3147.27         C  6 -- H 16         +96.3% ( 99.3%)    100.0%
 T-DIPOLE    0.2525         C  5 -- C  6          +1.5% ( 12.5%)     55.3%
 TRAVEL      0.1194         C  6 -- H 15          +1.3% ( 11.6%)      1.4%
 RED. MASS   0.9063         C  5 -- H 14          +0.8% (  9.1%)     95.7%
 EFF. MASS   1.5034

      SYMMETRY NUMBER FOR POINT-GROUP C1  =  1


          SYSTEM IS A GROUND STATE



 InChI=1S/C7H10/c1-3-6-5-7(6)4-2/h1,4,6-7H,2-3,5H2/lp1


          MOLECULE IS NOT LINEAR

          THERE ARE 45 GENUINE VIBRATIONS IN THIS SYSTEM
          THIS THERMODYNAMICS CALCULATION IS LIMITED TO
          MOLECULES WHICH HAVE NO INTERNAL ROTATIONS




                    CALCULATED THERMODYNAMIC PROPERTIES
                                          *
   TEMP. (K)   PARTITION FUNCTION   H.O.F.    ENTHALPY  HEAT CAPACITY ENTROPY
                                   KCAL/MOL   CAL/MOLE    CAL/K/MOL  CAL/K/MOL


 298.00  VIB.     0.1199D+03                  3279.4848    23.3144    20.5164
         ROT.     0.2553D+06                   888.2813     2.9808    27.7222
         INT.     0.3061D+08                  4167.7661    26.2952    48.2387
         TRA.     0.8833D+27                  1480.4688     4.9680    39.5363
         TOT.                      126.804    5648.2350    31.2632    87.7749

 200.00  VIB.     0.2000D+02                  1432.8039    14.5998    13.1174
         ROT.     0.1404D+06                   596.1620     2.9808    26.5335
         INT.     0.2808D+07                  2028.9658    17.5806    39.6510
         TRA.     0.4856D+27                   993.6033     4.9680    37.5551
         TOT.                      124.178    3022.5691    22.5486    77.2061

 210.00  VIB.     0.2396D+02                  1582.8590    15.4148    13.8494
         ROT.     0.1510D+06                   625.9700     2.9808    26.6790
         INT.     0.3619D+07                  2208.8290    18.3956    40.5284
         TRA.     0.5225D+27                  1043.2834     4.9680    37.7975
         TOT.                      124.407    3252.1124    23.3636    78.3259

 220.00  VIB.     0.2871D+02                  1741.1714    16.2511    14.5857
         ROT.     0.1620D+06                   655.7781     2.9808    26.8176
         INT.     0.4649D+07                  2396.9495    19.2320    41.4033
         TRA.     0.5603D+27                  1092.9636     4.9680    38.0286
         TOT.                      124.645    3489.9131    24.2000    79.4320

 230.00  VIB.     0.3441D+02                  1907.9499    17.1078    15.3269
         ROT.     0.1731D+06                   685.5862     2.9808    26.9501
         INT.     0.5958D+07                  2593.5362    20.0887    42.2771
         TRA.     0.5989D+27                  1142.6437     4.9680    38.2495
         TOT.                      124.892    3736.1799    25.0567    80.5266

 240.00  VIB.     0.4127D+02                  2083.3912    17.9834    16.0735
         ROT.     0.1845D+06                   715.3943     2.9808    27.0770
         INT.     0.7616D+07                  2798.7855    20.9642    43.1505
         TRA.     0.6384D+27                  1192.3239     4.9680    38.4609
         TOT.                      125.146    3991.1094    25.9322    81.6114

 250.00  VIB.     0.4952D+02                  2267.6738    18.8758    16.8256
         ROT.     0.1962D+06                   745.2024     2.9808    27.1987
         INT.     0.9716D+07                  3012.8762    21.8566    44.0243
         TRA.     0.6787D+27                  1242.0041     4.9680    38.6637
         TOT.                      125.410    4254.8803    26.8246    82.6880

 260.00  VIB.     0.5946D+02                  2460.9545    19.7826    17.5836
         ROT.     0.2081D+06                   775.0105     2.9808    27.3156
         INT.     0.1237D+08                  3235.9650    22.7634    44.8992
         TRA.     0.7198D+27                  1291.6842     4.9680    38.8586
         TOT.                      125.683    4527.6492    27.7314    83.7577

 270.00  VIB.     0.7144D+02                  2663.3653    20.7013    18.3474
         ROT.     0.2202D+06                   804.8186     2.9808    27.4281
         INT.     0.1573D+08                  3468.1839    23.6821    45.7755
         TRA.     0.7618D+27                  1341.3644     4.9680    39.0461
         TOT.                      125.965    4809.5483    28.6502    84.8215

 280.00  VIB.     0.8589D+02                  2875.0119    21.6293    19.1170
         ROT.     0.2326D+06                   834.6267     2.9808    27.5365
         INT.     0.1997D+08                  3709.6386    24.6101    46.6535
         TRA.     0.8045D+27                  1391.0445     4.9680    39.2267
         TOT.                      126.256    5100.6832    29.5781    85.8802

 290.00  VIB.     0.1033D+03                  3095.9733    22.5638    19.8923
         ROT.     0.2451D+06                   864.4348     2.9808    27.6411
         INT.     0.2533D+08                  3960.4081    25.5446    47.5334
         TRA.     0.8479D+27                  1440.7247     4.9680    39.4011
         TOT.                      126.557    5401.1328    30.5127    86.9344

 300.00  VIB.     0.1244D+03                  3326.3014    23.5022    20.6730
         ROT.     0.2579D+06                   894.2429     2.9808    27.7422
         INT.     0.3209D+08                  4220.5444    26.4831    48.4152
         TRA.     0.8922D+27                  1490.4049     4.9680    39.5695
         TOT.                      126.866    5710.9492    31.4511    87.9847

 310.00  VIB.     0.1499D+03                  3566.0228    24.4420    21.4590
         ROT.     0.2709D+06                   924.0510     2.9808    27.8399
         INT.     0.4061D+08                  4490.0738    27.4229    49.2989
         TRA.     0.9372D+27                  1540.0850     4.9680    39.7324
         TOT.                      127.186    6030.1588    32.3909    89.0313

 320.00  VIB.     0.1807D+03                  3815.1391    25.3809    22.2498
         ROT.     0.2841D+06                   953.8591     2.9808    27.9345
         INT.     0.5135D+08                  4768.9982    28.3617    50.1843
         TRA.     0.9829D+27                  1589.7652     4.9680    39.8901
         TOT.                      127.514    6358.7634    33.3297    90.0745

 330.00  VIB.     0.2181D+03                  4073.6293    26.3165    23.0452
         ROT.     0.2976D+06                   983.6672     2.9808    28.0263
         INT.     0.6489D+08                  5057.2966    29.2973    51.0714
         TRA.     0.1029D+28                  1639.4454     4.9680    40.0430
         TOT.                      127.852    6696.7419    34.2653    91.1144

 340.00  VIB.     0.2633D+03                  4341.4515    27.2469    23.8446
         ROT.     0.3112D+06                  1013.4753     2.9808    28.1152
         INT.     0.8195D+08                  5354.9268    30.2277    51.9598
         TRA.     0.1076D+28                  1689.1255     4.9680    40.1913
         TOT.                      128.199    7044.0524    35.1958    92.1512

 350.00  VIB.     0.3182D+03                  4618.5447    28.1704    24.6478
         ROT.     0.3250D+06                  1043.2834     2.9808    28.2016
         INT.     0.1034D+09                  5661.8281    31.1512    52.8494
         TRA.     0.1124D+28                  1738.8057     4.9680    40.3353
         TOT.                      128.556    7400.6338    36.1192    93.1847

 360.00  VIB.     0.3849D+03                  4904.8311    29.0853    25.4542
         ROT.     0.3390D+06                  1073.0915     2.9808    28.2856
         INT.     0.1305D+09                  5977.9226    32.0661    53.7398
         TRA.     0.1173D+28                  1788.4859     4.9680    40.4753
         TOT.                      128.922    7766.4085    37.0342    94.2151

 370.00  VIB.     0.4658D+03                  5200.2181    29.9903    26.2635
         ROT.     0.3533D+06                  1102.8996     2.9808    28.3673
         INT.     0.1645D+09                  6303.1177    32.9711    54.6308
         TRA.     0.1222D+28                  1838.1660     4.9680    40.6114
         TOT.                      129.297    8141.2838    37.9391    95.2422

 380.00  VIB.     0.5641D+03                  5504.6004    30.8842    27.0752
         ROT.     0.3677D+06                  1132.7077     2.9808    28.4468
         INT.     0.2074D+09                  6637.3081    33.8650    55.5219
         TRA.     0.1272D+28                  1887.8462     4.9680    40.7439
         TOT.                      129.681    8525.1543    38.8330    96.2658

 390.00  VIB.     0.6836D+03                  5817.8616    31.7660    27.8888
         ROT.     0.3823D+06                  1162.5158     2.9808    28.5242
         INT.     0.2613D+09                  6980.3774    34.7468    56.4130
         TRA.     0.1322D+28                  1937.5263     4.9680    40.8729
         TOT.                      130.073    8917.9038    39.7148    97.2860

 400.00  VIB.     0.8290D+03                  6139.8765    32.6348    28.7040
         ROT.     0.3971D+06                  1192.3239     2.9808    28.5997
         INT.     0.3292D+09                  7332.2004    35.6156    57.3037
         TRA.     0.1374D+28                  1987.2065     4.9680    40.9987
         TOT.                      130.475    9319.4069    40.5836    98.3024

   *: NOTE: HEATS OF FORMATION ARE RELATIVE TO THE
            ELEMENTS IN THEIR STANDARD STATE AT 298K
              (=  Standard Enthalpy of Formation).

            Hvib:  Zero-point energy is not included.
                   frequencies of less than zero cm-1 are not included.
            Hrot = (3/2)RT
            Htra = (3/2)RT + pV = (5/2)RT

            Heat capacity is Cp, not Cv

          For more information, see: HTTP://OpenMOPAC.net/Manual/thermochemistry.html


           FORCE CONSTANT IN CARTESIAN COORDINATES (Millidynes/A)

    ATOM   CHEMICAL       X               Y               Z
   NUMBER   SYMBOL  FORCE CONSTANT  FORCE CONSTANT  FORCE CONSTANT

      1       C        9.774333        6.772009        8.947186
      2       C       10.004947        6.750984        9.337340
      3       C        4.561318       11.706223        8.814142
      4       C        7.571121        9.290076        8.005267
      5       C        7.074174       11.587671        8.837764
      6       C        6.646232       11.372198        8.491106
      7       C        1.509616        7.590500        4.132987
      8       H        1.698154        0.922318        3.680903
      9       H        1.722335        0.903908        3.584191
     10       H        0.525753        2.289362        3.828803
     11       H        0.526579        2.279462        3.823284
     12       H        3.702509        1.513621        0.643655
     13       H        1.819535        0.587749        3.534366
     14       H        3.108446        2.186187        0.885038
     15       H        3.253097        2.337503        0.833463
     16       H        1.894929        0.962647        3.619676
     17       H        0.421894        1.984911        3.073496

 **********************
 *                    *
 * JOB ENDED NORMALLY *
 *                    *
 **********************



 TOTAL JOB TIME:             7.42 SECONDS

 == MOPAC DONE ==
