 *******************************************************************************
 ** Site#: 14399        For non-commercial use only    Version 18.184L 64BITS **
 *******************************************************************************
 ** Cite this program as: MOPAC2016, Version: 18.184L, James J. P. Stewart,   **
 ** Stewart Computational Chemistry, web: HTTP://OpenMOPAC.net. Days left:  20**
 *******************************************************************************
 **                                                                           **
 **                                MOPAC2016                                  **
 **                                                                           **
 *******************************************************************************

                              PM3 CALCULATION RESULTS

 *******************************************************************************
 *  CALCULATION DONE:                                Thu Jun 13 19:48:19 2019  *
 *  PM3        - The PM3 Hamiltonian to be used
 *  PRECISE    - CRITERIA TO BE INCREASED BY 100 TIMES
 *  NOSYM      - POINT-GROUP SYMMETRY SET TO C1
 *  THREADS=1  - MULTI-THREADING NOT USED
 *  T=         - A TIME OF 172800.0 SECONDS REQUESTED
 *  DUMP=N     - RESTART FILE WRITTEN EVERY  7200.000 SECONDS
 *******************************************************************************
pm3  precise nosym THREADS=1
 InChI=1S/C6H8/c1-3-6-4-5(6)2/h3,6H,1-2,4H2

   ATOM   CHEMICAL          X               Y               Z
  NUMBER   SYMBOL      (ANGSTROMS)     (ANGSTROMS)     (ANGSTROMS)
 
     1       C         -0.19240000  *  -0.31280000  *   0.55370000  *
     2       C          0.53270000  *  -1.23860000  *  -0.26240000  *
     3       C          1.26480000  *   0.01590000  *   0.22100000  *
     4       C         -1.16480000  *   0.56310000  *  -0.18100000  *
     5       C          2.34070000  *   0.79240000  *   0.29630000  *
     6       C         -2.45180000  *   0.22350000  *  -0.27100000  *
     7       H         -0.35800000  *  -0.56420000  *   1.62270000  *
     8       H          0.36070000  *  -1.21580000  *  -1.36020000  *
     9       H          0.90580000  *  -2.15210000  *   0.24590000  *
    10       H         -0.82940000  *   1.49800000  *  -0.62220000  *
    11       H          2.30310000  *   1.71670000  *   0.86200000  *
    12       H          3.25520000  *   0.50180000  *  -0.20850000  *
    13       H         -3.14930000  *   0.87060000  *  -0.79280000  *
    14       H         -2.81730000  *  -0.69850000  *   0.17140000  *
 


          CARTESIAN COORDINATES 

    NO.       ATOM           X           Y           Z

     1         C         -0.1924     -0.3128      0.5537
     2         C          0.5327     -1.2386     -0.2624
     3         C          1.2648      0.0159      0.2210
     4         C         -1.1648      0.5631     -0.1810
     5         C          2.3407      0.7924      0.2963
     6         C         -2.4518      0.2235     -0.2710
     7         H         -0.3580     -0.5642      1.6227
     8         H          0.3607     -1.2158     -1.3602
     9         H          0.9058     -2.1521      0.2459
    10         H         -0.8294      1.4980     -0.6222
    11         H          2.3031      1.7167      0.8620
    12         H          3.2552      0.5018     -0.2085
    13         H         -3.1493      0.8706     -0.7928
    14         H         -2.8173     -0.6985      0.1714

  H: (PM3): J. J. P. STEWART, J. COMP. CHEM. 10, 209 (1989).
  C: (PM3): J. J. P. STEWART, J. COMP. CHEM. 10, 209 (1989).

           Empirical Formula: C6 H8  =    14 atoms



      MOLECULAR POINT GROUP   :   C1  


      RHF CALCULATION, NO. OF DOUBLY OCCUPIED LEVELS = 16


          Geometry optimization using EF

          DIAGONAL MATRIX USED AS START HESSIAN

 CYCLE:     1 TIME:   0.008 TIME LEFT:  2.00D  GRAD.:   153.208 HEAT:  76.28911
 CYCLE:     2 TIME:   0.031 TIME LEFT:  2.00D  GRAD.:   174.665 HEAT:  73.88058
 CYCLE:     3 TIME:   0.031 TIME LEFT:  2.00D  GRAD.:   108.513 HEAT:  67.78613
 CYCLE:     4 TIME:   0.023 TIME LEFT:  2.00D  GRAD.:   102.199 HEAT:  65.89740
 CYCLE:     5 TIME:   0.023 TIME LEFT:  2.00D  GRAD.:    38.025 HEAT:  64.59587
 CYCLE:     6 TIME:   0.023 TIME LEFT:  2.00D  GRAD.:    50.350 HEAT:  64.43438
 CYCLE:     7 TIME:   0.016 TIME LEFT:  2.00D  GRAD.:    45.346 HEAT:  64.17601
 CYCLE:     8 TIME:   0.023 TIME LEFT:  2.00D  GRAD.:    50.221 HEAT:  64.04641
 CYCLE:     9 TIME:   0.023 TIME LEFT:  2.00D  GRAD.:    33.472 HEAT:  63.77517
 CYCLE:    10 TIME:   0.031 TIME LEFT:  2.00D  GRAD.:    17.423 HEAT:  63.43891
 CYCLE:    11 TIME:   0.031 TIME LEFT:  2.00D  GRAD.:    12.500 HEAT:  63.35713
 CYCLE:    12 TIME:   0.023 TIME LEFT:  2.00D  GRAD.:    15.726 HEAT:  63.32521
 CYCLE:    13 TIME:   0.016 TIME LEFT:  2.00D  GRAD.:     8.846 HEAT:  63.26727
 CYCLE:    14 TIME:   0.023 TIME LEFT:  2.00D  GRAD.:     7.167 HEAT:  63.23017
 CYCLE:    15 TIME:   0.023 TIME LEFT:  2.00D  GRAD.:    10.499 HEAT:  63.21724
 CYCLE:    16 TIME:   0.023 TIME LEFT:  2.00D  GRAD.:     5.717 HEAT:  63.17529
 CYCLE:    17 TIME:   0.023 TIME LEFT:  2.00D  GRAD.:     6.004 HEAT:  63.15555
 CYCLE:    18 TIME:   0.023 TIME LEFT:  2.00D  GRAD.:     8.314 HEAT:  63.13449
 CYCLE:    19 TIME:   0.023 TIME LEFT:  2.00D  GRAD.:     6.650 HEAT:  63.09446
 CYCLE:    20 TIME:   0.023 TIME LEFT:  2.00D  GRAD.:     3.042 HEAT:  63.07199
 CYCLE:    21 TIME:   0.023 TIME LEFT:  2.00D  GRAD.:     2.667 HEAT:  63.06380
 CYCLE:    22 TIME:   0.023 TIME LEFT:  2.00D  GRAD.:     1.745 HEAT:  63.05783
 CYCLE:    23 TIME:   0.023 TIME LEFT:  2.00D  GRAD.:     1.338 HEAT:  63.05296
 CYCLE:    24 TIME:   0.031 TIME LEFT:  2.00D  GRAD.:     1.221 HEAT:  63.04941
 CYCLE:    25 TIME:   0.016 TIME LEFT:  2.00D  GRAD.:     1.012 HEAT:  63.04766
 CYCLE:    26 TIME:   0.031 TIME LEFT:  2.00D  GRAD.:     0.720 HEAT:  63.04665
 CYCLE:    27 TIME:   0.016 TIME LEFT:  2.00D  GRAD.:     0.741 HEAT:  63.04571
 CYCLE:    28 TIME:   0.023 TIME LEFT:  2.00D  GRAD.:     0.918 HEAT:  63.04396
 CYCLE:    29 TIME:   0.023 TIME LEFT:  2.00D  GRAD.:     0.894 HEAT:  63.04245
 CYCLE:    30 TIME:   0.023 TIME LEFT:  2.00D  GRAD.:     0.821 HEAT:  63.04096
 CYCLE:    31 TIME:   0.023 TIME LEFT:  2.00D  GRAD.:     0.840 HEAT:  63.03961
 CYCLE:    32 TIME:   0.023 TIME LEFT:  2.00D  GRAD.:     1.035 HEAT:  63.03762
 CYCLE:    33 TIME:   0.023 TIME LEFT:  2.00D  GRAD.:     1.190 HEAT:  63.03481
 CYCLE:    34 TIME:   0.023 TIME LEFT:  2.00D  GRAD.:     1.067 HEAT:  63.03171
 CYCLE:    35 TIME:   0.023 TIME LEFT:  2.00D  GRAD.:     0.888 HEAT:  63.02970
 CYCLE:    36 TIME:   0.023 TIME LEFT:  2.00D  GRAD.:     0.868 HEAT:  63.02839
 CYCLE:    37 TIME:   0.023 TIME LEFT:  2.00D  GRAD.:     0.961 HEAT:  63.02694
 CYCLE:    38 TIME:   0.023 TIME LEFT:  2.00D  GRAD.:     1.090 HEAT:  63.02489
 CYCLE:    39 TIME:   0.023 TIME LEFT:  2.00D  GRAD.:     1.089 HEAT:  63.02246
 CYCLE:    40 TIME:   0.023 TIME LEFT:  2.00D  GRAD.:     0.975 HEAT:  63.02019
 CYCLE:    41 TIME:   0.016 TIME LEFT:  2.00D  GRAD.:     0.890 HEAT:  63.01824
 CYCLE:    42 TIME:   0.023 TIME LEFT:  2.00D  GRAD.:     0.916 HEAT:  63.01636
 CYCLE:    43 TIME:   0.023 TIME LEFT:  2.00D  GRAD.:     1.128 HEAT:  63.01426
 CYCLE:    44 TIME:   0.023 TIME LEFT:  2.00D  GRAD.:     1.263 HEAT:  63.01205
 CYCLE:    45 TIME:   0.023 TIME LEFT:  2.00D  GRAD.:     1.406 HEAT:  63.00868
 CYCLE:    46 TIME:   0.023 TIME LEFT:  2.00D  GRAD.:     1.775 HEAT:  63.00285
 CYCLE:    47 TIME:   0.023 TIME LEFT:  2.00D  GRAD.:     2.921 HEAT:  62.98866
 CYCLE:    48 TIME:   0.023 TIME LEFT:  2.00D  GRAD.:     4.065 HEAT:  62.97143
 CYCLE:    49 TIME:   0.023 TIME LEFT:  2.00D  GRAD.:     3.789 HEAT:  62.94849
 CYCLE:    50 TIME:   0.023 TIME LEFT:  2.00D  GRAD.:     5.747 HEAT:  62.92845
 CYCLE:    51 TIME:   0.031 TIME LEFT:  2.00D  GRAD.:     3.484 HEAT:  62.91521
 CYCLE:    52 TIME:   0.023 TIME LEFT:  2.00D  GRAD.:     3.426 HEAT:  62.89923
 CYCLE:    53 TIME:   0.023 TIME LEFT:  2.00D  GRAD.:     5.018 HEAT:  62.88571
 CYCLE:    54 TIME:   0.023 TIME LEFT:  2.00D  GRAD.:     3.897 HEAT:  62.86954
 CYCLE:    55 TIME:   0.023 TIME LEFT:  2.00D  GRAD.:     4.978 HEAT:  62.84861
 CYCLE:    56 TIME:   0.023 TIME LEFT:  2.00D  GRAD.:     4.882 HEAT:  62.82999
 CYCLE:    57 TIME:   0.023 TIME LEFT:  2.00D  GRAD.:     6.417 HEAT:  62.81905
 CYCLE:    58 TIME:   0.023 TIME LEFT:  2.00D  GRAD.:     6.115 HEAT:  62.79973
 CYCLE:    59 TIME:   0.016 TIME LEFT:  2.00D  GRAD.:     2.507 HEAT:  62.77633
 CYCLE:    60 TIME:   0.023 TIME LEFT:  2.00D  GRAD.:     5.403 HEAT:  62.76127
 CYCLE:    61 TIME:   0.023 TIME LEFT:  2.00D  GRAD.:     3.784 HEAT:  62.74648
 CYCLE:    62 TIME:   0.023 TIME LEFT:  2.00D  GRAD.:     3.293 HEAT:  62.73237
 CYCLE:    63 TIME:   0.023 TIME LEFT:  2.00D  GRAD.:     4.809 HEAT:  62.71554
 CYCLE:    64 TIME:   0.023 TIME LEFT:  2.00D  GRAD.:     4.165 HEAT:  62.70388
 CYCLE:    65 TIME:   0.031 TIME LEFT:  2.00D  GRAD.:     3.569 HEAT:  62.70114
 CYCLE:    66 TIME:   0.023 TIME LEFT:  2.00D  GRAD.:     3.342 HEAT:  62.68622
 CYCLE:    67 TIME:   0.023 TIME LEFT:  2.00D  GRAD.:     2.854 HEAT:  62.67879
 CYCLE:    68 TIME:   0.016 TIME LEFT:  2.00D  GRAD.:     4.800 HEAT:  62.66212
 CYCLE:    69 TIME:   0.023 TIME LEFT:  2.00D  GRAD.:     3.597 HEAT:  62.64988
 CYCLE:    70 TIME:   0.023 TIME LEFT:  2.00D  GRAD.:     5.959 HEAT:  62.63906
 CYCLE:    71 TIME:   0.023 TIME LEFT:  2.00D  GRAD.:     1.988 HEAT:  62.62888
 CYCLE:    72 TIME:   0.023 TIME LEFT:  2.00D  GRAD.:     1.723 HEAT:  62.61824
 CYCLE:    73 TIME:   0.023 TIME LEFT:  2.00D  GRAD.:     3.123 HEAT:  62.60544
 CYCLE:    74 TIME:   0.023 TIME LEFT:  2.00D  GRAD.:     1.522 HEAT:  62.59929
 CYCLE:    75 TIME:   0.023 TIME LEFT:  2.00D  GRAD.:     2.203 HEAT:  62.59538
 CYCLE:    76 TIME:   0.023 TIME LEFT:  2.00D  GRAD.:     2.077 HEAT:  62.59218
 CYCLE:    77 TIME:   0.023 TIME LEFT:  2.00D  GRAD.:     1.586 HEAT:  62.58534
 CYCLE:    78 TIME:   0.023 TIME LEFT:  2.00D  GRAD.:     2.456 HEAT:  62.58351
 CYCLE:    79 TIME:   0.016 TIME LEFT:  2.00D  GRAD.:     1.322 HEAT:  62.58174
 CYCLE:    80 TIME:   0.031 TIME LEFT:  2.00D  GRAD.:     1.273 HEAT:  62.58062
 CYCLE:    81 TIME:   0.016 TIME LEFT:  2.00D  GRAD.:     0.949 HEAT:  62.57909
 CYCLE:    82 TIME:   0.023 TIME LEFT:  2.00D  GRAD.:     0.995 HEAT:  62.57758
 CYCLE:    83 TIME:   0.023 TIME LEFT:  2.00D  GRAD.:     0.892 HEAT:  62.57611
 CYCLE:    84 TIME:   0.023 TIME LEFT:  2.00D  GRAD.:     0.605 HEAT:  62.57496
 CYCLE:    85 TIME:   0.023 TIME LEFT:  2.00D  GRAD.:     0.393 HEAT:  62.57453
 CYCLE:    86 TIME:   0.023 TIME LEFT:  2.00D  GRAD.:     0.592 HEAT:  62.57431
 CYCLE:    87 TIME:   0.023 TIME LEFT:  2.00D  GRAD.:     0.395 HEAT:  62.57412
 CYCLE:    88 TIME:   0.023 TIME LEFT:  2.00D  GRAD.:     0.240 HEAT:  62.57390
 CYCLE:    89 TIME:   0.023 TIME LEFT:  2.00D  GRAD.:     0.258 HEAT:  62.57365
 CYCLE:    90 TIME:   0.023 TIME LEFT:  2.00D  GRAD.:     0.155 HEAT:  62.57360
 CYCLE:    91 TIME:   0.023 TIME LEFT:  2.00D  GRAD.:     0.274 HEAT:  62.57353
 CYCLE:    92 TIME:   0.023 TIME LEFT:  2.00D  GRAD.:     0.218 HEAT:  62.57347
 CYCLE:    93 TIME:   0.023 TIME LEFT:  2.00D  GRAD.:     0.278 HEAT:  62.57335
 CYCLE:    94 TIME:   0.016 TIME LEFT:  2.00D  GRAD.:     0.100 HEAT:  62.57331
 CYCLE:    95 TIME:   0.023 TIME LEFT:  2.00D  GRAD.:     0.028 HEAT:  62.57330

     GRADIENT =  0.02826  IS LESS THAN CUTOFF =  0.05000



 -------------------------------------------------------------------------------
 pm3  precise nosym THREADS=1
 InChI=1S/C6H8/c1-3-6-4-5(6)2/h3,6H,1-2,4H2



     GEOMETRY OPTIMISED USING EIGENVECTOR FOLLOWING (EF).     
     SCF FIELD WAS ACHIEVED                                   


                              PM3 CALCULATION
                                                       MOPAC2016 (Version: 18.184L)
                                                       Thu Jun 13 19:48:21 2019
                                                       No. of days remaining =  20




          FINAL HEAT OF FORMATION =         62.57330 KCAL/MOL =     261.80669 KJ/MOL


          TOTAL ENERGY            =       -831.79049 EV
          ELECTRONIC ENERGY       =      -3363.80790 EV  POINT GROUP:     C1  
          CORE-CORE REPULSION     =       2532.01741 EV
          COSMO AREA              =        137.76 SQUARE ANGSTROMS
          COSMO VOLUME            =        124.30 CUBIC ANGSTROMS

          GRADIENT NORM           =          0.02826 = 0.00755 PER ATOM
          IONIZATION POTENTIAL    =          9.963269 EV
          HOMO LUMO ENERGIES (EV) =         -9.963  0.937
          NO. OF FILLED LEVELS    =         16
          MOLECULAR WEIGHT        =         80.1292

          MOLECULAR DIMENSIONS (Angstroms)

            Atom       Atom       Distance
            H    13    H    12     6.37890
            H    11    H     9     4.16043
            H     7    H    10     2.95611


          SCF CALCULATIONS        =        104
 
          WALL-CLOCK TIME         =          2.258 SECONDS
          COMPUTATION TIME        =          0.654 SECONDS




   ATOM   CHEMICAL          X               Y               Z
  NUMBER   SYMBOL      (ANGSTROMS)     (ANGSTROMS)     (ANGSTROMS)
 
     1       C         -0.19828329  *  -0.44340995  *   0.33225591  *
     2       C          0.83357315  *  -1.27923098  *  -0.41221659  *
     3       C          1.20772846  *  -0.02097997  *   0.22735410  *
     4       C         -1.22371270  *   0.27928997  *  -0.44303590  *
     5       C          2.12957581  *   0.86478144  *   0.50992940  *
     6       C         -2.41154505  *   0.59070702  *   0.06418542  *
     7       H         -0.55981527  *  -0.81207105  *   1.31159136  *
     8       H          0.79703316  *  -1.34483985  *  -1.50656040  *
     9       H          1.16387496  *  -2.23462922  *   0.01105349  *
    10       H         -0.95428308  *   0.55162303  *  -1.47080328  *
    11       H          1.91456496  *   1.76600567  *   1.07591239  *
    12       H          3.16200208  *   0.74954309  *   0.19423264  *
    13       H         -3.16747627  *   1.12322579  *  -0.50462529  *
    14       H         -2.71318797  *   0.33833292  *   1.07720203  *

                             CARTESIAN COORDINATES

   1    C       -0.198283290    -0.443409953     0.332255914
   2    C        0.833573151    -1.279230976    -0.412216593
   3    C        1.207728461    -0.020979974     0.227354099
   4    C       -1.223712700     0.279289974    -0.443035904
   5    C        2.129575811     0.864781440     0.509929403
   6    C       -2.411545052     0.590707023     0.064185422
   7    H       -0.559815271    -0.812071051     1.311591355
   8    H        0.797033158    -1.344839845    -1.506560403
   9    H        1.163874963    -2.234629216     0.011053495
  10    H       -0.954283084     0.551623034    -1.470803280
  11    H        1.914564957     1.766005671     1.075912386
  12    H        3.162002079     0.749543088     0.194232642
  13    H       -3.167476271     1.123225788    -0.504625290
  14    H       -2.713187973     0.338332921     1.077202034


           Empirical Formula: C6 H8  =    14 atoms



      MOLECULAR POINT GROUP   :   C1  


                  EIGENVALUES  
 -39.31341 -32.15330 -28.34805 -22.53613 -20.15511 -18.72966 -16.88682 -16.17611
 -15.43943 -14.73233 -13.38269 -12.59170 -12.15508 -11.36610 -10.29761  -9.96327
   0.93724   1.09601   2.89608   3.05325   3.17487   3.61591   3.87562   3.92897
   4.16014   4.30976   4.54145   4.72913   5.25693   5.60965   5.84665   5.98402


              NET ATOMIC CHARGES AND DIPOLE CONTRIBUTIONS

  ATOM NO.   TYPE          CHARGE      No. of ELECS.   s-Pop       p-Pop       
    1          C          -0.061962        4.0620     1.15763     2.90433
    2          C          -0.099916        4.0999     1.15379     2.94612
    3          C          -0.184368        4.1844     1.18804     2.99633
    4          C          -0.107728        4.1077     1.18565     2.92208
    5          C          -0.080297        4.0803     1.15736     2.92294
    6          C          -0.159893        4.1599     1.18260     2.97729
    7          H           0.099360        0.9006     0.90064
    8          H           0.083593        0.9164     0.91641
    9          H           0.081319        0.9187     0.91868
   10          H           0.099805        0.9002     0.90019
   11          H           0.085145        0.9149     0.91485
   12          H           0.083696        0.9163     0.91630
   13          H           0.079595        0.9204     0.92041
   14          H           0.081651        0.9183     0.91835
 DIPOLE           X         Y         Z       TOTAL
 POINT-CHG.     0.082    -0.117    -0.051     0.152
 HYBRID         0.008     0.014    -0.005     0.017
 SUM            0.090    -0.103    -0.056     0.148


          ATOMIC ORBITAL ELECTRON POPULATIONS

     Atom    s        px        py        pz   
    1  C   1.15763   0.89444   1.01354   0.99635
    2  C   1.15379   1.01510   0.93880   0.99222
    3  C   1.18804   0.98047   0.99079   1.02507
    4  C   1.18565   0.95105   0.98588   0.98515
    5  C   1.15736   0.96322   0.96609   0.99363
    6  C   1.18260   0.96614   1.00754   1.00362
    7  H   0.90064
    8  H   0.91641
    9  H   0.91868
   10  H   0.90019
   11  H   0.91485
   12  H   0.91630
   13  H   0.92041
   14  H   0.91835
 *******************************************************************************
 ** Site#: 14399        For non-commercial use only    Version 18.184L 64BITS **
 *******************************************************************************
 ** Cite this program as: MOPAC2016, Version: 18.184L, James J. P. Stewart,   **
 ** Stewart Computational Chemistry, web: HTTP://OpenMOPAC.net. Days left:  20**
 *******************************************************************************
 **                                                                           **
 **                                MOPAC2016                                  **
 **                                                                           **
 *******************************************************************************

                              PM3 CALCULATION RESULTS

 *******************************************************************************
 *  CALCULATION DONE:                                Thu Jun 13 19:48:21 2019  *
 *  PM3        - The PM3 Hamiltonian to be used
 *  OLDGEO     - PREVIOUS GEOMETRY TO BE USED
 *  PRECISE    - CRITERIA TO BE INCREASED BY 100 TIMES
 *  NOSYM      - POINT-GROUP SYMMETRY SET TO C1
 *  THREADS=1  - MULTI-THREADING NOT USED
 *  T=         - A TIME OF 172800.0 SECONDS REQUESTED
 *  DUMP=N     - RESTART FILE WRITTEN EVERY  7200.000 SECONDS
 *  THERMO     - THERMODYNAMIC QUANTITIES TO BE CALCULATED
 *******************************************************************************
oldgeo thermo nosym precise THREADS=1  pm3
 InChI=1S/C6H8/c1-3-6-4-5(6)2/h3,6H,1-2,4H2

   ATOM   CHEMICAL          X               Y               Z
  NUMBER   SYMBOL      (ANGSTROMS)     (ANGSTROMS)     (ANGSTROMS)
 
     1       C         -0.19828329  *  -0.44340995  *   0.33225591  *
     2       C          0.83357315  *  -1.27923098  *  -0.41221659  *
     3       C          1.20772846  *  -0.02097997  *   0.22735410  *
     4       C         -1.22371270  *   0.27928997  *  -0.44303590  *
     5       C          2.12957581  *   0.86478144  *   0.50992940  *
     6       C         -2.41154505  *   0.59070702  *   0.06418542  *
     7       H         -0.55981527  *  -0.81207105  *   1.31159136  *
     8       H          0.79703316  *  -1.34483985  *  -1.50656040  *
     9       H          1.16387496  *  -2.23462922  *   0.01105349  *
    10       H         -0.95428308  *   0.55162303  *  -1.47080328  *
    11       H          1.91456496  *   1.76600567  *   1.07591239  *
    12       H          3.16200208  *   0.74954309  *   0.19423264  *
    13       H         -3.16747627  *   1.12322579  *  -0.50462529  *
    14       H         -2.71318797  *   0.33833292  *   1.07720203  *
 


          CARTESIAN COORDINATES 

    NO.       ATOM           X           Y           Z

     1         C         -0.1983     -0.4434      0.3323
     2         C          0.8336     -1.2792     -0.4122
     3         C          1.2077     -0.0210      0.2274
     4         C         -1.2237      0.2793     -0.4430
     5         C          2.1296      0.8648      0.5099
     6         C         -2.4115      0.5907      0.0642
     7         H         -0.5598     -0.8121      1.3116
     8         H          0.7970     -1.3448     -1.5066
     9         H          1.1639     -2.2346      0.0111
    10         H         -0.9543      0.5516     -1.4708
    11         H          1.9146      1.7660      1.0759
    12         H          3.1620      0.7495      0.1942
    13         H         -3.1675      1.1232     -0.5046
    14         H         -2.7132      0.3383      1.0772

  H: (PM3): J. J. P. STEWART, J. COMP. CHEM. 10, 209 (1989).
  C: (PM3): J. J. P. STEWART, J. COMP. CHEM. 10, 209 (1989).

           Empirical Formula: C6 H8  =    14 atoms



      MOLECULAR POINT GROUP   :   C1  


      RHF CALCULATION, NO. OF DOUBLY OCCUPIED LEVELS = 16



          HEAT OF FORMATION =      62.573300 KCALS/MOLE


          CARTESIAN COORDINATE DERIVATIVES

   NUMBER  ATOM         X            Y            Z

     1       C     -0.000506     0.001665    -0.001074
     2       C     -0.000607    -0.003623    -0.000365
     3       C      0.003355     0.002890    -0.000246
     4       C     -0.005377     0.012511    -0.005590
     5       C      0.002174    -0.000581     0.002948
     6       C      0.003588    -0.008062     0.005265
     7       H     -0.000780     0.005700    -0.001631
     8       H     -0.001763    -0.000305     0.001303
     9       H     -0.000140     0.002002    -0.001049
    10       H     -0.001007    -0.007704     0.004273
    11       H     -0.000731    -0.008135     0.000818
    12       H     -0.003156    -0.001178    -0.000117
    13       H      0.000259     0.003040    -0.000991
    14       H      0.004691     0.001781    -0.003542
 


          GRADIENT NORM =   0.02499


          TIME FOR SCF CALCULATION =    0.02

          TIME FOR DERIVATIVES     =    0.01

          MOLECULAR WEIGHT =   80.13



          ROTATIONAL CONSTANTS IN CM(-1)

          A =    0.26046142   B =    0.07724725   C =    0.06544462



           PRINCIPAL MOMENTS OF INERTIA IN UNITS OF 10**(-40)*GRAM-CM**2

          A =      107.4738   B =      362.3789   C =      427.7323


          ORIENTATION OF MOLECULE IN FORCE CALCULATION

    NO.       ATOM         X         Y         Z

     1          C      -0.0629   -0.4092    0.4102
     2          C       1.4595   -0.4092    0.4102
     3          C       0.7095    0.8437    0.4102
     4          C      -0.7756   -0.8120   -0.8164
     5          C       0.7098    2.1530    0.4075
     6          C      -1.9997   -1.3279   -0.7917
     7          H      -0.5844   -0.6997    1.3426
     8          H       2.0059   -0.7176   -0.4895
     9          H       2.0009   -0.7299    1.3075
    10          H      -0.2399   -0.6621   -1.7617
    11          H      -0.2075    2.7336    0.3967
    12          H       1.6273    2.7336    0.4152
    13          H      -2.5263   -1.6244   -1.6935
    14          H      -2.5610   -1.4903    0.1245


    FIRST DERIVATIVES WILL BE USED IN THE CALCULATION OF SECOND DERIVATIVES

          ESTIMATED TIME TO COMPLETE CALCULATION =        5.25 SECONDS

    FOR POINT-GROUP C1   THERE ARE   1 UNIQUE SYMMETRY FUNCTIONS.

 STEP:   1 TIME =     0.03 SECS, INTEGRAL =      0.03 TIME LEFT: 172799.94
 STEP:   2 TIME =     0.03 SECS, INTEGRAL =      0.06 TIME LEFT: 172799.91
 STEP:   3 TIME =     0.02 SECS, INTEGRAL =      0.09 TIME LEFT: 172799.88
 STEP:   4 TIME =     0.03 SECS, INTEGRAL =      0.12 TIME LEFT: 172799.85
 STEP:   5 TIME =     0.03 SECS, INTEGRAL =      0.15 TIME LEFT: 172799.82
 STEP:   6 TIME =     0.03 SECS, INTEGRAL =      0.18 TIME LEFT: 172799.79
 STEP:   7 TIME =     0.02 SECS, INTEGRAL =      0.20 TIME LEFT: 172799.77
 STEP:   8 TIME =     0.02 SECS, INTEGRAL =      0.22 TIME LEFT: 172799.75
 STEP:   9 TIME =     0.02 SECS, INTEGRAL =      0.24 TIME LEFT: 172799.73
 STEP:  10 TIME =     0.02 SECS, INTEGRAL =      0.27 TIME LEFT: 172799.70
 STEP:  11 TIME =     0.02 SECS, INTEGRAL =      0.29 TIME LEFT: 172799.68
 STEP:  12 TIME =     0.02 SECS, INTEGRAL =      0.31 TIME LEFT: 172799.66
 STEP:  13 TIME =     0.02 SECS, INTEGRAL =      0.34 TIME LEFT: 172799.63
 STEP:  14 TIME =     0.03 SECS, INTEGRAL =      0.37 TIME LEFT: 172799.60
 STEP:  15 TIME =     0.02 SECS, INTEGRAL =      0.39 TIME LEFT: 172799.58
 STEP:  16 TIME =     0.02 SECS, INTEGRAL =      0.41 TIME LEFT: 172799.55
 STEP:  17 TIME =     0.02 SECS, INTEGRAL =      0.44 TIME LEFT: 172799.53
 STEP:  18 TIME =     0.02 SECS, INTEGRAL =      0.45 TIME LEFT: 172799.52
 STEP:  19 TIME =     0.03 SECS, INTEGRAL =      0.48 TIME LEFT: 172799.48
 STEP:  20 TIME =     0.02 SECS, INTEGRAL =      0.51 TIME LEFT: 172799.46
 STEP:  21 TIME =     0.03 SECS, INTEGRAL =      0.54 TIME LEFT: 172799.43
 STEP:  22 TIME =     0.04 SECS, INTEGRAL =      0.58 TIME LEFT: 172799.39
 STEP:  23 TIME =     0.03 SECS, INTEGRAL =      0.61 TIME LEFT: 172799.36
 STEP:  24 TIME =     0.03 SECS, INTEGRAL =      0.64 TIME LEFT: 172799.33
 STEP:  25 TIME =     0.02 SECS, INTEGRAL =      0.66 TIME LEFT: 172799.30
 STEP:  26 TIME =     0.02 SECS, INTEGRAL =      0.69 TIME LEFT: 172799.28
 STEP:  27 TIME =     0.02 SECS, INTEGRAL =      0.71 TIME LEFT: 172799.26
 STEP:  28 TIME =     0.02 SECS, INTEGRAL =      0.73 TIME LEFT: 172799.23
 STEP:  29 TIME =     0.02 SECS, INTEGRAL =      0.76 TIME LEFT: 172799.21
 STEP:  30 TIME =     0.02 SECS, INTEGRAL =      0.78 TIME LEFT: 172799.19
 STEP:  31 TIME =     0.03 SECS, INTEGRAL =      0.81 TIME LEFT: 172799.16
 STEP:  32 TIME =     0.02 SECS, INTEGRAL =      0.84 TIME LEFT: 172799.13
 STEP:  33 TIME =     0.03 SECS, INTEGRAL =      0.87 TIME LEFT: 172799.10
 STEP:  34 TIME =     0.03 SECS, INTEGRAL =      0.90 TIME LEFT: 172799.07
 STEP:  35 TIME =     0.02 SECS, INTEGRAL =      0.92 TIME LEFT: 172799.05
 STEP:  36 TIME =     0.02 SECS, INTEGRAL =      0.95 TIME LEFT: 172799.02
 STEP:  37 TIME =     0.02 SECS, INTEGRAL =      0.96 TIME LEFT: 172799.01
 STEP:  38 TIME =     0.02 SECS, INTEGRAL =      0.98 TIME LEFT: 172798.98
 STEP:  39 TIME =     0.02 SECS, INTEGRAL =      1.01 TIME LEFT: 172798.96
 STEP:  40 TIME =     0.03 SECS, INTEGRAL =      1.04 TIME LEFT: 172798.93
 STEP:  41 TIME =     0.02 SECS, INTEGRAL =      1.06 TIME LEFT: 172798.91
 STEP:  42 TIME =     0.03 SECS, INTEGRAL =      1.09 TIME LEFT: 172798.88

(To convert to Hartree/Bohr^2, multiply by (10^(-21) x N x a0^2)/(4.184 x 627.51) =  0.0642)


           FORCE MATRIX IN MILLIDYNES/ANGSTROM


                  C  1       C  2       C  3       C  4       C  5       C  6
 ------------------------------------------------------------------------------
     C    1  15.906277
     C    2   4.254013  15.411802
     C    3   5.597544   6.102149  22.001920
     C    4   5.224123   0.591551   0.661197  18.410739
     C    5   0.487937   0.495316  11.600399   0.032171  18.255239
     C    6   0.918174   0.040330   0.036310  11.016861   0.004981  18.020743
     H    7   4.506559   0.434835   0.438805   0.441485   0.016253   0.045286
     H    8   0.459403   4.774800   0.469412   0.027295   0.018639   0.004335
     H    9   0.457856   4.807378   0.468372   0.045119   0.019721   0.006557
     H   10   0.441899   0.021339   0.013050   4.793086   0.002648   0.452464
     H   11   0.119244   0.154255   0.483104   0.018694   5.090208   0.002931
     H   12   0.151808   0.119972   0.483282   0.024716   5.086193   0.002604
     H   13   0.137615   0.016758   0.020826   0.459786   0.002092   5.110115
     H   14   0.100163   0.009995   0.012901   0.489840   0.001759   5.074297


                  H  7       H  8       H  9       H 10       H 11       H 12
 ------------------------------------------------------------------------------
     H    7   5.027349
     H    8   0.038868   5.377425
     H    9   0.019692   0.483729   5.404723
     H   10   0.034602   0.016046   0.001586   5.159222
     H   11   0.015266   0.022390   0.022079   0.000656   5.452302
     H   12   0.019746   0.016965   0.016759   0.000918   0.399786   5.449747
     H   13   0.002493   0.001227   0.002842   0.079462   0.001279   0.001694
     H   14   0.028122   0.000882   0.001800   0.118189   0.001074   0.001121


                  H 13       H 14
 ------------------------------
     H   13   5.496654
     H   14   0.421306   5.469726


          HEAT OF FORMATION =      62.573300 KCALS/MOLE

          ZERO POINT ENERGY      74.218 KCAL/MOL


           NORMAL COORDINATE ANALYSIS (Total motion = 1 Angstrom)


   Root No.       1         2         3         4         5         6         7         8

                 1 A       2 A       3 A       4 A       5 A       6 A       7 A       8 A   

                  75.0     203.3     303.0     363.7     446.9     482.9     612.8     658.7
  
           1    0.0272    0.0128   -0.0114   -0.0104   -0.0215    0.0177   -0.0041   -0.0017
           2   -0.0327   -0.0226   -0.0056    0.0396    0.0165    0.0184    0.0012    0.0107
           3    0.0040    0.0279    0.0516    0.0202   -0.0054   -0.0208    0.0091   -0.0089
           4    0.0267    0.0138   -0.0101   -0.0103   -0.0300    0.0279   -0.0125   -0.0155
           5    0.0102   -0.0168    0.0123   -0.0408   -0.0209    0.0033   -0.0054   -0.0079
           6    0.0013    0.0123   -0.0395   -0.0154   -0.0241    0.0030   -0.0116    0.0020
           7   -0.0084    0.0071   -0.0225    0.0527   -0.0032    0.0450   -0.0051    0.0210
           8   -0.0108   -0.0206    0.0042   -0.0011   -0.0009    0.0099    0.0026    0.0180
           9   -0.0006    0.0255    0.0155   -0.0401    0.0632    0.0560   -0.0086    0.0271
          10    0.0284   -0.0062    0.0062    0.0080    0.0288   -0.0413    0.0169    0.0150
          11   -0.0412    0.0622   -0.0113    0.0083    0.0108   -0.0106   -0.0181   -0.0511
          12    0.0060    0.0114    0.0427    0.0233   -0.0307    0.0163    0.0131   -0.0083
          13   -0.0489   -0.0364    0.0211   -0.0343   -0.0059    0.0004   -0.0015    0.0054
          14   -0.0108   -0.0211    0.0043   -0.0012   -0.0013    0.0116    0.0030    0.0234
          15   -0.0101   -0.0540   -0.0099    0.0156   -0.0155   -0.0090   -0.0003   -0.0011
          16   -0.0213    0.0139    0.0033    0.0120    0.0327   -0.0411    0.0084   -0.0084
          17    0.0770    0.0151   -0.0036    0.0011    0.0082   -0.0238    0.0074   -0.0008
          18    0.0004   -0.0088   -0.0396   -0.0087    0.0268   -0.0252    0.0036   -0.0035
          19    0.0371    0.0229    0.0193   -0.0313   -0.0327    0.0362   -0.0105   -0.0228
          20   -0.0469   -0.0553   -0.0279    0.1154   -0.0192    0.0052    0.0467    0.0247
          21    0.0051    0.0222    0.0590    0.0306   -0.0223   -0.0131    0.0198   -0.0159
          22    0.0348    0.0101   -0.0700   -0.0609   -0.0641    0.0460   -0.0566   -0.0251
          23    0.0238   -0.0064    0.0262   -0.1222    0.0452    0.0868    0.0227   -0.0078
          24    0.0015    0.0067   -0.0819   -0.0188   -0.0698   -0.0154   -0.0511   -0.0045
          25    0.0369    0.0196    0.0592    0.0011   -0.0162    0.0032    0.0255   -0.0278
          26    0.0278   -0.0224    0.0124   -0.0296   -0.1232   -0.0943   -0.0455   -0.0531
          27    0.0015    0.0069   -0.0823   -0.0184   -0.0711   -0.0174   -0.0516   -0.0066
          28    0.0693   -0.0410    0.0508    0.0377    0.0550   -0.0366    0.0076   -0.0137
          29   -0.1444    0.1857   -0.0238   -0.0261   -0.0609   -0.0619    0.0281   -0.0090
          30    0.0128    0.0110    0.0640    0.0337   -0.0258    0.0096    0.0147   -0.0176
          31   -0.0670   -0.0599    0.0471   -0.0948   -0.0105   -0.0344    0.0047   -0.0192
          32   -0.0394   -0.0582    0.0457   -0.0935   -0.0090   -0.0442    0.0088   -0.0113
          33   -0.0124   -0.0706    0.0462    0.0736   -0.0575   -0.1283   -0.2247    0.1100
          34   -0.0669   -0.0592    0.0483   -0.0941   -0.0104   -0.0372   -0.0003   -0.0213
          35    0.0176    0.0151   -0.0368    0.0912    0.0059    0.0694   -0.0019    0.0677
          36   -0.0166   -0.1088   -0.0893    0.0122   -0.0556    0.0379    0.2365   -0.1539
          37   -0.0257   -0.0004    0.0716    0.0592    0.0173    0.0292   -0.0325   -0.1183
          38    0.0791    0.0944    0.0010   -0.0393   -0.1032   -0.0697    0.1295    0.2255
          39    0.0022   -0.0265   -0.0816   -0.0232    0.0740   -0.0532   -0.0123   -0.0140
          40   -0.0617    0.0471   -0.0658   -0.0295    0.0511   -0.1089    0.0369    0.0620
          41    0.1812   -0.1080   -0.0009    0.0337    0.1162    0.0055   -0.0771   -0.1444
          42   -0.0059   -0.0104   -0.0824   -0.0290    0.0585   -0.0627    0.0058    0.0146


   Root No.       9        10        11        12        13        14        15        16

                 9 A      10 A      11 A      12 A      13 A      14 A      15 A      16 A   

                 835.5     865.8     917.0     927.1     947.7     976.0    1013.9    1035.5
  
           1   -0.0295    0.0032    0.0255    0.0013   -0.0050    0.0127   -0.0103    0.0050
           2    0.0235   -0.0279    0.0065   -0.0079    0.0035   -0.0228    0.0207   -0.0087
           3    0.0132    0.0192   -0.0073    0.0029   -0.0224   -0.0029   -0.0002    0.0019
           4    0.0321   -0.0137    0.0185   -0.0022   -0.0072   -0.0055    0.0060   -0.0013
           5    0.0327    0.0003   -0.0231    0.0014    0.0081   -0.0047    0.0038   -0.0035
           6    0.0121    0.0043    0.0107    0.0143   -0.0076    0.0390   -0.0055    0.0236
           7    0.0065    0.0120    0.0043   -0.0002   -0.0061   -0.0039    0.0073   -0.0032
           8   -0.0254    0.0143    0.0082    0.0012   -0.0049    0.0053   -0.0031    0.0016
           9    0.0120    0.0072    0.0175   -0.0119    0.0153   -0.0134    0.0214   -0.0276
          10   -0.0053   -0.0045   -0.0022    0.0141    0.0107   -0.0029   -0.0039   -0.0135
          11   -0.0026   -0.0061   -0.0060   -0.0353   -0.0073    0.0104    0.0091    0.0324
          12   -0.0213   -0.0182   -0.0078    0.0031   -0.0032   -0.0106   -0.0024   -0.0046
          13    0.0071    0.0220   -0.0419    0.0032    0.0123    0.0065   -0.0061    0.0023
          14   -0.0405    0.0248    0.0163    0.0024   -0.0108    0.0118   -0.0074    0.0047
          15    0.0016    0.0015    0.0052   -0.0054    0.0087   -0.0220   -0.0466    0.0268
          16   -0.0088   -0.0094   -0.0069    0.0025    0.0102   -0.0050    0.0120    0.0178
          17   -0.0045   -0.0053   -0.0039   -0.0086    0.0028    0.0146   -0.0305   -0.0418
          18   -0.0131   -0.0164   -0.0044   -0.0033    0.0370    0.0125    0.0038    0.0047
          19   -0.1040    0.0295   -0.0220   -0.0280   -0.0571   -0.0453    0.0262    0.0104
          20    0.1546   -0.1144    0.0715    0.0757   -0.0105    0.0028   -0.0860   -0.0340
          21    0.0102    0.0057   -0.0143    0.0129   -0.0568   -0.0282   -0.0136   -0.0033
          22   -0.0471   -0.0967   -0.1042   -0.0028   -0.0388   -0.1140   -0.0009   -0.0484
          23    0.0635   -0.1226   -0.1573    0.1149   -0.0683    0.0810   -0.0514    0.0587
          24   -0.0494   -0.0053   -0.0212   -0.0276    0.0004   -0.0639    0.0109   -0.0304
          25    0.1647    0.0725    0.1072    0.0026    0.0321    0.1133    0.0003    0.0527
          26    0.1209    0.1148    0.0209   -0.1018    0.1209   -0.0827    0.0415   -0.0629
          27   -0.0415   -0.0063   -0.0284   -0.0283    0.0087   -0.0667    0.0125   -0.0335
          28    0.0143   -0.0151   -0.0512   -0.1095   -0.0803   -0.0154    0.0055    0.0312
          29   -0.0182    0.0465    0.0271    0.2840    0.0373   -0.0737   -0.0281   -0.0958
          30   -0.0119   -0.0152   -0.0304   -0.0161   -0.0483   -0.0314   -0.0029    0.0002
          31   -0.0206   -0.0293    0.0715   -0.0042   -0.0225   -0.0048    0.0032    0.0005
          32   -0.0873   -0.0523    0.1920   -0.0075   -0.0669   -0.0011    0.0092    0.0008
          33   -0.0034   -0.0470   -0.0307    0.0571   -0.0534    0.1263    0.1745   -0.0885
          34   -0.0034   -0.0425    0.0614   -0.0057   -0.0148   -0.0143    0.0106   -0.0050
          35   -0.0280    0.1265   -0.1398    0.0165    0.0300    0.0445   -0.0375    0.0186
          36   -0.0220    0.0288   -0.0349    0.0022   -0.0402    0.0734    0.1963   -0.1092
          37   -0.0895   -0.0724   -0.0117   -0.0133    0.1533    0.0822   -0.0521   -0.0619
          38   -0.0025   -0.0646   -0.0148   -0.0172    0.0733   -0.0441    0.1337    0.1632
          39    0.0340    0.0406    0.0010    0.0092   -0.0724   -0.0207   -0.0130   -0.0163
          40    0.0605    0.0391   -0.0183   -0.0622   -0.1494   -0.0235   -0.0529   -0.0626
          41   -0.0026    0.0634    0.0229    0.1911   -0.0128   -0.1006    0.1068    0.1335
          42    0.0319    0.0278   -0.0066   -0.0070   -0.0679   -0.0207   -0.0117   -0.0137


   Root No.      17        18        19        20        21        22        23        24

                17 A      18 A      19 A      20 A      21 A      22 A      23 A      24 A   

                1083.9    1129.3    1179.1    1186.4    1209.2    1221.8    1301.0    1332.0
  
           1    0.0314   -0.0202    0.0335    0.0025    0.0296   -0.0169   -0.0223   -0.0098
           2   -0.0542   -0.0099    0.0350    0.0084   -0.0393   -0.0168   -0.0122   -0.0069
           3   -0.0006    0.0146   -0.0426   -0.0551   -0.0229    0.0150   -0.0228    0.0104
           4   -0.0086   -0.0356   -0.0364    0.0080   -0.0549   -0.0035    0.0030    0.0046
           5   -0.0224   -0.0402   -0.0429   -0.0145    0.0537    0.0135    0.0173   -0.0063
           6   -0.0280   -0.0047    0.0173    0.0101    0.0028    0.0035    0.0044   -0.0016
           7   -0.0234    0.0573   -0.0365   -0.0163    0.0572    0.0156    0.0149   -0.0009
           8    0.0058    0.0018    0.0031   -0.0009    0.0096   -0.0006   -0.0176    0.0142
           9    0.0258   -0.0061    0.0090    0.0028    0.0046    0.0057    0.0031   -0.0008
          10   -0.0100    0.0022   -0.0018   -0.0088   -0.0046   -0.0059   -0.0150   -0.0172
          11    0.0230   -0.0038   -0.0017   -0.0044    0.0079   -0.0046   -0.0046   -0.0081
          12    0.0025   -0.0108    0.0260    0.0217    0.0202   -0.0710    0.0169   -0.0105
          13    0.0119   -0.0215    0.0087    0.0043   -0.0126   -0.0037   -0.0024    0.0001
          14    0.0207    0.0131   -0.0115    0.0037   -0.0177    0.0007   -0.0188    0.0279
          15   -0.0119    0.0020   -0.0023   -0.0010   -0.0012   -0.0009   -0.0006    0.0001
          16    0.0067   -0.0018    0.0074   -0.0161    0.0026   -0.0166    0.0020   -0.0119
          17   -0.0146    0.0011    0.0032   -0.0049   -0.0026   -0.0057    0.0006   -0.0048
          18   -0.0014    0.0080   -0.0152    0.0118   -0.0057    0.0305   -0.0040    0.0025
          19   -0.1295   -0.0460    0.2418   -0.0850   -0.0201    0.2558    0.0401   -0.0310
          20    0.2819   -0.0783    0.0611   -0.0594    0.0487    0.1319    0.0173   -0.0097
          21    0.0159   -0.0217    0.0860   -0.1291   -0.0246    0.2168    0.0227   -0.0014
          22    0.0957    0.1286   -0.0255   -0.0238   -0.1587   -0.0147   -0.0539    0.0867
          23   -0.0057    0.2367    0.0816   -0.0195    0.0195   -0.0219   -0.0042   -0.0349
          24    0.0317    0.0007   -0.0185   -0.0121   -0.0470    0.0098   -0.0216    0.0541
          25   -0.0307    0.0874    0.0952    0.0869   -0.1239   -0.0141   -0.0210    0.0734
          26    0.0784    0.2085    0.1321    0.0205    0.0397   -0.0160    0.0113   -0.0404
          27    0.0254    0.0106   -0.0018   -0.0273    0.0354    0.0010    0.0146   -0.0505
          28    0.0306    0.0148   -0.0523    0.3657    0.0356    0.1739   -0.0280    0.0027
          29   -0.0496    0.0108   -0.0129    0.1789   -0.0017    0.0677   -0.0122    0.0017
          30    0.0141   -0.0012   -0.0045    0.2598    0.0414    0.0365    0.0101    0.0030
          31    0.0024    0.0443   -0.0395    0.0024   -0.0463    0.0095    0.0998   -0.0856
          32    0.0125    0.1179   -0.0899    0.0034   -0.0843    0.0216    0.1520   -0.1145
          33    0.0351   -0.0123    0.0212    0.0120    0.0073    0.0047    0.0062   -0.0026
          34   -0.0331    0.0114    0.0111   -0.0148    0.0852    0.0009   -0.0920    0.0851
          35    0.0946   -0.0322   -0.0218    0.0348   -0.1805   -0.0053    0.1335   -0.1135
          36    0.0403    0.0002   -0.0092   -0.0115   -0.0030    0.0019   -0.0054    0.0029
          37   -0.0225    0.0176   -0.0021   -0.0046   -0.0070    0.0672    0.1343    0.1508
          38    0.0341    0.0025   -0.0008   -0.0024   -0.0040    0.0267    0.0494    0.0545
          39   -0.0000   -0.0042   -0.0063    0.0071    0.0020   -0.0317   -0.0880   -0.1040
          40   -0.0091   -0.0246    0.0702   -0.0112    0.0294   -0.1082    0.1571    0.1365
          41    0.0507   -0.0149    0.0275   -0.0064    0.0242   -0.0439    0.0732    0.0654
          42    0.0007   -0.0086    0.0255    0.0179    0.0155   -0.0341    0.0963    0.0985


   Root No.      25        26        27        28        29        30        31        32

                25 A      26 A      27 A      28 A      29 A      30 A      31 A      32 A   

                1397.4    1478.3    1861.9    2089.8    2987.3    3042.4    3079.2    3119.2
  
           1   -0.0234    0.0920   -0.0302   -0.0524    0.0320    0.0026    0.0013    0.0003
           2   -0.0192    0.0485   -0.0154   -0.0506    0.0182    0.0014    0.0007    0.0009
           3   -0.0296    0.0511   -0.0287   -0.0082   -0.0548   -0.0036   -0.0029   -0.0002
           4   -0.0409   -0.0579    0.0007    0.0481   -0.0004    0.0002    0.0042   -0.0372
           5    0.0346    0.0212   -0.0010   -0.0526    0.0009   -0.0003   -0.0019    0.0220
           6    0.0035   -0.0055   -0.0006    0.0002    0.0039    0.0000   -0.0592   -0.0066
           7    0.0178   -0.0088   -0.0007   -0.0024    0.0003   -0.0001    0.0000   -0.0002
           8   -0.0022    0.0037   -0.0087    0.2788   -0.0015   -0.0003    0.0001   -0.0018
           9    0.0029   -0.0042   -0.0010    0.0001   -0.0004   -0.0002   -0.0005   -0.0001
          10    0.0070   -0.0032    0.2096    0.0046   -0.0023    0.0359    0.0003    0.0005
          11    0.0061   -0.0057    0.0924    0.0027   -0.0006    0.0107   -0.0000    0.0001
          12    0.0252   -0.0380    0.0401    0.0041    0.0042   -0.0558    0.0002   -0.0004
          13   -0.0023    0.0006    0.0002    0.0001   -0.0000    0.0000    0.0000   -0.0005
          14   -0.0102   -0.0599    0.0092   -0.1656    0.0001    0.0000   -0.0000    0.0007
          15   -0.0005    0.0008   -0.0001    0.0002   -0.0001   -0.0000   -0.0001   -0.0000
          16    0.0190   -0.0354   -0.1806   -0.0002    0.0003   -0.0017    0.0001   -0.0002
          17    0.0074   -0.0145   -0.0762   -0.0002    0.0001   -0.0003    0.0000   -0.0000
          18   -0.0041    0.0028   -0.0001    0.0008   -0.0007    0.0049   -0.0001    0.0003
          19    0.0430   -0.0685    0.0384   -0.0198   -0.3806   -0.0229   -0.0200   -0.0006
          20    0.0244   -0.0334    0.0173   -0.0122   -0.2123   -0.0131   -0.0083   -0.0003
          21    0.0224   -0.0684    0.0184    0.0318    0.6655    0.0479    0.0279    0.0018
          22    0.1646    0.0689   -0.0008    0.0236    0.0133   -0.0032   -0.2566    0.1953
          23   -0.1105   -0.0170   -0.0012   -0.0137   -0.0109    0.0011    0.1439   -0.1091
          24    0.1662    0.0814   -0.0027   -0.0352   -0.0278    0.0026    0.4014   -0.3482
          25    0.1937    0.0254    0.0052    0.0263   -0.0127   -0.0036    0.2059    0.2438
          26   -0.0922   -0.0371    0.0027   -0.0144    0.0104    0.0021   -0.1215   -0.1443
          27   -0.1720   -0.0716   -0.0043    0.0344   -0.0246   -0.0062    0.3164    0.4283
          28   -0.0317    0.0445    0.0035   -0.0053    0.0301   -0.3725    0.0019   -0.0035
          29   -0.0140    0.0210   -0.0109   -0.0041    0.0094   -0.1039    0.0003   -0.0007
          30    0.0023   -0.0111   -0.1346   -0.0012   -0.0465    0.6676   -0.0007    0.0053
          31    0.0220    0.0736   -0.0071    0.1208   -0.0000   -0.0004   -0.0005    0.0083
          32    0.0279    0.0531    0.0005   -0.0525    0.0002    0.0003    0.0003   -0.0052
          33    0.0053   -0.0068    0.0008    0.0016    0.0009    0.0000   -0.0010    0.0000
          34   -0.0148   -0.0766    0.0071   -0.1210   -0.0007    0.0002    0.0003   -0.0018
          35    0.0109    0.0592    0.0015   -0.0516   -0.0005    0.0001    0.0001   -0.0007
          36   -0.0048    0.0061   -0.0014   -0.0017   -0.0011    0.0000    0.0007    0.0000
          37   -0.0651    0.0541   -0.0227    0.0014   -0.0005   -0.0327   -0.0002   -0.0006
          38   -0.0238    0.0179   -0.0220   -0.0005   -0.0002   -0.0192   -0.0000   -0.0002
          39    0.0536   -0.0613   -0.1440    0.0009   -0.0000   -0.0652   -0.0003   -0.0010
          40   -0.0409    0.0299   -0.0114   -0.0008   -0.0042   -0.0057   -0.0012    0.0016
          41   -0.0192    0.0153    0.0077    0.0008   -0.0014   -0.0019   -0.0004    0.0004
          42   -0.0431    0.0472    0.1536    0.0018    0.0037    0.0055    0.0018   -0.0026


   Root No.      33        34        35        36

                33 A      34 A      35 A      36 A   

                3131.5    3136.1    3138.5    3147.5
  
           1   -0.0004    0.0002    0.0000    0.0007
           2   -0.0002    0.0001    0.0003    0.0004
           3   -0.0000    0.0005   -0.0000   -0.0002
           4   -0.0000   -0.0002    0.0003   -0.0001
           5    0.0000    0.0002   -0.0005   -0.0000
           6   -0.0000    0.0002    0.0000   -0.0001
           7   -0.0001    0.0000   -0.0004   -0.0001
           8    0.0080    0.0001   -0.0004   -0.0002
           9   -0.0000    0.0000   -0.0000   -0.0000
          10    0.0000   -0.0032    0.0000    0.0084
          11   -0.0000   -0.0015    0.0000    0.0032
          12   -0.0000   -0.0014   -0.0000   -0.0046
          13   -0.0035   -0.0003   -0.0644    0.0001
          14   -0.0469   -0.0007    0.0027    0.0003
          15    0.0001   -0.0000   -0.0006    0.0000
          16   -0.0005    0.0276   -0.0001   -0.0397
          17   -0.0002    0.0066   -0.0000   -0.0197
          18    0.0005   -0.0617    0.0002   -0.0360
          19   -0.0005    0.0038   -0.0002   -0.0021
          20   -0.0005    0.0019   -0.0000   -0.0012
          21    0.0007   -0.0026    0.0004    0.0050
          22    0.0030    0.0019   -0.0019   -0.0005
          23   -0.0018   -0.0011    0.0010    0.0002
          24   -0.0048   -0.0033    0.0034    0.0005
          25    0.0031    0.0007   -0.0023    0.0002
          26   -0.0020   -0.0005    0.0012   -0.0000
          27    0.0050    0.0015   -0.0040    0.0001
          28    0.0001   -0.0100   -0.0000   -0.0315
          29    0.0000   -0.0034   -0.0000   -0.0093
          30   -0.0001    0.0106    0.0001    0.0515
          31   -0.3743   -0.0041    0.4088    0.0021
          32    0.2210    0.0023   -0.2646   -0.0012
          33   -0.0043   -0.0000    0.0048    0.0000
          34    0.4160    0.0078    0.3640   -0.0034
          35    0.2481    0.0047    0.2378   -0.0020
          36    0.0035    0.0001    0.0030   -0.0000
          37    0.0009    0.0882    0.0001    0.3272
          38    0.0006    0.0473    0.0000    0.1856
          39    0.0020    0.1228    0.0002    0.5789
          40    0.0046   -0.3757    0.0012    0.0732
          41    0.0013   -0.1085    0.0003    0.0188
          42   -0.0078    0.6148   -0.0021   -0.1490


           MASS-WEIGHTED COORDINATE ANALYSIS (NORMAL COORDINATES)


   Root No.       1         2         3         4         5         6         7         8

                 1 A       2 A       3 A       4 A       5 A       6 A       7 A       8 A   

                  75.0     203.3     303.0     363.7     446.9     482.9     612.8     658.7
  
           1    0.1841    0.0901   -0.0907   -0.0770   -0.1617    0.1289   -0.0352   -0.0134
           2   -0.2218   -0.1588   -0.0441    0.2943    0.1237    0.1341    0.0103    0.0816
           3    0.0271    0.1964    0.4092    0.1501   -0.0406   -0.1515    0.0774   -0.0681
           4    0.1810    0.0974   -0.0802   -0.0763   -0.2253    0.2032   -0.1062   -0.1189
           5    0.0692   -0.1180    0.0979   -0.3029   -0.1569    0.0240   -0.0458   -0.0603
           6    0.0089    0.0867   -0.3132   -0.1140   -0.1814    0.0218   -0.0984    0.0155
           7   -0.0572    0.0501   -0.1782    0.3911   -0.0244    0.3280   -0.0432    0.1603
           8   -0.0729   -0.1447    0.0330   -0.0084   -0.0067    0.0719    0.0218    0.1374
           9   -0.0039    0.1791    0.1232   -0.2980    0.4747    0.4080   -0.0730    0.2076
          10    0.1926   -0.0436    0.0493    0.0595    0.2160   -0.3012    0.1439    0.1145
          11   -0.2792    0.4377   -0.0894    0.0615    0.0814   -0.0776   -0.1539   -0.3903
          12    0.0407    0.0800    0.3389    0.1728   -0.2306    0.1186    0.1111   -0.0635
          13   -0.3315   -0.2559    0.1672   -0.2544   -0.0441    0.0030   -0.0128    0.0413
          14   -0.0733   -0.1487    0.0342   -0.0087   -0.0097    0.0844    0.0252    0.1787
          15   -0.0687   -0.3800   -0.0789    0.1162   -0.1168   -0.0654   -0.0027   -0.0082
          16   -0.1446    0.0978    0.0258    0.0894    0.2460   -0.2993    0.0716   -0.0644
          17    0.5218    0.1061   -0.0288    0.0080    0.0618   -0.1738    0.0629   -0.0063
          18    0.0026   -0.0620   -0.3138   -0.0649    0.2015   -0.1833    0.0304   -0.0268
          19    0.0729    0.0467    0.0443   -0.0673   -0.0713    0.0763   -0.0260   -0.0505
          20   -0.0920   -0.1127   -0.0641    0.2481   -0.0418    0.0110    0.1151    0.0548
          21    0.0100    0.0453    0.1356    0.0658   -0.0485   -0.0277    0.0489   -0.0353
          22    0.0684    0.0206   -0.1610   -0.1310   -0.1394    0.0971   -0.1395   -0.0556
          23    0.0467   -0.0131    0.0603   -0.2627    0.0984    0.1833    0.0560   -0.0174
          24    0.0030    0.0136   -0.1883   -0.0405   -0.1518   -0.0326   -0.1259   -0.0100
          25    0.0724    0.0399    0.1360    0.0023   -0.0352    0.0068    0.0627   -0.0616
          26    0.0546   -0.0457    0.0285   -0.0636   -0.2681   -0.1990   -0.1122   -0.1176
          27    0.0030    0.0140   -0.1893   -0.0395   -0.1547   -0.0368   -0.1272   -0.0146
          28    0.1362   -0.0836    0.1167    0.0810    0.1196   -0.0772    0.0187   -0.0304
          29   -0.2836    0.3787   -0.0547   -0.0561   -0.1326   -0.1307    0.0693   -0.0198
          30    0.0251    0.0225    0.1472    0.0724   -0.0561    0.0202    0.0363   -0.0391
          31   -0.1315   -0.1221    0.1082   -0.2038   -0.0229   -0.0726    0.0116   -0.0426
          32   -0.0773   -0.1187    0.1050   -0.2010   -0.0195   -0.0932    0.0216   -0.0250
          33   -0.0243   -0.1440    0.1061    0.1583   -0.1252   -0.2708   -0.5536    0.2436
          34   -0.1313   -0.1206    0.1111   -0.2023   -0.0226   -0.0785   -0.0006   -0.0472
          35    0.0347    0.0308   -0.0847    0.1962    0.0128    0.1466   -0.0048    0.1500
          36   -0.0325   -0.2217   -0.2053    0.0262   -0.1210    0.0801    0.5828   -0.3408
          37   -0.0504   -0.0008    0.1646    0.1273    0.0376    0.0617   -0.0801   -0.2619
          38    0.1553    0.1926    0.0022   -0.0844   -0.2246   -0.1471    0.3190    0.4994
          39    0.0043   -0.0541   -0.1875   -0.0498    0.1610   -0.1123   -0.0303   -0.0310
          40   -0.1211    0.0960   -0.1513   -0.0635    0.1113   -0.2300    0.0909    0.1372
          41    0.3558   -0.2201   -0.0021    0.0724    0.2528    0.0115   -0.1900   -0.3197
          42   -0.0115   -0.0213   -0.1895   -0.0624    0.1274   -0.1323    0.0143    0.0322


   Root No.       9        10        11        12        13        14        15        16

                 9 A      10 A      11 A      12 A      13 A      14 A      15 A      16 A   

                 835.5     865.8     917.0     927.1     947.7     976.0    1013.9    1035.5
  
           1   -0.2300    0.0290    0.2076    0.0099   -0.0454    0.1146   -0.0853    0.0425
           2    0.1837   -0.2530    0.0529   -0.0617    0.0311   -0.2060    0.1714   -0.0739
           3    0.1032    0.1746   -0.0592    0.0230   -0.2023   -0.0264   -0.0019    0.0162
           4    0.2503   -0.1241    0.1503   -0.0176   -0.0653   -0.0501    0.0498   -0.0113
           5    0.2548    0.0027   -0.1883    0.0112    0.0731   -0.0420    0.0311   -0.0294
           6    0.0942    0.0387    0.0874    0.1123   -0.0685    0.3527   -0.0456    0.2004
           7    0.0510    0.1091    0.0350   -0.0013   -0.0553   -0.0353    0.0606   -0.0276
           8   -0.1984    0.1301    0.0672    0.0097   -0.0444    0.0483   -0.0253    0.0134
           9    0.0933    0.0653    0.1423   -0.0938    0.1380   -0.1207    0.1770   -0.2344
          10   -0.0414   -0.0406   -0.0178    0.1110    0.0966   -0.0263   -0.0322   -0.1152
          11   -0.0201   -0.0555   -0.0488   -0.2771   -0.0660    0.0939    0.0751    0.2757
          12   -0.1662   -0.1648   -0.0633    0.0246   -0.0291   -0.0958   -0.0202   -0.0395
          13    0.0554    0.1993   -0.3416    0.0254    0.1114    0.0592   -0.0501    0.0193
          14   -0.3161    0.2254    0.1330    0.0192   -0.0972    0.1062   -0.0613    0.0397
          15    0.0122    0.0133    0.0421   -0.0420    0.0781   -0.1984   -0.3858    0.2276
          16   -0.0688   -0.0852   -0.0558    0.0195    0.0925   -0.0456    0.0989    0.1515
          17   -0.0351   -0.0478   -0.0314   -0.0673    0.0253    0.1316   -0.2523   -0.3556
          18   -0.1026   -0.1492   -0.0362   -0.0256    0.3335    0.1129    0.0314    0.0400
          19   -0.2351    0.0775   -0.0520   -0.0636   -0.1493   -0.1184    0.0629    0.0257
          20    0.3494   -0.3007    0.1689    0.1721   -0.0276    0.0073   -0.2060   -0.0837
          21    0.0229    0.0151   -0.0336    0.0292   -0.1485   -0.0737   -0.0325   -0.0082
          22   -0.1065   -0.2543   -0.2460   -0.0064   -0.1016   -0.2983   -0.0022   -0.1192
          23    0.1434   -0.3222   -0.3711    0.2612   -0.1786    0.2119   -0.1231    0.1448
          24   -0.1116   -0.0140   -0.0501   -0.0628    0.0010   -0.1672    0.0261   -0.0748
          25    0.3722    0.1907    0.2530    0.0060    0.0839    0.2964    0.0007    0.1298
          26    0.2733    0.3019    0.0493   -0.2314    0.3160   -0.2164    0.0994   -0.1550
          27   -0.0939   -0.0165   -0.0670   -0.0644    0.0228   -0.1746    0.0300   -0.0824
          28    0.0323   -0.0396   -0.1208   -0.2490   -0.2100   -0.0402    0.0132    0.0769
          29   -0.0410    0.1223    0.0640    0.6458    0.0976   -0.1929   -0.0673   -0.2362
          30   -0.0269   -0.0401   -0.0718   -0.0365   -0.1263   -0.0822   -0.0071    0.0005
          31   -0.0466   -0.0770    0.1687   -0.0096   -0.0588   -0.0125    0.0076    0.0011
          32   -0.1973   -0.1374    0.4532   -0.0171   -0.1749   -0.0030    0.0222    0.0019
          33   -0.0077   -0.1236   -0.0724    0.1298   -0.1396    0.3306    0.4181   -0.2181
          34   -0.0077   -0.1117    0.1449   -0.0130   -0.0387   -0.0374    0.0253   -0.0124
          35   -0.0632    0.3324   -0.3300    0.0376    0.0783    0.1164   -0.0898    0.0457
          36   -0.0498    0.0758   -0.0824    0.0051   -0.1050    0.1920    0.4703   -0.2690
          37   -0.2022   -0.1904   -0.0276   -0.0302    0.4007    0.2152   -0.1249   -0.1524
          38   -0.0057   -0.1697   -0.0350   -0.0392    0.1916   -0.1154    0.3204    0.4023
          39    0.0769    0.1066    0.0023    0.0209   -0.1892   -0.0543   -0.0311   -0.0402
          40    0.1368    0.1029   -0.0432   -0.1414   -0.3905   -0.0615   -0.1267   -0.1542
          41   -0.0060    0.1666    0.0539    0.4345   -0.0334   -0.2632    0.2558    0.3290
          42    0.0720    0.0731   -0.0155   -0.0159   -0.1774   -0.0542   -0.0280   -0.0337


   Root No.      17        18        19        20        21        22        23        24

                17 A      18 A      19 A      20 A      21 A      22 A      23 A      24 A   

                1083.9    1129.3    1179.1    1186.4    1209.2    1221.8    1301.0    1332.0
  
           1    0.2252   -0.1409    0.2329    0.0151    0.2001   -0.1103   -0.1872   -0.0855
           2   -0.3879   -0.0694    0.2436    0.0506   -0.2653   -0.1095   -0.1022   -0.0605
           3   -0.0044    0.1023   -0.2967   -0.3311   -0.1549    0.0979   -0.1907    0.0908
           4   -0.0615   -0.2486   -0.2534    0.0478   -0.3711   -0.0230    0.0249    0.0400
           5   -0.1601   -0.2812   -0.2988   -0.0874    0.3628    0.0880    0.1448   -0.0556
           6   -0.2005   -0.0330    0.1205    0.0604    0.0188    0.0227    0.0369   -0.0141
           7   -0.1677    0.4001   -0.2540   -0.0980    0.3864    0.1017    0.1253   -0.0083
           8    0.0414    0.0129    0.0213   -0.0051    0.0647   -0.0040   -0.1478    0.1249
           9    0.1844   -0.0425    0.0627    0.0168    0.0309    0.0372    0.0261   -0.0070
          10   -0.0719    0.0152   -0.0123   -0.0531   -0.0310   -0.0384   -0.1259   -0.1507
          11    0.1644   -0.0263   -0.0119   -0.0266    0.0535   -0.0299   -0.0383   -0.0706
          12    0.0179   -0.0754    0.1813    0.1302    0.1367   -0.4633    0.1413   -0.0925
          13    0.0855   -0.1500    0.0605    0.0257   -0.0854   -0.0242   -0.0202    0.0010
          14    0.1484    0.0916   -0.0801    0.0225   -0.1198    0.0045   -0.1573    0.2444
          15   -0.0855    0.0138   -0.0162   -0.0063   -0.0082   -0.0057   -0.0050    0.0011
          16    0.0482   -0.0127    0.0518   -0.0967    0.0177   -0.1085    0.0170   -0.1044
          17   -0.1048    0.0080    0.0224   -0.0297   -0.0175   -0.0373    0.0052   -0.0417
          18   -0.0100    0.0560   -0.1055    0.0711   -0.0386    0.1990   -0.0332    0.0217
          19   -0.2687   -0.0932    0.4877   -0.1480   -0.0394    0.4837    0.0973   -0.0787
          20    0.5848   -0.1586    0.1232   -0.1034    0.0953    0.2495    0.0421   -0.0248
          21    0.0331   -0.0440    0.1735   -0.2248   -0.0481    0.4100    0.0552   -0.0034
          22    0.1985    0.2604   -0.0514   -0.0415   -0.3106   -0.0278   -0.1309    0.2201
          23   -0.0119    0.4791    0.1645   -0.0340    0.0382   -0.0415   -0.0103   -0.0887
          24    0.0658    0.0015   -0.0373   -0.0210   -0.0920    0.0185   -0.0525    0.1374
          25   -0.0637    0.1769    0.1919    0.1513   -0.2424   -0.0267   -0.0510    0.1865
          26    0.1626    0.4220    0.2664    0.0357    0.0777   -0.0302    0.0275   -0.1025
          27    0.0527    0.0215   -0.0036   -0.0476    0.0693    0.0019    0.0354   -0.1283
          28    0.0636    0.0300   -0.1054    0.6368    0.0696    0.3287   -0.0679    0.0070
          29   -0.1029    0.0219   -0.0260    0.3115   -0.0033    0.1281   -0.0295    0.0043
          30    0.0292   -0.0024   -0.0090    0.4525    0.0810    0.0690    0.0246    0.0077
          31    0.0049    0.0897   -0.0797    0.0042   -0.0907    0.0180    0.2423   -0.2174
          32    0.0260    0.2386   -0.1813    0.0059   -0.1649    0.0409    0.3690   -0.2907
          33    0.0728   -0.0249    0.0427    0.0210    0.0143    0.0089    0.0151   -0.0066
          34   -0.0686    0.0231    0.0225   -0.0257    0.1667    0.0017   -0.2234    0.2160
          35    0.1962   -0.0652   -0.0439    0.0607   -0.3530   -0.0100    0.3241   -0.2881
          36    0.0837    0.0004   -0.0186   -0.0201   -0.0058    0.0036   -0.0130    0.0074
          37   -0.0466    0.0356   -0.0042   -0.0081   -0.0138    0.1270    0.3260    0.3829
          38    0.0707    0.0051   -0.0017   -0.0042   -0.0077    0.0504    0.1199    0.1383
          39   -0.0001   -0.0085   -0.0127    0.0123    0.0039   -0.0600   -0.2137   -0.2640
          40   -0.0188   -0.0498    0.1416   -0.0195    0.0576   -0.2047    0.3813    0.3466
          41    0.1052   -0.0301    0.0554   -0.0111    0.0473   -0.0829    0.1777    0.1661
          42    0.0015   -0.0174    0.0514    0.0312    0.0303   -0.0644    0.2338    0.2501


   Root No.      25        26        27        28        29        30        31        32

                25 A      26 A      27 A      28 A      29 A      30 A      31 A      32 A   

                1397.4    1478.3    1861.9    2089.8    2987.3    3042.4    3079.2    3119.2
  
           1   -0.1667    0.5407   -0.0956   -0.1518    0.1330    0.0109    0.0069    0.0016
           2   -0.1370    0.2853   -0.0486   -0.1466    0.0755    0.0059    0.0034    0.0045
           3   -0.2108    0.3003   -0.0907   -0.0238   -0.2276   -0.0154   -0.0150   -0.0010
           4   -0.2913   -0.3403    0.0021    0.1395   -0.0017    0.0010    0.0214   -0.1895
           5    0.2468    0.1248   -0.0031   -0.1525    0.0037   -0.0011   -0.0099    0.1124
           6    0.0251   -0.0321   -0.0020    0.0006    0.0163    0.0001   -0.3051   -0.0338
           7    0.1267   -0.0518   -0.0021   -0.0071    0.0012   -0.0004    0.0002   -0.0008
           8   -0.0159    0.0219   -0.0275    0.8081   -0.0060   -0.0011    0.0004   -0.0093
           9    0.0207   -0.0247   -0.0032    0.0004   -0.0016   -0.0008   -0.0027   -0.0003
          10    0.0500   -0.0189    0.6621    0.0133   -0.0096    0.1529    0.0017    0.0025
          11    0.0435   -0.0338    0.2919    0.0077   -0.0024    0.0455   -0.0002    0.0006
          12    0.1799   -0.2232    0.1268    0.0120    0.0176   -0.2375    0.0012   -0.0021
          13   -0.0161    0.0037    0.0008    0.0004   -0.0001    0.0001    0.0000   -0.0024
          14   -0.0726   -0.3523    0.0292   -0.4800    0.0005    0.0000   -0.0002    0.0034
          15   -0.0038    0.0049   -0.0003    0.0007   -0.0004   -0.0001   -0.0006   -0.0001
          16    0.1354   -0.2080   -0.5706   -0.0006    0.0010   -0.0071    0.0003   -0.0008
          17    0.0527   -0.0850   -0.2408   -0.0007    0.0003   -0.0013    0.0001   -0.0002
          18   -0.0289    0.0165   -0.0003    0.0023   -0.0030    0.0208   -0.0006    0.0016
          19    0.0888   -0.1167    0.0352   -0.0166   -0.4581   -0.0282   -0.0298   -0.0009
          20    0.0504   -0.0568    0.0159   -0.0102   -0.2555   -0.0162   -0.0124   -0.0004
          21    0.0463   -0.1164    0.0168    0.0267    0.8009    0.0590    0.0417    0.0027
          22    0.3399    0.1173   -0.0008    0.0198    0.0160   -0.0040   -0.3833    0.2886
          23   -0.2281   -0.0289   -0.0011   -0.0115   -0.0131    0.0014    0.2150   -0.1613
          24    0.3430    0.1387   -0.0025   -0.0295   -0.0335    0.0032    0.5995   -0.5145
          25    0.4000    0.0433    0.0048    0.0221   -0.0153   -0.0044    0.3074    0.3603
          26   -0.1904   -0.0631    0.0025   -0.0121    0.0126    0.0026   -0.1814   -0.2132
          27   -0.3550   -0.1219   -0.0039    0.0288   -0.0296   -0.0076    0.4725    0.6328
          28   -0.0655    0.0758    0.0032   -0.0044    0.0363   -0.4590    0.0028   -0.0052
          29   -0.0290    0.0357   -0.0100   -0.0034    0.0114   -0.1281    0.0005   -0.0010
          30    0.0047   -0.0188   -0.1232   -0.0010   -0.0559    0.8227   -0.0010    0.0078
          31    0.0454    0.1253   -0.0065    0.1014   -0.0000   -0.0006   -0.0007    0.0123
          32    0.0577    0.0905    0.0004   -0.0440    0.0003    0.0003    0.0005   -0.0077
          33    0.0110   -0.0117    0.0007    0.0014    0.0011    0.0000   -0.0015    0.0000
          34   -0.0306   -0.1305    0.0065   -0.1016   -0.0008    0.0003    0.0005   -0.0026
          35    0.0225    0.1008    0.0014   -0.0433   -0.0006    0.0002    0.0002   -0.0010
          36   -0.0100    0.0105   -0.0013   -0.0015   -0.0014    0.0000    0.0011    0.0001
          37   -0.1344    0.0921   -0.0208    0.0011   -0.0007   -0.0403   -0.0003   -0.0009
          38   -0.0491    0.0304   -0.0202   -0.0004   -0.0002   -0.0236   -0.0000   -0.0004
          39    0.1107   -0.1044   -0.1318    0.0007   -0.0000   -0.0803   -0.0005   -0.0014
          40   -0.0844    0.0509   -0.0104   -0.0007   -0.0050   -0.0070   -0.0018    0.0023
          41   -0.0396    0.0261    0.0071    0.0007   -0.0017   -0.0024   -0.0006    0.0006
          42   -0.0889    0.0803    0.1406    0.0015    0.0044    0.0068    0.0027   -0.0038


   Root No.      33        34        35        36

                33 A      34 A      35 A      36 A   

                3131.5    3136.1    3138.5    3147.5
  
           1   -0.0020    0.0010    0.0002    0.0033
           2   -0.0008    0.0004    0.0015    0.0017
           3   -0.0002    0.0021   -0.0001   -0.0011
           4   -0.0002   -0.0010    0.0016   -0.0003
           5    0.0001    0.0008   -0.0024   -0.0002
           6   -0.0001    0.0008    0.0002   -0.0004
           7   -0.0003    0.0002   -0.0021   -0.0004
           8    0.0412    0.0003   -0.0022   -0.0007
           9   -0.0000    0.0001   -0.0000   -0.0000
          10    0.0001   -0.0141    0.0001    0.0391
          11   -0.0000   -0.0064    0.0001    0.0147
          12   -0.0001   -0.0060   -0.0001   -0.0212
          13   -0.0178   -0.0014   -0.3224    0.0006
          14   -0.2409   -0.0031    0.0134    0.0016
          15    0.0004   -0.0000   -0.0032    0.0000
          16   -0.0026    0.1219   -0.0006   -0.1851
          17   -0.0009    0.0293   -0.0002   -0.0919
          18    0.0025   -0.2725    0.0008   -0.1679
          19   -0.0008    0.0049   -0.0003   -0.0028
          20   -0.0007    0.0024   -0.0000   -0.0017
          21    0.0010   -0.0033    0.0005    0.0068
          22    0.0045    0.0024   -0.0028   -0.0006
          23   -0.0027   -0.0015    0.0014    0.0003
          24   -0.0071   -0.0042    0.0050    0.0007
          25    0.0047    0.0009   -0.0033    0.0002
          26   -0.0030   -0.0006    0.0018   -0.0000
          27    0.0075    0.0019   -0.0058    0.0001
          28    0.0001   -0.0128   -0.0001   -0.0426
          29    0.0000   -0.0043   -0.0000   -0.0125
          30   -0.0002    0.0135    0.0001    0.0696
          31   -0.5574   -0.0052    0.5927    0.0028
          32    0.3292    0.0030   -0.3836   -0.0017
          33   -0.0064   -0.0000    0.0069    0.0000
          34    0.6195    0.0100    0.5277   -0.0045
          35    0.3695    0.0060    0.3447   -0.0027
          36    0.0053    0.0001    0.0044   -0.0001
          37    0.0014    0.1128    0.0001    0.4418
          38    0.0009    0.0605    0.0001    0.2506
          39    0.0029    0.1570    0.0004    0.7818
          40    0.0069   -0.4804    0.0018    0.0988
          41    0.0020   -0.1388    0.0005    0.0254
          42   -0.0116    0.7861   -0.0030   -0.2012


          DESCRIPTION OF VIBRATIONS


 VIBRATION    1    1A         ATOM PAIR      ENERGY CONTRIBUTION    RADIAL
 FREQ.        74.99         C  4 -- C  6         +17.6% (564.9%)      0.0%
 T-DIPOLE    0.0215         C  3 -- C  5         +14.2% (506.7%)      0.0%
 TRAVEL      0.0511         C  5 -- H 11         +10.8% (441.4%)     70.1%
 RED. MASS   1.5035         C  5 -- H 12          +8.3% (387.0%)     97.3%
 EFF. MASS 344.6626

 VIBRATION    2    2A         ATOM PAIR      ENERGY CONTRIBUTION    RADIAL
 FREQ.       203.32         C  3 -- C  5         +14.6% (220.9%)      0.0%
 T-DIPOLE    0.0829         C  1 -- C  4         +12.4% (203.9%)      0.0%
 TRAVEL      0.0824         C  5 -- H 11         +10.2% (184.7%)     13.2%
 RED. MASS   1.2794         C  1 -- C  3          +9.0% (173.0%)      3.9%
 EFF. MASS  48.8460

 VIBRATION    3    3A         ATOM PAIR      ENERGY CONTRIBUTION    RADIAL
 FREQ.       303.01         C  1 -- C  2         +17.2% (207.5%)      0.0%
 T-DIPOLE    0.0675         C  4 -- C  6         +13.9% (186.6%)      0.0%
 TRAVEL      0.0704         C  1 -- C  3         +10.5% (161.9%)      0.4%
 RED. MASS   0.9085         C  1 -- C  4         +10.4% (161.7%)      0.0%
 EFF. MASS  44.8735

 VIBRATION    4    4A         ATOM PAIR      ENERGY CONTRIBUTION    RADIAL
 FREQ.       363.66         C  3 -- C  5         +16.5% (142.2%)      0.0%
 T-DIPOLE    0.1252         C  1 -- C  3         +12.6% (124.4%)      0.0%
 TRAVEL      0.0918         C  1 -- C  2         +12.4% (123.3%)      0.0%
 RED. MASS   1.1322         C  2 -- C  3         +10.1% (111.3%)      0.0%
 EFF. MASS  21.9826

 VIBRATION    5    5A         ATOM PAIR      ENERGY CONTRIBUTION    RADIAL
 FREQ.       446.92         C  6 -- H 14         +13.2% (108.8%)      0.8%
 T-DIPOLE    0.2301         C  1 -- C  4         +12.3% (104.8%)      0.1%
 TRAVEL      0.0933         C  4 -- C  6         +12.0% (103.8%)      0.1%
 RED. MASS   1.0766         C  2 -- C  3         +10.8% ( 98.2%)      0.1%
 EFF. MASS  17.3462

 VIBRATION    6    6A         ATOM PAIR      ENERGY CONTRIBUTION    RADIAL
 FREQ.       482.95         C  1 -- C  4         +14.5% (119.2%)      0.6%
 T-DIPOLE    0.1719         C  6 -- H 14         +14.3% (118.0%)      1.0%
 TRAVEL      0.0934         C  6 -- H 13         +10.9% (103.1%)     42.8%
 RED. MASS   1.4493         C  4 -- C  6          +9.5% ( 96.4%)      0.9%
 EFF. MASS  16.0129

 VIBRATION    7    7A         ATOM PAIR      ENERGY CONTRIBUTION    RADIAL
 FREQ.       612.76         C  5 -- H 12         +23.9% ( 71.7%)      0.0%
 T-DIPOLE    0.0819         C  5 -- H 11         +21.4% ( 67.9%)      0.1%
 TRAVEL      0.2052         C  6 -- H 13          +9.0% ( 43.9%)      3.2%
 RED. MASS   0.2758         C  2 -- H  8          +7.0% ( 38.7%)      4.2%
 EFF. MASS   2.6131

 VIBRATION    8    8A         ATOM PAIR      ENERGY CONTRIBUTION    RADIAL
 FREQ.       658.74         C  6 -- H 13         +16.7% ( 65.0%)      0.5%
 T-DIPOLE    0.1530         C  5 -- H 12         +12.9% ( 57.2%)      7.2%
 TRAVEL      0.1399         C  5 -- H 11         +10.2% ( 50.9%)      1.5%
 RED. MASS   0.5987         C  2 -- C  3          +9.7% ( 49.4%)      0.4%
 EFF. MASS   5.2267

 VIBRATION    9    9A         ATOM PAIR      ENERGY CONTRIBUTION    RADIAL
 FREQ.       835.53         C  2 -- C  3         +11.6% ( 59.0%)     33.5%
 T-DIPOLE    0.1473         C  1 -- C  2         +10.7% ( 56.7%)     97.8%
 TRAVEL      0.1051         C  5 -- H 12         +10.3% ( 55.6%)      9.2%
 RED. MASS   0.5980         C  5 -- H 11         +10.2% ( 55.5%)     90.2%
 EFF. MASS   7.3024

 VIBRATION   10   10A         ATOM PAIR      ENERGY CONTRIBUTION    RADIAL
 FREQ.       865.76         C  5 -- H 12         +12.2% ( 55.3%)     37.5%
 T-DIPOLE    0.0620         C  5 -- H 11         +12.1% ( 55.0%)      0.7%
 TRAVEL      0.1184         C  1 -- C  3         +10.7% ( 51.7%)     82.1%
 RED. MASS   0.3301         C  1 -- C  4          +8.7% ( 46.7%)     43.2%
 EFF. MASS   5.5514

 VIBRATION   11   11A         ATOM PAIR      ENERGY CONTRIBUTION    RADIAL
 FREQ.       916.96         C  5 -- H 11         +19.6% ( 67.5%)     17.8%
 T-DIPOLE    0.1599         C  5 -- H 12         +18.7% ( 66.0%)      5.7%
 TRAVEL      0.1220         C  2 -- H  8         +13.3% ( 55.7%)      0.5%
 RED. MASS   0.4367         C  3 -- C  5          +9.2% ( 46.3%)      2.8%
 EFF. MASS   4.9403

 VIBRATION   12   12A         ATOM PAIR      ENERGY CONTRIBUTION    RADIAL
 FREQ.       927.12         C  4 -- H 10         +49.0% ( 72.6%)      0.0%
 T-DIPOLE    0.4296         C  6 -- H 14         +15.6% ( 40.9%)      0.1%
 TRAVEL      0.1945         C  2 -- H  8          +8.9% ( 31.0%)      6.7%
 RED. MASS   0.3871         C  2 -- H  9          +8.0% ( 29.4%)      4.2%
 EFF. MASS   1.9228

 VIBRATION   13   13A         ATOM PAIR      ENERGY CONTRIBUTION    RADIAL
 FREQ.       947.71         C  6 -- H 14         +23.5% ( 67.5%)      6.0%
 T-DIPOLE    0.2372         C  6 -- H 13         +22.9% ( 66.6%)     14.5%
 TRAVEL      0.1308         C  4 -- C  6          +9.3% ( 42.4%)      0.4%
 RED. MASS   0.3317         C  2 -- H  9          +5.8% ( 33.5%)      6.7%
 EFF. MASS   4.1610

 VIBRATION   14   14A         ATOM PAIR      ENERGY CONTRIBUTION    RADIAL
 FREQ.       975.98         C  2 -- H  9         +19.9% ( 61.6%)     10.2%
 T-DIPOLE    0.3792         C  2 -- H  8         +19.0% ( 60.2%)     13.5%
 TRAVEL      0.1258         C  1 -- C  2         +10.8% ( 45.4%)     13.7%
 RED. MASS   0.3735         C  2 -- C  3          +9.7% ( 42.9%)      2.1%
 EFF. MASS   4.3648

 VIBRATION   15   15A         ATOM PAIR      ENERGY CONTRIBUTION    RADIAL
 FREQ.      1013.89         C  5 -- H 12         +24.8% ( 53.1%)      0.4%
 T-DIPOLE    0.4274         C  5 -- H 11         +21.3% ( 49.2%)      0.0%
 TRAVEL      0.1400         C  6 -- H 13         +12.4% ( 37.6%)      0.0%
 RED. MASS   0.4959         C  6 -- H 14         +10.1% ( 33.8%)      0.0%
 EFF. MASS   3.3946

 VIBRATION   16   16A         ATOM PAIR      ENERGY CONTRIBUTION    RADIAL
 FREQ.      1035.54         C  6 -- H 13         +19.0% ( 48.2%)      0.0%
 T-DIPOLE    0.3107         C  6 -- H 14         +15.9% ( 44.0%)      0.0%
 TRAVEL      0.1217         C  4 -- H 10          +8.9% ( 33.0%)      0.0%
 RED. MASS   0.5349         C  4 -- C  6          +8.2% ( 31.7%)      0.0%
 EFF. MASS   4.3970

 VIBRATION   17   17A         ATOM PAIR      ENERGY CONTRIBUTION    RADIAL
 FREQ.      1083.95         C  1 -- H  7         +35.2% ( 75.6%)      0.0%
 T-DIPOLE    0.1151         C  1 -- C  2         +10.6% ( 41.5%)     47.7%
 TRAVEL      0.1120         C  1 -- C  4          +8.8% ( 37.9%)      0.2%
 RED. MASS   0.8045         C  1 -- C  3          +8.5% ( 37.2%)      6.8%
 EFF. MASS   4.9549

 VIBRATION   18   18A         ATOM PAIR      ENERGY CONTRIBUTION    RADIAL
 FREQ.      1129.35         C  2 -- H  8         +25.3% ( 61.2%)      0.0%
 T-DIPOLE    0.1450         C  2 -- H  9         +19.9% ( 54.3%)      0.4%
 TRAVEL      0.1145         C  1 -- C  3         +11.5% ( 41.1%)     39.1%
 RED. MASS   0.7239         C  2 -- C  3         +10.4% ( 39.3%)      1.3%
 EFF. MASS   4.5545

 VIBRATION   19   19A         ATOM PAIR      ENERGY CONTRIBUTION    RADIAL
 FREQ.      1179.12         C  1 -- H  7         +19.8% ( 63.0%)     31.5%
 T-DIPOLE    0.1206         C  1 -- C  2         +17.7% ( 59.7%)     33.6%
 TRAVEL      0.0918         C  1 -- C  3         +14.3% ( 53.7%)     47.6%
 RED. MASS   0.9973         C  1 -- C  4         +13.3% ( 51.8%)     12.4%
 EFF. MASS   6.7800         C  2 -- H  9         +10.4% ( 45.7%)      0.4%

 VIBRATION   20   20A         ATOM PAIR      ENERGY CONTRIBUTION    RADIAL
 FREQ.      1186.36         C  4 -- H 10         +50.4% ( 81.2%)      1.6%
 T-DIPOLE    0.0249         C  1 -- C  4         +11.6% ( 38.9%)     48.6%
 TRAVEL      0.1379         C  1 -- H  7          +9.3% ( 34.8%)     69.4%
 RED. MASS   0.6749         C  1 -- C  2          +9.1% ( 34.5%)      0.6%
 EFF. MASS   2.9900

 VIBRATION   21   21A         ATOM PAIR      ENERGY CONTRIBUTION    RADIAL
 FREQ.      1209.18         C  2 -- C  3         +20.6% ( 68.1%)     62.7%
 T-DIPOLE    0.1676         C  1 -- C  2         +19.7% ( 66.7%)     43.4%
 TRAVEL      0.0820         C  2 -- H  8         +14.4% ( 56.9%)     37.1%
 RED. MASS   1.4301         C  2 -- H  9         +13.4% ( 55.0%)     35.4%
 EFF. MASS   8.2989

 VIBRATION   22   22A         ATOM PAIR      ENERGY CONTRIBUTION    RADIAL
 FREQ.      1221.79         C  1 -- H  7         +30.4% ( 68.0%)      2.1%
 T-DIPOLE    0.0480         C  4 -- H 10         +18.0% ( 52.4%)     15.0%
 TRAVEL      0.1090         C  4 -- C  6         +17.3% ( 51.4%)      1.4%
 RED. MASS   0.8527         C  1 -- C  4         +15.8% ( 49.0%)     51.6%
 EFF. MASS   4.6483

 VIBRATION   23   23A         ATOM PAIR      ENERGY CONTRIBUTION    RADIAL
 FREQ.      1300.96         C  5 -- H 11         +14.2% ( 42.2%)      1.0%
 T-DIPOLE    0.1191         C  6 -- H 14         +13.4% ( 40.9%)      0.1%
 TRAVEL      0.1277         C  5 -- H 12         +11.5% ( 37.9%)      2.7%
 RED. MASS   0.2738         C  1 -- C  4          +9.9% ( 35.2%)     88.5%
 EFF. MASS   3.1764

 VIBRATION   24   24A         ATOM PAIR      ENERGY CONTRIBUTION    RADIAL
 FREQ.      1331.99         C  6 -- H 13         +17.2% ( 43.4%)      0.7%
 T-DIPOLE    0.0657         C  5 -- H 11         +15.7% ( 41.5%)      3.1%
 TRAVEL      0.1439         C  5 -- H 12         +15.6% ( 41.3%)      3.2%
 RED. MASS   0.2129         C  6 -- H 14         +15.3% ( 41.0%)      1.7%
 EFF. MASS   2.4441

 VIBRATION   25   25A         ATOM PAIR      ENERGY CONTRIBUTION    RADIAL
 FREQ.      1397.38         C  2 -- H  9         +24.1% ( 60.3%)      3.1%
 T-DIPOLE    0.1316         C  2 -- H  8         +21.8% ( 57.3%)      4.8%
 TRAVEL      0.1053         C  1 -- C  2         +11.1% ( 41.0%)      7.1%
 RED. MASS   0.5709         C  2 -- C  3         +10.4% ( 39.6%)     79.5%
 EFF. MASS   4.3537

 VIBRATION   26   26A         ATOM PAIR      ENERGY CONTRIBUTION    RADIAL
 FREQ.      1478.27         C  1 -- C  2         +20.5% ( 74.6%)     85.1%
 T-DIPOLE    0.1064         C  1 -- C  4         +16.7% ( 67.5%)     91.3%
 TRAVEL      0.0666         C  1 -- H  7         +14.7% ( 63.2%)      0.3%
 RED. MASS   3.0481         C  1 -- C  3         +13.1% ( 59.8%)     54.4%
 EFF. MASS  10.2840

 VIBRATION   27   27A         ATOM PAIR      ENERGY CONTRIBUTION    RADIAL
 FREQ.      1861.90         C  4 -- C  6         +44.7% ( 98.8%)     98.7%
 T-DIPOLE    0.2837         C  1 -- C  4         +17.2% ( 61.4%)     55.6%
 TRAVEL      0.0554         C  4 -- H 10         +15.6% ( 58.4%)      3.7%
 RED. MASS   5.2717         C  6 -- H 14         +10.6% ( 48.2%)     10.9%
 EFF. MASS  11.7986         C  6 -- H 13         +10.4% ( 47.8%)     12.9%

 VIBRATION   28   28A         ATOM PAIR      ENERGY CONTRIBUTION    RADIAL
 FREQ.      2089.76         C  3 -- C  5         +38.4% ( 92.5%)    100.0%
 T-DIPOLE    0.3173         C  2 -- C  3         +23.5% ( 72.3%)     85.7%
 TRAVEL      0.0521         C  1 -- C  3         +23.3% ( 72.1%)     84.6%
 RED. MASS   5.8058         C  5 -- H 12          +5.1% ( 33.6%)     10.8%
 EFF. MASS  11.8889

 VIBRATION   29   29A         ATOM PAIR      ENERGY CONTRIBUTION    RADIAL
 FREQ.      2987.25         C  1 -- H  7         +95.7% ( 99.6%)    100.0%
 T-DIPOLE    0.1872         C  1 -- C  4          +1.2% ( 11.0%)     15.0%
 TRAVEL      0.1244         C  1 -- C  2          +1.1% ( 10.9%)     21.9%
 RED. MASS   0.9148         C  1 -- C  3          +1.1% ( 10.9%)     25.6%
 EFF. MASS   1.4585

 VIBRATION   30   30A         ATOM PAIR      ENERGY CONTRIBUTION    RADIAL
 FREQ.      3042.42         C  4 -- H 10         +95.8% ( 99.3%)    100.0%
 T-DIPOLE    0.2626         C  4 -- C  6          +1.4% ( 12.1%)     30.7%
 TRAVEL      0.1214         C  1 -- C  4          +1.3% ( 11.8%)     15.6%
 RED. MASS   0.9040         C  6 -- H 13          +0.9% (  9.6%)     95.4%
 EFF. MASS   1.5047

 VIBRATION   31   31A         ATOM PAIR      ENERGY CONTRIBUTION    RADIAL
 FREQ.      3079.17         C  2 -- H  8         +58.9% ( 79.2%)     98.2%
 T-DIPOLE    0.1869         C  2 -- H  9         +38.7% ( 64.2%)     95.8%
 TRAVEL      0.1191         C  2 -- C  3          +1.1% ( 10.9%)      0.4%
 RED. MASS   0.5370         C  1 -- C  2          +1.1% ( 10.8%)      0.3%
 EFF. MASS   1.5431

 VIBRATION   32   32A         ATOM PAIR      ENERGY CONTRIBUTION    RADIAL
 FREQ.      3119.16         C  2 -- H  9         +60.0% ( 77.1%)     97.7%
 T-DIPOLE    0.2380         C  2 -- H  8         +38.2% ( 61.5%)     94.1%
 TRAVEL      0.1285         C  2 -- C  3          +0.9% (  9.4%)     78.6%
 RED. MASS   0.5048         C  1 -- C  2          +0.9% (  9.3%)     74.2%
 EFF. MASS   1.3087

 VIBRATION   33   33A         ATOM PAIR      ENERGY CONTRIBUTION    RADIAL
 FREQ.      3131.53         C  5 -- H 12         +54.5% ( 73.9%)     96.1%
 T-DIPOLE    0.2733         C  5 -- H 11         +43.7% ( 66.2%)     94.0%
 TRAVEL      0.1236         C  3 -- C  5          +1.7% ( 13.1%)     99.6%
 RED. MASS   0.4910
 EFF. MASS   1.4085

 VIBRATION   34   34A         ATOM PAIR      ENERGY CONTRIBUTION    RADIAL
 FREQ.      3136.11         C  6 -- H 14         +92.2% ( 97.7%)     99.9%
 T-DIPOLE    0.2050         C  6 -- H 13          +6.5% ( 25.9%)     70.2%
 TRAVEL      0.1183         C  4 -- C  6          +1.3% ( 11.7%)     22.9%
 RED. MASS   0.8584
 EFF. MASS   1.5368

 VIBRATION   35   35A         ATOM PAIR      ENERGY CONTRIBUTION    RADIAL
 FREQ.      3138.51         C  5 -- H 11         +54.5% ( 75.6%)     97.6%
 T-DIPOLE    0.1978         C  5 -- H 12         +44.2% ( 68.1%)     96.3%
 TRAVEL      0.1158         C  3 -- C  5          +1.3% ( 11.5%)      0.2%
 RED. MASS   0.5398
 EFF. MASS   1.6027

 VIBRATION   36   36A         ATOM PAIR      ENERGY CONTRIBUTION    RADIAL
 FREQ.      3147.49         C  6 -- H 13         +92.1% ( 96.7%)     99.7%
 T-DIPOLE    0.2685         C  6 -- H 14          +5.5% ( 23.5%)     38.7%
 TRAVEL      0.1209         C  4 -- C  6          +1.6% ( 12.7%)     72.3%
 RED. MASS   0.8244         C  4 -- H 10          +0.8% (  8.9%)     94.9%
 EFF. MASS   1.4666

      SYMMETRY NUMBER FOR POINT-GROUP C1  =  1


          SYSTEM IS A GROUND STATE



 InChI=1S/C6H8/c1-3-6-4-5(6)2/h3,6H,1-2,4H2


          MOLECULE IS NOT LINEAR

          THERE ARE 36 GENUINE VIBRATIONS IN THIS SYSTEM
          THIS THERMODYNAMICS CALCULATION IS LIMITED TO
          MOLECULES WHICH HAVE NO INTERNAL ROTATIONS




                    CALCULATED THERMODYNAMIC PROPERTIES
                                          *
   TEMP. (K)   PARTITION FUNCTION   H.O.F.    ENTHALPY  HEAT CAPACITY ENTROPY
                                   KCAL/MOL   CAL/MOLE    CAL/K/MOL  CAL/K/MOL


 298.00  VIB.     0.1284D+02                  2145.0886    17.0738    12.2713
         ROT.     0.1456D+06                   888.2813     2.9808    26.6059
         INT.     0.1870D+07                  3033.3699    20.0546    38.8772
         TRA.     0.6934D+27                  1480.4688     4.9680    39.0554
         TOT.                       62.573    4513.8388    25.0227    77.9327

 200.00  VIB.     0.4219D+01                   835.7623     9.8106     7.0397
         ROT.     0.8005D+05                   596.1620     2.9808    25.4173
         INT.     0.3378D+06                  1431.9242    12.7914    32.4570
         TRA.     0.3813D+27                   993.6033     4.9680    37.0743
         TOT.                       60.485    2425.5275    17.7594    69.5313

 210.00  VIB.     0.4691D+01                   937.2788    10.4957     7.5349
         ROT.     0.8613D+05                   625.9700     2.9808    25.5627
         INT.     0.4041D+06                  1563.2489    13.4765    33.0976
         TRA.     0.4102D+27                  1043.2834     4.9680    37.3167
         TOT.                       60.666    2606.5323    18.4445    70.4143

 220.00  VIB.     0.5225D+01                  1045.7341    11.1981     8.0393
         ROT.     0.9236D+05                   655.7781     2.9808    25.7014
         INT.     0.4826D+06                  1701.5122    14.1789    33.7406
         TRA.     0.4399D+27                  1092.9636     4.9680    37.5478
         TOT.                       60.854    2794.4758    19.1469    71.2884

 230.00  VIB.     0.5831D+01                  1161.2943    11.9165     8.5528
         ROT.     0.9872D+05                   685.5862     2.9808    25.8339
         INT.     0.5756D+06                  1846.8806    14.8973    34.3867
         TRA.     0.4702D+27                  1142.6437     4.9680    37.7686
         TOT.                       61.049    2989.5243    19.8653    72.1553

 240.00  VIB.     0.6517D+01                  1284.1110    12.6491     9.0754
         ROT.     0.1052D+06                   715.3943     2.9808    25.9607
         INT.     0.6858D+06                  1999.5053    15.6299    35.0362
         TRA.     0.5012D+27                  1192.3239     4.9680    37.9801
         TOT.                       61.251    3191.8292    20.5979    73.0162

 250.00  VIB.     0.7297D+01                  1414.3174    13.3941     9.6069
         ROT.     0.1119D+06                   745.2024     2.9808    26.0824
         INT.     0.8164D+06                  2159.5198    16.3749    35.6893
         TRA.     0.5328D+27                  1242.0041     4.9680    38.1829
         TOT.                       61.461    3401.5239    21.3429    73.8722

 260.00  VIB.     0.8184D+01                  1552.0266    14.1493    10.1469
         ROT.     0.1187D+06                   775.0105     2.9808    26.1993
         INT.     0.9711D+06                  2327.0372    17.1301    36.3462
         TRA.     0.5651D+27                  1291.6842     4.9680    38.3777
         TOT.                       61.678    3618.7214    22.0981    74.7239

 270.00  VIB.     0.9194D+01                  1697.3303    14.9126    10.6952
         ROT.     0.1256D+06                   804.8186     2.9808    26.3118
         INT.     0.1154D+07                  2502.1489    17.8934    37.0070
         TRA.     0.5980D+27                  1341.3644     4.9680    38.5652
         TOT.                       61.903    3843.5133    22.8614    75.5722

 280.00  VIB.     0.1035D+02                  1850.2976    15.6817    11.2514
         ROT.     0.1326D+06                   834.6267     2.9808    26.4202
         INT.     0.1372D+07                  2684.9243    18.6625    37.6716
         TRA.     0.6316D+27                  1391.0445     4.9680    38.7459
         TOT.                       62.135    4075.9689    23.6305    76.4175

 290.00  VIB.     0.1166D+02                  2010.9759    16.4544    11.8151
         ROT.     0.1398D+06                   864.4348     2.9808    26.5248
         INT.     0.1630D+07                  2875.4108    19.4352    38.3400
         TRA.     0.6657D+27                  1440.7247     4.9680    38.9202
         TOT.                       62.376    4316.1355    24.4032    77.2602

 300.00  VIB.     0.1316D+02                  2179.3912    17.2287    12.3860
         ROT.     0.1471D+06                   894.2429     2.9808    26.6259
         INT.     0.1935D+07                  3073.6341    20.2095    39.0119
         TRA.     0.7004D+27                  1490.4049     4.9680    39.0887
         TOT.                       62.624    4564.0390    25.1775    78.1006

 310.00  VIB.     0.1488D+02                  2355.5487    18.0026    12.9636
         ROT.     0.1545D+06                   924.0510     2.9808    26.7236
         INT.     0.2298D+07                  3279.5997    20.9834    39.6872
         TRA.     0.7357D+27                  1540.0850     4.9680    39.2516
         TOT.                       62.879    4819.6847    25.9514    78.9388

 320.00  VIB.     0.1684D+02                  2539.4348    18.7741    13.5473
         ROT.     0.1620D+06                   953.8591     2.9808    26.8183
         INT.     0.2729D+07                  3493.2939    21.7550    40.3656
         TRA.     0.7716D+27                  1589.7652     4.9680    39.4093
         TOT.                       63.143    5083.0591    26.7230    79.7749

 330.00  VIB.     0.1909D+02                  2731.0185    19.5418    14.1368
         ROT.     0.1697D+06                   983.6672     2.9808    26.9100
         INT.     0.3240D+07                  3714.6857    22.5226    41.0468
         TRA.     0.8081D+27                  1639.4454     4.9680    39.5622
         TOT.                       63.414    5354.1310    27.4906    80.6089

 340.00  VIB.     0.2168D+02                  2930.2525    20.3040    14.7315
         ROT.     0.1774D+06                  1013.4753     2.9808    26.9990
         INT.     0.3846D+07                  3943.7278    23.2848    41.7305
         TRA.     0.8451D+27                  1689.1255     4.9680    39.7105
         TOT.                       63.692    5632.8533    28.2528    81.4410

 350.00  VIB.     0.2464D+02                  3137.0755    21.0594    15.3310
         ROT.     0.1853D+06                  1043.2834     2.9808    27.0854
         INT.     0.4567D+07                  4180.3589    24.0402    42.4164
         TRA.     0.8827D+27                  1738.8057     4.9680    39.8545
         TOT.                       63.979    5919.1646    29.0082    82.2708

 360.00  VIB.     0.2805D+02                  3351.4138    21.8068    15.9348
         ROT.     0.1933D+06                  1073.0915     2.9808    27.1693
         INT.     0.5423D+07                  4424.5053    24.7877    43.1041
         TRA.     0.9207D+27                  1788.4859     4.9680    39.9944
         TOT.                       64.272    6212.9911    29.7557    83.0985

 370.00  VIB.     0.3197D+02                  3573.1826    22.5453    16.5423
         ROT.     0.2014D+06                  1102.8996     2.9808    27.2510
         INT.     0.6439D+07                  4676.0822    25.5262    43.7933
         TRA.     0.9594D+27                  1838.1660     4.9680    40.1306
         TOT.                       64.574    6514.2482    30.4942    83.9239

 380.00  VIB.     0.3648D+02                  3802.2879    23.2740    17.1533
         ROT.     0.2097D+06                  1132.7077     2.9808    27.3305
         INT.     0.7647D+07                  4934.9956    26.2548    44.4838
         TRA.     0.9985D+27                  1887.8462     4.9680    40.2630
         TOT.                       64.882    6822.8418    31.2229    84.7468

 390.00  VIB.     0.4167D+02                  4038.6281    23.9922    17.7671
         ROT.     0.2180D+06                  1162.5158     2.9808    27.4079
         INT.     0.9083D+07                  5201.1439    26.9730    45.1751
         TRA.     0.1038D+28                  1937.5263     4.9680    40.3921
         TOT.                       65.198    7138.6703    31.9410    85.5672

 400.00  VIB.     0.4765D+02                  4282.0951    24.6993    18.3835
         ROT.     0.2264D+06                  1192.3239     2.9808    27.4834
         INT.     0.1079D+08                  5474.4190    27.6801    45.8669
         TRA.     0.1078D+28                  1987.2065     4.9680    40.5179
         TOT.                       65.521    7461.6255    32.6481    86.3848

   *: NOTE: HEATS OF FORMATION ARE RELATIVE TO THE
            ELEMENTS IN THEIR STANDARD STATE AT 298K
              (=  Standard Enthalpy of Formation).

            Hvib:  Zero-point energy is not included.
                   frequencies of less than zero cm-1 are not included.
            Hrot = (3/2)RT
            Htra = (3/2)RT + pV = (5/2)RT

            Heat capacity is Cp, not Cv

          For more information, see: HTTP://OpenMOPAC.net/Manual/thermochemistry.html


           FORCE CONSTANT IN CARTESIAN COORDINATES (Millidynes/A)

    ATOM   CHEMICAL       X               Y               Z
   NUMBER   SYMBOL  FORCE CONSTANT  FORCE CONSTANT  FORCE CONSTANT

      1       C        9.935324        6.793164        9.189261
      2       C        9.589097        7.034589        8.439339
      3       C        5.087050       21.277205        2.332119
      4       C       13.614383        4.472907        9.353806
      5       C        8.821336       15.861361        1.960720
      6       C       13.431920        4.048444        9.005612
      7       H        1.702441        0.861353        3.694110
      8       H        1.838131        0.917134        3.795052
      9       H        1.812949        0.949395        3.810250
     10       H        1.718454        0.496343        4.000408
     11       H        4.068012        1.982972        0.333836
     12       H        4.067117        1.980681        0.333056
     13       H        1.735479        0.743881        3.999576
     14       H        1.899242        0.502126        4.067234

 **********************
 *                    *
 * JOB ENDED NORMALLY *
 *                    *
 **********************



 TOTAL JOB TIME:             6.06 SECONDS

 == MOPAC DONE ==
