 *******************************************************************************
 ** Site#: 14399        For non-commercial use only    Version 18.184L 64BITS **
 *******************************************************************************
 ** Cite this program as: MOPAC2016, Version: 18.184L, James J. P. Stewart,   **
 ** Stewart Computational Chemistry, web: HTTP://OpenMOPAC.net. Days left:  20**
 *******************************************************************************
 **                                                                           **
 **                                MOPAC2016                                  **
 **                                                                           **
 *******************************************************************************

                              PM3 CALCULATION RESULTS

 *******************************************************************************
 *  CALCULATION DONE:                                Thu Jun 13 15:39:01 2019  *
 *  PM3        - The PM3 Hamiltonian to be used
 *  PRECISE    - CRITERIA TO BE INCREASED BY 100 TIMES
 *  NOSYM      - POINT-GROUP SYMMETRY SET TO C1
 *  THREADS=1  - MULTI-THREADING NOT USED
 *  T=         - A TIME OF 172800.0 SECONDS REQUESTED
 *  DUMP=N     - RESTART FILE WRITTEN EVERY  7200.000 SECONDS
 *******************************************************************************
pm3  precise nosym THREADS=1
 InChI=1S/C12H18/c1-2-3-7-11-10-12(11)8-5-4-6-9-12/h4-6,8,11H,2-3,7,9-10H2,1H3

   ATOM   CHEMICAL          X               Y               Z
  NUMBER   SYMBOL      (ANGSTROMS)     (ANGSTROMS)     (ANGSTROMS)
 
     1       C          1.48930000  *  -0.54600000  *  -0.13670000  *
     2       C          0.22950000  *  -1.40010000  *   0.05210000  *
     3       C          1.42430000  *  -1.58750000  *   0.98380000  *
     4       C         -1.00450000  *  -0.77690000  *   0.72440000  *
     5       C         -1.96240000  *  -0.22430000  *  -0.33510000  *
     6       C         -3.19890000  *   0.40630000  *   0.31500000  *
     7       C          1.51560000  *   0.93220000  *   0.32710000  *
     8       C         -4.15710000  *   0.95330000  *  -0.73890000  *
     9       C          2.39180000  *  -0.94450000  *  -1.27260000  *
    10       C          2.78450000  *   1.63940000  *  -0.07440000  *
    11       C          3.40730000  *  -0.15920000  *  -1.62980000  *
    12       C          3.64090000  *   1.13750000  *  -0.97120000  *
    13       H          0.08020000  *  -2.24820000  *  -0.65130000  *
    14       H         -2.88770000  *   1.23830000  *   0.98370000  *
    15       H         -3.73170000  *  -0.35570000  *   0.92490000  *
    16       H         -2.28070000  *  -1.05120000  *  -1.00790000  *
    17       H         -1.43710000  *   0.54160000  *  -0.94650000  *
    18       H         -0.73500000  *   0.02540000  *   1.44350000  *
    19       H         -1.52130000  *  -1.57570000  *   1.29900000  *
    20       H          1.97900000  *  -2.53330000  *   0.80110000  *
    21       H          1.27780000  *  -1.20380000  *   2.01630000  *
    22       H          0.66480000  *   1.47730000  *  -0.13110000  *
    23       H          1.41850000  *   1.01160000  *   1.43060000  *
    24       H         -4.50390000  *   0.13600000  *  -1.40660000  *
    25       H         -5.04110000  *   1.40320000  *  -0.23980000  *
    26       H         -3.65570000  *   1.73630000  *  -1.34690000  *
    27       H          2.24030000  *  -1.88470000  *  -1.78970000  *
    28       H          2.98360000  *   2.61610000  *   0.34880000  *
    29       H          4.07250000  *  -0.47390000  *  -2.42380000  *
    30       H          4.51760000  *   1.71040000  *  -1.24540000  *
 


          CARTESIAN COORDINATES 

    NO.       ATOM           X           Y           Z

     1         C          1.4893     -0.5460     -0.1367
     2         C          0.2295     -1.4001      0.0521
     3         C          1.4243     -1.5875      0.9838
     4         C         -1.0045     -0.7769      0.7244
     5         C         -1.9624     -0.2243     -0.3351
     6         C         -3.1989      0.4063      0.3150
     7         C          1.5156      0.9322      0.3271
     8         C         -4.1571      0.9533     -0.7389
     9         C          2.3918     -0.9445     -1.2726
    10         C          2.7845      1.6394     -0.0744
    11         C          3.4073     -0.1592     -1.6298
    12         C          3.6409      1.1375     -0.9712
    13         H          0.0802     -2.2482     -0.6513
    14         H         -2.8877      1.2383      0.9837
    15         H         -3.7317     -0.3557      0.9249
    16         H         -2.2807     -1.0512     -1.0079
    17         H         -1.4371      0.5416     -0.9465
    18         H         -0.7350      0.0254      1.4435
    19         H         -1.5213     -1.5757      1.2990
    20         H          1.9790     -2.5333      0.8011
    21         H          1.2778     -1.2038      2.0163
    22         H          0.6648      1.4773     -0.1311
    23         H          1.4185      1.0116      1.4306
    24         H         -4.5039      0.1360     -1.4066
    25         H         -5.0411      1.4032     -0.2398
    26         H         -3.6557      1.7363     -1.3469
    27         H          2.2403     -1.8847     -1.7897
    28         H          2.9836      2.6161      0.3488
    29         H          4.0725     -0.4739     -2.4238
    30         H          4.5176      1.7104     -1.2454

  H: (PM3): J. J. P. STEWART, J. COMP. CHEM. 10, 209 (1989).
  C: (PM3): J. J. P. STEWART, J. COMP. CHEM. 10, 209 (1989).

           Empirical Formula: C12 H18  =    30 atoms



      MOLECULAR POINT GROUP   :   C1  


      RHF CALCULATION, NO. OF DOUBLY OCCUPIED LEVELS = 33


          Geometry optimization using EF

          DIAGONAL MATRIX USED AS START HESSIAN

 CYCLE:     1 TIME:   0.031 TIME LEFT:  2.00D  GRAD.:   100.850 HEAT:  30.64891
 CYCLE:     2 TIME:   0.051 TIME LEFT:  2.00D  GRAD.:    97.426 HEAT:  28.25548
 CYCLE:     3 TIME:   0.027 TIME LEFT:  2.00D  GRAD.:    81.160 HEAT:  26.21342
 CYCLE:     4 TIME:   0.039 TIME LEFT:  2.00D  GRAD.:    52.299 HEAT:  24.84675
 CYCLE:     5 TIME:   0.039 TIME LEFT:  2.00D  GRAD.:    41.359 HEAT:  24.26326
 CYCLE:     6 TIME:   0.031 TIME LEFT:  2.00D  GRAD.:    36.341 HEAT:  23.89578
 CYCLE:     7 TIME:   0.027 TIME LEFT:  2.00D  GRAD.:    27.871 HEAT:  23.47193
 CYCLE:     8 TIME:   0.027 TIME LEFT:  2.00D  GRAD.:    42.773 HEAT:  23.35675
 CYCLE:     9 TIME:   0.027 TIME LEFT:  2.00D  GRAD.:    42.917 HEAT:  23.26132
 CYCLE:    10 TIME:   0.043 TIME LEFT:  2.00D  GRAD.:    20.857 HEAT:  22.82191
 CYCLE:    11 TIME:   0.039 TIME LEFT:  2.00D  GRAD.:    25.132 HEAT:  22.81290
 CYCLE:    12 TIME:   0.027 TIME LEFT:  2.00D  GRAD.:    12.873 HEAT:  22.69183
 CYCLE:    13 TIME:   0.043 TIME LEFT:  2.00D  GRAD.:    12.492 HEAT:  22.66116
 CYCLE:    14 TIME:   0.027 TIME LEFT:  2.00D  GRAD.:    12.007 HEAT:  22.62818
 CYCLE:    15 TIME:   0.027 TIME LEFT:  2.00D  GRAD.:    10.040 HEAT:  22.59392
 CYCLE:    16 TIME:   0.027 TIME LEFT:  2.00D  GRAD.:     9.413 HEAT:  22.56493
 CYCLE:    17 TIME:   0.043 TIME LEFT:  2.00D  GRAD.:     7.854 HEAT:  22.54401
 CYCLE:    18 TIME:   0.027 TIME LEFT:  2.00D  GRAD.:     9.674 HEAT:  22.53398
 CYCLE:    19 TIME:   0.027 TIME LEFT:  2.00D  GRAD.:     7.119 HEAT:  22.50469
 CYCLE:    20 TIME:   0.043 TIME LEFT:  2.00D  GRAD.:     6.458 HEAT:  22.49427
 CYCLE:    21 TIME:   0.027 TIME LEFT:  2.00D  GRAD.:     4.891 HEAT:  22.47846
 CYCLE:    22 TIME:   0.027 TIME LEFT:  2.00D  GRAD.:     8.334 HEAT:  22.47788
 CYCLE:    23 TIME:   0.027 TIME LEFT:  2.00D  GRAD.:     3.665 HEAT:  22.45463
 CYCLE:    24 TIME:   0.055 TIME LEFT:  2.00D  GRAD.:     3.130 HEAT:  22.45001
 CYCLE:    25 TIME:   0.027 TIME LEFT:  2.00D  GRAD.:     6.127 HEAT:  22.44788
 CYCLE:    26 TIME:   0.027 TIME LEFT:  2.00D  GRAD.:     5.079 HEAT:  22.43379
 CYCLE:    27 TIME:   0.031 TIME LEFT:  2.00D  GRAD.:     3.952 HEAT:  22.42716
 CYCLE:    28 TIME:   0.027 TIME LEFT:  2.00D  GRAD.:     4.996 HEAT:  22.42435
 CYCLE:    29 TIME:   0.027 TIME LEFT:  2.00D  GRAD.:     4.951 HEAT:  22.42040
 CYCLE:    30 TIME:   0.031 TIME LEFT:  2.00D  GRAD.:     3.717 HEAT:  22.41350
 CYCLE:    31 TIME:   0.027 TIME LEFT:  2.00D  GRAD.:     3.466 HEAT:  22.40938
 CYCLE:    32 TIME:   0.027 TIME LEFT:  2.00D  GRAD.:     2.126 HEAT:  22.40200
 CYCLE:    33 TIME:   0.031 TIME LEFT:  2.00D  GRAD.:     3.491 HEAT:  22.39400
 CYCLE:    34 TIME:   0.027 TIME LEFT:  2.00D  GRAD.:     4.200 HEAT:  22.38350
 CYCLE:    35 TIME:   0.027 TIME LEFT:  2.00D  GRAD.:     3.542 HEAT:  22.37211
 CYCLE:    36 TIME:   0.031 TIME LEFT:  2.00D  GRAD.:     3.317 HEAT:  22.36203
 CYCLE:    37 TIME:   0.027 TIME LEFT:  2.00D  GRAD.:     4.046 HEAT:  22.35298
 CYCLE:    38 TIME:   0.027 TIME LEFT:  2.00D  GRAD.:     4.357 HEAT:  22.34512
 CYCLE:    39 TIME:   0.031 TIME LEFT:  2.00D  GRAD.:     2.366 HEAT:  22.33355
 CYCLE:    40 TIME:   0.027 TIME LEFT:  2.00D  GRAD.:     3.574 HEAT:  22.33063
 CYCLE:    41 TIME:   0.027 TIME LEFT:  2.00D  GRAD.:     2.400 HEAT:  22.32323
 CYCLE:    42 TIME:   0.027 TIME LEFT:  2.00D  GRAD.:     3.215 HEAT:  22.31870
 CYCLE:    43 TIME:   0.031 TIME LEFT:  2.00D  GRAD.:     2.039 HEAT:  22.31190
 CYCLE:    44 TIME:   0.027 TIME LEFT:  2.00D  GRAD.:     1.891 HEAT:  22.30689
 CYCLE:    45 TIME:   0.027 TIME LEFT:  2.00D  GRAD.:     2.286 HEAT:  22.30169
 CYCLE:    46 TIME:   0.031 TIME LEFT:  2.00D  GRAD.:     1.879 HEAT:  22.29605
 CYCLE:    47 TIME:   0.027 TIME LEFT:  2.00D  GRAD.:     1.730 HEAT:  22.28937
 CYCLE:    48 TIME:   0.027 TIME LEFT:  2.00D  GRAD.:     2.033 HEAT:  22.28295
 CYCLE:    49 TIME:   0.031 TIME LEFT:  2.00D  GRAD.:     1.923 HEAT:  22.27708
 CYCLE:    50 TIME:   0.027 TIME LEFT:  2.00D  GRAD.:     1.559 HEAT:  22.27227
 CYCLE:    51 TIME:   0.027 TIME LEFT:  2.00D  GRAD.:     1.382 HEAT:  22.26822
 CYCLE:    52 TIME:   0.031 TIME LEFT:  2.00D  GRAD.:     1.177 HEAT:  22.26488
 CYCLE:    53 TIME:   0.027 TIME LEFT:  2.00D  GRAD.:     0.865 HEAT:  22.26299
 CYCLE:    54 TIME:   0.027 TIME LEFT:  2.00D  GRAD.:     0.610 HEAT:  22.26204
 CYCLE:    55 TIME:   0.031 TIME LEFT:  2.00D  GRAD.:     0.522 HEAT:  22.26144
 CYCLE:    56 TIME:   0.027 TIME LEFT:  2.00D  GRAD.:     0.496 HEAT:  22.26082
 CYCLE:    57 TIME:   0.027 TIME LEFT:  2.00D  GRAD.:     0.480 HEAT:  22.26024
 CYCLE:    58 TIME:   0.027 TIME LEFT:  2.00D  GRAD.:     0.475 HEAT:  22.25971
 CYCLE:    59 TIME:   0.031 TIME LEFT:  2.00D  GRAD.:     0.487 HEAT:  22.25918
 CYCLE:    60 TIME:   0.027 TIME LEFT:  2.00D  GRAD.:     0.476 HEAT:  22.25863
 CYCLE:    61 TIME:   0.027 TIME LEFT:  2.00D  GRAD.:     0.482 HEAT:  22.25805
 CYCLE:    62 TIME:   0.031 TIME LEFT:  2.00D  GRAD.:     0.464 HEAT:  22.25748
 CYCLE:    63 TIME:   0.027 TIME LEFT:  2.00D  GRAD.:     0.494 HEAT:  22.25689
 CYCLE:    64 TIME:   0.027 TIME LEFT:  2.00D  GRAD.:     0.523 HEAT:  22.25624
 CYCLE:    65 TIME:   0.031 TIME LEFT:  2.00D  GRAD.:     0.553 HEAT:  22.25550
 CYCLE:    66 TIME:   0.027 TIME LEFT:  2.00D  GRAD.:     0.537 HEAT:  22.25481
 CYCLE:    67 TIME:   0.027 TIME LEFT:  2.00D  GRAD.:     0.499 HEAT:  22.25418
 CYCLE:    68 TIME:   0.031 TIME LEFT:  2.00D  GRAD.:     0.481 HEAT:  22.25372
 CYCLE:    69 TIME:   0.027 TIME LEFT:  2.00D  GRAD.:     0.466 HEAT:  22.25323
 CYCLE:    70 TIME:   0.027 TIME LEFT:  2.00D  GRAD.:     0.521 HEAT:  22.25255
 CYCLE:    71 TIME:   0.031 TIME LEFT:  2.00D  GRAD.:     0.617 HEAT:  22.25160
 CYCLE:    72 TIME:   0.027 TIME LEFT:  2.00D  GRAD.:     0.728 HEAT:  22.25014
 CYCLE:    73 TIME:   0.027 TIME LEFT:  2.00D  GRAD.:     0.787 HEAT:  22.24831
 CYCLE:    74 TIME:   0.031 TIME LEFT:  2.00D  GRAD.:     0.736 HEAT:  22.24641
 CYCLE:    75 TIME:   0.027 TIME LEFT:  2.00D  GRAD.:     0.566 HEAT:  22.24562
 CYCLE:    76 TIME:   0.027 TIME LEFT:  2.00D  GRAD.:     0.463 HEAT:  22.24482
 CYCLE:    77 TIME:   0.027 TIME LEFT:  2.00D  GRAD.:     0.333 HEAT:  22.24456
 CYCLE:    78 TIME:   0.031 TIME LEFT:  2.00D  GRAD.:     0.296 HEAT:  22.24418
 CYCLE:    79 TIME:   0.027 TIME LEFT:  2.00D  GRAD.:     0.244 HEAT:  22.24404
 CYCLE:    80 TIME:   0.027 TIME LEFT:  2.00D  GRAD.:     0.213 HEAT:  22.24386
 CYCLE:    81 TIME:   0.031 TIME LEFT:  2.00D  GRAD.:     0.238 HEAT:  22.24369
 CYCLE:    82 TIME:   0.027 TIME LEFT:  2.00D  GRAD.:     0.274 HEAT:  22.24344
 CYCLE:    83 TIME:   0.027 TIME LEFT:  2.00D  GRAD.:     0.275 HEAT:  22.24317
 CYCLE:    84 TIME:   0.043 TIME LEFT:  2.00D  GRAD.:     0.253 HEAT:  22.24296
 CYCLE:    85 TIME:   0.027 TIME LEFT:  2.00D  GRAD.:     0.253 HEAT:  22.24277
 CYCLE:    86 TIME:   0.027 TIME LEFT:  2.00D  GRAD.:     0.227 HEAT:  22.24265
 CYCLE:    87 TIME:   0.031 TIME LEFT:  2.00D  GRAD.:     0.284 HEAT:  22.24247
 CYCLE:    88 TIME:   0.027 TIME LEFT:  2.00D  GRAD.:     0.247 HEAT:  22.24237
 CYCLE:    89 TIME:   0.027 TIME LEFT:  2.00D  GRAD.:     0.510 HEAT:  22.24238
 CYCLE:    90 TIME:   0.027 TIME LEFT:  2.00D  GRAD.:     0.247 HEAT:  22.24187
 CYCLE:    91 TIME:   0.031 TIME LEFT:  2.00D  GRAD.:     0.209 HEAT:  22.24166
 CYCLE:    92 TIME:   0.027 TIME LEFT:  2.00D  GRAD.:     0.229 HEAT:  22.24138
 CYCLE:    93 TIME:   0.027 TIME LEFT:  2.00D  GRAD.:     0.233 HEAT:  22.24117
 CYCLE:    94 TIME:   0.031 TIME LEFT:  2.00D  GRAD.:     0.243 HEAT:  22.24093
 CYCLE:    95 TIME:   0.027 TIME LEFT:  2.00D  GRAD.:     0.207 HEAT:  22.24081
 CYCLE:    96 TIME:   0.027 TIME LEFT:  2.00D  GRAD.:     0.264 HEAT:  22.24055
 CYCLE:    97 TIME:   0.031 TIME LEFT:  2.00D  GRAD.:     0.216 HEAT:  22.24045
 CYCLE:    98 TIME:   0.027 TIME LEFT:  2.00D  GRAD.:     0.243 HEAT:  22.24015
 CYCLE:    99 TIME:   0.027 TIME LEFT:  2.00D  GRAD.:     0.244 HEAT:  22.24003
 CYCLE:   100 TIME:   0.031 TIME LEFT:  2.00D  GRAD.:     0.249 HEAT:  22.23971
 CYCLE:   101 TIME:   0.027 TIME LEFT:  2.00D  GRAD.:     0.217 HEAT:  22.23958
 CYCLE:   102 TIME:   0.027 TIME LEFT:  2.00D  GRAD.:     0.240 HEAT:  22.23939
 CYCLE:   103 TIME:   0.031 TIME LEFT:  2.00D  GRAD.:     0.157 HEAT:  22.23929
 CYCLE:   104 TIME:   0.027 TIME LEFT:  2.00D  GRAD.:     0.119 HEAT:  22.23922
 CYCLE:   105 TIME:   0.027 TIME LEFT:  2.00D  GRAD.:     0.172 HEAT:  22.23915
 CYCLE:   106 TIME:   0.027 TIME LEFT:  2.00D  GRAD.:     0.167 HEAT:  22.23908
 CYCLE:   107 TIME:   0.031 TIME LEFT:  2.00D  GRAD.:     0.159 HEAT:  22.23894
 CYCLE:   108 TIME:   0.027 TIME LEFT:  2.00D  GRAD.:     0.128 HEAT:  22.23890
 CYCLE:   109 TIME:   0.027 TIME LEFT:  2.00D  GRAD.:     0.169 HEAT:  22.23883
 CYCLE:   110 TIME:   0.031 TIME LEFT:  2.00D  GRAD.:     0.132 HEAT:  22.23879
 CYCLE:   111 TIME:   0.027 TIME LEFT:  2.00D  GRAD.:     0.132 HEAT:  22.23869
 CYCLE:   112 TIME:   0.027 TIME LEFT:  2.00D  GRAD.:     0.142 HEAT:  22.23864
 CYCLE:   113 TIME:   0.031 TIME LEFT:  2.00D  GRAD.:     0.161 HEAT:  22.23856
 CYCLE:   114 TIME:   0.027 TIME LEFT:  2.00D  GRAD.:     0.179 HEAT:  22.23849
 CYCLE:   115 TIME:   0.027 TIME LEFT:  2.00D  GRAD.:     0.193 HEAT:  22.23838
 CYCLE:   116 TIME:   0.031 TIME LEFT:  2.00D  GRAD.:     0.182 HEAT:  22.23829
 CYCLE:   117 TIME:   0.027 TIME LEFT:  2.00D  GRAD.:     0.201 HEAT:  22.23813
 CYCLE:   118 TIME:   0.027 TIME LEFT:  2.00D  GRAD.:     0.177 HEAT:  22.23803
 CYCLE:   119 TIME:   0.031 TIME LEFT:  2.00D  GRAD.:     0.201 HEAT:  22.23785
 CYCLE:   120 TIME:   0.027 TIME LEFT:  2.00D  GRAD.:     0.128 HEAT:  22.23780
 CYCLE:   121 TIME:   0.027 TIME LEFT:  2.00D  GRAD.:     0.124 HEAT:  22.23775
 CYCLE:   122 TIME:   0.027 TIME LEFT:  2.00D  GRAD.:     0.109 HEAT:  22.23772
 CYCLE:   123 TIME:   0.031 TIME LEFT:  2.00D  GRAD.:     0.119 HEAT:  22.23769
 CYCLE:   124 TIME:   0.027 TIME LEFT:  2.00D  GRAD.:     0.067 HEAT:  22.23766
 CYCLE:   125 TIME:   0.027 TIME LEFT:  2.00D  GRAD.:     0.050 HEAT:  22.23765

     GRADIENT =  0.04955  IS LESS THAN CUTOFF =  0.05000



 -------------------------------------------------------------------------------
 pm3  precise nosym THREADS=1
 InChI=1S/C12H18/c1-2-3-7-11-10-12(11)8-5-4-6-9-12/h4-6,8,11H,2-3,7,9-10H2,1H3



     GEOMETRY OPTIMISED USING EIGENVECTOR FOLLOWING (EF).     
     SCF FIELD WAS ACHIEVED                                   


                              PM3 CALCULATION
                                                       MOPAC2016 (Version: 18.184L)
                                                       Thu Jun 13 15:39:05 2019
                                                       No. of days remaining =  20




          FINAL HEAT OF FORMATION =         22.23765 KCAL/MOL =      93.04235 KJ/MOL


          TOTAL ENERGY            =      -1698.70889 EV
          ELECTRONIC ENERGY       =     -10533.73787 EV  POINT GROUP:     C1  
          CORE-CORE REPULSION     =       8835.02898 EV
          COSMO AREA              =        224.66 SQUARE ANGSTROMS
          COSMO VOLUME            =        235.72 CUBIC ANGSTROMS

          GRADIENT NORM           =          0.04955 = 0.00905 PER ATOM
          IONIZATION POTENTIAL    =          8.829079 EV
          HOMO LUMO ENERGIES (EV) =         -8.829  0.240
          NO. OF FILLED LEVELS    =         33
          MOLECULAR WEIGHT        =        162.2742

          MOLECULAR DIMENSIONS (Angstroms)

            Atom       Atom       Distance
            H    30    H    25     9.48296
            H    20    H    26     5.38914
            H    28    H    27     4.19525


          SCF CALCULATIONS        =        136
 
          WALL-CLOCK TIME         =          3.766 SECONDS
          COMPUTATION TIME        =          1.968 SECONDS




   ATOM   CHEMICAL          X               Y               Z
  NUMBER   SYMBOL      (ANGSTROMS)     (ANGSTROMS)     (ANGSTROMS)
 
     1       C          1.52141852  *  -0.57947464  *  -0.04374066  *
     2       C          0.24040153  *  -1.37902867  *   0.15120890  *
     3       C          1.42931665  *  -1.64630724  *   1.02457665  *
     4       C         -1.00188746  *  -0.77284339  *   0.74372859  *
     5       C         -1.90083713  *  -0.18521768  *  -0.33320869  *
     6       C         -3.17991361  *   0.38058133  *   0.26307022  *
     7       C          1.56323425  *   0.87367218  *   0.37827747  *
     8       C         -4.07616755  *   0.96616814  *  -0.80456255  *
     9       C          2.33519278  *  -0.91869437  *  -1.23220754  *
    10       C          2.75269440  *   1.62599499  *  -0.09637306  *
    11       C          3.29098186  *  -0.10508581  *  -1.69969323  *
    12       C          3.55402571  *   1.17260620  *  -1.06804997  *
    13       H         -0.00657378  *  -2.12509051  *  -0.63019734  *
    14       H         -2.93380209  *   1.15467372  *   1.01706182  *
    15       H         -3.72003807  *  -0.41248538  *   0.81772314  *
    16       H         -2.14624056  *  -0.95887896  *  -1.08839317  *
    17       H         -1.35761715  *   0.60778818  *  -0.88670395  *
    18       H         -0.74725565  *   0.00483788  *   1.49294025  *
    19       H         -1.54298782  *  -1.56071056  *   1.30572920  *
    20       H          1.99001779  *  -2.58074874  *   0.91152600  *
    21       H          1.40889682  *  -1.35022615  *   2.08065868  *
    22       H          0.65790386  *   1.39189160  *  -0.00579004  *
    23       H          1.50974846  *   0.94774203  *   1.48427392  *
    24       H         -4.36639500  *   0.21181609  *  -1.54803379  *
    25       H         -4.99923197  *   1.37222412  *  -0.37161558  *
    26       H         -3.58057499  *   1.78286642  *  -1.34624132  *
    27       H          2.13520671  *  -1.88758723  *  -1.70495895  *
    28       H          2.93246913  *   2.59608118  *   0.37975139  *
    29       H          3.89786084  *  -0.37851911  *  -2.56874743  *
    30       H          4.41862789  *   1.74653081  *  -1.41583979  *

                             CARTESIAN COORDINATES

   1    C        1.521418517    -0.579474639    -0.043740665
   2    C        0.240401531    -1.379028675     0.151208903
   3    C        1.429316652    -1.646307237     1.024576646
   4    C       -1.001887462    -0.772843392     0.743728585
   5    C       -1.900837134    -0.185217681    -0.333208687
   6    C       -3.179913605     0.380581328     0.263070217
   7    C        1.563234254     0.873672183     0.378277473
   8    C       -4.076167547     0.966168139    -0.804562546
   9    C        2.335192784    -0.918694366    -1.232207538
  10    C        2.752694401     1.625994988    -0.096373057
  11    C        3.290981855    -0.105085812    -1.699693230
  12    C        3.554025706     1.172606202    -1.068049971
  13    H       -0.006573777    -2.125090509    -0.630197343
  14    H       -2.933802089     1.154673718     1.017061822
  15    H       -3.720038069    -0.412485376     0.817723139
  16    H       -2.146240562    -0.958878960    -1.088393167
  17    H       -1.357617151     0.607788182    -0.886703950
  18    H       -0.747255655     0.004837883     1.492940246
  19    H       -1.542987822    -1.560710556     1.305729201
  20    H        1.990017787    -2.580748740     0.911525996
  21    H        1.408896817    -1.350226152     2.080658677
  22    H        0.657903864     1.391891605    -0.005790038
  23    H        1.509748459     0.947742027     1.484273922
  24    H       -4.366395000     0.211816093    -1.548033787
  25    H       -4.999231974     1.372224115    -0.371615576
  26    H       -3.580574993     1.782866418    -1.346241319
  27    H        2.135206705    -1.887587230    -1.704958950
  28    H        2.932469130     2.596081183     0.379751393
  29    H        3.897860836    -0.378519110    -2.568747432
  30    H        4.418627890     1.746530807    -1.415839785


           Empirical Formula: C12 H18  =    30 atoms



      MOLECULAR POINT GROUP   :   C1  


                  EIGENVALUES  
 -42.24757 -37.71917 -34.89251 -30.40229 -29.66949 -26.37423 -23.54862 -22.02578
 -20.93871 -20.73928 -19.56506 -17.80175 -17.00311 -16.47088 -16.22466 -15.27129
 -15.04293 -14.67018 -14.44855 -14.37262 -13.82276 -13.63036 -13.03782 -12.80954
 -12.57392 -12.25439 -12.06228 -11.90366 -11.60081 -11.41175 -11.30006 -10.93795
  -8.82908   0.23971   2.02237   2.86430   3.02974   3.17136   3.32599   3.45951
   3.57260   3.63891   3.72961   3.80748   3.84963   3.99348   4.02119   4.04950
   4.07990   4.14222   4.25370   4.42743   4.44682   4.59921   4.67014   4.76177
   4.85678   4.94598   4.97632   5.09225   5.10854   5.20438   5.24747   5.43881
   6.04889   6.26324


              NET ATOMIC CHARGES AND DIPOLE CONTRIBUTIONS

  ATOM NO.   TYPE          CHARGE      No. of ELECS.   s-Pop       p-Pop       
    1          C          -0.067860        4.0679     1.17038     2.89748
    2          C          -0.128061        4.1281     1.18142     2.94664
    3          C          -0.148379        4.1484     1.16832     2.98006
    4          C          -0.073637        4.0736     1.15402     2.91962
    5          C          -0.104219        4.1042     1.16293     2.94128
    6          C          -0.097852        4.0979     1.15865     2.93921
    7          C          -0.027452        4.0275     1.13883     2.88862
    8          C          -0.109457        4.1095     1.13829     2.97116
    9          C          -0.101113        4.1011     1.18815     2.91297
   10          C          -0.130553        4.1306     1.19540     2.93515
   11          C          -0.106528        4.1065     1.17842     2.92811
   12          C          -0.115789        4.1158     1.17791     2.93788
   13          H           0.095553        0.9044     0.90445
   14          H           0.047521        0.9525     0.95248
   15          H           0.048263        0.9517     0.95174
   16          H           0.052656        0.9473     0.94734
   17          H           0.055989        0.9440     0.94401
   18          H           0.054226        0.9458     0.94577
   19          H           0.053596        0.9464     0.94640
   20          H           0.079942        0.9201     0.92006
   21          H           0.082943        0.9171     0.91706
   22          H           0.065686        0.9343     0.93431
   23          H           0.059546        0.9405     0.94045
   24          H           0.038144        0.9619     0.96186
   25          H           0.037056        0.9629     0.96294
   26          H           0.038263        0.9617     0.96174
   27          H           0.100634        0.8994     0.89937
   28          H           0.097869        0.9021     0.90213
   29          H           0.101154        0.8988     0.89885
   30          H           0.101860        0.8981     0.89814
 DIPOLE           X         Y         Z       TOTAL
 POINT-CHG.    -0.397     0.086     0.229     0.467
 HYBRID         0.021    -0.055     0.021     0.063
 SUM           -0.376     0.032     0.250     0.453


          ATOMIC ORBITAL ELECTRON POPULATIONS

     Atom    s        px        py        pz   
    1  C   1.17038   0.99214   0.93534   0.97001
    2  C   1.18142   0.90361   1.01986   1.02317
    3  C   1.16832   1.01518   1.00310   0.96177
    4  C   1.15402   0.94802   0.99949   0.97211
    5  C   1.16293   0.95864   1.00695   0.97569
    6  C   1.15865   0.96152   1.00158   0.97611
    7  C   1.13883   0.97003   0.92447   0.99412
    8  C   1.13829   0.98742   1.00104   0.98270
    9  C   1.18815   0.96714   0.98489   0.96093
   10  C   1.19540   0.97008   0.98704   0.97802
   11  C   1.17842   0.98177   0.95534   0.99100
   12  C   1.17791   0.99285   0.96633   0.97869
   13  H   0.90445
   14  H   0.95248
   15  H   0.95174
   16  H   0.94734
   17  H   0.94401
   18  H   0.94577
   19  H   0.94640
   20  H   0.92006
   21  H   0.91706
   22  H   0.93431
   23  H   0.94045
   24  H   0.96186
   25  H   0.96294
   26  H   0.96174
   27  H   0.89937
   28  H   0.90213
   29  H   0.89885
   30  H   0.89814
 *******************************************************************************
 ** Site#: 14399        For non-commercial use only    Version 18.184L 64BITS **
 *******************************************************************************
 ** Cite this program as: MOPAC2016, Version: 18.184L, James J. P. Stewart,   **
 ** Stewart Computational Chemistry, web: HTTP://OpenMOPAC.net. Days left:  20**
 *******************************************************************************
 **                                                                           **
 **                                MOPAC2016                                  **
 **                                                                           **
 *******************************************************************************

                              PM3 CALCULATION RESULTS

 *******************************************************************************
 *  CALCULATION DONE:                                Thu Jun 13 15:39:05 2019  *
 *  PM3        - The PM3 Hamiltonian to be used
 *  OLDGEO     - PREVIOUS GEOMETRY TO BE USED
 *  PRECISE    - CRITERIA TO BE INCREASED BY 100 TIMES
 *  NOSYM      - POINT-GROUP SYMMETRY SET TO C1
 *  THREADS=1  - MULTI-THREADING NOT USED
 *  T=         - A TIME OF 172800.0 SECONDS REQUESTED
 *  DUMP=N     - RESTART FILE WRITTEN EVERY  7200.000 SECONDS
 *  THERMO     - THERMODYNAMIC QUANTITIES TO BE CALCULATED
 *******************************************************************************
oldgeo thermo nosym precise THREADS=1  pm3
 InChI=1S/C12H18/c1-2-3-7-11-10-12(11)8-5-4-6-9-12/h4-6,8,11H,2-3,7,9-10H2,1H3

   ATOM   CHEMICAL          X               Y               Z
  NUMBER   SYMBOL      (ANGSTROMS)     (ANGSTROMS)     (ANGSTROMS)
 
     1       C          1.52141852  *  -0.57947464  *  -0.04374066  *
     2       C          0.24040153  *  -1.37902867  *   0.15120890  *
     3       C          1.42931665  *  -1.64630724  *   1.02457665  *
     4       C         -1.00188746  *  -0.77284339  *   0.74372859  *
     5       C         -1.90083713  *  -0.18521768  *  -0.33320869  *
     6       C         -3.17991361  *   0.38058133  *   0.26307022  *
     7       C          1.56323425  *   0.87367218  *   0.37827747  *
     8       C         -4.07616755  *   0.96616814  *  -0.80456255  *
     9       C          2.33519278  *  -0.91869437  *  -1.23220754  *
    10       C          2.75269440  *   1.62599499  *  -0.09637306  *
    11       C          3.29098186  *  -0.10508581  *  -1.69969323  *
    12       C          3.55402571  *   1.17260620  *  -1.06804997  *
    13       H         -0.00657378  *  -2.12509051  *  -0.63019734  *
    14       H         -2.93380209  *   1.15467372  *   1.01706182  *
    15       H         -3.72003807  *  -0.41248538  *   0.81772314  *
    16       H         -2.14624056  *  -0.95887896  *  -1.08839317  *
    17       H         -1.35761715  *   0.60778818  *  -0.88670395  *
    18       H         -0.74725565  *   0.00483788  *   1.49294025  *
    19       H         -1.54298782  *  -1.56071056  *   1.30572920  *
    20       H          1.99001779  *  -2.58074874  *   0.91152600  *
    21       H          1.40889682  *  -1.35022615  *   2.08065868  *
    22       H          0.65790386  *   1.39189160  *  -0.00579004  *
    23       H          1.50974846  *   0.94774203  *   1.48427392  *
    24       H         -4.36639500  *   0.21181609  *  -1.54803379  *
    25       H         -4.99923197  *   1.37222412  *  -0.37161558  *
    26       H         -3.58057499  *   1.78286642  *  -1.34624132  *
    27       H          2.13520671  *  -1.88758723  *  -1.70495895  *
    28       H          2.93246913  *   2.59608118  *   0.37975139  *
    29       H          3.89786084  *  -0.37851911  *  -2.56874743  *
    30       H          4.41862789  *   1.74653081  *  -1.41583979  *
 


          CARTESIAN COORDINATES 

    NO.       ATOM           X           Y           Z

     1         C          1.5214     -0.5795     -0.0437
     2         C          0.2404     -1.3790      0.1512
     3         C          1.4293     -1.6463      1.0246
     4         C         -1.0019     -0.7728      0.7437
     5         C         -1.9008     -0.1852     -0.3332
     6         C         -3.1799      0.3806      0.2631
     7         C          1.5632      0.8737      0.3783
     8         C         -4.0762      0.9662     -0.8046
     9         C          2.3352     -0.9187     -1.2322
    10         C          2.7527      1.6260     -0.0964
    11         C          3.2910     -0.1051     -1.6997
    12         C          3.5540      1.1726     -1.0680
    13         H         -0.0066     -2.1251     -0.6302
    14         H         -2.9338      1.1547      1.0171
    15         H         -3.7200     -0.4125      0.8177
    16         H         -2.1462     -0.9589     -1.0884
    17         H         -1.3576      0.6078     -0.8867
    18         H         -0.7473      0.0048      1.4929
    19         H         -1.5430     -1.5607      1.3057
    20         H          1.9900     -2.5807      0.9115
    21         H          1.4089     -1.3502      2.0807
    22         H          0.6579      1.3919     -0.0058
    23         H          1.5097      0.9477      1.4843
    24         H         -4.3664      0.2118     -1.5480
    25         H         -4.9992      1.3722     -0.3716
    26         H         -3.5806      1.7829     -1.3462
    27         H          2.1352     -1.8876     -1.7050
    28         H          2.9325      2.5961      0.3798
    29         H          3.8979     -0.3785     -2.5687
    30         H          4.4186      1.7465     -1.4158

  H: (PM3): J. J. P. STEWART, J. COMP. CHEM. 10, 209 (1989).
  C: (PM3): J. J. P. STEWART, J. COMP. CHEM. 10, 209 (1989).

           Empirical Formula: C12 H18  =    30 atoms



      MOLECULAR POINT GROUP   :   C1  


      RHF CALCULATION, NO. OF DOUBLY OCCUPIED LEVELS = 33



          HEAT OF FORMATION =      22.237655 KCALS/MOLE


          CARTESIAN COORDINATE DERIVATIVES

   NUMBER  ATOM         X            Y            Z

     1       C      0.002268    -0.002722    -0.002292
     2       C      0.006476    -0.001348     0.003927
     3       C      0.000373    -0.000813     0.005396
     4       C      0.003894    -0.001953     0.004655
     5       C      0.003692    -0.003121     0.003781
     6       C      0.003780    -0.005120     0.006253
     7       C     -0.000989     0.001452    -0.006081
     8       C      0.002077    -0.001994     0.002228
     9       C     -0.004784     0.000449    -0.002112
    10       C      0.000493    -0.002178    -0.000514
    11       C     -0.000469    -0.002801     0.003747
    12       C     -0.003527     0.003743    -0.004313
    13       H      0.006094     0.006257    -0.002295
    14       H      0.000943     0.003636    -0.004437
    15       H     -0.008075     0.005199    -0.006786
    16       H     -0.006741     0.005506    -0.001758
    17       H      0.008013    -0.006280     0.009437
    18       H      0.006834     0.003265     0.000477
    19       H      0.008164    -0.003720     0.004388
    20       H      0.006089    -0.002958     0.004096
    21       H     -0.013881     0.002124    -0.001161
    22       H      0.006645     0.000517    -0.009223
    23       H     -0.004857     0.001215    -0.004861
    24       H     -0.009924     0.006541    -0.002935
    25       H      0.009770    -0.009222     0.003001
    26       H      0.007547    -0.004682     0.004468
    27       H     -0.012331     0.001801    -0.005214
    28       H     -0.004766     0.003809    -0.001682
    29       H     -0.001656    -0.004146     0.004296
    30       H     -0.011151     0.007543    -0.004489
 


          GRADIENT NORM =   0.04940


          TIME FOR SCF CALCULATION =    0.03

          TIME FOR DERIVATIVES     =    0.02

          MOLECULAR WEIGHT =  162.27



          ROTATIONAL CONSTANTS IN CM(-1)

          A =    0.05597619   B =    0.01509470   C =    0.01376648



           PRINCIPAL MOMENTS OF INERTIA IN UNITS OF 10**(-40)*GRAM-CM**2

          A =      500.0836   B =     1854.4771   C =     2033.4016


          ORIENTATION OF MOLECULE IN FORCE CALCULATION

    NO.       ATOM         X         Y         Z

     1          C      -0.6013    0.8662   -0.6103
     2          C       0.9213    0.8662   -0.6103
     3          C       0.1732    2.1654   -0.6103
     4          C       1.7240    0.4652    0.5967
     5          C       2.0339   -1.0238    0.5876
     6          C       2.8892   -1.4173    1.7814
     7          C      -1.3455    0.4607    0.6440
     8          C       3.1991   -2.8972    1.7762
     9          C      -1.2600    0.5025   -1.8845
    10          C      -2.8021    0.2366    0.4589
    11          C      -2.5513    0.1520   -1.9467
    12          C      -3.3626    0.0873   -0.7475
    13          H       1.4208    0.5560   -1.5497
    14          H       2.3722   -1.1422    2.7223
    15          H       3.8311   -0.8332    1.7789
    16          H       2.5499   -1.2997   -0.3540
    17          H       1.0895   -1.6056    0.5898
    18          H       1.1973    0.7386    1.5341
    19          H       2.6649    1.0517    0.6029
    20          H       0.1777    2.7973   -1.5053
    21          H       0.1701    2.7940    0.2888
    22          H      -0.9052   -0.4790    1.0425
    23          H      -1.1978    1.2250    1.4349
    24          H       3.7442   -3.1935    0.8700
    25          H       3.8179   -3.1780    2.6379
    26          H       2.2839   -3.5027    1.8178
    27          H      -0.6435    0.5560   -2.7896
    28          H      -3.4018    0.1763    1.3736
    29          H      -3.0295   -0.0960   -2.8997
    30          H      -4.4360   -0.0914   -0.8654


    FIRST DERIVATIVES WILL BE USED IN THE CALCULATION OF SECOND DERIVATIVES

          ESTIMATED TIME TO COMPLETE CALCULATION =       15.47 SECONDS

    FOR POINT-GROUP C1   THERE ARE   1 UNIQUE SYMMETRY FUNCTIONS.

 STEP:   1 TIME =     0.08 SECS, INTEGRAL =      0.08 TIME LEFT: 172799.88
 STEP:   2 TIME =     0.07 SECS, INTEGRAL =      0.15 TIME LEFT: 172799.80
 STEP:   3 TIME =     0.07 SECS, INTEGRAL =      0.23 TIME LEFT: 172799.73
 STEP:   4 TIME =     0.07 SECS, INTEGRAL =      0.30 TIME LEFT: 172799.66
 STEP:   5 TIME =     0.07 SECS, INTEGRAL =      0.37 TIME LEFT: 172799.59
 STEP:   6 TIME =     0.07 SECS, INTEGRAL =      0.44 TIME LEFT: 172799.52
 STEP:   7 TIME =     0.07 SECS, INTEGRAL =      0.51 TIME LEFT: 172799.45
 STEP:   8 TIME =     0.07 SECS, INTEGRAL =      0.59 TIME LEFT: 172799.37
 STEP:   9 TIME =     0.08 SECS, INTEGRAL =      0.66 TIME LEFT: 172799.29
 STEP:  10 TIME =     0.07 SECS, INTEGRAL =      0.74 TIME LEFT: 172799.22
 STEP:  11 TIME =     0.07 SECS, INTEGRAL =      0.81 TIME LEFT: 172799.14
 STEP:  12 TIME =     0.07 SECS, INTEGRAL =      0.88 TIME LEFT: 172799.07
 STEP:  13 TIME =     0.07 SECS, INTEGRAL =      0.95 TIME LEFT: 172799.00
 STEP:  14 TIME =     0.07 SECS, INTEGRAL =      1.02 TIME LEFT: 172798.93
 STEP:  15 TIME =     0.07 SECS, INTEGRAL =      1.09 TIME LEFT: 172798.86
 STEP:  16 TIME =     0.07 SECS, INTEGRAL =      1.16 TIME LEFT: 172798.79
 STEP:  17 TIME =     0.07 SECS, INTEGRAL =      1.23 TIME LEFT: 172798.72
 STEP:  18 TIME =     0.07 SECS, INTEGRAL =      1.30 TIME LEFT: 172798.66
 STEP:  19 TIME =     0.07 SECS, INTEGRAL =      1.37 TIME LEFT: 172798.59
 STEP:  20 TIME =     0.07 SECS, INTEGRAL =      1.44 TIME LEFT: 172798.52
 STEP:  21 TIME =     0.07 SECS, INTEGRAL =      1.51 TIME LEFT: 172798.45
 STEP:  22 TIME =     0.07 SECS, INTEGRAL =      1.58 TIME LEFT: 172798.38
 STEP:  23 TIME =     0.07 SECS, INTEGRAL =      1.65 TIME LEFT: 172798.30
 STEP:  24 TIME =     0.07 SECS, INTEGRAL =      1.72 TIME LEFT: 172798.23
 STEP:  25 TIME =     0.07 SECS, INTEGRAL =      1.79 TIME LEFT: 172798.16
 STEP:  26 TIME =     0.07 SECS, INTEGRAL =      1.87 TIME LEFT: 172798.09
 STEP:  27 TIME =     0.07 SECS, INTEGRAL =      1.94 TIME LEFT: 172798.02
 STEP:  28 TIME =     0.07 SECS, INTEGRAL =      2.01 TIME LEFT: 172797.95
 STEP:  29 TIME =     0.07 SECS, INTEGRAL =      2.09 TIME LEFT: 172797.87
 STEP:  30 TIME =     0.07 SECS, INTEGRAL =      2.16 TIME LEFT: 172797.80
 STEP:  31 TIME =     0.07 SECS, INTEGRAL =      2.23 TIME LEFT: 172797.73
 STEP:  32 TIME =     0.07 SECS, INTEGRAL =      2.30 TIME LEFT: 172797.66
 STEP:  33 TIME =     0.07 SECS, INTEGRAL =      2.37 TIME LEFT: 172797.59
 STEP:  34 TIME =     0.07 SECS, INTEGRAL =      2.44 TIME LEFT: 172797.52
 STEP:  35 TIME =     0.07 SECS, INTEGRAL =      2.52 TIME LEFT: 172797.44
 STEP:  36 TIME =     0.07 SECS, INTEGRAL =      2.59 TIME LEFT: 172797.37
 STEP:  37 TIME =     0.07 SECS, INTEGRAL =      2.66 TIME LEFT: 172797.30
 STEP:  38 TIME =     0.07 SECS, INTEGRAL =      2.73 TIME LEFT: 172797.22
 STEP:  39 TIME =     0.07 SECS, INTEGRAL =      2.81 TIME LEFT: 172797.15
 STEP:  40 TIME =     0.07 SECS, INTEGRAL =      2.88 TIME LEFT: 172797.07
 STEP:  41 TIME =     0.07 SECS, INTEGRAL =      2.95 TIME LEFT: 172797.00
 STEP:  42 TIME =     0.07 SECS, INTEGRAL =      3.03 TIME LEFT: 172796.93
 STEP:  43 TIME =     0.07 SECS, INTEGRAL =      3.10 TIME LEFT: 172796.86
 STEP:  44 TIME =     0.07 SECS, INTEGRAL =      3.17 TIME LEFT: 172796.79
 STEP:  45 TIME =     0.07 SECS, INTEGRAL =      3.24 TIME LEFT: 172796.71
 STEP:  46 TIME =     0.07 SECS, INTEGRAL =      3.32 TIME LEFT: 172796.64
 STEP:  47 TIME =     0.07 SECS, INTEGRAL =      3.39 TIME LEFT: 172796.57
 STEP:  48 TIME =     0.07 SECS, INTEGRAL =      3.46 TIME LEFT: 172796.50
 STEP:  49 TIME =     0.07 SECS, INTEGRAL =      3.53 TIME LEFT: 172796.43
 STEP:  50 TIME =     0.07 SECS, INTEGRAL =      3.60 TIME LEFT: 172796.36
 STEP:  51 TIME =     0.07 SECS, INTEGRAL =      3.67 TIME LEFT: 172796.29
 STEP:  52 TIME =     0.07 SECS, INTEGRAL =      3.74 TIME LEFT: 172796.21
 STEP:  53 TIME =     0.07 SECS, INTEGRAL =      3.81 TIME LEFT: 172796.14
 STEP:  54 TIME =     0.07 SECS, INTEGRAL =      3.88 TIME LEFT: 172796.07
 STEP:  55 TIME =     0.07 SECS, INTEGRAL =      3.95 TIME LEFT: 172796.00
 STEP:  56 TIME =     0.07 SECS, INTEGRAL =      4.02 TIME LEFT: 172795.93
 STEP:  57 TIME =     0.07 SECS, INTEGRAL =      4.09 TIME LEFT: 172795.86
 STEP:  58 TIME =     0.07 SECS, INTEGRAL =      4.16 TIME LEFT: 172795.79
 STEP:  59 TIME =     0.07 SECS, INTEGRAL =      4.23 TIME LEFT: 172795.72
 STEP:  60 TIME =     0.07 SECS, INTEGRAL =      4.30 TIME LEFT: 172795.65
 STEP:  61 TIME =     0.07 SECS, INTEGRAL =      4.38 TIME LEFT: 172795.58
 STEP:  62 TIME =     0.07 SECS, INTEGRAL =      4.45 TIME LEFT: 172795.51
 STEP:  63 TIME =     0.07 SECS, INTEGRAL =      4.52 TIME LEFT: 172795.44
 STEP:  64 TIME =     0.07 SECS, INTEGRAL =      4.59 TIME LEFT: 172795.37
 STEP:  65 TIME =     0.07 SECS, INTEGRAL =      4.66 TIME LEFT: 172795.30
 STEP:  66 TIME =     0.07 SECS, INTEGRAL =      4.73 TIME LEFT: 172795.22
 STEP:  67 TIME =     0.07 SECS, INTEGRAL =      4.81 TIME LEFT: 172795.15
 STEP:  68 TIME =     0.07 SECS, INTEGRAL =      4.88 TIME LEFT: 172795.08
 STEP:  69 TIME =     0.07 SECS, INTEGRAL =      4.95 TIME LEFT: 172795.01
 STEP:  70 TIME =     0.07 SECS, INTEGRAL =      5.02 TIME LEFT: 172794.94
 STEP:  71 TIME =     0.07 SECS, INTEGRAL =      5.09 TIME LEFT: 172794.87
 STEP:  72 TIME =     0.07 SECS, INTEGRAL =      5.16 TIME LEFT: 172794.80
 STEP:  73 TIME =     0.07 SECS, INTEGRAL =      5.23 TIME LEFT: 172794.72
 STEP:  74 TIME =     0.07 SECS, INTEGRAL =      5.30 TIME LEFT: 172794.65
 STEP:  75 TIME =     0.07 SECS, INTEGRAL =      5.38 TIME LEFT: 172794.58
 STEP:  76 TIME =     0.07 SECS, INTEGRAL =      5.44 TIME LEFT: 172794.52
 STEP:  77 TIME =     0.07 SECS, INTEGRAL =      5.51 TIME LEFT: 172794.45
 STEP:  78 TIME =     0.07 SECS, INTEGRAL =      5.58 TIME LEFT: 172794.38
 STEP:  79 TIME =     0.07 SECS, INTEGRAL =      5.65 TIME LEFT: 172794.30
 STEP:  80 TIME =     0.07 SECS, INTEGRAL =      5.73 TIME LEFT: 172794.23
 STEP:  81 TIME =     0.07 SECS, INTEGRAL =      5.80 TIME LEFT: 172794.16
 STEP:  82 TIME =     0.07 SECS, INTEGRAL =      5.87 TIME LEFT: 172794.09
 STEP:  83 TIME =     0.07 SECS, INTEGRAL =      5.95 TIME LEFT: 172794.01
 STEP:  84 TIME =     0.11 SECS, INTEGRAL =      6.05 TIME LEFT: 172793.91
 STEP:  85 TIME =     0.08 SECS, INTEGRAL =      6.13 TIME LEFT: 172793.83
 STEP:  86 TIME =     0.07 SECS, INTEGRAL =      6.20 TIME LEFT: 172793.75
 STEP:  87 TIME =     0.07 SECS, INTEGRAL =      6.27 TIME LEFT: 172793.69
 STEP:  88 TIME =     0.17 SECS, INTEGRAL =      6.44 TIME LEFT: 172793.52
 STEP:  89 TIME =     0.09 SECS, INTEGRAL =      6.53 TIME LEFT: 172793.43
 STEP:  90 TIME =     0.07 SECS, INTEGRAL =      6.60 TIME LEFT: 172793.36

(To convert to Hartree/Bohr^2, multiply by (10^(-21) x N x a0^2)/(4.184 x 627.51) =  0.0642)


           FORCE MATRIX IN MILLIDYNES/ANGSTROM


                  C  1       C  2       C  3       C  4       C  5       C  6
 ------------------------------------------------------------------------------
     C    1  15.745798
     C    2   4.070613  15.321398
     C    3   4.443176   5.019556  15.200988
     C    4   0.495709   4.565077   0.545108  14.535848
     C    5   0.017688   0.663905   0.051709   4.164463  14.329710
     C    6   0.002519   0.053883   0.009471   0.646638   4.178120  14.381849
     C    7   4.245981   0.491065   0.518851   0.047603   0.014304   0.000743
     C    8   0.001532   0.011289   0.002556   0.053611   0.664035   4.476623
     C    9   5.004172   0.620054   0.638982   0.045414   0.003356   0.000873
     C   10   0.645414   0.045701   0.017550   0.006215   0.000849   0.001158
     C   11   0.897817   0.049489   0.047134   0.008549   0.000999   0.001160
     C   12   0.122037   0.016326   0.024231   0.002556   0.000943   0.000745
     H   13   0.440187   4.481234   0.442798   0.421152   0.031907   0.001647
     H   14   0.000365   0.001121   0.000634   0.029594   0.443204   4.448042
     H   15   0.000547   0.001731   0.000569   0.029911   0.444212   4.448204
     H   16   0.002671   0.031684   0.001662   0.444886   4.439613   0.442111
     H   17   0.003795   0.021601   0.002399   0.443205   4.423653   0.442499
     H   18   0.015544   0.453736   0.023059   4.403060   0.443908   0.028622
     H   19   0.047295   0.426412   0.013716   4.432531   0.447675   0.029356
     H   20   0.453420   0.456876   4.835617   0.042876   0.007935   0.001771
     H   21   0.467149   0.467207   4.786350   0.023459   0.003735   0.001016
     H   22   0.435856   0.020715   0.039834   0.014286   0.011690   0.001126
     H   23   0.442361   0.019447   0.044395   0.011336   0.000926   0.000440
     H   24   0.000346   0.000719   0.000242   0.001677   0.023802   0.463285
     H   25   0.000347   0.002232   0.000590   0.009155   0.051393   0.450211
     H   26   0.000312   0.000558   0.000337   0.001708   0.023598   0.462974
     H   27   0.439622   0.037314   0.018201   0.002293   0.000581   0.000433
     H   28   0.044605   0.007318   0.004070   0.001075   0.000305   0.000301
     H   29   0.119080   0.014042   0.018860   0.002845   0.000318   0.000272
     H   30   0.004566   0.000685   0.000426   0.000423   0.000272   0.000103


                  C  7       C  8       C  9       C 10       C 11       C 12
 ------------------------------------------------------------------------------
     C    7  14.836387
     C    8   0.000541  14.373785
     C    9   0.605468   0.000658  18.334569
     C   10   4.998678   0.000639   0.170640  18.069651
     C   11   0.126280   0.000708  10.258879   1.160458  18.438010
     C   12   0.862394   0.001192   1.140491  10.310317   5.710302  18.457703
     H   13   0.035344   0.001013   0.035144   0.004963   0.004657   0.001467
     H   14   0.000297   0.437839   0.000326   0.000449   0.000539   0.000405
     H   15   0.000384   0.436998   0.000322   0.000316   0.000237   0.000436
     H   16   0.000639   0.027838   0.000807   0.000627   0.000343   0.000333
     H   17   0.012557   0.027396   0.000934   0.001005   0.000435   0.000555
     H   18   0.026686   0.001434   0.001526   0.001324   0.000655   0.000993
     H   19   0.005487   0.001360   0.008627   0.000690   0.001810   0.000599
     H   20   0.037893   0.000646   0.027158   0.001246   0.003556   0.002192
     H   21   0.025028   0.000389   0.039948   0.002370   0.006070   0.004011
     H   22   4.320303   0.000303   0.015092   0.408934   0.017158   0.035009
     H   23   4.390071   0.000223   0.037220   0.426288   0.011100   0.044821
     H   24   0.000173   4.724081   0.000284   0.000257   0.000302   0.000510
     H   25   0.000177   4.751565   0.000412   0.000224   0.000277   0.000505
     H   26   0.000141   4.724582   0.000375   0.000245   0.000220   0.000196
     H   27   0.038122   0.000175   4.798705   0.012690   0.440738   0.125626
     H   28   0.424062   0.000206   0.012377   4.835511   0.124004   0.443910
     H   29   0.003446   0.000165   0.440197   0.047134   4.861330   0.432571
     H   30   0.119784   0.000247   0.047264   0.445465   0.434053   4.866247


                  H 13       H 14       H 15       H 16       H 17       H 18
 ------------------------------------------------------------------------------
     H   13   5.011226
     H   14   0.000612   5.068411
     H   15   0.000448   0.573558   5.068213
     H   16   0.026140   0.044899   0.024476   5.062757
     H   17   0.002139   0.024498   0.045574   0.570860   5.039444
     H   18   0.039654   0.022427   0.001503   0.045080   0.024674   5.032854
     H   19   0.026639   0.001550   0.023012   0.023016   0.045726   0.568316
     H   20   0.021182   0.000109   0.000113   0.000452   0.000441   0.001129
     H   21   0.039100   0.000177   0.000132   0.000522   0.000332   0.013226
     H   22   0.002804   0.000469   0.000349   0.000953   0.016847   0.026759
     H   23   0.002096   0.000120   0.000108   0.000353   0.000277   0.024528
     H   24   0.000245   0.047989   0.024395   0.019241   0.001593   0.000457
     H   25   0.000207   0.029822   0.029940   0.001724   0.001736   0.000434
     H   26   0.000184   0.024488   0.047648   0.001540   0.018806   0.000339
     H   27   0.028962   0.000148   0.000168   0.000215   0.000371   0.000649
     H   28   0.001278   0.000089   0.000116   0.000136   0.000203   0.000282
     H   29   0.001112   0.000104   0.000063   0.000131   0.000178   0.000176
     H   30   0.000265   0.000072   0.000092   0.000067   0.000107   0.000211


                  H 19       H 20       H 21       H 22       H 23       H 24
 ------------------------------------------------------------------------------
     H   19   5.037370
     H   20   0.002335   5.440100
     H   21   0.002598   0.486999   5.396115
     H   22   0.001097   0.006748   0.003469   4.902133
     H   23   0.000642   0.002130   0.029001   0.558471   4.977806
     H   24   0.000341   0.000054   0.000100   0.000102   0.000066   5.467821
     H   25   0.000401   0.000166   0.000146   0.000150   0.000095   0.571668
     H   26   0.000436   0.000070   0.000095   0.000168   0.000023   0.577888
     H   27   0.000512   0.008323   0.001152   0.004338   0.006185   0.000089
     H   28   0.000144   0.000685   0.000664   0.020676   0.036845   0.000060
     H   29   0.000515   0.001668   0.002596   0.000759   0.000732   0.000091
     H   30   0.000152   0.000303   0.000231   0.016592   0.014006   0.000096


                  H 25       H 26       H 27       H 28       H 29       H 30
 ------------------------------------------------------------------------------
     H   25   5.490046
     H   26   0.573480   5.467801
     H   27   0.000089   0.000111   5.176077
     H   28   0.000050   0.000135   0.008933   5.209682
     H   29   0.000083   0.000070   0.065852   0.007290   5.226218
     H   30   0.000100   0.000071   0.007250   0.064970   0.031361   5.234372


          HEAT OF FORMATION =      22.237655 KCALS/MOLE

          ZERO POINT ENERGY     167.729 KCAL/MOL


           NORMAL COORDINATE ANALYSIS (Total motion = 1 Angstrom)


   Root No.       1         2         3         4         5         6         7         8

                 1 A       2 A       3 A       4 A       5 A       6 A       7 A       8 A   

                  44.4      72.2      77.1      93.8     117.3     200.1     208.6     234.4
  
           1   -0.0072   -0.0012   -0.0033   -0.0037   -0.0080   -0.0039    0.0018   -0.0028
           2   -0.0096   -0.0078    0.0176    0.0090    0.0069    0.0110    0.0032   -0.0121
           3    0.0003    0.0007    0.0022   -0.0058    0.0053    0.0105   -0.0046    0.0179
           4   -0.0073   -0.0014   -0.0029   -0.0031   -0.0071   -0.0043    0.0012   -0.0008
           5   -0.0213   -0.0005   -0.0021   -0.0161   -0.0073    0.0105    0.0039   -0.0095
           6    0.0099    0.0001    0.0071   -0.0148    0.0075   -0.0047   -0.0007   -0.0009
           7    0.0026   -0.0079    0.0140    0.0178    0.0047   -0.0052    0.0007   -0.0032
           8   -0.0155   -0.0040    0.0074   -0.0037   -0.0007    0.0110    0.0038   -0.0116
           9   -0.0010    0.0130   -0.0054   -0.0019    0.0015    0.0319   -0.0009    0.0031
          10   -0.0152    0.0029   -0.0097   -0.0010   -0.0068    0.0133   -0.0109    0.0425
          11   -0.0177   -0.0017   -0.0054   -0.0176   -0.0084   -0.0155   -0.0040    0.0148
          12    0.0164   -0.0031    0.0104   -0.0164    0.0068   -0.0282    0.0046   -0.0223
          13    0.0051   -0.0019   -0.0251    0.0023    0.0552   -0.0112    0.0033    0.0125
          14   -0.0134   -0.0026   -0.0088   -0.0167    0.0046   -0.0217   -0.0013    0.0092
          15    0.0139    0.0044    0.0163   -0.0021   -0.0318   -0.0238   -0.0093    0.0067
          16    0.0235    0.0400    0.0192   -0.0093    0.0192   -0.0133   -0.0215   -0.0019
          17   -0.0002    0.0128   -0.0039    0.0026   -0.0022   -0.0003   -0.0040   -0.0016
          18    0.0052   -0.0203   -0.0139    0.0135   -0.0080   -0.0141    0.0075    0.0131
          19   -0.0194    0.0004   -0.0118    0.0022   -0.0178   -0.0074    0.0070   -0.0219
          20    0.0019   -0.0258    0.0394    0.0041    0.0236    0.0011   -0.0024    0.0110
          21   -0.0033   -0.0044    0.0043   -0.0039    0.0051    0.0053   -0.0032    0.0141
          22    0.0605   -0.0164    0.0052    0.0202   -0.0161    0.0152    0.0068   -0.0030
          23    0.0076    0.0010   -0.0070    0.0091   -0.0098    0.0068    0.0022   -0.0024
          24   -0.0063    0.0269   -0.0105    0.0277    0.0172    0.0234    0.0000   -0.0101
          25   -0.0031   -0.0021    0.0020   -0.0192   -0.0040    0.0067    0.0005    0.0046
          26   -0.0086    0.0064    0.0109    0.0419    0.0034    0.0036    0.0005   -0.0079
          27   -0.0022   -0.0031    0.0016   -0.0071    0.0042    0.0070   -0.0028    0.0122
          28   -0.0228   -0.0022   -0.0041    0.0072   -0.0144   -0.0102    0.0059   -0.0178
          29    0.0293   -0.0093   -0.0025   -0.0311    0.0071    0.0221    0.0036   -0.0110
          30   -0.0110   -0.0050   -0.0039    0.0025   -0.0029   -0.0039    0.0024   -0.0079
          31   -0.0087   -0.0053    0.0093   -0.0172   -0.0008    0.0151    0.0015   -0.0000
          32    0.0133    0.0187   -0.0150    0.0339   -0.0072   -0.0251   -0.0046    0.0142
          33   -0.0090   -0.0064   -0.0020   -0.0024   -0.0007    0.0005    0.0020   -0.0063
          34   -0.0180   -0.0051    0.0064   -0.0019   -0.0061    0.0025    0.0037   -0.0092
          35    0.0353    0.0131   -0.0304   -0.0160   -0.0098   -0.0035    0.0001    0.0026
          36   -0.0140   -0.0065   -0.0052    0.0049   -0.0046   -0.0068    0.0039   -0.0139
          37   -0.0043   -0.0005   -0.0049   -0.0125   -0.0103   -0.0166    0.0067   -0.0214
          38   -0.0295    0.0094   -0.0149   -0.0230   -0.0144    0.0306    0.0070   -0.0178
          39    0.0142   -0.0026    0.0100   -0.0171    0.0080   -0.0181    0.0013   -0.0098
          40    0.0235    0.0950    0.0595   -0.0296    0.0041   -0.0241   -0.0461   -0.0127
          41   -0.0186    0.0704    0.0114   -0.0023    0.0187    0.0087   -0.0237   -0.0158
          42    0.0105   -0.0068    0.0037    0.0039   -0.0223   -0.0223   -0.0002    0.0111
          43    0.0094    0.0617    0.0248   -0.0201    0.0317   -0.0217   -0.0317   -0.0024
          44    0.0228   -0.0224   -0.0132    0.0202   -0.0226    0.0140    0.0129   -0.0010
          45    0.0022   -0.0888   -0.0580    0.0260    0.0069   -0.0171    0.0340    0.0320
          46   -0.0001   -0.0362   -0.0646    0.0139    0.1063   -0.0165    0.0305    0.0083
          47   -0.0069   -0.0178   -0.0255   -0.0231    0.0561   -0.0385    0.0191   -0.0158
          48    0.0090   -0.0099   -0.0005    0.0063   -0.0187   -0.0212   -0.0006    0.0114
          49    0.0133   -0.0037   -0.0308    0.0051    0.0772   -0.0170    0.0112   -0.0012
          50   -0.0264    0.0004    0.0006   -0.0208   -0.0312   -0.0115   -0.0136    0.0313
          51    0.0236    0.0461    0.0601   -0.0065   -0.0915   -0.0136   -0.0411    0.0123
          52   -0.0275    0.0085   -0.0072    0.0021   -0.0311    0.0376   -0.0248    0.0823
          53   -0.0287    0.0044    0.0045   -0.0110   -0.0563   -0.0043   -0.0205    0.0529
          54    0.0126   -0.0016    0.0089   -0.0163    0.0072   -0.0175    0.0017   -0.0114
          55   -0.0228    0.0052   -0.0035   -0.0008   -0.0307    0.0254   -0.0162    0.0535
          56   -0.0054   -0.0052   -0.0151   -0.0174    0.0295   -0.0342    0.0043   -0.0023
          57    0.0276   -0.0107    0.0082   -0.0225    0.0369   -0.0489    0.0249   -0.0802
          58    0.0128   -0.0120    0.0257    0.0211    0.0124   -0.0127    0.0032   -0.0168
          59   -0.0197    0.0048    0.0006    0.0023   -0.0036    0.0336    0.0045   -0.0133
          60   -0.0039    0.0192   -0.0102    0.0023   -0.0006    0.0481   -0.0004    0.0019
          61    0.0021   -0.0101    0.0191    0.0355    0.0093    0.0019   -0.0023    0.0084
          62   -0.0113   -0.0127    0.0144   -0.0096    0.0024   -0.0115    0.0030   -0.0095
          63   -0.0040    0.0191   -0.0102    0.0023   -0.0006    0.0480   -0.0004    0.0018
          64   -0.0378   -0.0052    0.0040    0.0225   -0.0141   -0.0196    0.0048   -0.0139
          65   -0.0067   -0.0368    0.0617    0.0172    0.0345   -0.0108   -0.0076    0.0321
          66   -0.0034   -0.0239    0.0397    0.0049    0.0265   -0.0095   -0.0130    0.0537
          67   -0.0090    0.0095   -0.0394   -0.0150   -0.0321    0.0036    0.0137   -0.0488
          68   -0.0022   -0.0422    0.0674    0.0146    0.0395   -0.0142   -0.0089    0.0380
          69   -0.0014    0.0097   -0.0176   -0.0108   -0.0076    0.0178    0.0017   -0.0068
          70    0.0657   -0.0747   -0.0287    0.0385   -0.0152    0.0338   -0.1532   -0.0438
          71    0.0276   -0.0584   -0.0207    0.0138   -0.0366   -0.0037   -0.0190    0.0029
          72   -0.0097    0.0113   -0.0264    0.0371    0.0266    0.0381   -0.0894   -0.0366
          73    0.0694    0.0176    0.0321    0.0141   -0.0308    0.0093    0.1704    0.0352
          74    0.0167    0.0145   -0.0045    0.0274   -0.0116    0.0406    0.0445   -0.0095
          75   -0.0098    0.0069   -0.0290    0.0380    0.0272    0.0389   -0.1035   -0.0399
          76    0.0755   -0.0371    0.0010    0.0317   -0.0310    0.0270    0.0263   -0.0020
          77   -0.0153    0.0372    0.0019   -0.0089    0.0127   -0.0107   -0.0138   -0.0014
          78   -0.0085    0.1004    0.0267    0.0193    0.0182    0.0256    0.1891    0.0264
          79    0.0047   -0.0009    0.0016   -0.0316   -0.0021    0.0111   -0.0016    0.0145
          80   -0.0257    0.0086    0.0252    0.0756    0.0077    0.0092    0.0007   -0.0160
          81    0.0020   -0.0021    0.0020   -0.0136    0.0056    0.0102   -0.0041    0.0182
          82   -0.0296   -0.0015   -0.0079    0.0176   -0.0193   -0.0218    0.0078   -0.0257
          83    0.0443   -0.0160   -0.0093   -0.0685    0.0088    0.0538    0.0096   -0.0328
          84   -0.0145   -0.0051   -0.0068    0.0070   -0.0059   -0.0094    0.0040   -0.0144
          85   -0.0064   -0.0077    0.0172   -0.0268    0.0055    0.0295   -0.0000    0.0065
          86    0.0150    0.0318   -0.0235    0.0624   -0.0126   -0.0534   -0.0104    0.0328
          87   -0.0106   -0.0086   -0.0038   -0.0050   -0.0025    0.0007    0.0043   -0.0144
          88   -0.0207   -0.0072    0.0121    0.0013   -0.0034    0.0028    0.0031   -0.0074
          89    0.0556    0.0263   -0.0626   -0.0405   -0.0238    0.0007    0.0023   -0.0025
          90   -0.0203   -0.0078   -0.0085    0.0127   -0.0090   -0.0156    0.0064   -0.0237


   Root No.       9        10        11        12        13        14        15        16

                 9 A      10 A      11 A      12 A      13 A      14 A      15 A      16 A   

                 280.5     334.8     385.4     405.4     435.0     490.1     514.4     541.1
  
           1   -0.0054    0.0031    0.0044    0.0068    0.0238   -0.0078   -0.0138    0.0213
           2    0.0108   -0.0067   -0.0141   -0.0409   -0.0053   -0.0117    0.0055   -0.0231
           3   -0.0072    0.0230   -0.0222    0.0011   -0.0117   -0.0046   -0.0091    0.0032
           4   -0.0020   -0.0008    0.0045    0.0046    0.0342   -0.0079   -0.0159    0.0314
           5   -0.0085   -0.0356   -0.0061   -0.0028    0.0037   -0.0218   -0.0050    0.0191
           6   -0.0053   -0.0075   -0.0105    0.0062    0.0180    0.0031    0.0543   -0.0082
           7    0.0118    0.0319   -0.0024   -0.0310    0.0373    0.0034   -0.0095   -0.0137
           8   -0.0004   -0.0217   -0.0107   -0.0224   -0.0056   -0.0201   -0.0000   -0.0056
           9    0.0065    0.0023    0.0467   -0.0019    0.0124    0.0115   -0.0081   -0.0135
          10    0.0123   -0.0153   -0.0064    0.0036    0.0245    0.0021    0.0277    0.0063
          11    0.0071   -0.0084   -0.0144    0.0051    0.0132    0.0271   -0.0203   -0.0114
          12   -0.0051    0.0007   -0.0072    0.0084    0.0257    0.0131    0.0185    0.0011
          13    0.0154   -0.0106    0.0048   -0.0050   -0.0111   -0.0071    0.0037    0.0009
          14    0.0090    0.0017   -0.0059    0.0027    0.0080    0.0251   -0.0230   -0.0134
          15    0.0228   -0.0119    0.0080   -0.0063   -0.0160   -0.0040   -0.0119   -0.0004
          16    0.0129   -0.0114    0.0056   -0.0056   -0.0148   -0.0096   -0.0025    0.0025
          17   -0.0027    0.0335    0.0162   -0.0018    0.0019   -0.0121    0.0156    0.0052
          18    0.0221   -0.0082    0.0145   -0.0093   -0.0226   -0.0195    0.0003    0.0063
          19   -0.0012   -0.0038    0.0076    0.0053   -0.0099    0.0054    0.0063   -0.0068
          20   -0.0153   -0.0154    0.0219    0.0050   -0.0000    0.0013    0.0027   -0.0048
          21   -0.0142    0.0172   -0.0091    0.0129   -0.0283    0.0066   -0.0041   -0.0001
          22   -0.0051   -0.0219   -0.0124    0.0022    0.0011    0.0082   -0.0102   -0.0032
          23   -0.0082    0.0358    0.0138    0.0005    0.0088   -0.0099    0.0208    0.0058
          24   -0.0109   -0.0219   -0.0146    0.0036    0.0041    0.0094   -0.0086   -0.0033
          25   -0.0193    0.0128   -0.0056    0.0024   -0.0122   -0.0095   -0.0080   -0.0056
          26    0.0288    0.0111   -0.0143    0.0089   -0.0153    0.0187    0.0068    0.0294
          27   -0.0070    0.0152   -0.0184   -0.0103    0.0079   -0.0155   -0.0177    0.0061
          28   -0.0096   -0.0057    0.0125    0.0035   -0.0173    0.0108    0.0110   -0.0109
          29    0.0255    0.0029    0.0033    0.0419    0.0012   -0.0074   -0.0031   -0.0095
          30   -0.0030    0.0019   -0.0000    0.0027   -0.0087    0.0018    0.0019   -0.0019
          31   -0.0066    0.0181   -0.0104   -0.0010   -0.0219    0.0014   -0.0051    0.0070
          32   -0.0229   -0.0002   -0.0034    0.0241    0.0044   -0.0215   -0.0085   -0.0193
          33    0.0016    0.0023   -0.0040   -0.0103    0.0135   -0.0080   -0.0092    0.0136
          34   -0.0075    0.0087    0.0019    0.0231   -0.0356    0.0087    0.0080   -0.0163
          35   -0.0190   -0.0009    0.0048   -0.0355   -0.0181    0.0199    0.0080    0.0113
          36    0.0015   -0.0046    0.0052    0.0028    0.0028   -0.0005    0.0018   -0.0011
          37   -0.0091   -0.0155    0.0170    0.0178    0.0506   -0.0086   -0.0113    0.0510
          38   -0.0142   -0.0661    0.0345    0.0128    0.0106   -0.0369   -0.0148    0.0517
          39   -0.0067   -0.0049   -0.0163    0.0080    0.0244    0.0081    0.0578   -0.0078
          40    0.0154   -0.0110    0.0074   -0.0065   -0.0183   -0.0092   -0.0110    0.0023
          41   -0.0133    0.0382    0.0141    0.0005    0.0078   -0.0128    0.0210    0.0075
          42    0.0261   -0.0094    0.0157   -0.0103   -0.0256   -0.0186   -0.0056    0.0054
          43    0.0176   -0.0133    0.0065   -0.0066   -0.0174   -0.0088   -0.0069    0.0016
          44   -0.0109    0.0366    0.0141    0.0003    0.0073   -0.0127    0.0229    0.0065
          45    0.0307   -0.0138    0.0148   -0.0110   -0.0256   -0.0191    0.0011    0.0045
          46    0.0143   -0.0047    0.0095   -0.0076   -0.0211   -0.0137    0.0059   -0.0002
          47   -0.0016    0.0054   -0.0119    0.0072    0.0138    0.0392   -0.0269   -0.0217
          48    0.0250   -0.0102    0.0122   -0.0090   -0.0231   -0.0120   -0.0097    0.0017
          49    0.0127   -0.0047    0.0107   -0.0081   -0.0229   -0.0157    0.0034    0.0015
          50    0.0127   -0.0087   -0.0159    0.0079    0.0274    0.0390   -0.0222   -0.0143
          51    0.0275   -0.0140    0.0132   -0.0094   -0.0214   -0.0148   -0.0125    0.0063
          52    0.0224   -0.0313   -0.0160    0.0027    0.0208    0.0111    0.0969   -0.0259
          53    0.0243   -0.0164   -0.0159    0.0018    0.0080    0.0387   -0.0088   -0.0295
          54   -0.0047   -0.0053   -0.0113    0.0088    0.0250    0.0145    0.0527   -0.0111
          55    0.0116   -0.0228   -0.0098    0.0043    0.0317   -0.0030    0.0457    0.0100
          56    0.0085    0.0036   -0.0084    0.0037    0.0017    0.0352   -0.0463   -0.0183
          57   -0.0282    0.0144    0.0025    0.0121    0.0386   -0.0078   -0.0455    0.0504
          58    0.0186    0.0228    0.0063   -0.0488    0.0651    0.0092    0.0496   -0.0503
          59    0.0104   -0.0248    0.0479   -0.0287    0.0053   -0.0049   -0.0369   -0.0250
          60    0.0142    0.0002    0.0900   -0.0067    0.0208    0.0230   -0.0350   -0.0290
          61    0.0224    0.0748   -0.0168   -0.0573    0.0193    0.0127   -0.0625   -0.0329
          62   -0.0109   -0.0204   -0.0671   -0.0153   -0.0155   -0.0351    0.0361    0.0158
          63    0.0141    0.0014    0.0884   -0.0071    0.0201    0.0229   -0.0350   -0.0296
          64   -0.0231   -0.0188    0.0198   -0.0304   -0.0227    0.0243    0.0225   -0.0020
          65   -0.0481   -0.0286    0.0508   -0.0024   -0.0072    0.0263    0.0052    0.0243
          66   -0.0661    0.0029    0.0441    0.0349   -0.0305    0.0431   -0.0154    0.0594
          67    0.0379    0.0040   -0.0143    0.0330   -0.0067   -0.0152    0.0147   -0.0428
          68   -0.0574   -0.0300    0.0642    0.0150   -0.0057    0.0322   -0.0010    0.0391
          69    0.0184    0.0291   -0.0440   -0.0013   -0.0239   -0.0180   -0.0020   -0.0346
          70   -0.0196   -0.0279   -0.0235    0.0069    0.0104    0.0208   -0.0170   -0.0078
          71    0.0041    0.0431    0.0277   -0.0053   -0.0030   -0.0263    0.0279    0.0126
          72   -0.0239   -0.0283   -0.0262    0.0084    0.0138    0.0229   -0.0154   -0.0085
          73    0.0005   -0.0221   -0.0117    0.0020    0.0011    0.0079   -0.0099   -0.0030
          74   -0.0367    0.0189   -0.0181    0.0145    0.0384    0.0278    0.0048   -0.0084
          75   -0.0245   -0.0279   -0.0262    0.0085    0.0142    0.0229   -0.0148   -0.0084
          76   -0.0132   -0.0280   -0.0223    0.0064    0.0097    0.0198   -0.0165   -0.0075
          77    0.0035    0.0441    0.0275   -0.0053   -0.0031   -0.0258    0.0295    0.0116
          78   -0.0144   -0.0277   -0.0246    0.0078    0.0135    0.0220   -0.0136   -0.0083
          79   -0.0352    0.0174   -0.0100   -0.0097   -0.0270   -0.0164   -0.0088   -0.0333
          80    0.0727    0.0305   -0.0305    0.0741   -0.0346    0.0585    0.0211    0.1079
          81   -0.0152    0.0191   -0.0219   -0.0148   -0.0032   -0.0176   -0.0170   -0.0083
          82   -0.0118   -0.0190    0.0214   -0.0127    0.0015    0.0063    0.0131   -0.0116
          83    0.0765    0.0165   -0.0047    0.0973    0.0038   -0.0050   -0.0062    0.0068
          84   -0.0013   -0.0060    0.0055   -0.0043    0.0039   -0.0009    0.0029   -0.0011
          85   -0.0020    0.0284   -0.0237   -0.0270   -0.0216    0.0013   -0.0139    0.0222
          86   -0.0428    0.0012   -0.0065    0.1080    0.0271   -0.0643   -0.0268   -0.0467
          87    0.0044   -0.0030    0.0033   -0.0189    0.0069    0.0032   -0.0001    0.0131
          88   -0.0066    0.0092    0.0006    0.0336   -0.0311   -0.0011    0.0036   -0.0250
          89   -0.0257    0.0041    0.0038   -0.1056   -0.0464    0.0762    0.0279    0.0738
          90    0.0036   -0.0167    0.0181    0.0112    0.0062    0.0030    0.0109   -0.0159


   Root No.      17        18        19        20        21        22        23        24

                17 A      18 A      19 A      20 A      21 A      22 A      23 A      24 A   

                 582.0     738.3     753.6     777.0     807.3     837.9     859.0     882.5
  
           1   -0.0048    0.0013    0.0116    0.0005    0.0021   -0.0071    0.0017    0.0003
           2   -0.0044    0.0024   -0.0049    0.0020   -0.0003    0.0121   -0.0091   -0.0037
           3   -0.0347   -0.0026    0.0019    0.0005    0.0016    0.0014   -0.0019    0.0027
           4   -0.0081   -0.0128   -0.0151   -0.0109   -0.0001    0.0021   -0.0117   -0.0115
           5   -0.0101    0.0032   -0.0164   -0.0096   -0.0015   -0.0083    0.0010    0.0081
           6    0.0011    0.0043    0.0035    0.0052   -0.0008   -0.0005    0.0074    0.0070
           7   -0.0070    0.0106   -0.0180   -0.0086   -0.0019   -0.0138    0.0099    0.0071
           8   -0.0082    0.0146   -0.0032   -0.0004   -0.0005   -0.0064    0.0051    0.0180
           9   -0.0025    0.0005    0.0021    0.0014   -0.0003   -0.0011    0.0033    0.0028
          10    0.0008   -0.0103   -0.0139    0.0014   -0.0002    0.0215   -0.0022    0.0034
          11    0.0038   -0.0004   -0.0012    0.0007    0.0004    0.0025    0.0013    0.0010
          12   -0.0042   -0.0043    0.0014   -0.0021   -0.0028    0.0016   -0.0181    0.0058
          13    0.0008   -0.0023   -0.0069    0.0135   -0.0004    0.0062    0.0076    0.0044
          14    0.0043    0.0010    0.0010    0.0037    0.0009   -0.0022    0.0071   -0.0038
          15   -0.0004    0.0018    0.0052   -0.0084    0.0005   -0.0039   -0.0040   -0.0056
          16   -0.0008    0.0002   -0.0042    0.0122   -0.0015   -0.0137   -0.0091   -0.0021
          17   -0.0014   -0.0004   -0.0011    0.0026   -0.0003   -0.0029   -0.0018   -0.0006
          18   -0.0020    0.0016    0.0008   -0.0096    0.0010    0.0072    0.0064    0.0039
          19   -0.0475    0.0024    0.0150    0.0065   -0.0040   -0.0002    0.0042    0.0023
          20    0.0005   -0.0131    0.0048    0.0024    0.0283    0.0116   -0.0138   -0.0249
          21   -0.0409   -0.0058   -0.0260   -0.0126   -0.0019   -0.0094    0.0082   -0.0073
          22    0.0007    0.0008    0.0004   -0.0002   -0.0001   -0.0042   -0.0031   -0.0015
          23   -0.0016   -0.0017   -0.0008    0.0001   -0.0004    0.0016   -0.0034    0.0000
          24    0.0007    0.0002   -0.0004   -0.0003    0.0002    0.0018    0.0025    0.0025
          25    0.0562    0.0084    0.0128    0.0069    0.0048    0.0014    0.0027    0.0034
          26    0.0104   -0.0173    0.0107    0.0010   -0.0313    0.0023   -0.0006   -0.0102
          27   -0.0559    0.0022    0.0194    0.0073    0.0127    0.0019   -0.0002   -0.0147
          28   -0.0578    0.0001    0.0170    0.0095    0.0020    0.0055    0.0013   -0.0014
          29   -0.0117   -0.0145    0.0081    0.0001    0.0087   -0.0069    0.0060    0.0117
          30    0.0643   -0.0002   -0.0263   -0.0110   -0.0026   -0.0018   -0.0051   -0.0002
          31    0.0530    0.0045    0.0151    0.0072    0.0054    0.0020    0.0021   -0.0010
          32    0.0182   -0.0053    0.0080    0.0022   -0.0317    0.0023    0.0016   -0.0073
          33    0.0476    0.0073    0.0320    0.0141    0.0007    0.0025    0.0058   -0.0004
          34    0.0155   -0.0023   -0.0298   -0.0113   -0.0007    0.0004   -0.0067   -0.0029
          35    0.0055   -0.0180   -0.0005   -0.0034    0.0175   -0.0081    0.0061    0.0143
          36    0.0334    0.0022   -0.0022   -0.0001   -0.0032    0.0013   -0.0013    0.0017
          37    0.0007   -0.0177   -0.0228   -0.0238   -0.0112   -0.0242   -0.0080   -0.0273
          38   -0.0073   -0.0040   -0.0381   -0.0288   -0.0090   -0.0472    0.0334   -0.0344
          39    0.0039    0.0032    0.0060    0.0045   -0.0042   -0.0006   -0.0030    0.0132
          40   -0.0020    0.0107    0.0326   -0.0886    0.0071    0.0417    0.0253    0.0051
          41   -0.0023    0.0040    0.0196   -0.0644    0.0060    0.0585    0.0424    0.0205
          42   -0.0023    0.0056    0.0137   -0.0416    0.0035    0.0175    0.0108    0.0013
          43   -0.0006    0.0026    0.0043   -0.0157    0.0016    0.0136    0.0145    0.0067
          44   -0.0017   -0.0039   -0.0129    0.0422   -0.0049   -0.0434   -0.0380   -0.0142
          45   -0.0001   -0.0093   -0.0411    0.1059   -0.0085   -0.0599   -0.0318   -0.0071
          46   -0.0001    0.0173    0.0471   -0.0896    0.0031   -0.0053   -0.0157   -0.0136
          47    0.0031    0.0185    0.0495   -0.0676   -0.0005   -0.0459   -0.0382   -0.0242
          48   -0.0006    0.0067    0.0184   -0.0404    0.0027    0.0032   -0.0023   -0.0087
          49   -0.0013    0.0084    0.0159   -0.0160   -0.0013   -0.0206   -0.0128   -0.0049
          50    0.0076   -0.0152   -0.0330    0.0457    0.0024    0.0400    0.0385    0.0105
          51   -0.0005   -0.0179   -0.0560    0.1099   -0.0031    0.0065    0.0278    0.0143
          52    0.0124    0.0182    0.0399   -0.0229   -0.0075   -0.0349   -0.0306    0.0128
          53    0.0144    0.0215    0.0489   -0.0445   -0.0041   -0.0622   -0.0388   -0.0248
          54   -0.0013    0.0045    0.0151   -0.0009   -0.0055   -0.0090   -0.0209    0.0189
          55    0.0003   -0.0042   -0.0002   -0.0261   -0.0032   -0.0044   -0.0330   -0.0027
          56    0.0051   -0.0086   -0.0203    0.0419    0.0048    0.0400    0.0483    0.0098
          57   -0.0271   -0.0429   -0.0743    0.0240    0.0035    0.0779    0.0021    0.0066
          58    0.0260    0.0420   -0.0400   -0.0071    0.0146   -0.0590    0.1395   -0.1070
          59    0.0110    0.0162   -0.0056   -0.0013    0.0165    0.0076   -0.0181    0.0076
          60    0.0117    0.0022    0.0008    0.0011    0.0127    0.0091   -0.0131   -0.0055
          61   -0.0388    0.0080   -0.0273   -0.0164   -0.0230    0.0088   -0.0853    0.1518
          62   -0.0273    0.0125   -0.0050   -0.0015   -0.0175   -0.0202    0.0277    0.0288
          63    0.0112    0.0020    0.0032    0.0021    0.0124    0.0097   -0.0143   -0.0048
          64   -0.0442    0.0401    0.0177    0.0129   -0.0358    0.0130   -0.0055    0.0037
          65   -0.0076    0.0261    0.0123    0.0072   -0.0257    0.0026    0.0004    0.0113
          66   -0.0645    0.0412   -0.0110   -0.0079   -0.0890   -0.0440    0.0516    0.0734
          67   -0.0108   -0.0400    0.0053   -0.0030    0.0458    0.0012   -0.0105   -0.0261
          68   -0.0026    0.0304    0.0173    0.0086   -0.0417   -0.0080    0.0123    0.0366
          69   -0.0463   -0.0386   -0.0352   -0.0163    0.0542    0.0088   -0.0131   -0.0600
          70    0.0021    0.0014    0.0053   -0.0108    0.0013    0.0082    0.0082   -0.0005
          71   -0.0038    0.0009    0.0093   -0.0464    0.0048    0.0598    0.0444    0.0279
          72    0.0023   -0.0003   -0.0012    0.0101   -0.0008   -0.0117   -0.0079   -0.0069
          73    0.0008    0.0014    0.0043   -0.0168    0.0021    0.0194    0.0174    0.0080
          74    0.0026   -0.0028    0.0038   -0.0004    0.0005    0.0076    0.0033   -0.0085
          75    0.0022   -0.0006   -0.0016    0.0115   -0.0011   -0.0132   -0.0099   -0.0075
          76    0.0020    0.0020    0.0084   -0.0248    0.0032    0.0286    0.0266    0.0085
          77   -0.0033   -0.0036   -0.0123    0.0360   -0.0053   -0.0462   -0.0467   -0.0148
          78    0.0023   -0.0011   -0.0035    0.0155   -0.0012   -0.0142   -0.0096   -0.0075
          79    0.0348   -0.0180    0.0054    0.0013   -0.0567    0.0110   -0.0064   -0.0187
          80    0.0103    0.0624    0.0042    0.0110    0.2091   -0.0216    0.0185    0.0399
          81   -0.0699   -0.0111    0.0138    0.0040   -0.0151    0.0070   -0.0053   -0.0268
          82   -0.0398   -0.0229    0.0576    0.0240    0.0319    0.0074    0.0022    0.0141
          83   -0.0500    0.1563   -0.0175    0.0188   -0.1689    0.0399   -0.0155   -0.0292
          84    0.0725   -0.0041   -0.0018   -0.0006    0.0051    0.0023   -0.0058    0.0075
          85    0.0198   -0.0303    0.0568    0.0170   -0.0371    0.0022    0.0108   -0.0285
          86    0.0062    0.1410   -0.0249    0.0166    0.1510    0.0157   -0.0179    0.0151
          87    0.0667   -0.0133    0.0204    0.0058   -0.0252   -0.0009    0.0067    0.0072
          88    0.0270   -0.0264   -0.0218   -0.0131    0.0009   -0.0093    0.0027    0.0129
          89   -0.0174    0.1371   -0.0457    0.0092    0.0062    0.0522   -0.0526   -0.0898
          90   -0.0389   -0.0119   -0.0007   -0.0000   -0.0000    0.0002    0.0012    0.0141


   Root No.      25        26        27        28        29        30        31        32

                25 A      26 A      27 A      28 A      29 A      30 A      31 A      32 A   

                 933.3     941.1     951.8     958.6     976.5     978.2    1016.4    1031.6
  
           1   -0.0075   -0.0008    0.0056   -0.0012   -0.0022    0.0197    0.0031   -0.0299
           2    0.0089   -0.0051    0.0004    0.0082   -0.0033   -0.0200   -0.0059    0.0168
           3   -0.0053   -0.0033   -0.0038   -0.0021    0.0029   -0.0003   -0.0063   -0.0039
           4    0.0025   -0.0006    0.0045    0.0053   -0.0019   -0.0096   -0.0052   -0.0031
           5    0.0025    0.0035    0.0018   -0.0011    0.0009    0.0065   -0.0005   -0.0018
           6   -0.0046    0.0010   -0.0057   -0.0038    0.0040    0.0068    0.0030   -0.0050
           7   -0.0032    0.0045   -0.0018   -0.0036    0.0024    0.0055    0.0011   -0.0069
           8    0.0042   -0.0028    0.0040    0.0031   -0.0049    0.0218   -0.0014   -0.0169
           9   -0.0150    0.0023   -0.0188   -0.0055    0.0104   -0.0093   -0.0140   -0.0115
          10    0.0152   -0.0119   -0.0096    0.0015   -0.0019   -0.0012   -0.0084    0.0067
          11    0.0042   -0.0020    0.0016   -0.0145   -0.0004   -0.0005   -0.0016   -0.0003
          12    0.0043    0.0045    0.0134    0.0036   -0.0057   -0.0028    0.0034    0.0061
          13   -0.0094    0.0078    0.0059    0.0197   -0.0015    0.0023    0.0068    0.0005
          14   -0.0070    0.0028   -0.0027    0.0027    0.0026   -0.0020   -0.0001   -0.0008
          15    0.0020   -0.0063   -0.0112    0.0271   -0.0001    0.0033   -0.0038    0.0004
          16    0.0019    0.0006    0.0036   -0.0076   -0.0007   -0.0030   -0.0074   -0.0003
          17   -0.0001    0.0003    0.0006   -0.0027    0.0004   -0.0004   -0.0014   -0.0017
          18    0.0011    0.0006    0.0010   -0.0152    0.0012    0.0007    0.0050    0.0006
          19    0.0079    0.0051    0.0002    0.0022   -0.0036   -0.0029    0.0046    0.0094
          20   -0.0061    0.0147   -0.0030   -0.0039    0.0184    0.0024    0.0059   -0.0197
          21    0.0290    0.0295    0.0004    0.0064   -0.0035   -0.0007    0.0044   -0.0007
          22    0.0067   -0.0055   -0.0043   -0.0242    0.0020   -0.0006    0.0041   -0.0002
          23    0.0021   -0.0021   -0.0026    0.0115   -0.0011    0.0016    0.0008    0.0025
          24   -0.0010    0.0047    0.0098   -0.0278    0.0001   -0.0064   -0.0038   -0.0007
          25    0.0095    0.0089   -0.0035    0.0009    0.0099   -0.0008   -0.0048    0.0062
          26   -0.0057    0.0020   -0.0037   -0.0035   -0.0343   -0.0057    0.0081   -0.0150
          27   -0.0210   -0.0293    0.0141   -0.0019    0.0012    0.0027    0.0079    0.0082
          28    0.0022    0.0040   -0.0059   -0.0025    0.0052   -0.0018   -0.0053   -0.0088
          29   -0.0026   -0.0012   -0.0045   -0.0036   -0.0269    0.0088   -0.0100    0.0315
          30   -0.0115   -0.0140    0.0066    0.0006    0.0015    0.0015    0.0046    0.0031
          31    0.0041    0.0035   -0.0028    0.0003   -0.0089   -0.0080    0.0025    0.0002
          32    0.0034    0.0038    0.0045   -0.0015    0.0311    0.0186   -0.0081    0.0186
          33    0.0145    0.0151   -0.0056    0.0009   -0.0061   -0.0062    0.0002   -0.0028
          34   -0.0200   -0.0214    0.0062   -0.0029   -0.0020    0.0083   -0.0028   -0.0047
          35    0.0043   -0.0154    0.0064    0.0080    0.0099   -0.0233    0.0092   -0.0236
          36   -0.0030   -0.0019   -0.0016   -0.0013    0.0001    0.0012   -0.0028    0.0023
          37   -0.0333    0.0380   -0.0005    0.0044    0.0120   -0.0428    0.0694    0.0610
          38   -0.0613    0.0510   -0.0471   -0.0045    0.0441   -0.0699    0.0582    0.1060
          39   -0.0017    0.0060    0.0082   -0.0026   -0.0030    0.0138    0.0237   -0.0053
[...]
 FREQ.      1847.59         C 10 -- C 12         +26.1% ( 76.2%)     99.2%
 T-DIPOLE    0.4406         C  9 -- C 11         +17.6% ( 62.6%)     98.6%
 TRAVEL      0.0553         C 11 -- C 12         +16.4% ( 60.5%)     98.5%
 RED. MASS   2.9655         C 12 -- H 30          +8.4% ( 43.2%)      2.2%
 EFF. MASS  11.9499

 VIBRATION   66   66A         ATOM PAIR      ENERGY CONTRIBUTION    RADIAL
 FREQ.      1865.16         C  9 -- C 11         +26.4% ( 75.3%)     99.5%
 T-DIPOLE    0.3831         C 10 -- C 12         +17.8% ( 61.9%)     99.0%
 TRAVEL      0.0554         C 11 -- C 12         +12.0% ( 50.9%)      0.9%
 RED. MASS   2.7746         C  1 -- C  9          +9.6% ( 45.5%)     54.3%
 EFF. MASS  11.7840

 VIBRATION   67   67A         ATOM PAIR      ENERGY CONTRIBUTION    RADIAL
 FREQ.      2917.66         C  7 -- H 22         +60.4% ( 80.6%)     97.6%
 T-DIPOLE    0.0832         C  7 -- H 23         +36.5% ( 62.6%)     94.8%
 TRAVEL      0.1226         C  7 -- C 10          +1.1% ( 10.9%)      0.1%
 RED. MASS   0.5372         C  1 -- C  7          +1.1% ( 10.9%)      0.2%
 EFF. MASS   1.5367

 VIBRATION   68   68A         ATOM PAIR      ENERGY CONTRIBUTION    RADIAL
 FREQ.      2936.36         C  4 -- H 18         +27.1% ( 54.3%)     96.7%
 T-DIPOLE    0.0171         C  4 -- H 19         +24.2% ( 51.3%)     96.0%
 TRAVEL      0.1215         C  5 -- H 17         +19.1% ( 45.6%)     96.6%
 RED. MASS   0.2198         C  5 -- H 16         +17.0% ( 43.0%)     95.9%
 EFF. MASS   1.5559

 VIBRATION   69   69A         ATOM PAIR      ENERGY CONTRIBUTION    RADIAL
 FREQ.      2947.87         C  4 -- H 18         +21.3% ( 47.9%)     97.0%
 T-DIPOLE    0.0190         C  4 -- H 19         +18.3% ( 44.5%)     96.1%
 TRAVEL      0.1219         C  6 -- H 15         +17.4% ( 43.4%)     96.4%
 RED. MASS   0.1787         C  6 -- H 14         +17.4% ( 43.3%)     96.4%
 EFF. MASS   1.5403         C  5 -- H 17         +11.9% ( 35.8%)     96.9%
                            C  5 -- H 16         +10.3% ( 33.3%)     96.0%

 VIBRATION   70   70A         ATOM PAIR      ENERGY CONTRIBUTION    RADIAL
 FREQ.      2957.40         C  6 -- H 14         +27.2% ( 53.9%)     96.6%
 T-DIPOLE    0.0079         C  6 -- H 15         +27.1% ( 53.9%)     96.6%
 TRAVEL      0.1222         C  5 -- H 17         +20.8% ( 47.1%)     97.2%
 RED. MASS   0.2404         C  5 -- H 16         +17.6% ( 43.5%)     96.2%
 EFF. MASS   1.5276

 VIBRATION   71   71A         ATOM PAIR      ENERGY CONTRIBUTION    RADIAL
 FREQ.      2979.89         C  2 -- H 13         +94.8% ( 99.0%)    100.0%
 T-DIPOLE    0.2052         C  2 -- C  3          +1.1% ( 10.7%)     22.3%
 TRAVEL      0.1250         C  1 -- C  2          +1.1% ( 10.6%)     22.2%
 RED. MASS   0.8951         C  2 -- C  4          +1.1% ( 10.5%)     14.3%
 EFF. MASS   1.4494

 VIBRATION   72   72A         ATOM PAIR      ENERGY CONTRIBUTION    RADIAL
 FREQ.      2997.19         C  7 -- H 23         +61.5% ( 77.4%)     98.9%
 T-DIPOLE    0.1101         C  7 -- H 22         +35.7% ( 59.0%)     95.7%
 TRAVEL      0.1323         C  7 -- C 10          +0.7% (  8.0%)     19.7%
 RED. MASS   0.4993         C  1 -- C  7          +0.7% (  8.0%)     28.2%
 EFF. MASS   1.2845

 VIBRATION   73   73A         ATOM PAIR      ENERGY CONTRIBUTION    RADIAL
 FREQ.      3022.72         C  4 -- H 19         +47.5% ( 67.9%)     98.1%
 T-DIPOLE    0.0179         C  4 -- H 18         +41.6% ( 63.5%)     97.4%
 TRAVEL      0.1323         C  5 -- H 16          +4.4% ( 20.6%)     98.3%
 RED. MASS   0.3996         C  5 -- H 17          +3.6% ( 18.7%)     97.3%
 EFF. MASS   1.2744

 VIBRATION   74   74A         ATOM PAIR      ENERGY CONTRIBUTION    RADIAL
 FREQ.      3028.07         C  5 -- H 16         +46.1% ( 66.8%)     98.1%
 T-DIPOLE    0.0290         C  5 -- H 17         +39.6% ( 62.0%)     97.3%
 TRAVEL      0.1324         C  4 -- H 19          +4.8% ( 21.5%)     97.9%
 RED. MASS   0.3709         C  4 -- H 18          +4.2% ( 20.2%)     97.2%
 EFF. MASS   1.2706

 VIBRATION   75   75A         ATOM PAIR      ENERGY CONTRIBUTION    RADIAL
 FREQ.      3033.56         C  6 -- H 14         +46.6% ( 67.2%)     97.7%
 T-DIPOLE    0.0123         C  6 -- H 15         +46.5% ( 67.2%)     97.7%
 TRAVEL      0.1322         C  5 -- H 16          +2.6% ( 15.8%)     97.9%
 RED. MASS   0.4320         C  5 -- H 17          +2.2% ( 14.7%)     97.1%
 EFF. MASS   1.2721

 VIBRATION   76   76A         ATOM PAIR      ENERGY CONTRIBUTION    RADIAL
 FREQ.      3043.61         C  9 -- H 27         +80.0% ( 90.8%)    100.0%
 T-DIPOLE    0.2840         C 11 -- H 29         +16.9% ( 41.7%)     99.9%
 TRAVEL      0.1223         C  9 -- C 11          +1.2% ( 11.3%)      7.9%
 RED. MASS   0.6569         C  1 -- C  9          +1.1% ( 10.9%)     17.6%
 EFF. MASS   1.4803

 VIBRATION   77   77A         ATOM PAIR      ENERGY CONTRIBUTION    RADIAL
 FREQ.      3052.81         C 10 -- H 28         +64.7% ( 81.6%)    100.0%
 T-DIPOLE    0.2526         C 12 -- H 30         +30.7% ( 56.3%)    100.0%
 TRAVEL      0.1227         C  9 -- H 27          +1.2% ( 10.9%)    100.0%
 RED. MASS   0.5019         C 10 -- C 12          +1.1% ( 10.7%)      2.1%
 EFF. MASS   1.4674

 VIBRATION   78   78A         ATOM PAIR      ENERGY CONTRIBUTION    RADIAL
 FREQ.      3066.40         C 11 -- H 29         +53.1% ( 74.1%)     99.9%
 T-DIPOLE    0.3355         C 12 -- H 30         +15.9% ( 40.6%)     99.8%
 TRAVEL      0.1184         C 10 -- H 28         +15.5% ( 40.0%)     99.9%
 RED. MASS   0.3454         C  9 -- H 27         +11.8% ( 34.9%)     99.7%
 EFF. MASS   1.5685

 VIBRATION   79   79A         ATOM PAIR      ENERGY CONTRIBUTION    RADIAL
 FREQ.      3077.97         C 12 -- H 30         +49.9% ( 71.7%)    100.0%
 T-DIPOLE    0.3775         C 11 -- H 29         +26.1% ( 51.8%)    100.0%
 TRAVEL      0.1169         C 10 -- H 28         +16.2% ( 40.8%)     99.8%
 RED. MASS   0.3462         C  9 -- H 27          +3.9% ( 20.1%)     99.6%
 EFF. MASS   1.6017

 VIBRATION   80   80A         ATOM PAIR      ENERGY CONTRIBUTION    RADIAL
 FREQ.      3078.53         C  8 -- H 26         +49.0% ( 72.2%)     97.1%
 T-DIPOLE    0.0054         C  8 -- H 24         +48.8% ( 72.1%)     97.0%
 TRAVEL      0.1208         C  6 -- C  8          +1.0% ( 10.2%)      0.0%
 RED. MASS   0.5061         C  8 -- H 25          +0.9% ( 10.0%)      0.0%
 EFF. MASS   1.5011

 VIBRATION   81   81A         ATOM PAIR      ENERGY CONTRIBUTION    RADIAL
 FREQ.      3084.37         C  3 -- H 21         +63.7% ( 82.4%)     98.5%
 T-DIPOLE    0.1855         C  3 -- H 20         +33.7% ( 59.9%)     94.8%
 TRAVEL      0.1189         C  1 -- C  3          +1.2% ( 11.1%)      1.0%
 RED. MASS   0.5616         C  2 -- C  3          +1.2% ( 11.1%)      0.8%
 EFF. MASS   1.5467

 VIBRATION   82   82A         ATOM PAIR      ENERGY CONTRIBUTION    RADIAL
 FREQ.      3084.53         C  8 -- H 25         +61.9% ( 81.2%)     98.8%
 T-DIPOLE    0.0058         C  8 -- H 24         +18.3% ( 44.2%)     85.8%
 TRAVEL      0.1206         C  8 -- H 26         +18.1% ( 43.9%)     85.6%
 RED. MASS   0.4782         C  6 -- C  8          +1.0% ( 10.3%)      0.0%
 EFF. MASS   1.5030

 VIBRATION   83   83A         ATOM PAIR      ENERGY CONTRIBUTION    RADIAL
 FREQ.      3126.30         C  3 -- H 20         +65.3% ( 80.4%)     98.2%
 T-DIPOLE    0.2211         C  3 -- H 21         +33.0% ( 57.1%)     92.7%
 TRAVEL      0.1286         C  2 -- C  3          +0.8% (  9.1%)     73.8%
 RED. MASS   0.5300         C  1 -- C  3          +0.8% (  9.0%)     71.5%
 EFF. MASS   1.3044

 VIBRATION   84   84A         ATOM PAIR      ENERGY CONTRIBUTION    RADIAL
 FREQ.      3181.38         C  8 -- H 25         +36.3% ( 58.0%)     97.6%
 T-DIPOLE    0.0132         C  8 -- H 26         +31.7% ( 54.2%)     96.9%
 TRAVEL      0.1366         C  8 -- H 24         +31.7% ( 54.1%)     96.8%
 RED. MASS   0.3281         C  6 -- C  8          +0.3% (  5.1%)     99.7%
 EFF. MASS   1.1367

      SYMMETRY NUMBER FOR POINT-GROUP C1  =  1


          SYSTEM IS A GROUND STATE



 InChI=1S/C12H18/c1-2-3-7-11-10-12(11)8-5-4-6-9-12/h4-6,8,11H,2-3,7,9-10H2,1H3


          MOLECULE IS NOT LINEAR

          THERE ARE 84 GENUINE VIBRATIONS IN THIS SYSTEM
          THIS THERMODYNAMICS CALCULATION IS LIMITED TO
          MOLECULES WHICH HAVE NO INTERNAL ROTATIONS




                    CALCULATED THERMODYNAMIC PROPERTIES
                                          *
   TEMP. (K)   PARTITION FUNCTION   H.O.F.    ENTHALPY  HEAT CAPACITY ENTROPY
                                   KCAL/MOL   CAL/MOLE    CAL/K/MOL  CAL/K/MOL


 298.00  VIB.     0.6728D+04                  5872.7408    41.2177    37.2224
         ROT.     0.1549D+07                   888.2813     2.9808    31.3049
         INT.     0.1042D+11                  6761.0221    44.1985    68.5272
         TRA.     0.1998D+28                  1480.4688     4.9680    41.1588
         TOT.                       22.238    8241.4909    49.1665   109.6861

 200.00  VIB.     0.2662D+03                  2611.9319    25.8659    24.1568
         ROT.     0.8517D+06                   596.1620     2.9808    30.1162
         INT.     0.2267D+09                  3208.0939    28.8467    54.2730
         TRA.     0.1099D+28                   993.6033     4.9680    39.1777
         TOT.                       18.198    4201.6971    33.8147    93.4507

 210.00  VIB.     0.3697D+03                  2877.5541    27.2659    25.4525
         ROT.     0.9164D+06                   625.9700     2.9808    30.2616
         INT.     0.3388D+09                  3503.5241    30.2467    55.7141
         TRA.     0.1182D+28                  1043.2834     4.9680    39.4201
         TOT.                       18.543    4546.8075    35.2148    95.1342

 220.00  VIB.     0.5134D+03                  3157.3989    28.7104    26.7541
         ROT.     0.9826D+06                   655.7781     2.9808    30.4003
         INT.     0.5045D+09                  3813.1770    31.6912    57.1543
         TRA.     0.1268D+28                  1092.9636     4.9680    39.6512
         TOT.                       18.902    4906.1406    36.6592    96.8056

 230.00  VIB.     0.7129D+03                  3451.9071    30.1983    28.0630
         ROT.     0.1050D+07                   685.5862     2.9808    30.5328
         INT.     0.7488D+09                  4137.4933    33.1792    58.5957
         TRA.     0.1355D+28                  1142.6437     4.9680    39.8720
         TOT.                       19.276    5280.1371    38.1472    98.4678

 240.00  VIB.     0.9901D+03                  3761.5036    31.7276    29.3804
         ROT.     0.1120D+07                   715.3943     2.9808    30.6596
         INT.     0.1109D+10                  4476.8979    34.7084    60.0400
         TRA.     0.1444D+28                  1192.3239     4.9680    40.0835
         TOT.                       19.665    5669.2218    39.6764   100.1235

 250.00  VIB.     0.1376D+04                  4086.5870    33.2951    30.7072
         ROT.     0.1190D+07                   745.2024     2.9808    30.7813
         INT.     0.1637D+10                  4831.7894    36.2759    61.4885
         TRA.     0.1536D+28                  1242.0041     4.9680    40.2863
         TOT.                       20.070    6073.7935    41.2440   101.7748

 260.00  VIB.     0.1912D+04                  4427.5208    34.8970    32.0442
         ROT.     0.1262D+07                   775.0105     2.9808    30.8982
         INT.     0.2414D+10                  5202.5313    37.8778    62.9424
         TRA.     0.1629D+28                  1291.6842     4.9680    40.4811
         TOT.                       20.490    6494.2156    42.8458   103.4235

 270.00  VIB.     0.2659D+04                  4784.6275    36.5289    33.3917
         ROT.     0.1336D+07                   804.8186     2.9808    31.0107
         INT.     0.3553D+10                  5589.4462    39.5098    64.4024
         TRA.     0.1724D+28                  1341.3644     4.9680    40.6686
         TOT.                       20.927    6930.8106    44.4778   105.0711

 280.00  VIB.     0.3702D+04                  5158.1842    38.1862    34.7501
         ROT.     0.1411D+07                   834.6267     2.9808    31.1191
         INT.     0.5223D+10                  5992.8109    41.1670    65.8692
         TRA.     0.1820D+28                  1391.0445     4.9680    40.8493
         TOT.                       21.380    7383.8555    46.1350   106.7185

 290.00  VIB.     0.5157D+04                  5548.4200    39.8640    36.1193
         ROT.     0.1487D+07                   864.4348     2.9808    31.2237
         INT.     0.7669D+10                  6412.8549    42.8448    67.3430
         TRA.     0.1919D+28                  1440.7247     4.9680    41.0236
         TOT.                       21.850    7853.5796    47.8128   108.3667

 300.00  VIB.     0.7191D+04                  5955.5157    41.5574    37.4992
         ROT.     0.1565D+07                   894.2429     2.9808    31.3248
         INT.     0.1125D+11                  6849.7586    44.5382    68.8240
         TRA.     0.2019D+28                  1490.4049     4.9680    41.1921
         TOT.                       22.336    8340.1635    49.5062   110.0161

 310.00  VIB.     0.1004D+05                  6379.6037    43.2616    38.8897
         ROT.     0.1644D+07                   924.0510     2.9808    31.4225
         INT.     0.1650D+11                  7303.6547    46.2425    70.3122
         TRA.     0.2120D+28                  1540.0850     4.9680    41.3550
         TOT.                       22.840    8843.7397    51.2105   111.6672

 320.00  VIB.     0.1403D+05                  6820.7695    44.9722    40.2902
         ROT.     0.1724D+07                   953.8591     2.9808    31.5172
         INT.     0.2418D+11                  7774.6286    47.9530    71.8073
         TRA.     0.2224D+28                  1589.7652     4.9680    41.5127
         TOT.                       23.361    9364.3938    52.9210   113.3200

 330.00  VIB.     0.1962D+05                  7279.0544    46.6847    41.7002
         ROT.     0.1805D+07                   983.6672     2.9808    31.6089
         INT.     0.3542D+11                  8262.7216    49.6656    73.3091
         TRA.     0.2329D+28                  1639.4454     4.9680    41.6656
         TOT.                       23.898    9902.1670    54.6336   114.9747

 340.00  VIB.     0.2749D+05                  7754.4576    48.3952    43.1193
         ROT.     0.1888D+07                  1013.4753     2.9808    31.6979
         INT.     0.5189D+11                  8767.9329    51.3760    74.8172
         TRA.     0.2436D+28                  1689.1255     4.9680    41.8139
         TOT.                       24.453   10457.0584    56.3441   116.6311

 350.00  VIB.     0.3855D+05                  8246.9398    50.1000    44.5468
         ROT.     0.1972D+07                  1043.2834     2.9808    31.7843
         INT.     0.7600D+11                  9290.2232    53.0808    76.3311
         TRA.     0.2544D+28                  1738.8057     4.9680    41.9579
         TOT.                       25.025   11029.0289    58.0488   118.2890

 360.00  VIB.     0.5412D+05                  8756.4266    51.7956    45.9820
         ROT.     0.2057D+07                  1073.0915     2.9808    31.8683
         INT.     0.1113D+12                  9829.5181    54.7764    77.8502
         TRA.     0.2654D+28                  1788.4859     4.9680    42.0979
         TOT.                       25.614   11618.0040    59.7444   119.9481

 370.00  VIB.     0.7608D+05                  9282.8117    53.4792    47.4241
         ROT.     0.2143D+07                  1102.8996     2.9808    31.9499
         INT.     0.1631D+12                 10385.7113    56.4600    79.3740
         TRA.     0.2765D+28                  1838.1660     4.9680    42.2340
         TOT.                       26.220   12223.8774    61.4280   121.6080

 380.00  VIB.     0.1071D+06                  9825.9609    55.1480    48.8725
         ROT.     0.2231D+07                  1132.7077     2.9808    32.0294
         INT.     0.2389D+12                 10958.6686    58.1288    80.9019
         TRA.     0.2878D+28                  1887.8462     4.9680    42.3665
         TOT.                       26.843   12846.5147    63.0968   123.2684

 390.00  VIB.     0.1509D+06                 10385.7148    56.7998    50.3264
         ROT.     0.2319D+07                  1162.5158     2.9808    32.1068
         INT.     0.3500D+12                 11548.2306    59.7806    82.4332
         TRA.     0.2992D+28                  1937.5263     4.9680    42.4955
         TOT.                       27.482   13485.7570    64.7486   124.9287

 400.00  VIB.     0.2129D+06                 10961.8931    58.4325    51.7850
         ROT.     0.2409D+07                  1192.3239     2.9808    32.1823
         INT.     0.5129D+12                 12154.2170    61.4134    83.9674
         TRA.     0.3108D+28                  1987.2065     4.9680    42.6213
         TOT.                       28.138   14141.4235    66.3814   126.5886

   *: NOTE: HEATS OF FORMATION ARE RELATIVE TO THE
            ELEMENTS IN THEIR STANDARD STATE AT 298K
              (=  Standard Enthalpy of Formation).

            Hvib:  Zero-point energy is not included.
                   frequencies of less than zero cm-1 are not included.
            Hrot = (3/2)RT
            Htra = (3/2)RT + pV = (5/2)RT

            Heat capacity is Cp, not Cv

          For more information, see: HTTP://OpenMOPAC.net/Manual/thermochemistry.html


           FORCE CONSTANT IN CARTESIAN COORDINATES (Millidynes/A)

    ATOM   CHEMICAL       X               Y               Z
   NUMBER   SYMBOL  FORCE CONSTANT  FORCE CONSTANT  FORCE CONSTANT

      1       C        9.889399        6.311434        9.706077
      2       C        9.423758        6.870391        8.932938
      3       C        4.563033       11.454486        8.887719
      4       C        8.359060        8.221919        8.585009
      5       C        8.204265        8.328884        8.285145
      6       C        8.176127        8.537138        8.190932
      7       C        9.196456        7.905713        8.522075
      8       C        8.275972        8.296013        8.321460
      9       C       14.471404        3.434851        9.547143
     10       C       10.107507        2.624859       14.342866
     11       C       14.102633        3.158852       10.460767
     12       C       11.219039        2.506396       14.010770
     13       H        1.649155        0.941025        3.708350
     14       H        1.708041        0.953299        3.748442
     15       H        3.838045        1.858776        0.711959
     16       H        1.707309        0.966434        3.741776
     17       H        3.819330        1.846427        0.708930
     18       H        1.768025        0.954023        3.685555
     19       H        3.785043        1.867281        0.690316
     20       H        0.530376        2.303440        3.818764
     21       H        0.531186        2.282688        3.802833
     22       H        1.292327        3.718877        1.119818
     23       H        0.764931        2.770767        2.748115
     24       H        1.833105        1.017478        3.930011
     25       H        2.172190        0.984838        3.641265
     26       H        4.046309        2.054982        0.678137
     27       H        2.101288        0.384228        3.752675
     28       H        2.088448        0.372202        3.795888
     29       H        1.566158        0.603190        4.097218
     30       H        4.992259        0.475134        0.806100

 **********************
 *                    *
 * JOB ENDED NORMALLY *
 *                    *
 **********************



 TOTAL JOB TIME:            15.20 SECONDS

 == MOPAC DONE ==
