 *******************************************************************************
 ** Site#: 14399        For non-commercial use only    Version 18.184L 64BITS **
 *******************************************************************************
 ** Cite this program as: MOPAC2016, Version: 18.184L, James J. P. Stewart,   **
 ** Stewart Computational Chemistry, web: HTTP://OpenMOPAC.net. Days left:  20**
 *******************************************************************************
 **                                                                           **
 **                                MOPAC2016                                  **
 **                                                                           **
 *******************************************************************************

                              PM3 CALCULATION RESULTS

 *******************************************************************************
 *  CALCULATION DONE:                                Thu Jun 13 15:51:17 2019  *
 *  PM3        - The PM3 Hamiltonian to be used
 *  PRECISE    - CRITERIA TO BE INCREASED BY 100 TIMES
 *  NOSYM      - POINT-GROUP SYMMETRY SET TO C1
 *  THREADS=1  - MULTI-THREADING NOT USED
 *  T=         - A TIME OF 172800.0 SECONDS REQUESTED
 *  DUMP=N     - RESTART FILE WRITTEN EVERY  7200.000 SECONDS
 *******************************************************************************
pm3  precise nosym THREADS=1
 InChI=1S/C10H10/c1-3-9-7-5-6-8-10(9)4-2/h3-8H,1-2H2

   ATOM   CHEMICAL          X               Y               Z
  NUMBER   SYMBOL      (ANGSTROMS)     (ANGSTROMS)     (ANGSTROMS)
 
     1       C         -0.68080000  *   0.13550000  *   0.22390000  *
     2       C          0.66790000  *  -0.21550000  *  -0.05320000  *
     3       C         -1.15750000  *   1.39940000  *  -0.18060000  *
     4       C          1.50080000  *   0.72040000  *  -0.70030000  *
     5       C         -1.60740000  *  -0.83660000  *   0.86170000  *
     6       C          1.00910000  *   1.96800000  *  -1.08390000  *
     7       C         -0.31680000  *   2.30570000  *  -0.82680000  *
     8       C          1.22600000  *  -1.51800000  *   0.39640000  *
     9       C         -2.61010000  *  -0.47180000  *   1.66100000  *
    10       C          2.18230000  *  -2.16930000  *  -0.26590000  *
    11       H          2.54410000  *   0.50150000  *  -0.88730000  *
    12       H         -2.19050000  *   1.68120000  *  -0.02370000  *
    13       H         -1.45340000  *  -1.89580000  *   0.69790000  *
    14       H          1.66050000  *   2.67730000  *  -1.57820000  *
    15       H         -0.69690000  *   3.27170000  *  -1.13340000  *
    16       H          0.82520000  *  -1.98250000  *   1.28860000  *
    17       H         -2.79460000  *   0.56500000  *   1.90880000  *
    18       H         -3.24670000  *  -1.22670000  *   2.10400000  *
    19       H          2.54270000  *  -3.11950000  *   0.10630000  *
    20       H          2.59620000  *  -1.79000000  *  -1.19070000  *
 


          CARTESIAN COORDINATES 

    NO.       ATOM           X           Y           Z

     1         C         -0.6808      0.1355      0.2239
     2         C          0.6679     -0.2155     -0.0532
     3         C         -1.1575      1.3994     -0.1806
     4         C          1.5008      0.7204     -0.7003
     5         C         -1.6074     -0.8366      0.8617
     6         C          1.0091      1.9680     -1.0839
     7         C         -0.3168      2.3057     -0.8268
     8         C          1.2260     -1.5180      0.3964
     9         C         -2.6101     -0.4718      1.6610
    10         C          2.1823     -2.1693     -0.2659
    11         H          2.5441      0.5015     -0.8873
    12         H         -2.1905      1.6812     -0.0237
    13         H         -1.4534     -1.8958      0.6979
    14         H          1.6605      2.6773     -1.5782
    15         H         -0.6969      3.2717     -1.1334
    16         H          0.8252     -1.9825      1.2886
    17         H         -2.7946      0.5650      1.9088
    18         H         -3.2467     -1.2267      2.1040
    19         H          2.5427     -3.1195      0.1063
    20         H          2.5962     -1.7900     -1.1907

  H: (PM3): J. J. P. STEWART, J. COMP. CHEM. 10, 209 (1989).
  C: (PM3): J. J. P. STEWART, J. COMP. CHEM. 10, 209 (1989).

           Empirical Formula: C10 H10  =    20 atoms



      MOLECULAR POINT GROUP   :   C1  


      RHF CALCULATION, NO. OF DOUBLY OCCUPIED LEVELS = 25


          Geometry optimization using EF

          DIAGONAL MATRIX USED AS START HESSIAN

 CYCLE:     1 TIME:   0.031 TIME LEFT:  2.00D  GRAD.:    68.451 HEAT:  59.92748
 CYCLE:     2 TIME:   0.047 TIME LEFT:  2.00D  GRAD.:    39.612 HEAT:  58.68577
 CYCLE:     3 TIME:   0.031 TIME LEFT:  2.00D  GRAD.:    29.500 HEAT:  58.32230
 CYCLE:     4 TIME:   0.020 TIME LEFT:  2.00D  GRAD.:    28.223 HEAT:  57.99625
 CYCLE:     5 TIME:   0.023 TIME LEFT:  2.00D  GRAD.:    33.168 HEAT:  57.72781
 CYCLE:     6 TIME:   0.023 TIME LEFT:  2.00D  GRAD.:    33.871 HEAT:  57.56696
 CYCLE:     7 TIME:   0.031 TIME LEFT:  2.00D  GRAD.:    35.642 HEAT:  57.50680
 CYCLE:     8 TIME:   0.020 TIME LEFT:  2.00D  GRAD.:    20.911 HEAT:  57.37929
 CYCLE:     9 TIME:   0.031 TIME LEFT:  2.00D  GRAD.:    10.934 HEAT:  57.28244
 CYCLE:    10 TIME:   0.027 TIME LEFT:  2.00D  GRAD.:     8.941 HEAT:  57.26485
 CYCLE:    11 TIME:   0.023 TIME LEFT:  2.00D  GRAD.:    11.032 HEAT:  57.25759
 CYCLE:    12 TIME:   0.020 TIME LEFT:  2.00D  GRAD.:     7.212 HEAT:  57.23858
 CYCLE:    13 TIME:   0.031 TIME LEFT:  2.00D  GRAD.:     5.446 HEAT:  57.22936
 CYCLE:    14 TIME:   0.023 TIME LEFT:  2.00D  GRAD.:     5.600 HEAT:  57.22459
 CYCLE:    15 TIME:   0.023 TIME LEFT:  2.00D  GRAD.:     3.974 HEAT:  57.21838
 CYCLE:    16 TIME:   0.020 TIME LEFT:  2.00D  GRAD.:     3.288 HEAT:  57.21393
 CYCLE:    17 TIME:   0.023 TIME LEFT:  2.00D  GRAD.:     3.090 HEAT:  57.21191
 CYCLE:    18 TIME:   0.023 TIME LEFT:  2.00D  GRAD.:     4.200 HEAT:  57.21151
 CYCLE:    19 TIME:   0.023 TIME LEFT:  2.00D  GRAD.:     3.545 HEAT:  57.20859
 CYCLE:    20 TIME:   0.023 TIME LEFT:  2.00D  GRAD.:     3.682 HEAT:  57.20663
 CYCLE:    21 TIME:   0.023 TIME LEFT:  2.00D  GRAD.:     3.755 HEAT:  57.20462
 CYCLE:    22 TIME:   0.023 TIME LEFT:  2.00D  GRAD.:     2.900 HEAT:  57.19949
 CYCLE:    23 TIME:   0.020 TIME LEFT:  2.00D  GRAD.:     3.042 HEAT:  57.19532
 CYCLE:    24 TIME:   0.023 TIME LEFT:  2.00D  GRAD.:     3.299 HEAT:  57.18947
 CYCLE:    25 TIME:   0.023 TIME LEFT:  2.00D  GRAD.:     4.454 HEAT:  57.18374
 CYCLE:    26 TIME:   0.023 TIME LEFT:  2.00D  GRAD.:     2.723 HEAT:  57.17698
 CYCLE:    27 TIME:   0.023 TIME LEFT:  2.00D  GRAD.:     2.575 HEAT:  57.17245
 CYCLE:    28 TIME:   0.023 TIME LEFT:  2.00D  GRAD.:     2.629 HEAT:  57.16537
 CYCLE:    29 TIME:   0.023 TIME LEFT:  2.00D  GRAD.:     3.881 HEAT:  57.14178
 CYCLE:    30 TIME:   0.020 TIME LEFT:  2.00D  GRAD.:     4.699 HEAT:  57.13307
 CYCLE:    31 TIME:   0.023 TIME LEFT:  2.00D  GRAD.:     2.818 HEAT:  57.11975
 CYCLE:    32 TIME:   0.023 TIME LEFT:  2.00D  GRAD.:     2.719 HEAT:  57.10492
 CYCLE:    33 TIME:   0.023 TIME LEFT:  2.00D  GRAD.:     2.570 HEAT:  57.09742
 CYCLE:    34 TIME:   0.023 TIME LEFT:  2.00D  GRAD.:     1.471 HEAT:  57.09291
 CYCLE:    35 TIME:   0.023 TIME LEFT:  2.00D  GRAD.:     1.572 HEAT:  57.08918
 CYCLE:    36 TIME:   0.020 TIME LEFT:  2.00D  GRAD.:     1.787 HEAT:  57.08517
 CYCLE:    37 TIME:   0.023 TIME LEFT:  2.00D  GRAD.:     1.454 HEAT:  57.08276
 CYCLE:    38 TIME:   0.023 TIME LEFT:  2.00D  GRAD.:     0.889 HEAT:  57.08110
 CYCLE:    39 TIME:   0.023 TIME LEFT:  2.00D  GRAD.:     0.957 HEAT:  57.07984
 CYCLE:    40 TIME:   0.023 TIME LEFT:  2.00D  GRAD.:     1.016 HEAT:  57.07871
 CYCLE:    41 TIME:   0.023 TIME LEFT:  2.00D  GRAD.:     0.761 HEAT:  57.07765
 CYCLE:    42 TIME:   0.023 TIME LEFT:  2.00D  GRAD.:     0.762 HEAT:  57.07646
 CYCLE:    43 TIME:   0.020 TIME LEFT:  2.00D  GRAD.:     0.961 HEAT:  57.07511
 CYCLE:    44 TIME:   0.023 TIME LEFT:  2.00D  GRAD.:     0.868 HEAT:  57.07378
 CYCLE:    45 TIME:   0.023 TIME LEFT:  2.00D  GRAD.:     0.438 HEAT:  57.07295
 CYCLE:    46 TIME:   0.023 TIME LEFT:  2.00D  GRAD.:     0.296 HEAT:  57.07272
 CYCLE:    47 TIME:   0.023 TIME LEFT:  2.00D  GRAD.:     0.253 HEAT:  57.07251
 CYCLE:    48 TIME:   0.023 TIME LEFT:  2.00D  GRAD.:     0.229 HEAT:  57.07242
 CYCLE:    49 TIME:   0.023 TIME LEFT:  2.00D  GRAD.:     0.189 HEAT:  57.07231
 CYCLE:    50 TIME:   0.020 TIME LEFT:  2.00D  GRAD.:     0.152 HEAT:  57.07226
 CYCLE:    51 TIME:   0.023 TIME LEFT:  2.00D  GRAD.:     0.136 HEAT:  57.07216
 CYCLE:    52 TIME:   0.023 TIME LEFT:  2.00D  GRAD.:     0.125 HEAT:  57.07211
 CYCLE:    53 TIME:   0.023 TIME LEFT:  2.00D  GRAD.:     0.096 HEAT:  57.07206
 CYCLE:    54 TIME:   0.023 TIME LEFT:  2.00D  GRAD.:     0.103 HEAT:  57.07202
 CYCLE:    55 TIME:   0.023 TIME LEFT:  2.00D  GRAD.:     0.088 HEAT:  57.07200
 CYCLE:    56 TIME:   0.020 TIME LEFT:  2.00D  GRAD.:     0.100 HEAT:  57.07196
 CYCLE:    57 TIME:   0.023 TIME LEFT:  2.00D  GRAD.:     0.058 HEAT:  57.07194
 CYCLE:    58 TIME:   0.023 TIME LEFT:  2.00D  GRAD.:     0.048 HEAT:  57.07193

     GRADIENT =  0.04784  IS LESS THAN CUTOFF =  0.05000



 -------------------------------------------------------------------------------
 pm3  precise nosym THREADS=1
 InChI=1S/C10H10/c1-3-9-7-5-6-8-10(9)4-2/h3-8H,1-2H2



     GEOMETRY OPTIMISED USING EIGENVECTOR FOLLOWING (EF).     
     SCF FIELD WAS ACHIEVED                                   


                              PM3 CALCULATION
                                                       MOPAC2016 (Version: 18.184L)
                                                       Thu Jun 13 15:51:19 2019
                                                       No. of days remaining =  20




          FINAL HEAT OF FORMATION =         57.07193 KCAL/MOL =     238.78895 KJ/MOL


          TOTAL ENERGY            =      -1337.25607 EV
          ELECTRONIC ENERGY       =      -6900.66948 EV  POINT GROUP:     C1  
          CORE-CORE REPULSION     =       5563.41341 EV
          COSMO AREA              =        181.24 SQUARE ANGSTROMS
          COSMO VOLUME            =        181.36 CUBIC ANGSTROMS

          GRADIENT NORM           =          0.04784 = 0.01070 PER ATOM
          IONIZATION POTENTIAL    =          9.092034 EV
          HOMO LUMO ENERGIES (EV) =         -9.092 -0.150
          NO. OF FILLED LEVELS    =         25
          MOLECULAR WEIGHT        =        130.1890

          MOLECULAR DIMENSIONS (Angstroms)

            Atom       Atom       Distance
            H    19    H    15     7.25806
            H    18    H    14     6.98757
            H    17    H    20     1.75855


          SCF CALCULATIONS        =         66
 
          WALL-CLOCK TIME         =          1.438 SECONDS
          COMPUTATION TIME        =          0.566 SECONDS




   ATOM   CHEMICAL          X               Y               Z
  NUMBER   SYMBOL      (ANGSTROMS)     (ANGSTROMS)     (ANGSTROMS)
 
     1       C         -0.68346393  *   0.12989393  *   0.18026265  *
     2       C          0.67036825  *  -0.18883380  *  -0.02505537  *
     3       C         -1.16748678  *   1.37176484  *  -0.23778684  *
     4       C          1.50834548  *   0.74274979  *  -0.64268682  *
     5       C         -1.59023607  *  -0.83562429  *   0.80432134  *
     6       C          1.01486721  *   1.97483614  *  -1.05417886  *
     7       C         -0.32394985  *   2.28943236  *  -0.85195966  *
     8       C          1.20929691  *  -1.47347247  *   0.42513985  *
     9       C         -2.51923599  *  -0.49938100  *   1.69476463  *
    10       C          2.09399692  *  -2.18323452  *  -0.26962577  *
    11       H          2.56532866  *   0.49780800  *  -0.80043578  *
    12       H         -2.22354810  *   1.62073237  *  -0.08039435  *
    13       H         -1.45615569  *  -1.88010713  *   0.49447823  *
    14       H          1.68147927  *   2.69674248  *  -1.53687077  *
    15       H         -0.71511157  *   3.25920043  *  -1.17608004  *
    16       H          0.83043753  *  -1.83326222  *   1.39058095  *
    17       H         -2.68050303  *   0.52016823  *   2.03498793  *
    18       H         -3.18256812  *  -1.23015807  *   2.14722591  *
    19       H          2.48129147  *  -3.13439692  *   0.08264577  *
    20       H          2.48939429  *  -1.87019053  *  -1.23240720  *

                             CARTESIAN COORDINATES

   1    C       -0.683463932     0.129893928     0.180262653
   2    C        0.670368255    -0.188833804    -0.025055366
   3    C       -1.167486777     1.371764844    -0.237786841
   4    C        1.508345478     0.742749792    -0.642686818
   5    C       -1.590236073    -0.835624292     0.804321344
   6    C        1.014867210     1.974836140    -1.054178864
   7    C       -0.323949853     2.289432364    -0.851959662
   8    C        1.209296905    -1.473472475     0.425139852
   9    C       -2.519235989    -0.499380998     1.694764629
  10    C        2.093996916    -2.183234520    -0.269625769
  11    H        2.565328656     0.497808004    -0.800435777
  12    H       -2.223548104     1.620732371    -0.080394354
  13    H       -1.456155694    -1.880107131     0.494478229
  14    H        1.681479266     2.696742478    -1.536870773
  15    H       -0.715111568     3.259200430    -1.176080039
  16    H        0.830437531    -1.833262218     1.390580948
  17    H       -2.680503031     0.520168227     2.034987932
  18    H       -3.182568121    -1.230158073     2.147225910
  19    H        2.481291472    -3.134396925     0.082645769
  20    H        2.489394288    -1.870190530    -1.232407205


           Empirical Formula: C10 H10  =    20 atoms



      MOLECULAR POINT GROUP   :   C1  


                  EIGENVALUES  
 -40.50492 -33.86600 -33.71151 -28.25287 -27.67857 -22.78420 -22.13368 -19.78949
 -19.19074 -17.91055 -16.93712 -15.98193 -15.45062 -15.35453 -14.89542 -14.77197
 -13.28876 -13.21597 -12.59875 -12.48812 -11.95536 -10.93491 -10.89948  -9.51092
  -9.09203  -0.15020   0.23415   1.32291   1.39581   2.91363   3.02128   3.23358
   3.39340   3.50635   3.65029   3.75463   3.84264   3.98659   4.02477   4.09557
   4.76254   4.93504   4.98422   5.05773   5.49541   5.57817   5.64986   5.77701
   6.26880   6.38503


              NET ATOMIC CHARGES AND DIPOLE CONTRIBUTIONS

  ATOM NO.   TYPE          CHARGE      No. of ELECS.   s-Pop       p-Pop       
    1          C          -0.036522        4.0365     1.16660     2.86993
    2          C          -0.036382        4.0364     1.16648     2.86990
    3          C          -0.095644        4.0956     1.17879     2.91685
    4          C          -0.095536        4.0955     1.17879     2.91675
    5          C          -0.095873        4.0959     1.17801     2.91786
    6          C          -0.101878        4.1019     1.17863     2.92324
    7          C          -0.101736        4.1017     1.17863     2.92310
    8          C          -0.095837        4.0958     1.17804     2.91780
    9          C          -0.150592        4.1506     1.18248     2.96811
   10          C          -0.150651        4.1507     1.18248     2.96817
   11          H           0.107943        0.8921     0.89206
   12          H           0.107938        0.8921     0.89206
   13          H           0.104709        0.8953     0.89529
   14          H           0.103060        0.8969     0.89694
   15          H           0.103067        0.8969     0.89693
   16          H           0.104625        0.8954     0.89537
   17          H           0.084602        0.9154     0.91540
   18          H           0.080079        0.9199     0.91992
   19          H           0.080060        0.9199     0.91994
   20          H           0.084566        0.9154     0.91543
 DIPOLE           X         Y         Z       TOTAL
 POINT-CHG.    -0.016    -0.089     0.044     0.100
 HYBRID         0.000    -0.001     0.000     0.001
 SUM           -0.016    -0.090     0.044     0.101


          ATOMIC ORBITAL ELECTRON POPULATIONS

     Atom    s        px        py        pz   
    1  C   1.16660   0.93458   0.94523   0.99011
    2  C   1.16648   0.93675   0.94852   0.98463
    3  C   1.17879   0.98678   0.94049   0.98958
    4  C   1.17879   0.98433   0.94734   0.98507
    5  C   1.17801   0.95995   0.97903   0.97888
    6  C   1.17863   0.95892   0.96703   0.99730
    7  C   1.17863   0.94829   0.98195   0.99285
    8  C   1.17804   0.97780   0.94859   0.99141
    9  C   1.18248   0.97589   1.01069   0.98153
   10  C   1.18248   0.97823   0.99169   0.99825
   11  H   0.89206
   12  H   0.89206
   13  H   0.89529
   14  H   0.89694
   15  H   0.89693
   16  H   0.89537
   17  H   0.91540
   18  H   0.91992
   19  H   0.91994
   20  H   0.91543
 *******************************************************************************
 ** Site#: 14399        For non-commercial use only    Version 18.184L 64BITS **
 *******************************************************************************
 ** Cite this program as: MOPAC2016, Version: 18.184L, James J. P. Stewart,   **
 ** Stewart Computational Chemistry, web: HTTP://OpenMOPAC.net. Days left:  20**
 *******************************************************************************
 **                                                                           **
 **                                MOPAC2016                                  **
 **                                                                           **
 *******************************************************************************

                              PM3 CALCULATION RESULTS

 *******************************************************************************
 *  CALCULATION DONE:                                Thu Jun 13 15:51:19 2019  *
 *  PM3        - The PM3 Hamiltonian to be used
 *  OLDGEO     - PREVIOUS GEOMETRY TO BE USED
 *  PRECISE    - CRITERIA TO BE INCREASED BY 100 TIMES
 *  NOSYM      - POINT-GROUP SYMMETRY SET TO C1
 *  THREADS=1  - MULTI-THREADING NOT USED
 *  T=         - A TIME OF 172800.0 SECONDS REQUESTED
 *  DUMP=N     - RESTART FILE WRITTEN EVERY  7200.000 SECONDS
 *  THERMO     - THERMODYNAMIC QUANTITIES TO BE CALCULATED
 *******************************************************************************
oldgeo thermo nosym precise THREADS=1  pm3
 InChI=1S/C10H10/c1-3-9-7-5-6-8-10(9)4-2/h3-8H,1-2H2

   ATOM   CHEMICAL          X               Y               Z
  NUMBER   SYMBOL      (ANGSTROMS)     (ANGSTROMS)     (ANGSTROMS)
 
     1       C         -0.68346393  *   0.12989393  *   0.18026265  *
     2       C          0.67036825  *  -0.18883380  *  -0.02505537  *
     3       C         -1.16748678  *   1.37176484  *  -0.23778684  *
     4       C          1.50834548  *   0.74274979  *  -0.64268682  *
     5       C         -1.59023607  *  -0.83562429  *   0.80432134  *
     6       C          1.01486721  *   1.97483614  *  -1.05417886  *
     7       C         -0.32394985  *   2.28943236  *  -0.85195966  *
     8       C          1.20929691  *  -1.47347247  *   0.42513985  *
     9       C         -2.51923599  *  -0.49938100  *   1.69476463  *
    10       C          2.09399692  *  -2.18323452  *  -0.26962577  *
    11       H          2.56532866  *   0.49780800  *  -0.80043578  *
    12       H         -2.22354810  *   1.62073237  *  -0.08039435  *
    13       H         -1.45615569  *  -1.88010713  *   0.49447823  *
    14       H          1.68147927  *   2.69674248  *  -1.53687077  *
    15       H         -0.71511157  *   3.25920043  *  -1.17608004  *
    16       H          0.83043753  *  -1.83326222  *   1.39058095  *
    17       H         -2.68050303  *   0.52016823  *   2.03498793  *
    18       H         -3.18256812  *  -1.23015807  *   2.14722591  *
    19       H          2.48129147  *  -3.13439692  *   0.08264577  *
    20       H          2.48939429  *  -1.87019053  *  -1.23240720  *
 


          CARTESIAN COORDINATES 

    NO.       ATOM           X           Y           Z

     1         C         -0.6835      0.1299      0.1803
     2         C          0.6704     -0.1888     -0.0251
     3         C         -1.1675      1.3718     -0.2378
     4         C          1.5083      0.7427     -0.6427
     5         C         -1.5902     -0.8356      0.8043
     6         C          1.0149      1.9748     -1.0542
     7         C         -0.3239      2.2894     -0.8520
     8         C          1.2093     -1.4735      0.4251
     9         C         -2.5192     -0.4994      1.6948
    10         C          2.0940     -2.1832     -0.2696
    11         H          2.5653      0.4978     -0.8004
    12         H         -2.2235      1.6207     -0.0804
    13         H         -1.4562     -1.8801      0.4945
    14         H          1.6815      2.6967     -1.5369
    15         H         -0.7151      3.2592     -1.1761
    16         H          0.8304     -1.8333      1.3906
    17         H         -2.6805      0.5202      2.0350
    18         H         -3.1826     -1.2302      2.1472
    19         H          2.4813     -3.1344      0.0826
    20         H          2.4894     -1.8702     -1.2324

  H: (PM3): J. J. P. STEWART, J. COMP. CHEM. 10, 209 (1989).
  C: (PM3): J. J. P. STEWART, J. COMP. CHEM. 10, 209 (1989).

           Empirical Formula: C10 H10  =    20 atoms



      MOLECULAR POINT GROUP   :   C1  


      RHF CALCULATION, NO. OF DOUBLY OCCUPIED LEVELS = 25



          HEAT OF FORMATION =      57.071929 KCALS/MOLE


          CARTESIAN COORDINATE DERIVATIVES

   NUMBER  ATOM         X            Y            Z

     1       C      0.001965    -0.010055    -0.006088
     2       C     -0.012311    -0.005364    -0.008091
     3       C      0.005555     0.006534     0.004171
     4       C      0.001407     0.001412    -0.002917
     5       C     -0.002774    -0.002136    -0.005026
     6       C      0.009554    -0.003905     0.003119
     7       C      0.000864    -0.005117     0.001984
     8       C     -0.008458    -0.000636    -0.004984
     9       C      0.007138     0.002922    -0.002619
    10       C      0.003774     0.002480     0.004165
    11       H      0.001155    -0.003157    -0.000397
    12       H      0.007334     0.006468     0.012170
    13       H     -0.014007    -0.005406    -0.009843
    14       H     -0.018662     0.001324    -0.004188
    15       H      0.004195    -0.004139    -0.002127
    16       H     -0.013675     0.003003    -0.002744
    17       H      0.013437    -0.000159     0.001498
    18       H      0.007258     0.004189     0.004077
    19       H      0.002516     0.006945     0.012052
    20       H      0.003736     0.004797     0.005788
 


          GRADIENT NORM =   0.05103


          TIME FOR SCF CALCULATION =    0.02

          TIME FOR DERIVATIVES     =    0.01

          MOLECULAR WEIGHT =  130.19



          ROTATIONAL CONSTANTS IN CM(-1)

          A =    0.05290678   B =    0.04834308   C =    0.02590338



           PRINCIPAL MOMENTS OF INERTIA IN UNITS OF 10**(-40)*GRAM-CM**2

          A =      529.0962   B =      579.0441   C =     1080.6610


          ORIENTATION OF MOLECULE IN FORCE CALCULATION

    NO.       ATOM         X         Y         Z

     1          C      -0.7040   -0.1577   -0.0024
     2          C       0.7019   -0.1577   -0.0024
     3          C      -1.3906    1.0588   -0.0024
     4          C       1.3878    1.0592   -0.0012
     5          C      -1.4494   -1.4177   -0.0267
     6          C       0.6934    2.2628   -0.0013
     7          C      -0.6967    2.2627   -0.0023
     8          C       1.4464   -1.4181    0.0221
     9          C      -2.5503   -1.6322    0.6883
    10          C       2.5606   -1.6270   -0.6735
    11          H       2.4842    1.0616    0.0026
    12          H      -2.4870    1.0603   -0.0047
    13          H      -1.0383   -2.1988   -0.6792
    14          H       1.2422    3.2102   -0.0001
    15          H      -1.2458    3.2097   -0.0032
    16          H       1.0221   -2.2059    0.6581
    17          H      -2.9864   -0.8902    1.3521
    18          H      -3.0895   -2.5740    0.6574
    19          H       3.0978   -2.5700   -0.6411
    20          H       3.0110   -0.8797   -1.3215


    FIRST DERIVATIVES WILL BE USED IN THE CALCULATION OF SECOND DERIVATIVES

          ESTIMATED TIME TO COMPLETE CALCULATION =        7.50 SECONDS

    FOR POINT-GROUP C1   THERE ARE   1 UNIQUE SYMMETRY FUNCTIONS.

 STEP:   1 TIME =     0.05 SECS, INTEGRAL =      0.05 TIME LEFT: 172799.91
 STEP:   2 TIME =     0.05 SECS, INTEGRAL =      0.10 TIME LEFT: 172799.87
 STEP:   3 TIME =     0.05 SECS, INTEGRAL =      0.15 TIME LEFT: 172799.82
 STEP:   4 TIME =     0.05 SECS, INTEGRAL =      0.20 TIME LEFT: 172799.77
 STEP:   5 TIME =     0.05 SECS, INTEGRAL =      0.24 TIME LEFT: 172799.73
 STEP:   6 TIME =     0.05 SECS, INTEGRAL =      0.29 TIME LEFT: 172799.68
 STEP:   7 TIME =     0.04 SECS, INTEGRAL =      0.33 TIME LEFT: 172799.64
 STEP:   8 TIME =     0.05 SECS, INTEGRAL =      0.38 TIME LEFT: 172799.59
 STEP:   9 TIME =     0.05 SECS, INTEGRAL =      0.43 TIME LEFT: 172799.54
 STEP:  10 TIME =     0.05 SECS, INTEGRAL =      0.47 TIME LEFT: 172799.50
 STEP:  11 TIME =     0.05 SECS, INTEGRAL =      0.52 TIME LEFT: 172799.45
 STEP:  12 TIME =     0.05 SECS, INTEGRAL =      0.57 TIME LEFT: 172799.40
 STEP:  13 TIME =     0.05 SECS, INTEGRAL =      0.62 TIME LEFT: 172799.35
 STEP:  14 TIME =     0.05 SECS, INTEGRAL =      0.66 TIME LEFT: 172799.30
 STEP:  15 TIME =     0.05 SECS, INTEGRAL =      0.71 TIME LEFT: 172799.26
 STEP:  16 TIME =     0.05 SECS, INTEGRAL =      0.76 TIME LEFT: 172799.21
 STEP:  17 TIME =     0.05 SECS, INTEGRAL =      0.80 TIME LEFT: 172799.16
 STEP:  18 TIME =     0.05 SECS, INTEGRAL =      0.86 TIME LEFT: 172799.11
 STEP:  19 TIME =     0.05 SECS, INTEGRAL =      0.90 TIME LEFT: 172799.07
 STEP:  20 TIME =     0.05 SECS, INTEGRAL =      0.95 TIME LEFT: 172799.02
 STEP:  21 TIME =     0.05 SECS, INTEGRAL =      1.00 TIME LEFT: 172798.97
 STEP:  22 TIME =     0.05 SECS, INTEGRAL =      1.04 TIME LEFT: 172798.93
 STEP:  23 TIME =     0.05 SECS, INTEGRAL =      1.09 TIME LEFT: 172798.88
 STEP:  24 TIME =     0.05 SECS, INTEGRAL =      1.14 TIME LEFT: 172798.83
 STEP:  25 TIME =     0.05 SECS, INTEGRAL =      1.18 TIME LEFT: 172798.79
 STEP:  26 TIME =     0.05 SECS, INTEGRAL =      1.23 TIME LEFT: 172798.74
 STEP:  27 TIME =     0.05 SECS, INTEGRAL =      1.28 TIME LEFT: 172798.69
 STEP:  28 TIME =     0.04 SECS, INTEGRAL =      1.32 TIME LEFT: 172798.65
 STEP:  29 TIME =     0.05 SECS, INTEGRAL =      1.37 TIME LEFT: 172798.60
 STEP:  30 TIME =     0.05 SECS, INTEGRAL =      1.41 TIME LEFT: 172798.55
 STEP:  31 TIME =     0.04 SECS, INTEGRAL =      1.46 TIME LEFT: 172798.51
 STEP:  32 TIME =     0.05 SECS, INTEGRAL =      1.50 TIME LEFT: 172798.46
 STEP:  33 TIME =     0.05 SECS, INTEGRAL =      1.55 TIME LEFT: 172798.41
 STEP:  34 TIME =     0.04 SECS, INTEGRAL =      1.60 TIME LEFT: 172798.37
 STEP:  35 TIME =     0.05 SECS, INTEGRAL =      1.64 TIME LEFT: 172798.32
 STEP:  36 TIME =     0.05 SECS, INTEGRAL =      1.69 TIME LEFT: 172798.28
 STEP:  37 TIME =     0.05 SECS, INTEGRAL =      1.74 TIME LEFT: 172798.23
 STEP:  38 TIME =     0.05 SECS, INTEGRAL =      1.79 TIME LEFT: 172798.18
 STEP:  39 TIME =     0.04 SECS, INTEGRAL =      1.83 TIME LEFT: 172798.14
 STEP:  40 TIME =     0.05 SECS, INTEGRAL =      1.88 TIME LEFT: 172798.09
 STEP:  41 TIME =     0.04 SECS, INTEGRAL =      1.92 TIME LEFT: 172798.05
 STEP:  42 TIME =     0.05 SECS, INTEGRAL =      1.96 TIME LEFT: 172798.00
 STEP:  43 TIME =     0.04 SECS, INTEGRAL =      2.01 TIME LEFT: 172797.96
 STEP:  44 TIME =     0.05 SECS, INTEGRAL =      2.05 TIME LEFT: 172797.91
 STEP:  45 TIME =     0.05 SECS, INTEGRAL =      2.11 TIME LEFT: 172797.86
 STEP:  46 TIME =     0.05 SECS, INTEGRAL =      2.15 TIME LEFT: 172797.82
 STEP:  47 TIME =     0.04 SECS, INTEGRAL =      2.20 TIME LEFT: 172797.77
 STEP:  48 TIME =     0.05 SECS, INTEGRAL =      2.24 TIME LEFT: 172797.73
 STEP:  49 TIME =     0.05 SECS, INTEGRAL =      2.29 TIME LEFT: 172797.68
 STEP:  50 TIME =     0.04 SECS, INTEGRAL =      2.33 TIME LEFT: 172797.64
 STEP:  51 TIME =     0.05 SECS, INTEGRAL =      2.38 TIME LEFT: 172797.59
 STEP:  52 TIME =     0.05 SECS, INTEGRAL =      2.43 TIME LEFT: 172797.54
 STEP:  53 TIME =     0.05 SECS, INTEGRAL =      2.47 TIME LEFT: 172797.50
 STEP:  54 TIME =     0.05 SECS, INTEGRAL =      2.52 TIME LEFT: 172797.45
 STEP:  55 TIME =     0.05 SECS, INTEGRAL =      2.57 TIME LEFT: 172797.40
 STEP:  56 TIME =     0.05 SECS, INTEGRAL =      2.61 TIME LEFT: 172797.36
 STEP:  57 TIME =     0.05 SECS, INTEGRAL =      2.66 TIME LEFT: 172797.31
 STEP:  58 TIME =     0.05 SECS, INTEGRAL =      2.71 TIME LEFT: 172797.26
 STEP:  59 TIME =     0.05 SECS, INTEGRAL =      2.75 TIME LEFT: 172797.21
 STEP:  60 TIME =     0.05 SECS, INTEGRAL =      2.80 TIME LEFT: 172797.17

(To convert to Hartree/Bohr^2, multiply by (10^(-21) x N x a0^2)/(4.184 x 627.51) =  0.0642)


           FORCE MATRIX IN MILLIDYNES/ANGSTROM


                  C  1       C  2       C  3       C  4       C  5       C  6
 ------------------------------------------------------------------------------
     C    1  18.122771
     C    2   6.376836  18.102158
     C    3   6.784711   2.241232  17.370197
     C    4   2.250822   6.755758   1.773578  17.339490
     C    5   5.383811   0.784357   0.805267   0.098100  18.408383
     C    6   1.645305   2.298005   2.444468   7.090876   0.018372  17.430316
     C    7   2.285466   1.649420   7.105972   2.456576   0.104108   7.092716
     C    8   0.786307   5.377956   0.098615   0.805064   0.082082   0.104264
     C    9   0.934559   0.061527   0.077249   0.020021  10.888897   0.008020
     C   10   0.062184   0.936442   0.020655   0.078672   0.011351   0.014096
     H   11   0.082894   0.445470   0.010644   4.811494   0.007523   0.433784
     H   12   0.445740   0.083071   4.813138   0.010650   0.051363   0.087695
     H   13   0.435394   0.033021   0.033049   0.008490   4.762048   0.003828
     H   14   0.007471   0.087764   0.087876   0.435482   0.008999   4.867220
     H   15   0.087909   0.007663   0.435319   0.087926   0.008623   0.436920
     H   16   0.034033   0.435775   0.008214   0.033612   0.022702   0.009720
     H   17   0.100946   0.011796   0.021627   0.004229   0.491332   0.001743
     H   18   0.137573   0.015577   0.011828   0.005854   0.458231   0.001420
     H   19   0.015802   0.137654   0.005941   0.012358   0.002846   0.004266
     H   20   0.011682   0.100480   0.004362   0.022283   0.002467   0.004359


                  C  7       C  8       C  9       C 10       H 11       H 12
 ------------------------------------------------------------------------------
     C    7  17.438903
     C    8   0.017971  18.408604
     C    9   0.014435   0.011496  17.924890
     C   10   0.007958  10.882117   0.002420  17.919881
     H   11   0.087987   0.051375   0.001581   0.019562   5.184420
     H   12   0.433576   0.007459   0.018713   0.001676   0.007147   5.185901
     H   13   0.009652   0.021364   0.453680   0.003424   0.000762   0.003593
     H   14   0.436776   0.008513   0.001093   0.000882   0.042141   0.006797
     H   15   4.867283   0.009022   0.000969   0.001129   0.006831   0.042042
     H   16   0.003588   4.760124   0.003734   0.453459   0.003547   0.000733
     H   17   0.004697   0.002399   5.071606   0.000491   0.000332   0.027020
     H   18   0.004271   0.002565   5.107903   0.000819   0.000554   0.002899
     H   19   0.001381   0.458114   0.000821   5.107319   0.002960   0.000607
     H   20   0.002094   0.491453   0.000529   5.070303   0.027294   0.000360


                  H 13       H 14       H 15       H 16       H 17       H 18
 ------------------------------------------------------------------------------
     H   13   5.123633
     H   14   0.000744   5.230703
     H   15   0.001129   0.040898   5.230570
     H   16   0.034905   0.001094   0.000716   5.121611
     H   17   0.116299   0.000377   0.000627   0.000959   5.462837
     H   18   0.078843   0.000493   0.000474   0.001024   0.418238   5.491612
     H   19   0.000988   0.000441   0.000497   0.078874   0.000289   0.000299
     H   20   0.000960   0.000633   0.000383   0.116265   0.000307   0.000270


                  H 19       H 20
 ------------------------------
     H   19   5.491254
     H   20   0.418714   5.462092


          HEAT OF FORMATION =      57.071929 KCALS/MOLE

          ZERO POINT ENERGY     103.638 KCAL/MOL


           NORMAL COORDINATE ANALYSIS (Total motion = 1 Angstrom)


   Root No.       1         2         3         4         5         6         7         8

                 1 A       2 A       3 A       4 A       5 A       6 A       7 A       8 A   

                 104.2     107.9     124.7     203.8     275.9     298.3     378.1     401.8
  
           1    0.0013   -0.0105   -0.0003   -0.0093    0.0000    0.0215    0.0022   -0.0152
           2    0.0033    0.0057   -0.0148    0.0062   -0.0136   -0.0054   -0.0007    0.0042
           3   -0.0164   -0.0284   -0.0017    0.0325   -0.0117    0.0163   -0.0200   -0.0347
           4    0.0003   -0.0107    0.0001   -0.0093   -0.0017    0.0214   -0.0035   -0.0149
           5    0.0041   -0.0044   -0.0149   -0.0063   -0.0141    0.0047   -0.0010   -0.0041
           6    0.0215   -0.0253    0.0002    0.0322    0.0102    0.0172    0.0183   -0.0363
           7   -0.0005   -0.0049    0.0016    0.0042    0.0022   -0.0017   -0.0053   -0.0071
           8    0.0020    0.0086   -0.0132    0.0136   -0.0116   -0.0190   -0.0063    0.0104
           9   -0.0518   -0.0129   -0.0237    0.0215    0.0071    0.0268    0.0039    0.0412
          10    0.0013   -0.0046   -0.0018    0.0041   -0.0021   -0.0018    0.0048   -0.0074
          11    0.0032   -0.0076   -0.0132   -0.0137   -0.0131    0.0184   -0.0072   -0.0100
          12    0.0536   -0.0045    0.0234    0.0217   -0.0087    0.0264   -0.0006    0.0409
          13    0.0072   -0.0193   -0.0150   -0.0126   -0.0312    0.0019    0.0402    0.0050
          14   -0.0005    0.0103   -0.0069    0.0084    0.0056    0.0080   -0.0193   -0.0073
          15   -0.0069   -0.0293    0.0304   -0.0061   -0.0423   -0.0202   -0.0114   -0.0058
          16    0.0000    0.0019   -0.0004    0.0178    0.0008   -0.0248    0.0006    0.0030
          17    0.0025   -0.0039   -0.0127   -0.0066   -0.0130    0.0075   -0.0102   -0.0049
          18    0.0301    0.0137    0.0181   -0.0334   -0.0145   -0.0165   -0.0239   -0.0126
          19   -0.0002    0.0019    0.0001    0.0178    0.0010   -0.0248   -0.0002    0.0031
          20    0.0019    0.0047   -0.0127    0.0066   -0.0123   -0.0082   -0.0098    0.0056
          21   -0.0323    0.0087   -0.0171   -0.0337    0.0156   -0.0155    0.0227   -0.0143
          22   -0.0038   -0.0207    0.0146   -0.0121    0.0304    0.0039   -0.0398    0.0070
          23    0.0012   -0.0099   -0.0070   -0.0082    0.0056   -0.0074   -0.0187    0.0082
          24    0.0124   -0.0274   -0.0318   -0.0071    0.0436   -0.0175    0.0105   -0.0065
          25    0.0330    0.0345   -0.0358   -0.0024   -0.0024    0.0072    0.0335    0.0074
          26   -0.0076   -0.0079    0.0428   -0.0378    0.0255    0.0340    0.0317    0.0042
          27    0.0304    0.0476    0.0144   -0.0054    0.0093   -0.0038   -0.0089    0.0012
          28   -0.0380    0.0259    0.0367   -0.0016    0.0026    0.0072   -0.0331    0.0092
          29   -0.0085    0.0046    0.0422    0.0379    0.0281   -0.0328    0.0314   -0.0060
          30   -0.0391    0.0427   -0.0125   -0.0054   -0.0090   -0.0043    0.0087    0.0010
          31    0.0010   -0.0045   -0.0017    0.0042   -0.0019   -0.0022    0.0047   -0.0078
          32    0.0010   -0.0119   -0.0111   -0.0237   -0.0134    0.0387   -0.0063   -0.0227
          33    0.0925    0.0016    0.0434    0.0400   -0.0152    0.0467    0.0025    0.1302
          34   -0.0003   -0.0047    0.0014    0.0043    0.0020   -0.0021   -0.0052   -0.0073
          35   -0.0007    0.0123   -0.0111    0.0238   -0.0104   -0.0396   -0.0045    0.0230
          36   -0.0908   -0.0130   -0.0435    0.0395    0.0130    0.0474    0.0067    0.1304
          37   -0.0067   -0.0712   -0.0139   -0.0186   -0.0825   -0.0392    0.0634    0.0347
          38    0.0057    0.0342   -0.0411    0.0420    0.0240    0.0230   -0.0486   -0.0333
          39   -0.0228   -0.0902    0.0724   -0.0510   -0.0948   -0.0626    0.0395    0.0441
          40   -0.0009    0.0075    0.0003    0.0281    0.0020   -0.0402   -0.0015    0.0120
          41    0.0030   -0.0071   -0.0132   -0.0126   -0.0137    0.0165   -0.0090   -0.0101
          42    0.0564    0.0326    0.0371   -0.0744   -0.0352   -0.0490   -0.0651   -0.0324
          43   -0.0002    0.0076   -0.0005    0.0281    0.0010   -0.0402    0.0027    0.0118
          44    0.0019    0.0081   -0.0131    0.0125   -0.0123   -0.0173   -0.0081    0.0107
          45   -0.0619    0.0233   -0.0349   -0.0752    0.0384   -0.0464    0.0617   -0.0374
          46    0.0186   -0.0684    0.0124   -0.0177    0.0826   -0.0334   -0.0596    0.0371
          47    0.0115   -0.0308   -0.0413   -0.0418    0.0240   -0.0204   -0.0459    0.0352
          48    0.0397   -0.0846   -0.0761   -0.0532    0.0993   -0.0573   -0.0375    0.0471
          49    0.0533    0.0911   -0.0383   -0.0020    0.0735    0.0626    0.0330   -0.0196
          50   -0.0088   -0.0258    0.0774   -0.0759    0.0196    0.0306    0.0895    0.0347
          51    0.0450    0.1048   -0.0256    0.0369    0.0663    0.0370   -0.0727   -0.0501
          52    0.0365    0.0267   -0.0523    0.0066   -0.0501   -0.0424    0.0286    0.0369
          53   -0.0100   -0.0038    0.0514   -0.0417    0.0533    0.0635    0.0332   -0.0145
          54    0.0486    0.0585    0.0416   -0.0498    0.0030   -0.0261    0.0647    0.0634
          55   -0.0396    0.0169    0.0529    0.0079    0.0534   -0.0393   -0.0251    0.0376
          56   -0.0100   -0.0002    0.0505    0.0419    0.0577   -0.0604    0.0346    0.0122
          57   -0.0589    0.0507   -0.0390   -0.0498   -0.0002   -0.0272   -0.0608    0.0687
          58   -0.0679    0.0773    0.0407   -0.0012   -0.0754    0.0573   -0.0354   -0.0169
          59   -0.0128    0.0206    0.0767    0.0758    0.0231   -0.0305    0.0866   -0.0392
          60   -0.0646    0.0967    0.0297    0.0380   -0.0697    0.0337    0.0696   -0.0550


   Root No.       9        10        11        12        13        14        15        16

                 9 A      10 A      11 A      12 A      13 A      14 A      15 A      16 A   

                 480.5     489.2     578.5     588.4     619.8     670.6     769.8     786.9
  
           1    0.0063    0.0033    0.0330    0.0018    0.0039    0.0133    0.0008   -0.0013
           2   -0.0399    0.0012    0.0106   -0.0207   -0.0101   -0.0041   -0.0040   -0.0008
           3   -0.0221    0.0271   -0.0332   -0.0114    0.0165    0.0160    0.0603    0.0195
           4    0.0063   -0.0024    0.0328    0.0007   -0.0047    0.0135   -0.0008   -0.0013
           5    0.0400    0.0014   -0.0095   -0.0214   -0.0099    0.0040   -0.0039    0.0008
           6   -0.0217   -0.0270   -0.0342    0.0087   -0.0148    0.0163   -0.0597    0.0207
           7    0.0284   -0.0080    0.0095    0.0461    0.0246    0.0109    0.0067   -0.0012
           8   -0.0338   -0.0069   -0.0065    0.0095    0.0045   -0.0129   -0.0036   -0.0022
           9    0.0078    0.0253    0.0001    0.0169   -0.0143    0.0039    0.0033   -0.0142
          10    0.0284    0.0085    0.0117   -0.0452   -0.0249    0.0110   -0.0067   -0.0011
          11    0.0338   -0.0064    0.0062    0.0101    0.0043    0.0129   -0.0035    0.0023
          12    0.0082   -0.0254    0.0023   -0.0168    0.0143    0.0039   -0.0038   -0.0142
          13   -0.0260    0.0202   -0.0068   -0.0113    0.0198   -0.0221   -0.0058   -0.0018
          14   -0.0372   -0.0028    0.0403   -0.0238   -0.0219    0.0175    0.0038    0.0006
          15    0.0010   -0.0031    0.0248   -0.0181    0.0173   -0.0234   -0.0138   -0.0058
          16    0.0284    0.0004   -0.0173   -0.0026   -0.0004   -0.0014   -0.0007    0.0020
          17    0.0312   -0.0126   -0.0052    0.0406    0.0219    0.0092   -0.0001    0.0044
          18   -0.0033    0.0415   -0.0038    0.0167   -0.0129    0.0034   -0.0125   -0.0255
          19    0.0285   -0.0005   -0.0175    0.0014    0.0008   -0.0015    0.0008    0.0019
          20   -0.0312   -0.0128    0.0033    0.0407    0.0217   -0.0094   -0.0004   -0.0044
          21   -0.0027   -0.0415   -0.0014   -0.0169    0.0130    0.0033    0.0120   -0.0258
          22   -0.0261   -0.0206   -0.0087    0.0105   -0.0196   -0.0212    0.0056   -0.0018
          23    0.0372   -0.0033   -0.0394   -0.0269   -0.0209   -0.0171    0.0038   -0.0006
          24    0.0009    0.0031    0.0224    0.0201   -0.0188   -0.0233    0.0138   -0.0060
          25   -0.0287    0.0147   -0.0121   -0.0025    0.0025   -0.0025    0.0032    0.0014
          26   -0.0157    0.0161   -0.0069   -0.0059    0.0007   -0.0006    0.0004    0.0012
          27    0.0105   -0.0092    0.0042    0.0027   -0.0044    0.0033   -0.0032   -0.0020
          28   -0.0289   -0.0153   -0.0124    0.0016   -0.0022   -0.0025   -0.0032    0.0015
          29    0.0156    0.0163    0.0072   -0.0054    0.0005    0.0005    0.0004   -0.0012
          30    0.0102    0.0092    0.0045   -0.0024    0.0043    0.0032    0.0031   -0.0020
          31    0.0283    0.0085    0.0113   -0.0448   -0.0251    0.0112   -0.0075   -0.0017
          32    0.0196   -0.0072    0.0414    0.0165   -0.0001    0.0249   -0.0053   -0.0024
          33    0.0485   -0.0553    0.0738   -0.0525    0.0523   -0.0555    0.1713    0.1113
          34    0.0283   -0.0080    0.0092    0.0457    0.0248    0.0110    0.0073   -0.0017
          35   -0.0196   -0.0085   -0.0424    0.0132    0.0010   -0.0247   -0.0052    0.0024
          36    0.0475    0.0547    0.0663    0.0582   -0.0561   -0.0549   -0.1685    0.1142
          37   -0.0662    0.0091   -0.0235   -0.0033   -0.0045   -0.0049    0.0046    0.0017
          38   -0.0469    0.0159    0.0362   -0.0442   -0.0026    0.0046    0.0312    0.0128
          39   -0.0124   -0.0317    0.0170    0.0115   -0.0211    0.0030   -0.0392   -0.0180
          40    0.0004   -0.0047   -0.0282    0.0245    0.0155   -0.0194    0.0045   -0.0023
          41    0.0472   -0.0099    0.0013    0.0250    0.0128    0.0198   -0.0034    0.0066
          42    0.0006    0.1347    0.0230    0.0616   -0.0484   -0.0397    0.0049    0.2207
          43    0.0003    0.0040   -0.0270   -0.0267   -0.0148   -0.0193   -0.0046   -0.0022
          44   -0.0472   -0.0104   -0.0025    0.0246    0.0128   -0.0199   -0.0037   -0.0065
          45    0.0025   -0.1347    0.0315   -0.0594    0.0467   -0.0398   -0.0001    0.2206
          46   -0.0652   -0.0103   -0.0237    0.0013    0.0052   -0.0052   -0.0044    0.0015
          47    0.0472    0.0148   -0.0333   -0.0465   -0.0023   -0.0049    0.0304   -0.0133
          48   -0.0125    0.0315    0.0178   -0.0107    0.0208    0.0027    0.0390   -0.0192
          49    0.0034    0.0557   -0.0699   -0.0049    0.0755   -0.0774   -0.0093   -0.0038
          50   -0.0145    0.0159   -0.0743    0.0368   -0.0153    0.0286    0.0431    0.0179
          51    0.0306    0.0186    0.0392   -0.0457    0.0616   -0.0786   -0.0582   -0.0235
          52   -0.0654   -0.0318    0.0358    0.0120   -0.0967    0.1068    0.0406    0.0162
          53    0.0049    0.0445   -0.0337   -0.0167    0.0612   -0.0676   -0.0229   -0.0081
          54    0.0005   -0.0407   -0.0716    0.0854   -0.1028    0.1312    0.0884    0.0384
          55   -0.0649    0.0311    0.0407   -0.0082    0.0949    0.1027   -0.0398    0.0165
          56   -0.0045    0.0446    0.0370   -0.0137    0.0598    0.0652   -0.0226    0.0083
          57    0.0001    0.0406   -0.0610   -0.0920    0.1093    0.1309   -0.0886    0.0405
          58    0.0023   -0.0562   -0.0729   -0.0009   -0.0731   -0.0750    0.0094   -0.0040
          59    0.0138    0.0175    0.0708    0.0423   -0.0173   -0.0268    0.0417   -0.0184
          60    0.0302   -0.0186    0.0334    0.0498   -0.0656   -0.0787    0.0585   -0.0250


   Root No.      17        18        19        20        21        22        23        24

                17 A      18 A      19 A      20 A      21 A      22 A      23 A      24 A   

                 840.6     842.1     897.7     928.2     953.4     962.7     998.9    1008.5
  
           1   -0.0143   -0.0190   -0.0003    0.0008    0.0009    0.0015   -0.0103   -0.0015
           2    0.0148    0.0057    0.0002   -0.0014    0.0005    0.0019   -0.0136   -0.0011
           3    0.0012   -0.0019   -0.0249    0.0044   -0.0170    0.0121    0.0106   -0.0088
           4    0.0147   -0.0185    0.0003    0.0008   -0.0010    0.0015   -0.0102    0.0018
           5    0.0149   -0.0052    0.0002    0.0014    0.0005   -0.0019    0.0136   -0.0015
           6   -0.0012   -0.0020    0.0249    0.0049    0.0169    0.0127    0.0103    0.0086
           7   -0.0396   -0.0406   -0.0014    0.0060   -0.0015    0.0002    0.0066   -0.0051
           8    0.0214   -0.0172    0.0010   -0.0014    0.0013   -0.0010    0.0016    0.0033
           9    0.0024   -0.0000    0.0283    0.0065    0.0048   -0.0384   -0.0084    0.0288
          10    0.0404   -0.0394    0.0015    0.0059    0.0014    0.0003    0.0066    0.0049
          11    0.0211    0.0178    0.0010    0.0014    0.0012    0.0009   -0.0017    0.0034
          12   -0.0023   -0.0001   -0.0286    0.0062   -0.0038   -0.0385   -0.0090   -0.0286
          13   -0.0091    0.0083   -0.0016   -0.0173    0.0125   -0.0031    0.0025   -0.0014
          14   -0.0300    0.0246    0.0013    0.0108   -0.0102    0.0042   -0.0193   -0.0058
          15   -0.0056    0.0047   -0.0017   -0.0236    0.0197   -0.0026   -0.0115   -0.0049
          16    0.0021    0.0364    0.0004   -0.0016    0.0003    0.0004   -0.0048    0.0008
          17    0.0051    0.0622    0.0007   -0.0012    0.0004    0.0024   -0.0126    0.0021
          18   -0.0011    0.0016   -0.0190   -0.0065   -0.0096    0.0232    0.0041    0.0432
          19   -0.0029    0.0364   -0.0004   -0.0016   -0.0003    0.0004   -0.0047   -0.0006
          20    0.0064   -0.0620    0.0008    0.0011    0.0005   -0.0024    0.0126    0.0017
          21    0.0010    0.0017    0.0192   -0.0062    0.0089    0.0233    0.0029   -0.0433
          22    0.0088    0.0085    0.0017   -0.0167   -0.0120   -0.0035    0.0027    0.0013
          23   -0.0296   -0.0254    0.0013   -0.0104   -0.0098   -0.0044    0.0193   -0.0064
          24    0.0054    0.0048    0.0019   -0.0239   -0.0201   -0.0033   -0.0111    0.0053
          25   -0.0138    0.0120    0.0004   -0.0044    0.0046   -0.0040    0.0081    0.0062
          26   -0.0234    0.0173    0.0022    0.0027   -0.0040   -0.0033    0.0273    0.0020
          27   -0.0000   -0.0008    0.0029   -0.0045    0.0102   -0.0063    0.0079    0.0102
          28    0.0136    0.0124   -0.0003   -0.0043   -0.0043   -0.0040    0.0078   -0.0063
          29   -0.0232   -0.0181    0.0022   -0.0026   -0.0042    0.0031   -0.0272    0.0028
          30    0.0000   -0.0008   -0.0028   -0.0046   -0.0102   -0.0066    0.0077   -0.0106
          31    0.0411   -0.0400    0.0007    0.0062    0.0013   -0.0008    0.0066    0.0045
          32    0.0562   -0.0269   -0.0023    0.0141    0.0080    0.0019   -0.0079    0.0130
          33    0.0151   -0.0010    0.1398   -0.0310    0.0099    0.1751    0.0368    0.0966
          34   -0.0404   -0.0413   -0.0008    0.0062   -0.0014   -0.0006    0.0067   -0.0048
          35    0.0557    0.0284   -0.0023   -0.0143    0.0084   -0.0018    0.0083    0.0127
          36   -0.0150   -0.0018   -0.1392   -0.0326   -0.0147    0.1756    0.0346   -0.0979
          37    0.0029    0.0273    0.0102    0.1157   -0.0982    0.0337   -0.0528   -0.0239
          38   -0.0286    0.0292   -0.0380   -0.0804    0.0734    0.0097   -0.0654   -0.0261
          39    0.0011    0.0111    0.0522    0.1687   -0.1496    0.0142    0.0075    0.0049
          40   -0.0336    0.0046   -0.0011   -0.0084   -0.0023   -0.0051    0.0134   -0.0087
          41    0.0271    0.0815    0.0014    0.0027    0.0020    0.0058   -0.0236    0.0082
          42    0.0071   -0.0116    0.1249    0.0350    0.0509   -0.1066   -0.0156   -0.1548
          43    0.0335    0.0054    0.0010   -0.0084    0.0028   -0.0051    0.0136    0.0083
          44    0.0288   -0.0809    0.0016   -0.0027    0.0024   -0.0058    0.0236    0.0074
          45   -0.0069   -0.0121   -0.1260    0.0334   -0.0475   -0.1076   -0.0111    0.1550
          46   -0.0036    0.0267   -0.0109    0.1119    0.0936    0.0354   -0.0521    0.0249
          47   -0.0276   -0.0301   -0.0378    0.0779    0.0730   -0.0072    0.0642   -0.0275
          48   -0.0013    0.0109   -0.0545    0.1706    0.1524    0.0192    0.0066   -0.0048
          49    0.0764   -0.0302   -0.0002    0.0770   -0.0828    0.0402   -0.0942   -0.0465
          50    0.0495   -0.0335   -0.0286   -0.0542    0.0470    0.0055   -0.0616   -0.0027
          51   -0.0183    0.0259    0.0356    0.1121   -0.1038    0.0143    0.0353   -0.0204
          52   -0.1091    0.0590    0.0004    0.0048   -0.0206   -0.0086    0.1007   -0.0022
          53    0.0297   -0.0075    0.0029   -0.0028    0.0114   -0.0016   -0.0248    0.0080
          54    0.0712   -0.0660   -0.0434   -0.0026   -0.0237    0.0436   -0.0863   -0.0536
          55    0.1094    0.0637   -0.0009    0.0049    0.0216   -0.0084    0.1016   -0.0013
          56    0.0300    0.0090    0.0027    0.0029    0.0116    0.0017    0.0252    0.0071
          57   -0.0682   -0.0661    0.0435   -0.0018    0.0230    0.0440   -0.0833    0.0566
          58   -0.0761   -0.0329   -0.0003    0.0747    0.0793    0.0418   -0.0942    0.0492
          59    0.0492    0.0344   -0.0286    0.0524    0.0467   -0.0042    0.0609   -0.0044
          60    0.0172    0.0256   -0.0369    0.1131    0.1061    0.0182    0.0336    0.0210


   Root No.      25        26        27        28        29        30        31        32

                25 A      26 A      27 A      28 A      29 A      30 A      31 A      32 A   

                1032.8    1037.1    1039.3    1109.1    1112.0    1156.4    1164.6    1202.3
  
           1    0.0004    0.0049   -0.0026   -0.0038    0.0211   -0.0091   -0.0178    0.0132
           2   -0.0006    0.0050   -0.0037   -0.0078    0.0034    0.0027   -0.0106    0.0066
           3   -0.0043   -0.0207    0.0022   -0.0039    0.0025    0.0005   -0.0048    0.0052
           4    0.0005   -0.0049    0.0027    0.0034    0.0210    0.0099   -0.0173   -0.0153
           5    0.0005    0.0050   -0.0039   -0.0077   -0.0036    0.0023    0.0104    0.0054
           6   -0.0056    0.0203   -0.0022    0.0037    0.0025   -0.0003   -0.0045   -0.0051
           7   -0.0055    0.0104   -0.0133    0.0217   -0.0291   -0.0051    0.0089    0.0091
           8    0.0012   -0.0071    0.0083    0.0001   -0.0074   -0.0009   -0.0072    0.0050
           9    0.0041    0.0140    0.0003    0.0013   -0.0009   -0.0002    0.0012   -0.0012
          10   -0.0055   -0.0108    0.0130   -0.0211   -0.0297    0.0044    0.0094   -0.0084
          11   -0.0012   -0.0072    0.0083   -0.0000    0.0075   -0.0012    0.0072    0.0039
          12    0.0050   -0.0137   -0.0002   -0.0012   -0.0009    0.0001    0.0011    0.0012
          13    0.0141    0.0080    0.0122    0.0006   -0.0024    0.0002   -0.0035    0.0067
          14   -0.0101    0.0134   -0.0265    0.0077    0.0002   -0.0029   -0.0086    0.0260
          15    0.0185    0.0217    0.0078    0.0057   -0.0058    0.0002   -0.0000    0.0080
          16    0.0012   -0.0003    0.0027   -0.0221    0.0044    0.0011    0.0005    0.0006
          17   -0.0014   -0.0037    0.0069   -0.0232    0.0026   -0.0021   -0.0049   -0.0112
          18   -0.0020    0.0115    0.0004    0.0006    0.0002   -0.0000   -0.0001   -0.0003
          19    0.0013    0.0004   -0.0026    0.0220    0.0048   -0.0011    0.0004    0.0009
          20    0.0014   -0.0035    0.0068   -0.0232   -0.0031   -0.0023    0.0053   -0.0107
          21   -0.0012   -0.0116   -0.0004   -0.0006    0.0002    0.0000   -0.0002    0.0003
          22    0.0147   -0.0070   -0.0116   -0.0004   -0.0022   -0.0001   -0.0033   -0.0062
          23    0.0103    0.0141   -0.0262    0.0078    0.0001   -0.0032    0.0077    0.0263
          24    0.0203   -0.0209   -0.0076   -0.0055   -0.0059   -0.0003    0.0002   -0.0078
          25   -0.0219   -0.0150   -0.0148   -0.0002    0.0004   -0.0007   -0.0055    0.0124
          26    0.0146   -0.0083    0.0238   -0.0002   -0.0062    0.0021    0.0110   -0.0160
          27   -0.0297   -0.0205   -0.0170   -0.0031    0.0015   -0.0001    0.0090   -0.0167
          28   -0.0226    0.0136    0.0138    0.0001    0.0002    0.0009   -0.0053   -0.0125
          29   -0.0148   -0.0091    0.0233   -0.0005    0.0060    0.0025   -0.0105   -0.0164
          30   -0.0319    0.0195    0.0163    0.0030    0.0017   -0.0002    0.0083    0.0162
          31   -0.0055   -0.0113    0.0134   -0.0247   -0.0311    0.0050    0.0093   -0.0095
          32    0.0036   -0.0444    0.0234    0.2119    0.1050    0.1683    0.1225    0.0215
          33   -0.0223    0.0408    0.0048    0.0066    0.0062    0.0023   -0.0034   -0.0032
          34   -0.0056    0.0109   -0.0138    0.0251   -0.0304   -0.0058    0.0088    0.0101
          35   -0.0025   -0.0445    0.0233    0.2146   -0.1018    0.1707   -0.1191    0.0002
          36   -0.0196   -0.0422   -0.0052   -0.0069    0.0063   -0.0021   -0.0038    0.0036
          37   -0.0432    0.0225   -0.0843    0.0294   -0.0479   -0.0051    0.1575   -0.2257
          38    0.0155    0.0719   -0.0285    0.0313   -0.0510   -0.0042    0.1251   -0.1418
          39   -0.0484   -0.0383   -0.0512   -0.0045    0.0272   -0.0018   -0.0605    0.0675
          40    0.0210    0.0291   -0.0241   -0.1279    0.1783    0.2393    0.0509   -0.0042
          41   -0.0129   -0.0215    0.0235    0.0364   -0.0967   -0.1406   -0.0334   -0.0096
          42    0.0071   -0.0323   -0.0022   -0.0013   -0.0002    0.0002   -0.0000   -0.0000
          43    0.0215   -0.0276    0.0250    0.1242    0.1828   -0.2391    0.0453   -0.0029
          44    0.0131   -0.0206    0.0240    0.0344    0.0986   -0.1409    0.0307   -0.0143
          45    0.0047    0.0326    0.0024    0.0014   -0.0003   -0.0001    0.0000    0.0000
          46   -0.0446   -0.0247    0.0815   -0.0276   -0.0486   -0.0008    0.1541    0.2272
          47   -0.0178    0.0707   -0.0293    0.0295    0.0507    0.0005   -0.1213   -0.1417
          48   -0.0541    0.0365    0.0513    0.0034    0.0262    0.0041   -0.0565   -0.0654
          49    0.0730    0.0940   -0.0009    0.0244   -0.0091    0.0020   -0.0284    0.0599
          50   -0.0512    0.0125   -0.0684    0.0063    0.0015   -0.0036   -0.0076    0.0305
          51    0.1054    0.0304    0.0924    0.0050   -0.0124    0.0070    0.0159   -0.0396
          52    0.0924   -0.0114    0.1153    0.0103   -0.0238    0.0127    0.0152   -0.0171
          53   -0.0556   -0.0130   -0.0543   -0.0053    0.0065   -0.0053    0.0005    0.0004
          54    0.1124    0.1043    0.0464   -0.0006    0.0093   -0.0078   -0.0144    0.0188
          55    0.0940    0.0171   -0.1118   -0.0098   -0.0240   -0.0139    0.0145    0.0173
          56    0.0570   -0.0097   -0.0518   -0.0052   -0.0065   -0.0055   -0.0007    0.0001
          57    0.1217   -0.0993   -0.0444    0.0004    0.0091    0.0084   -0.0133   -0.0184
          58    0.0751   -0.0906    0.0059   -0.0242   -0.0095   -0.0010   -0.0268   -0.0608
          59    0.0519    0.0150   -0.0661    0.0065   -0.0008   -0.0037    0.0064    0.0302
          60    0.1122   -0.0277   -0.0893   -0.0049   -0.0121   -0.0075    0.0142    0.0386


   Root No.      33        34        35        36        37        38        39        40

                33 A      34 A      35 A      36 A      37 A      38 A      39 A      40 A   

                1209.5    1288.8    1312.8    1366.9    1390.6    1407.2    1571.9    1628.1
  
           1    0.0153   -0.0236    0.0055    0.0348    0.0834   -0.0112   -0.0157    0.0601
           2   -0.0174   -0.0156    0.0149    0.0153   -0.0360    0.0493    0.0803    0.0663
           3   -0.0020   -0.0003    0.0017   -0.0003   -0.0012    0.0020    0.0013    0.0012
           4    0.0144   -0.0234   -0.0057    0.0341   -0.0857    0.0116   -0.0149   -0.0601
           5    0.0178    0.0158    0.0151   -0.0157   -0.0365    0.0494   -0.0803    0.0662
           6   -0.0023   -0.0003   -0.0017   -0.0003    0.0012   -0.0020    0.0013   -0.0012
           7   -0.0015    0.0143    0.0122   -0.0216    0.0129    0.0279    0.0517    0.0132
           8   -0.0169   -0.0114    0.0051    0.0152    0.1084    0.0238    0.0138   -0.0588
           9    0.0003    0.0000   -0.0001    0.0000   -0.0001   -0.0001   -0.0000    0.0000
          10   -0.0019    0.0143   -0.0120   -0.0216   -0.0114   -0.0282    0.0517   -0.0130
          11    0.0172    0.0111    0.0052   -0.0143    0.1102    0.0236   -0.0139   -0.0592
          12    0.0003    0.0000    0.0000    0.0000    0.0001    0.0001    0.0000   -0.0001
          13   -0.0047   -0.0075    0.0156   -0.0144   -0.0061   -0.0054    0.0033    0.0070
          14    0.0022    0.0188   -0.0012   -0.0288   -0.0094   -0.0288   -0.0259   -0.0194
          15   -0.0006    0.0148   -0.0112   -0.0049   -0.0024   -0.0063   -0.0070   -0.0164
          16   -0.0184   -0.0065   -0.0083    0.0111    0.0743   -0.0415   -0.0431    0.0479
          17    0.0040   -0.0005   -0.0125   -0.0041   -0.0626   -0.0316    0.0661    0.0079
          18   -0.0001    0.0001    0.0001    0.0000   -0.0001   -0.0000   -0.0001    0.0001
          19   -0.0185   -0.0062    0.0082    0.0104   -0.0746    0.0416   -0.0424   -0.0481
          20   -0.0046    0.0006   -0.0125    0.0036   -0.0627   -0.0315   -0.0660    0.0075
          21   -0.0000    0.0001   -0.0001    0.0000    0.0002   -0.0000   -0.0001   -0.0001
          22   -0.0050   -0.0078   -0.0157   -0.0143    0.0065    0.0052    0.0033   -0.0073
          23   -0.0007   -0.0190   -0.0016    0.0288   -0.0100   -0.0288    0.0260   -0.0194
          24   -0.0011    0.0144    0.0110   -0.0048    0.0028    0.0060   -0.0068    0.0160
          25   -0.0038    0.0053    0.0056   -0.0203   -0.0085   -0.0146   -0.0120   -0.0273
          26    0.0007   -0.0044    0.0018    0.0003   -0.0009    0.0013    0.0009   -0.0048
          27    0.0039   -0.0061   -0.0034    0.0156    0.0069    0.0106    0.0078    0.0180
          28   -0.0047    0.0055   -0.0055   -0.0207    0.0094    0.0146   -0.0121    0.0276
          29   -0.0017    0.0044    0.0018   -0.0005   -0.0010    0.0014   -0.0009   -0.0047
          30    0.0048   -0.0060    0.0032    0.0152   -0.0074   -0.0102    0.0077   -0.0174
          31   -0.0004    0.0151   -0.0140   -0.0237   -0.0133   -0.0327    0.0617   -0.0177
          32   -0.2098    0.0255    0.0013   -0.0015    0.0013   -0.0840   -0.0010    0.0886
          33   -0.0038    0.0025    0.0031    0.0017    0.0007   -0.0012   -0.0000    0.0001
          34   -0.0001    0.0152    0.0141   -0.0237    0.0150    0.0324    0.0617    0.0179
          35    0.2104   -0.0254    0.0009    0.0019    0.0017   -0.0840    0.0004    0.0884
          36   -0.0036    0.0025   -0.0031    0.0017   -0.0005    0.0011    0.0000   -0.0000
          37    0.0593   -0.0463   -0.0047    0.0453    0.0686   -0.0015   -0.0067    0.0096
          38    0.0450   -0.0078   -0.0179    0.0120    0.0337   -0.0223   -0.0291   -0.0270
          39   -0.0122    0.0256   -0.0055   -0.0194   -0.0120   -0.0136   -0.0130   -0.0121
          40    0.0979    0.0379    0.0004   -0.0433    0.0202    0.0050    0.1074   -0.0181
          41   -0.0644   -0.0261   -0.0201    0.0271   -0.0347   -0.0679   -0.0137    0.0530
          42   -0.0000   -0.0003   -0.0003   -0.0001    0.0003   -0.0002    0.0004   -0.0000
          43    0.0972    0.0379    0.0001   -0.0434   -0.0181   -0.0053    0.1074    0.0185
          44    0.0634    0.0260   -0.0197   -0.0273   -0.0333   -0.0680    0.0134    0.0529
          45   -0.0000   -0.0003    0.0003   -0.0001   -0.0007    0.0002    0.0004    0.0000
          46    0.0740   -0.0474    0.0042    0.0454   -0.0716    0.0022   -0.0063   -0.0097
          47   -0.0541    0.0079   -0.0179   -0.0118    0.0352   -0.0231    0.0295   -0.0270
          48   -0.0157    0.0250    0.0056   -0.0186    0.0120    0.0131   -0.0127    0.0116
          49    0.0006    0.1219   -0.1391    0.0665    0.0071    0.0308    0.0035    0.0047
          50    0.0035    0.0958   -0.1228    0.0762    0.0152    0.0382    0.0090    0.0252
          51    0.0034   -0.0492    0.0509   -0.0181   -0.0019   -0.0036    0.0091    0.0078
          52    0.0085    0.0828   -0.1239    0.0885    0.0165    0.0487    0.0133    0.0122
          53   -0.0056   -0.0393    0.0636   -0.0551   -0.0145   -0.0317   -0.0139   -0.0298
          54   -0.0063   -0.0795    0.1202   -0.0890   -0.0141   -0.0530   -0.0214   -0.0207
          55    0.0096    0.0840    0.1261    0.0909   -0.0180   -0.0498    0.0138   -0.0126
          56    0.0057    0.0397    0.0644    0.0561   -0.0158   -0.0320    0.0141   -0.0298
          57   -0.0072   -0.0769   -0.1169   -0.0875    0.0154    0.0517   -0.0210    0.0201
          58   -0.0029    0.1223    0.1399    0.0676   -0.0083   -0.0309    0.0031   -0.0045
          59   -0.0018   -0.0951   -0.1225   -0.0768    0.0168    0.0381   -0.0091    0.0252
          60    0.0057   -0.0477   -0.0494   -0.0176    0.0021    0.0034    0.0090   -0.0076


   Root No.      41        42        43        44        45        46        47        48

                41 A      42 A      43 A      44 A      45 A      46 A      47 A      48 A   

                1775.6    1801.2    1855.0    1862.9    3031.2    3032.2    3048.2    3049.4
  
           1    0.1130    0.0263   -0.0135   -0.0379    0.0002    0.0003    0.0006    0.0003
           2   -0.0295   -0.0878   -0.0266   -0.0276   -0.0002    0.0000   -0.0005   -0.0013
           3   -0.0007   -0.0009    0.0019    0.0022    0.0000   -0.0001    0.0000    0.0000
           4   -0.1127    0.0263   -0.0151    0.0376   -0.0004    0.0000    0.0006   -0.0001
           5   -0.0289    0.0874    0.0275   -0.0259   -0.0001   -0.0002    0.0008   -0.0011
           6    0.0006   -0.0008    0.0019   -0.0021    0.0001   -0.0001    0.0000   -0.0000
           7   -0.0475    0.0019    0.0015    0.0034   -0.0003   -0.0014   -0.0215   -0.0331
           8    0.0001    0.1306    0.0111    0.0107    0.0001    0.0005    0.0003    0.0005
           9    0.0000   -0.0001   -0.0010   -0.0007    0.0000   -0.0001   -0.0001   -0.0001
          10    0.0475    0.0017    0.0016   -0.0035    0.0013   -0.0006   -0.0301    0.0248
          11   -0.0009   -0.1294   -0.0113    0.0095    0.0005   -0.0002   -0.0004    0.0004
          12    0.0000   -0.0001   -0.0010    0.0006    0.0001   -0.0001   -0.0001    0.0001
          13    0.0136   -0.0143    0.0983    0.0991    0.0077    0.0221   -0.0003   -0.0004
          14    0.0055    0.0069    0.0424    0.0435   -0.0123   -0.0359    0.0006    0.0008
          15   -0.0123    0.0105   -0.0521   -0.0507   -0.0110   -0.0322    0.0004    0.0005
          16   -0.1115   -0.0339   -0.0027    0.0089   -0.0002   -0.0000    0.0077   -0.0045
          17    0.0348    0.0660    0.0037   -0.0037   -0.0002    0.0001    0.0116   -0.0055
          18   -0.0000    0.0001   -0.0001    0.0002    0.0000   -0.0000    0.0000   -0.0000
          19    0.1113   -0.0353   -0.0025   -0.0092    0.0001    0.0001    0.0061    0.0070
          20    0.0343   -0.0667   -0.0036   -0.0042   -0.0001   -0.0002   -0.0096   -0.0094
          21    0.0000    0.0001   -0.0001   -0.0002   -0.0000   -0.0000    0.0000    0.0000
          22   -0.0140   -0.0135    0.1030   -0.0965   -0.0229    0.0076   -0.0004    0.0003
          23    0.0054   -0.0073   -0.0436    0.0415   -0.0364    0.0124   -0.0008    0.0006
          24    0.0120    0.0096   -0.0525    0.0475    0.0315   -0.0107    0.0005   -0.0003
          25   -0.0207    0.0163   -0.0818   -0.0792   -0.0004   -0.0011   -0.0001   -0.0002
          26   -0.0062    0.0018   -0.0182   -0.0173    0.0010    0.0031    0.0002    0.0003
          27    0.0135   -0.0102    0.0525    0.0509    0.0008    0.0022    0.0002    0.0002
          28    0.0211    0.0155   -0.0858    0.0772    0.0012   -0.0004   -0.0002    0.0002
          29   -0.0061   -0.0015    0.0184   -0.0162    0.0031   -0.0011   -0.0003    0.0002
          30   -0.0132   -0.0093    0.0529   -0.0477   -0.0022    0.0007    0.0002   -0.0002
          31    0.0551    0.0017    0.0016   -0.0028   -0.0152    0.0069    0.3440   -0.2833
          32    0.0025    0.0532    0.0088   -0.0114    0.0002   -0.0000    0.0031   -0.0022
          33   -0.0007   -0.0004    0.0024   -0.0019   -0.0003    0.0001    0.0017   -0.0014
          34   -0.0550    0.0021    0.0015    0.0027    0.0039    0.0161    0.2455    0.3787
          35    0.0022   -0.0534   -0.0084   -0.0120    0.0001    0.0002   -0.0021   -0.0028
          36    0.0008   -0.0004    0.0023    0.0020    0.0000    0.0003    0.0009    0.0014
          37    0.0230    0.0089   -0.0061   -0.0083   -0.0763   -0.2251    0.0029    0.0036
          38   -0.0022    0.0251   -0.0569   -0.0566    0.1488    0.4344   -0.0053   -0.0066
          39   -0.0056    0.0063   -0.0278   -0.0278    0.1240    0.3618   -0.0045   -0.0057
          40    0.0243    0.0446    0.0027   -0.0009    0.0017   -0.0002   -0.0842    0.0455
          41   -0.0497    0.0291    0.0007    0.0025    0.0028   -0.0003   -0.1429    0.0735
          42   -0.0000   -0.0001    0.0006   -0.0000   -0.0000    0.0001   -0.0002    0.0001
          43   -0.0239    0.0449    0.0026    0.0013   -0.0008   -0.0016   -0.0675   -0.0729
          44   -0.0499   -0.0289   -0.0008    0.0023    0.0013    0.0025    0.1155    0.1202
          45    0.0001   -0.0002    0.0006    0.0001   -0.0000    0.0000   -0.0001   -0.0001
          46   -0.0233    0.0088   -0.0060    0.0076    0.2326   -0.0799    0.0039   -0.0027
          47   -0.0020   -0.0246    0.0594   -0.0550    0.4396   -0.1493    0.0070   -0.0047
          48    0.0055    0.0058   -0.0283    0.0263   -0.3539    0.1201   -0.0058    0.0039
          49   -0.0007   -0.0011    0.0008    0.0006   -0.0010   -0.0028    0.0016    0.0024
          50    0.0190   -0.0123    0.0719    0.0695    0.0006    0.0017   -0.0025   -0.0037
          51    0.0025   -0.0097    0.0306    0.0308    0.0010    0.0031   -0.0025   -0.0037
          52   -0.0017   -0.0006   -0.0165   -0.0169   -0.0083   -0.0242    0.0005    0.0007
          53   -0.0207    0.0137   -0.0694   -0.0663   -0.0162   -0.0479    0.0010    0.0014
          54   -0.0019    0.0112   -0.0195   -0.0190   -0.0014   -0.0041    0.0002    0.0003
          55    0.0017   -0.0011   -0.0165    0.0157    0.0240   -0.0082    0.0006   -0.0005
          56   -0.0208   -0.0130    0.0720   -0.0640   -0.0478    0.0164   -0.0014    0.0010
          57    0.0019    0.0107   -0.0199    0.0180    0.0041   -0.0014    0.0003   -0.0002
          58    0.0006   -0.0008    0.0001    0.0002    0.0028   -0.0009    0.0024   -0.0020
          59    0.0191    0.0117   -0.0748    0.0672    0.0016   -0.0005    0.0037   -0.0029
          60   -0.0025   -0.0093    0.0311   -0.0291   -0.0029    0.0010   -0.0036    0.0029


   Root No.      49        50        51        52        53        54

                49 A      50 A      51 A      52 A      53 A      54 A   

                3062.8    3077.0    3134.4    3134.6    3145.6    3145.7
  
           1    0.0003    0.0000   -0.0001    0.0004   -0.0001    0.0004
           2   -0.0007    0.0009    0.0000    0.0001   -0.0001    0.0002
           3    0.0000   -0.0000    0.0000   -0.0002    0.0000   -0.0001
           4    0.0003   -0.0000   -0.0004   -0.0000   -0.0003   -0.0002
           5    0.0007    0.0008    0.0001    0.0001    0.0002    0.0001
           6    0.0000    0.0000    0.0002    0.0000    0.0001    0.0001
           7   -0.0139    0.0112    0.0001   -0.0009   -0.0001    0.0002
           8   -0.0009    0.0013   -0.0000    0.0001   -0.0000    0.0000
           9   -0.0000    0.0000   -0.0000   -0.0000    0.0000   -0.0000
          10   -0.0135   -0.0110    0.0010    0.0001   -0.0002   -0.0001
          11    0.0009    0.0013    0.0001   -0.0000    0.0000    0.0000
          12   -0.0001   -0.0000    0.0000    0.0000    0.0000    0.0000
          13   -0.0001    0.0000    0.0003   -0.0032   -0.0022    0.0048
          14    0.0003   -0.0002    0.0001   -0.0016    0.0008   -0.0017
          15    0.0001   -0.0000   -0.0002    0.0016    0.0020   -0.0043
          16   -0.0119   -0.0163    0.0000   -0.0000   -0.0000    0.0000
          17   -0.0235   -0.0264    0.0001   -0.0000   -0.0000    0.0000
          18   -0.0000   -0.0000    0.0000   -0.0000    0.0000    0.0000
          19   -0.0117    0.0163    0.0000   -0.0000   -0.0000   -0.0000
          20    0.0233   -0.0265   -0.0000    0.0000    0.0000    0.0000
          21   -0.0000    0.0000    0.0000    0.0000    0.0000   -0.0000
          22   -0.0001   -0.0000    0.0032    0.0002   -0.0049   -0.0023
          23   -0.0003   -0.0002   -0.0016   -0.0002   -0.0017   -0.0008
          24    0.0001    0.0000   -0.0015   -0.0001    0.0042    0.0019
          25   -0.0001    0.0000   -0.0021    0.0216    0.0122   -0.0265
          26    0.0001   -0.0001    0.0041   -0.0476    0.0147   -0.0314
          27    0.0001   -0.0001    0.0034   -0.0379   -0.0024    0.0053
          28   -0.0001   -0.0001   -0.0221   -0.0018    0.0266    0.0124
          29   -0.0001   -0.0001   -0.0482   -0.0045   -0.0313   -0.0143
          30    0.0001    0.0001    0.0369    0.0033   -0.0052   -0.0025
          31    0.1499    0.1138   -0.0115   -0.0006    0.0022    0.0009
          32   -0.0009   -0.0012    0.0008    0.0001    0.0001    0.0001
          33    0.0007    0.0006    0.0005    0.0000    0.0001    0.0000
          34    0.1539   -0.1161   -0.0013    0.0107    0.0011   -0.0019
          35    0.0010   -0.0013   -0.0001    0.0008   -0.0000    0.0001
          36    0.0005   -0.0004    0.0000   -0.0005    0.0000   -0.0001
          37    0.0012   -0.0002    0.0004   -0.0067    0.0077   -0.0162
          38   -0.0021    0.0003   -0.0003    0.0055   -0.0127    0.0271
          39   -0.0018    0.0003   -0.0006    0.0076   -0.0113    0.0240
          40    0.1491    0.1709   -0.0001    0.0003    0.0000   -0.0003
          41    0.2624    0.2925   -0.0005    0.0004    0.0001   -0.0004
          42    0.0003    0.0004   -0.0000    0.0000    0.0000    0.0000
          43    0.1477   -0.1714   -0.0003    0.0001    0.0002    0.0002
          44   -0.2597    0.2931    0.0005   -0.0004   -0.0003   -0.0003
          45    0.0002   -0.0003   -0.0000    0.0000    0.0000   -0.0000
          46    0.0011    0.0003    0.0070    0.0008    0.0168    0.0075
          47    0.0020    0.0004    0.0059    0.0007    0.0273    0.0125
          48   -0.0016   -0.0004   -0.0077   -0.0008   -0.0234   -0.0107
          49    0.0012   -0.0007    0.0254   -0.2832   -0.0122    0.0283
          50   -0.0019    0.0010   -0.0436    0.4852    0.0309   -0.0700
          51   -0.0019    0.0011   -0.0389    0.4338    0.0232   -0.0530
          52    0.0003    0.0001   -0.0046    0.0654   -0.1132    0.2432
          53    0.0006    0.0001   -0.0060    0.0917   -0.2023    0.4348
          54    0.0001   -0.0001    0.0007   -0.0064   -0.0084    0.0182
          55    0.0003   -0.0001   -0.0677   -0.0074   -0.2425   -0.1119
          56   -0.0006    0.0001    0.0961    0.0110    0.4360    0.2014
          57    0.0001    0.0001    0.0059    0.0004   -0.0188   -0.0087
          58    0.0013    0.0008    0.2918    0.0259   -0.0304   -0.0150
          59    0.0020    0.0011    0.4874    0.0431   -0.0721   -0.0348
          60   -0.0019   -0.0011   -0.4226   -0.0375    0.0532    0.0259


           MASS-WEIGHTED COORDINATE ANALYSIS (NORMAL COORDINATES)


   Root No.       1         2         3         4         5         6         7         8

                 1 A       2 A       3 A       4 A       5 A       6 A       7 A       8 A   

                 104.2     107.9     124.7     203.8     275.9     298.3     378.1     401.8
  
           1    0.0101   -0.0807   -0.0023   -0.0777    0.0003    0.1882    0.0175   -0.1315
           2    0.0246    0.0435   -0.1162    0.0516   -0.1106   -0.0476   -0.0053    0.0360
           3   -0.1227   -0.2175   -0.0135    0.2716   -0.0957    0.1433   -0.1580   -0.3004
           4    0.0020   -0.0815    0.0010   -0.0776   -0.0136    0.1873   -0.0277   -0.1296
           5    0.0305   -0.0336   -0.1167   -0.0529   -0.1154    0.0411   -0.0082   -0.0351
           6    0.1608   -0.1934    0.0014    0.2695    0.0835    0.1511    0.1445   -0.3148
           7   -0.0039   -0.0372    0.0123    0.0350    0.0179   -0.0147   -0.0420   -0.0617
           8    0.0148    0.0656   -0.1033    0.1140   -0.0944   -0.1669   -0.0499    0.0901
           9   -0.3882   -0.0988   -0.1856    0.1795    0.0582    0.2348    0.0308    0.3575
          10    0.0096   -0.0353   -0.0141    0.0343   -0.0174   -0.0157    0.0380   -0.0644
          11    0.0238   -0.0579   -0.1036   -0.1146   -0.1071    0.1614   -0.0568   -0.0870
          12    0.4014   -0.0341    0.1830    0.1811   -0.0706    0.2314   -0.0049    0.3548
          13    0.0536   -0.1473   -0.1172   -0.1055   -0.2549    0.0167    0.3176    0.0434
          14   -0.0038    0.0790   -0.0538    0.0698    0.0456    0.0702   -0.1524   -0.0629
          15   -0.0518   -0.2243    0.2377   -0.0510   -0.3454   -0.1772   -0.0900   -0.0506
          16    0.0003    0.0148   -0.0028    0.1488    0.0067   -0.2176    0.0051    0.0263
          17    0.0191   -0.0295   -0.0998   -0.0554   -0.1058    0.0656   -0.0808   -0.0426
          18    0.2253    0.1045    0.1417   -0.2795   -0.1187   -0.1450   -0.1890   -0.1095
          19   -0.0018    0.0144    0.0010    0.1489    0.0081   -0.2178   -0.0013    0.0266
          20    0.0142    0.0362   -0.0995    0.0551   -0.1001   -0.0720   -0.0777    0.0482
          21   -0.2422    0.0668   -0.1335   -0.2821    0.1276   -0.1363    0.1795   -0.1244
          22   -0.0285   -0.1586    0.1146   -0.1010    0.2481    0.0346   -0.3142    0.0609
          23    0.0093   -0.0759   -0.0552   -0.0688    0.0458   -0.0652   -0.1478    0.0713
          24    0.0929   -0.2094   -0.2489   -0.0592    0.3559   -0.1538    0.0828   -0.0566
          25    0.2475    0.2635   -0.2805   -0.0201   -0.0195    0.0633    0.2652    0.0640
          26   -0.0567   -0.0602    0.3353   -0.3158    0.2081    0.2981    0.2505    0.0365
          27    0.2278    0.3640    0.1126   -0.0454    0.0755   -0.0337   -0.0700    0.0108
          28   -0.2851    0.1977    0.2873   -0.0130    0.0211    0.0633   -0.2619    0.0797
          29   -0.0638    0.0355    0.3306    0.3167    0.2297   -0.2877    0.2479   -0.0516
          30   -0.2926    0.3263   -0.0981   -0.0449   -0.0735   -0.0381    0.0687    0.0086
          31    0.0021   -0.0101   -0.0039    0.0102   -0.0045   -0.0056    0.0107   -0.0195
          32    0.0022   -0.0263   -0.0251   -0.0575   -0.0316    0.0984   -0.0145   -0.0571
          33    0.2007    0.0035    0.0985    0.0969   -0.0359    0.1186    0.0057    0.3270
          34   -0.0006   -0.0105    0.0033    0.0105    0.0047   -0.0053   -0.0119   -0.0184
          35   -0.0015    0.0274   -0.0252    0.0576   -0.0245   -0.1005   -0.0103    0.0578
          36   -0.1971   -0.0287   -0.0988    0.0957    0.0307    0.1205    0.0153    0.3275
          37   -0.0145   -0.1578   -0.0316   -0.0451   -0.1952   -0.0996    0.1452    0.0872
          38    0.0124    0.0758   -0.0931    0.1018    0.0567    0.0583   -0.1113   -0.0835
          39   -0.0494   -0.1999    0.1641   -0.1234   -0.2242   -0.1592    0.0904    0.1108
          40   -0.0018    0.0167    0.0007    0.0682    0.0048   -0.1022   -0.0034    0.0301
          41    0.0066   -0.0157   -0.0299   -0.0304   -0.0325    0.0420   -0.0206   -0.0254
          42    0.1225    0.0722    0.0842   -0.1802   -0.0831   -0.1244   -0.1492   -0.0813
          43   -0.0004    0.0169   -0.0012    0.0681    0.0024   -0.1022    0.0063    0.0297
          44    0.0041    0.0179   -0.0298    0.0303   -0.0291   -0.0439   -0.0186    0.0268
          45   -0.1344    0.0516   -0.0792   -0.1820    0.0907   -0.1180    0.1414   -0.0939
          46    0.0404   -0.1516    0.0281   -0.0430    0.1954   -0.0848   -0.1364    0.0932
          47    0.0250   -0.0683   -0.0936   -0.1012    0.0568   -0.0520   -0.1050    0.0883
          48    0.0861   -0.1875   -0.1726   -0.1289    0.2347   -0.1455   -0.0859    0.1182
          49    0.1157    0.2018   -0.0868   -0.0048    0.1739    0.1591    0.0754   -0.0493
          50   -0.0190   -0.0571    0.1756   -0.1839    0.0465    0.0779    0.2050    0.0871
          51    0.0976    0.2321   -0.0580    0.0895    0.1567    0.0939   -0.1665   -0.1259
          52    0.0791    0.0592   -0.1187    0.0159   -0.1184   -0.1077    0.0655    0.0927
          53   -0.0218   -0.0084    0.1166   -0.1009    0.1260    0.1613    0.0760   -0.0363
          54    0.1056    0.1296    0.0944   -0.1207    0.0071   -0.0664    0.1482    0.1591
          55   -0.0859    0.0375    0.1199    0.0191    0.1262   -0.0998   -0.0574    0.0944
          56   -0.0217   -0.0005    0.1146    0.1016    0.1364   -0.1535    0.0793    0.0307
          57   -0.1278    0.1124   -0.0884   -0.1207   -0.0005   -0.0690   -0.1393    0.1725
          58   -0.1474    0.1712    0.0923   -0.0029   -0.1783    0.1456   -0.0810   -0.0425
          59   -0.0277    0.0456    0.1739    0.1836    0.0546   -0.0776    0.1982   -0.0985
          60   -0.1402    0.2143    0.0673    0.0921   -0.1648    0.0857    0.1594   -0.1381


   Root No.       9        10        11        12        13        14        15        16

                 9 A      10 A      11 A      12 A      13 A      14 A      15 A      16 A   

                 480.5     489.2     578.5     588.4     619.8     670.6     769.8     786.9
  
           1    0.0431    0.0277    0.2666    0.0137    0.0345    0.1170    0.0061   -0.0110
           2   -0.2731    0.0102    0.0856   -0.1619   -0.0893   -0.0357   -0.0315   -0.0066
           3   -0.1517    0.2294   -0.2675   -0.0894    0.1454    0.1403    0.4759    0.1676
           4    0.0434   -0.0205    0.2648    0.0057   -0.0414    0.1179   -0.0063   -0.0110
           5    0.2737    0.0118   -0.0768   -0.1671   -0.0871    0.0354   -0.0305    0.0068
           6   -0.1489   -0.2283   -0.2761    0.0678   -0.1302    0.1427   -0.4718    0.1777
           7    0.1948   -0.0678    0.0770    0.3604    0.2166    0.0956    0.0528   -0.0105
           8   -0.2316   -0.0587   -0.0526    0.0744    0.0392   -0.1130   -0.0286   -0.0188
           9    0.0532    0.2139    0.0005    0.1320   -0.1259    0.0343    0.0264   -0.1216
          10    0.1948    0.0720    0.0945   -0.3535   -0.2193    0.0965   -0.0528   -0.0097
          11    0.2314   -0.0541    0.0496    0.0791    0.0379    0.1129   -0.0274    0.0195
          12    0.0562   -0.2150    0.0187   -0.1313    0.1258    0.0341   -0.0301   -0.1223
[...]
 TRAVEL      0.1529         C  6 -- H 14          +9.0% ( 35.2%)      0.5%
 RED. MASS   0.2391         C  7 -- H 15          +9.0% ( 35.2%)      0.5%
 EFF. MASS   2.3856

 VIBRATION   34   34A         ATOM PAIR      ENERGY CONTRIBUTION    RADIAL
 FREQ.      1288.79         C  1 -- C  5         +10.4% ( 38.1%)     86.7%
 T-DIPOLE    0.1157         C  2 -- C  8         +10.4% ( 38.0%)     87.0%
 TRAVEL      0.1034         C  9 -- H 17         +10.0% ( 37.3%)      1.2%
 RED. MASS   0.3010         C 10 -- H 20          +9.9% ( 37.2%)      1.3%
 EFF. MASS   4.8900

 VIBRATION   35   35A         ATOM PAIR      ENERGY CONTRIBUTION    RADIAL
 FREQ.      1312.85         C  9 -- H 17         +15.5% ( 40.4%)      0.4%
 T-DIPOLE    0.0614         C 10 -- H 20         +15.5% ( 40.3%)      0.4%
 TRAVEL      0.1389         C  9 -- H 18         +13.9% ( 38.3%)      0.8%
 RED. MASS   0.2112         C 10 -- H 19         +13.9% ( 38.2%)      0.8%
 EFF. MASS   2.6620

 VIBRATION   36   36A         ATOM PAIR      ENERGY CONTRIBUTION    RADIAL
 FREQ.      1366.94         C  1 -- C  5         +11.6% ( 46.6%)     90.7%
 T-DIPOLE    0.0509         C  2 -- C  8         +11.5% ( 46.4%)     91.4%
 TRAVEL      0.0824         C  1 -- C  3          +8.1% ( 39.1%)     24.1%
 RED. MASS   0.5464         C  2 -- C  4          +7.9% ( 38.4%)     22.0%
 EFF. MASS   7.2648

 VIBRATION   37   37A         ATOM PAIR      ENERGY CONTRIBUTION    RADIAL
 FREQ.      1390.61         C  4 -- C  6         +13.8% ( 66.0%)     99.6%
 T-DIPOLE    0.1128         C  3 -- C  7         +13.7% ( 65.8%)     99.7%
 TRAVEL      0.0643         C  2 -- C  4         +11.7% ( 60.8%)     99.8%
 RED. MASS   1.9158         C  1 -- C  3         +11.3% ( 59.6%)     99.6%
 EFF. MASS  11.7413         C  1 -- C  2         +10.5% ( 57.5%)    100.0%
                            C  6 -- C  7         +10.2% ( 56.7%)    100.0%

 VIBRATION   38   38A         ATOM PAIR      ENERGY CONTRIBUTION    RADIAL
 FREQ.      1407.16         C  6 -- C  7         +14.6% ( 57.7%)    100.0%
 T-DIPOLE    0.3584         C  1 -- C  2          +9.2% ( 45.9%)     97.0%
 TRAVEL      0.0673         C  3 -- C  7          +8.7% ( 44.6%)     51.9%
 RED. MASS   1.0713         C  4 -- C  6          +8.7% ( 44.6%)     52.5%
 EFF. MASS  10.5756

 VIBRATION   39   39A         ATOM PAIR      ENERGY CONTRIBUTION    RADIAL
 FREQ.      1571.91         C  1 -- C  2         +13.7% ( 55.2%)      0.0%
 T-DIPOLE    0.4750         C  4 -- C  6         +11.1% ( 49.6%)     88.5%
 TRAVEL      0.0613         C  3 -- C  7         +11.0% ( 49.4%)     88.6%
 RED. MASS   1.6739         C  6 -- C  7         +10.9% ( 49.3%)      0.0%
 EFF. MASS  11.4090

 VIBRATION   40   40A         ATOM PAIR      ENERGY CONTRIBUTION    RADIAL
 FREQ.      1628.11         C  1 -- C  2         +17.5% ( 62.0%)    100.0%
 T-DIPOLE    0.4022         C  1 -- C  3         +12.8% ( 53.1%)     41.3%
 TRAVEL      0.0605         C  2 -- C  4         +12.8% ( 53.0%)     41.3%
 RED. MASS   1.7576         C  1 -- C  5          +8.7% ( 43.8%)     97.5%
 EFF. MASS  11.2987

 VIBRATION   41   41A         ATOM PAIR      ENERGY CONTRIBUTION    RADIAL
 FREQ.      1775.58         C  6 -- C  7         +17.7% ( 58.8%)    100.0%
 T-DIPOLE    0.0583         C  1 -- C  2         +17.5% ( 58.5%)    100.0%
 TRAVEL      0.0565         C  4 -- C  6          +8.7% ( 41.3%)     45.8%
 RED. MASS   2.3312         C  1 -- C  3          +8.7% ( 41.2%)     41.1%
 EFF. MASS  11.9001

 VIBRATION   42   42A         ATOM PAIR      ENERGY CONTRIBUTION    RADIAL
 FREQ.      1801.19         C  1 -- C  3         +15.4% ( 54.8%)     84.7%
 T-DIPOLE    0.1855         C  2 -- C  4         +15.1% ( 54.3%)     84.8%
 TRAVEL      0.0562         C  3 -- C  7         +13.4% ( 51.2%)     89.1%
 RED. MASS   2.2513         C  4 -- C  6         +13.1% ( 50.6%)     88.7%
 EFF. MASS  11.8514

 VIBRATION   43   43A         ATOM PAIR      ENERGY CONTRIBUTION    RADIAL
 FREQ.      1855.05         C  8 -- C 10         +22.6% ( 70.4%)     98.3%
 T-DIPOLE    0.0463         C  5 -- C  9         +21.1% ( 67.9%)     98.3%
 TRAVEL      0.0554         C  2 -- C  8          +9.4% ( 45.4%)     65.9%
 RED. MASS   2.5828         C  1 -- C  5          +8.7% ( 43.7%)     66.0%
 EFF. MASS  11.8371

 VIBRATION   44   44A         ATOM PAIR      ENERGY CONTRIBUTION    RADIAL
 FREQ.      1862.90         C  5 -- C  9         +21.4% ( 68.2%)     98.1%
 T-DIPOLE    0.0533         C  8 -- C 10         +19.8% ( 65.7%)     98.1%
 TRAVEL      0.0553         C  1 -- C  5         +10.2% ( 47.2%)     63.6%
 RED. MASS   2.3910         C  2 -- C  8          +9.5% ( 45.6%)     62.9%
 EFF. MASS  11.8396

 VIBRATION   45   45A         ATOM PAIR      ENERGY CONTRIBUTION    RADIAL
 FREQ.      3031.24         C  8 -- H 16         +86.3% ( 94.3%)    100.0%
 T-DIPOLE    0.2438         C  5 -- H 13         +10.0% ( 32.2%)    100.0%
 TRAVEL      0.1214         C  8 -- C 10          +1.3% ( 11.6%)     30.6%
 RED. MASS   0.7443         C  2 -- C  8          +1.2% ( 11.3%)     14.6%
 EFF. MASS   1.5101

 VIBRATION   46   46A         ATOM PAIR      ENERGY CONTRIBUTION    RADIAL
 FREQ.      3032.16         C  5 -- H 13         +86.3% ( 94.2%)    100.0%
 T-DIPOLE    0.2913         C  8 -- H 16         +10.0% ( 32.1%)    100.0%
 TRAVEL      0.1214         C  5 -- C  9          +1.3% ( 11.6%)     30.5%
 RED. MASS   0.7440         C  1 -- C  5          +1.2% ( 11.3%)     14.8%
 EFF. MASS   1.5079

 VIBRATION   47   47A         ATOM PAIR      ENERGY CONTRIBUTION    RADIAL
 FREQ.      3048.19         C  4 -- H 11         +51.2% ( 72.8%)    100.0%
 T-DIPOLE    0.3197         C  3 -- H 12         +26.1% ( 51.9%)    100.0%
 TRAVEL      0.1212         C  6 -- H 14         +12.0% ( 35.1%)    100.0%
 RED. MASS   0.3469         C  7 -- H 15          +7.8% ( 28.3%)    100.0%
 EFF. MASS   1.5070

 VIBRATION   48   48A         ATOM PAIR      ENERGY CONTRIBUTION    RADIAL
 FREQ.      3049.45         C  3 -- H 12         +55.5% ( 75.7%)    100.0%
 T-DIPOLE    0.1160         C  4 -- H 11         +31.0% ( 56.6%)    100.0%
 TRAVEL      0.1211         C  7 -- H 15          +7.6% ( 28.1%)     99.8%
 RED. MASS   0.4057         C  6 -- H 14          +2.9% ( 17.2%)     99.6%
 EFF. MASS   1.5069

 VIBRATION   49   49A         ATOM PAIR      ENERGY CONTRIBUTION    RADIAL
 FREQ.      3062.76         C  6 -- H 14         +39.0% ( 63.4%)    100.0%
 T-DIPOLE    0.4483         C  7 -- H 15         +38.2% ( 62.8%)    100.0%
 TRAVEL      0.1204         C  3 -- H 12         +10.1% ( 32.3%)    100.0%
 RED. MASS   0.3136         C  4 -- H 11          +9.6% ( 31.4%)    100.0%
 EFF. MASS   1.5200

 VIBRATION   50   50A         ATOM PAIR      ENERGY CONTRIBUTION    RADIAL
 FREQ.      3077.02         C  7 -- H 15         +43.4% ( 66.8%)    100.0%
 T-DIPOLE    0.4517         C  6 -- H 14         +43.2% ( 66.6%)    100.0%
 TRAVEL      0.1175         C  3 -- H 12          +5.1% ( 22.8%)     99.8%
 RED. MASS   0.3791         C  4 -- H 11          +4.9% ( 22.4%)     99.8%
 EFF. MASS   1.5879

 VIBRATION   51   51A         ATOM PAIR      ENERGY CONTRIBUTION    RADIAL
 FREQ.      3134.38         C 10 -- H 20         +93.4% ( 98.2%)     99.9%
 T-DIPOLE    0.2343         C 10 -- H 19          +4.5% ( 21.5%)     61.7%
 TRAVEL      0.1187         C  8 -- C 10          +1.3% ( 11.7%)     27.0%
 RED. MASS   0.8721         C  9 -- H 17          +0.8% (  8.8%)    100.0%
 EFF. MASS   1.5275

 VIBRATION   52   52A         ATOM PAIR      ENERGY CONTRIBUTION    RADIAL
 FREQ.      3134.64         C  9 -- H 17         +93.6% ( 98.3%)     99.9%
 T-DIPOLE    0.2055         C  9 -- H 18          +4.2% ( 20.9%)     60.3%
 TRAVEL      0.1187         C  5 -- C  9          +1.3% ( 11.7%)     27.5%
 RED. MASS   0.8755         C 10 -- H 20          +0.7% (  8.7%)     99.9%
 EFF. MASS   1.5262

 VIBRATION   53   53A         ATOM PAIR      ENERGY CONTRIBUTION    RADIAL
 FREQ.      3145.55         C 10 -- H 19         +77.5% ( 88.7%)     99.8%
 T-DIPOLE    0.3001         C  9 -- H 18         +16.7% ( 41.2%)     99.8%
 TRAVEL      0.1207         C 10 -- H 20          +3.0% ( 17.5%)     22.0%
 RED. MASS   0.6092         C  8 -- C 10          +1.3% ( 11.3%)     66.2%
 EFF. MASS   1.4725

 VIBRATION   54   54A         ATOM PAIR      ENERGY CONTRIBUTION    RADIAL
 FREQ.      3145.69         C  9 -- H 18         +77.6% ( 88.8%)     99.8%
 T-DIPOLE    0.2825         C 10 -- H 19         +16.6% ( 41.1%)     99.8%
 TRAVEL      0.1206         C  9 -- H 17          +2.9% ( 17.2%)     20.5%
 RED. MASS   0.6104         C  5 -- C  9          +1.3% ( 11.3%)     65.9%
 EFF. MASS   1.4727

      SYMMETRY NUMBER FOR POINT-GROUP C1  =  1


          SYSTEM IS A GROUND STATE



 InChI=1S/C10H10/c1-3-9-7-5-6-8-10(9)4-2/h3-8H,1-2H2


          MOLECULE IS NOT LINEAR

          THERE ARE 54 GENUINE VIBRATIONS IN THIS SYSTEM
          THIS THERMODYNAMICS CALCULATION IS LIMITED TO
          MOLECULES WHICH HAVE NO INTERNAL ROTATIONS




                    CALCULATED THERMODYNAMIC PROPERTIES
                                          *
   TEMP. (K)   PARTITION FUNCTION   H.O.F.    ENTHALPY  HEAT CAPACITY ENTROPY
                                   KCAL/MOL   CAL/MOLE    CAL/K/MOL  CAL/K/MOL


 298.00  VIB.     0.1004D+03                  3839.5583    28.9503    22.0437
         ROT.     0.6491D+06                   888.2813     2.9808    29.5763
         INT.     0.6517D+08                  4727.8397    31.9311    51.6199
         TRA.     0.1436D+28                  1480.4688     4.9680    40.5022
         TOT.                       57.072    6208.3085    36.8991    92.1221

 200.00  VIB.     0.1311D+02                  1563.6121    17.6336    12.9325
         ROT.     0.3569D+06                   596.1620     2.9808    28.3876
         INT.     0.4680D+07                  2159.7740    20.6144    41.3201
         TRA.     0.7896D+27                   993.6033     4.9680    38.5210
         TOT.                       54.017    3153.3773    25.5824    79.8411

 210.00  VIB.     0.1598D+02                  1745.4429    18.7358    13.8194
         ROT.     0.3840D+06                   625.9700     2.9808    28.5330
         INT.     0.6138D+07                  2371.4129    21.7166    42.3525
         TRA.     0.8496D+27                  1043.2834     4.9680    38.7634
         TOT.                       54.278    3414.6963    26.6847    81.1159

 220.00  VIB.     0.1953D+02                  1938.3903    19.8566    14.7168
         ROT.     0.4117D+06                   655.7781     2.9808    28.6717
         INT.     0.8042D+07                  2594.1684    22.8374    43.3885
         TRA.     0.9110D+27                  1092.9636     4.9680    38.9945
         TOT.                       54.551    3687.1320    27.8054    82.3830

 230.00  VIB.     0.2392D+02                  2142.6286    20.9936    15.6245
         ROT.     0.4401D+06                   685.5862     2.9808    28.8042
         INT.     0.1053D+08                  2828.2149    23.9744    44.4287
         TRA.     0.9738D+27                  1142.6437     4.9680    39.2154
         TOT.                       54.834    3970.8586    28.9424    83.6441

 240.00  VIB.     0.2936D+02                  2358.3085    22.1444    16.5423
         ROT.     0.4691D+06                   715.3943     2.9808    28.9310
         INT.     0.1377D+08                  3073.7029    25.1253    45.4733
         TRA.     0.1038D+28                  1192.3239     4.9680    39.4268
         TOT.                       55.130    4266.0268    30.0933    84.9001

 250.00  VIB.     0.3612D+02                  2585.5546    23.3064    17.4698
         ROT.     0.4988D+06                   745.2024     2.9808    29.0527
         INT.     0.1801D+08                  3330.7570    26.2872    46.5225
         TRA.     0.1103D+28                  1242.0041     4.9680    39.6296
         TOT.                       55.436    4572.7611    31.2552    86.1521

 260.00  VIB.     0.4452D+02                  2824.4637    24.4766    18.4066
         ROT.     0.5290D+06                   775.0105     2.9808    29.1696
         INT.     0.2355D+08                  3599.4743    27.4574    47.5763
         TRA.     0.1170D+28                  1291.6842     4.9680    39.8245
         TOT.                       55.755    4891.1585    32.4254    87.4007

 270.00  VIB.     0.5499D+02                  3075.1048    25.6523    19.3524
         ROT.     0.5598D+06                   804.8186     2.9808    29.2821
         INT.     0.3078D+08                  3879.9235    28.6331    48.6346
         TRA.     0.1239D+28                  1341.3644     4.9680    40.0120
         TOT.                       56.085    5221.2878    33.6011    88.6465

 280.00  VIB.     0.6806D+02                  3337.5187    26.8307    20.3066
         ROT.     0.5912D+06                   834.6267     2.9808    29.3905
         INT.     0.4024D+08                  4172.1454    29.8115    49.6972
         TRA.     0.1308D+28                  1391.0445     4.9680    40.1926
         TOT.                       56.427    5563.1900    34.7795    89.8898

 290.00  VIB.     0.8441D+02                  3611.7191    28.0092    21.2687
         ROT.     0.6231D+06                   864.4348     2.9808    29.4951
         INT.     0.5260D+08                  4476.1539    30.9900    50.7639
         TRA.     0.1379D+28                  1440.7247     4.9680    40.3670
         TOT.                       56.780    5916.8786    35.9580    91.1308

 300.00  VIB.     0.1049D+03                  3897.6938    29.1852    22.2381
         ROT.     0.6556D+06                   894.2429     2.9808    29.5962
         INT.     0.6875D+08                  4791.9368    32.1660    51.8343
         TRA.     0.1451D+28                  1490.4049     4.9680    40.5354
         TOT.                       57.146    6282.3416    37.1340    92.3697

 310.00  VIB.     0.1305D+03                  4195.4065    30.3564    23.2142
         ROT.     0.6887D+06                   924.0510     2.9808    29.6939
         INT.     0.8988D+08                  5119.4575    33.3372    52.9081
         TRA.     0.1524D+28                  1540.0850     4.9680    40.6983
         TOT.                       57.523    6659.5425    38.3052    93.6064

 320.00  VIB.     0.1627D+03                  4504.7981    31.5206    24.1964
         ROT.     0.7223D+06                   953.8591     2.9808    29.7886
         INT.     0.1175D+09                  5458.6573    34.5014    53.9849
         TRA.     0.1598D+28                  1589.7652     4.9680    40.8560
         TOT.                       57.912    7048.4225    39.4695    94.8410

 330.00  VIB.     0.2032D+03                  4825.7895    32.6760    25.1840
         ROT.     0.7564D+06                   983.6672     2.9808    29.8803
         INT.     0.1537D+09                  5809.4567    35.6568    55.0643
         TRA.     0.1674D+28                  1639.4454     4.9680    41.0089
         TOT.                       58.313    7448.9020    40.6248    96.0732

 340.00  VIB.     0.2542D+03                  5158.2827    33.8207    26.1765
         ROT.     0.7910D+06                  1013.4753     2.9808    29.9693
         INT.     0.2011D+09                  6171.7580    36.8015    56.1458
         TRA.     0.1750D+28                  1689.1255     4.9680    41.1572
         TOT.                       58.725    7860.8835    41.7696    97.3030

 350.00  VIB.     0.3184D+03                  5502.1636    34.9533    27.1733
         ROT.     0.8262D+06                  1043.2834     2.9808    30.0557
         INT.     0.2631D+09                  6545.4470    37.9341    57.2290
         TRA.     0.1828D+28                  1738.8057     4.9680    41.3012
         TOT.                       59.148    8284.2527    42.9021    98.5302

 360.00  VIB.     0.3994D+03                  5857.3039    36.0724    28.1737
         ROT.     0.8619D+06                  1073.0915     2.9808    30.1397
         INT.     0.3442D+09                  6930.3954    39.0532    58.3133
         TRA.     0.1907D+28                  1788.4859     4.9680    41.4412
         TOT.                       59.583    8718.8813    44.0212    99.7545

 370.00  VIB.     0.5018D+03                  6223.5627    37.1768    29.1771
         ROT.     0.8980D+06                  1102.8996     2.9808    30.2213
         INT.     0.4506D+09                  7326.4623    40.1576    59.3984
         TRA.     0.1987D+28                  1838.1660     4.9680    41.5773
         TOT.                       60.028    9164.6283    45.1257   100.9757

 380.00  VIB.     0.6311D+03                  6600.7886    38.2657    30.1830
         ROT.     0.9347D+06                  1132.7077     2.9808    30.3008
         INT.     0.5899D+09                  7733.4963    41.2465    60.4839
         TRA.     0.2068D+28                  1887.8462     4.9680    41.7098
         TOT.                       60.485    9621.3425    46.2145   102.1936

 390.00  VIB.     0.7948D+03                  6988.8215    39.3381    31.1909
         ROT.     0.9718D+06                  1162.5158     2.9808    30.3783
         INT.     0.7724D+09                  8151.3374    42.3189    61.5692
         TRA.     0.2150D+28                  1937.5263     4.9680    41.8388
         TOT.                       60.952   10088.8637    47.2869   103.4080

 400.00  VIB.     0.1002D+04                  7387.4942    40.3935    32.2002
         ROT.     0.1009D+07                  1192.3239     2.9808    30.4537
         INT.     0.1012D+10                  8579.8181    43.3743    62.6539
         TRA.     0.2233D+28                  1987.2065     4.9680    41.9646
         TOT.                       61.431   10567.0246    48.3424   104.6185

   *: NOTE: HEATS OF FORMATION ARE RELATIVE TO THE
            ELEMENTS IN THEIR STANDARD STATE AT 298K
              (=  Standard Enthalpy of Formation).

            Hvib:  Zero-point energy is not included.
                   frequencies of less than zero cm-1 are not included.
            Hrot = (3/2)RT
            Htra = (3/2)RT + pV = (5/2)RT

            Heat capacity is Cp, not Cv

          For more information, see: HTTP://OpenMOPAC.net/Manual/thermochemistry.html


           FORCE CONSTANT IN CARTESIAN COORDINATES (Millidynes/A)

    ATOM   CHEMICAL       X               Y               Z
   NUMBER   SYMBOL  FORCE CONSTANT  FORCE CONSTANT  FORCE CONSTANT

      1       C       12.458519       12.868427        2.743582
      2       C       12.468551       12.831382        2.734993
      3       C       11.945159       12.389190        2.329064
      4       C       11.943373       12.347542        2.330048
      5       C       11.658658        9.105914        6.814406
      6       C       12.262584       12.166870        2.325333
      7       C       12.263803       12.178255        2.323429
      8       C       11.861713        9.134523        6.571711
      9       C       11.154249        8.433493        6.795083
     10       C       11.365304        8.462219        6.548088
     11       H        5.112950        0.778075        0.357957
     12       H        5.114541        0.777574        0.358913
     13       H        1.245449        2.888397        2.045253
     14       H        1.866158        4.056866        0.354682
     15       H        1.867925        4.054517        0.354522
     16       H        1.291294        2.928322        1.960138
     17       H        1.332309        2.867159        2.261014
     18       H        1.734535        4.243193        0.496519
     19       H        1.730666        4.253721        0.489313
     20       H        1.387512        2.900829        2.170933

 **********************
 *                    *
 * JOB ENDED NORMALLY *
 *                    *
 **********************



 TOTAL JOB TIME:             6.43 SECONDS

 == MOPAC DONE ==
