 *******************************************************************************
 ** Site#: 14399        For non-commercial use only    Version 18.184L 64BITS **
 *******************************************************************************
 ** Cite this program as: MOPAC2016, Version: 18.184L, James J. P. Stewart,   **
 ** Stewart Computational Chemistry, web: HTTP://OpenMOPAC.net. Days left:  20**
 *******************************************************************************
 **                                                                           **
 **                                MOPAC2016                                  **
 **                                                                           **
 *******************************************************************************

                              PM3 CALCULATION RESULTS

 *******************************************************************************
 *  CALCULATION DONE:                                Thu Jun 13 19:59:47 2019  *
 *  PM3        - The PM3 Hamiltonian to be used
 *  PRECISE    - CRITERIA TO BE INCREASED BY 100 TIMES
 *  NOSYM      - POINT-GROUP SYMMETRY SET TO C1
 *  THREADS=1  - MULTI-THREADING NOT USED
 *  T=         - A TIME OF 172800.0 SECONDS REQUESTED
 *  DUMP=N     - RESTART FILE WRITTEN EVERY  7200.000 SECONDS
 *******************************************************************************
pm3  precise nosym THREADS=1
 InChI=1S/C7H10/c1-7-5-3-2-4-6-7/h5H,3-4,6H2,1H3/lp2

   ATOM   CHEMICAL          X               Y               Z
  NUMBER   SYMBOL      (ANGSTROMS)     (ANGSTROMS)     (ANGSTROMS)
 
     1       C          0.20490000  *  -1.21520000  *   0.23920000  *
     2       C         -1.27970000  *  -1.37020000  *  -0.10530000  *
     3       C         -1.63090000  *   1.11200000  *  -0.02640000  *
     4       C          2.19640000  *   0.44560000  *   0.02460000  *
     5       C          0.71270000  *   0.20060000  *   0.04470000  *
     6       C         -0.12880000  *   1.25030000  *  -0.06990000  *
     7       C         -2.08090000  *  -0.24010000  *   0.52470000  *
     8       H          0.37520000  *  -1.51060000  *   1.29710000  *
     9       H          0.78540000  *  -1.90760000  *  -0.40790000  *
    10       H         -1.41830000  *  -1.35650000  *  -1.20870000  *
    11       H         -1.65250000  *  -2.34190000  *   0.28130000  *
    12       H         -2.03630000  *   1.25000000  *  -1.05090000  *
    13       H         -2.04890000  *   1.90750000  *   0.62460000  *
    14       H          2.48970000  *   0.89910000  *  -0.94570000  *
    15       H          2.47600000  *   1.13450000  *   0.84980000  *
    16       H          2.75830000  *  -0.50350000  *   0.15480000  *
    17       H          0.27750000  *   2.24620000  *  -0.22600000  *
 


          CARTESIAN COORDINATES 

    NO.       ATOM           X           Y           Z

     1         C          0.2049     -1.2152      0.2392
     2         C         -1.2797     -1.3702     -0.1053
     3         C         -1.6309      1.1120     -0.0264
     4         C          2.1964      0.4456      0.0246
     5         C          0.7127      0.2006      0.0447
     6         C         -0.1288      1.2503     -0.0699
     7         C         -2.0809     -0.2401      0.5247
     8         H          0.3752     -1.5106      1.2971
     9         H          0.7854     -1.9076     -0.4079
    10         H         -1.4183     -1.3565     -1.2087
    11         H         -1.6525     -2.3419      0.2813
    12         H         -2.0363      1.2500     -1.0509
    13         H         -2.0489      1.9075      0.6246
    14         H          2.4897      0.8991     -0.9457
    15         H          2.4760      1.1345      0.8498
    16         H          2.7583     -0.5035      0.1548
    17         H          0.2775      2.2462     -0.2260

  H: (PM3): J. J. P. STEWART, J. COMP. CHEM. 10, 209 (1989).
  C: (PM3): J. J. P. STEWART, J. COMP. CHEM. 10, 209 (1989).

           Empirical Formula: C7 H10  =    17 atoms



      MOLECULAR POINT GROUP   :   C1  


      RHF CALCULATION, NO. OF DOUBLY OCCUPIED LEVELS = 19


          Geometry optimization using EF

          DIAGONAL MATRIX USED AS START HESSIAN

 CYCLE:     1 TIME:   0.023 TIME LEFT:  2.00D  GRAD.:    89.848 HEAT:  84.14689
 CYCLE:     2 TIME:   0.039 TIME LEFT:  2.00D  GRAD.:    66.560 HEAT:  80.90837
 CYCLE:     3 TIME:   0.023 TIME LEFT:  2.00D  GRAD.:    93.577 HEAT:  80.86294
 CYCLE:     4 TIME:   0.023 TIME LEFT:  2.00D  GRAD.:    89.779 HEAT:  80.74403
 CYCLE:     5 TIME:   0.023 TIME LEFT:  2.00D  GRAD.:    78.212 HEAT:  79.96286
 CYCLE:     6 TIME:   0.031 TIME LEFT:  2.00D  GRAD.:    53.109 HEAT:  78.68835
 CYCLE:     7 TIME:   0.031 TIME LEFT:  2.00D  GRAD.:    23.029 HEAT:  77.98387
 CYCLE:     8 TIME:   0.031 TIME LEFT:  2.00D  GRAD.:    39.535 HEAT:  77.84123
 CYCLE:     9 TIME:   0.023 TIME LEFT:  2.00D  GRAD.:    24.050 HEAT:  77.17671
 CYCLE:    10 TIME:   0.023 TIME LEFT:  2.00D  GRAD.:    40.812 HEAT:  76.78491
 CYCLE:    11 TIME:   0.031 TIME LEFT:  2.00D  GRAD.:    37.450 HEAT:  76.45939
 CYCLE:    12 TIME:   0.023 TIME LEFT:  2.00D  GRAD.:    48.745 HEAT:  76.39655
 CYCLE:    13 TIME:   0.023 TIME LEFT:  2.00D  GRAD.:    48.316 HEAT:  76.19877
 CYCLE:    14 TIME:   0.023 TIME LEFT:  2.00D  GRAD.:    40.047 HEAT:  75.81323
 CYCLE:    15 TIME:   0.031 TIME LEFT:  2.00D  GRAD.:    21.413 HEAT:  75.38098
 CYCLE:    16 TIME:   0.023 TIME LEFT:  2.00D  GRAD.:    18.948 HEAT:  75.17103
 CYCLE:    17 TIME:   0.023 TIME LEFT:  2.00D  GRAD.:    19.283 HEAT:  74.88131
 CYCLE:    18 TIME:   0.023 TIME LEFT:  2.00D  GRAD.:    23.864 HEAT:  74.47127
 CYCLE:    19 TIME:   0.031 TIME LEFT:  2.00D  GRAD.:    27.254 HEAT:  74.09040
 CYCLE:    20 TIME:   0.016 TIME LEFT:  2.00D  GRAD.:    13.576 HEAT:  73.78646
 CYCLE:    21 TIME:   0.023 TIME LEFT:  2.00D  GRAD.:    14.620 HEAT:  73.75286
 CYCLE:    22 TIME:   0.031 TIME LEFT:  2.00D  GRAD.:    10.223 HEAT:  73.63303
 CYCLE:    23 TIME:   0.023 TIME LEFT:  2.00D  GRAD.:    11.559 HEAT:  73.57776
 CYCLE:    24 TIME:   0.023 TIME LEFT:  2.00D  GRAD.:     7.748 HEAT:  73.49371
 CYCLE:    25 TIME:   0.023 TIME LEFT:  2.00D  GRAD.:    13.048 HEAT:  73.46740
 CYCLE:    26 TIME:   0.023 TIME LEFT:  2.00D  GRAD.:     4.852 HEAT:  73.40657
 CYCLE:    27 TIME:   0.023 TIME LEFT:  2.00D  GRAD.:     5.043 HEAT:  73.39968
 CYCLE:    28 TIME:   0.016 TIME LEFT:  2.00D  GRAD.:     2.747 HEAT:  73.38863
 CYCLE:    29 TIME:   0.023 TIME LEFT:  2.00D  GRAD.:     2.689 HEAT:  73.37643
 CYCLE:    30 TIME:   0.023 TIME LEFT:  2.00D  GRAD.:     4.531 HEAT:  73.36340
 CYCLE:    31 TIME:   0.023 TIME LEFT:  2.00D  GRAD.:     3.333 HEAT:  73.35709
 CYCLE:    32 TIME:   0.023 TIME LEFT:  2.00D  GRAD.:     1.570 HEAT:  73.35087
 CYCLE:    33 TIME:   0.023 TIME LEFT:  2.00D  GRAD.:     1.509 HEAT:  73.34867
 CYCLE:    34 TIME:   0.023 TIME LEFT:  2.00D  GRAD.:     0.984 HEAT:  73.34649
 CYCLE:    35 TIME:   0.023 TIME LEFT:  2.00D  GRAD.:     0.907 HEAT:  73.34428
 CYCLE:    36 TIME:   0.023 TIME LEFT:  2.00D  GRAD.:     0.710 HEAT:  73.34340
 CYCLE:    37 TIME:   0.023 TIME LEFT:  2.00D  GRAD.:     0.668 HEAT:  73.34247
 CYCLE:    38 TIME:   0.023 TIME LEFT:  2.00D  GRAD.:     0.744 HEAT:  73.34145
 CYCLE:    39 TIME:   0.023 TIME LEFT:  2.00D  GRAD.:     0.817 HEAT:  73.34030
 CYCLE:    40 TIME:   0.023 TIME LEFT:  2.00D  GRAD.:     0.649 HEAT:  73.33914
 CYCLE:    41 TIME:   0.016 TIME LEFT:  2.00D  GRAD.:     0.544 HEAT:  73.33830
 CYCLE:    42 TIME:   0.023 TIME LEFT:  2.00D  GRAD.:     0.599 HEAT:  73.33757
 CYCLE:    43 TIME:   0.023 TIME LEFT:  2.00D  GRAD.:     0.820 HEAT:  73.33637
 CYCLE:    44 TIME:   0.023 TIME LEFT:  2.00D  GRAD.:     1.243 HEAT:  73.33403
 CYCLE:    45 TIME:   0.023 TIME LEFT:  2.00D  GRAD.:     1.892 HEAT:  73.32903
 CYCLE:    46 TIME:   0.023 TIME LEFT:  2.00D  GRAD.:     2.082 HEAT:  73.32336
 CYCLE:    47 TIME:   0.031 TIME LEFT:  2.00D  GRAD.:     2.665 HEAT:  73.30791
 CYCLE:    48 TIME:   0.031 TIME LEFT:  2.00D  GRAD.:     3.316 HEAT:  73.29700
 CYCLE:    49 TIME:   0.023 TIME LEFT:  2.00D  GRAD.:     3.982 HEAT:  73.28306
 CYCLE:    50 TIME:   0.023 TIME LEFT:  2.00D  GRAD.:     5.126 HEAT:  73.26916
 CYCLE:    51 TIME:   0.023 TIME LEFT:  2.00D  GRAD.:     2.402 HEAT:  73.25647
 CYCLE:    52 TIME:   0.023 TIME LEFT:  2.00D  GRAD.:     2.061 HEAT:  73.24178
 CYCLE:    53 TIME:   0.023 TIME LEFT:  2.00D  GRAD.:     7.863 HEAT:  73.23087
 CYCLE:    54 TIME:   0.023 TIME LEFT:  2.00D  GRAD.:     2.028 HEAT:  73.20710
 CYCLE:    55 TIME:   0.023 TIME LEFT:  2.00D  GRAD.:     1.839 HEAT:  73.19166
 CYCLE:    56 TIME:   0.031 TIME LEFT:  2.00D  GRAD.:     3.736 HEAT:  73.17050
 CYCLE:    57 TIME:   0.023 TIME LEFT:  2.00D  GRAD.:     4.632 HEAT:  73.15654
 CYCLE:    58 TIME:   0.023 TIME LEFT:  2.00D  GRAD.:     2.341 HEAT:  73.14440
 CYCLE:    59 TIME:   0.023 TIME LEFT:  2.00D  GRAD.:     3.845 HEAT:  73.13405
 CYCLE:    60 TIME:   0.023 TIME LEFT:  2.00D  GRAD.:     2.147 HEAT:  73.12173
 CYCLE:    61 TIME:   0.023 TIME LEFT:  2.00D  GRAD.:     2.434 HEAT:  73.11144
 CYCLE:    62 TIME:   0.023 TIME LEFT:  2.00D  GRAD.:     4.971 HEAT:  73.08596
 CYCLE:    63 TIME:   0.023 TIME LEFT:  2.00D  GRAD.:     4.432 HEAT:  73.06292
 CYCLE:    64 TIME:   0.031 TIME LEFT:  2.00D  GRAD.:     4.473 HEAT:  73.03066
 CYCLE:    65 TIME:   0.023 TIME LEFT:  2.00D  GRAD.:     3.571 HEAT:  73.00518
 CYCLE:    66 TIME:   0.023 TIME LEFT:  2.00D  GRAD.:     5.902 HEAT:  72.99571
 CYCLE:    67 TIME:   0.023 TIME LEFT:  2.00D  GRAD.:     3.429 HEAT:  72.96520
 CYCLE:    68 TIME:   0.031 TIME LEFT:  2.00D  GRAD.:     3.255 HEAT:  72.94031
 CYCLE:    69 TIME:   0.016 TIME LEFT:  2.00D  GRAD.:     6.731 HEAT:  72.92131
 CYCLE:    70 TIME:   0.023 TIME LEFT:  2.00D  GRAD.:     4.369 HEAT:  72.89773
 CYCLE:    71 TIME:   0.023 TIME LEFT:  2.00D  GRAD.:     4.589 HEAT:  72.87130
 CYCLE:    72 TIME:   0.023 TIME LEFT:  2.00D  GRAD.:     4.781 HEAT:  72.84475
 CYCLE:    73 TIME:   0.023 TIME LEFT:  2.00D  GRAD.:     4.908 HEAT:  72.83443
 CYCLE:    74 TIME:   0.023 TIME LEFT:  2.00D  GRAD.:     2.549 HEAT:  72.80912
 CYCLE:    75 TIME:   0.023 TIME LEFT:  2.00D  GRAD.:     4.037 HEAT:  72.79763
 CYCLE:    76 TIME:   0.023 TIME LEFT:  2.00D  GRAD.:     2.687 HEAT:  72.78690
 CYCLE:    77 TIME:   0.023 TIME LEFT:  2.00D  GRAD.:     2.294 HEAT:  72.77979
 CYCLE:    78 TIME:   0.023 TIME LEFT:  2.00D  GRAD.:     2.748 HEAT:  72.77608
 CYCLE:    79 TIME:   0.016 TIME LEFT:  2.00D  GRAD.:     0.965 HEAT:  72.77170
 CYCLE:    80 TIME:   0.023 TIME LEFT:  2.00D  GRAD.:     0.789 HEAT:  72.77016
 CYCLE:    81 TIME:   0.023 TIME LEFT:  2.00D  GRAD.:     0.781 HEAT:  72.76760
 CYCLE:    82 TIME:   0.023 TIME LEFT:  2.00D  GRAD.:     0.682 HEAT:  72.76661
 CYCLE:    83 TIME:   0.023 TIME LEFT:  2.00D  GRAD.:     0.579 HEAT:  72.76566
 CYCLE:    84 TIME:   0.023 TIME LEFT:  2.00D  GRAD.:     0.545 HEAT:  72.76500
 CYCLE:    85 TIME:   0.023 TIME LEFT:  2.00D  GRAD.:     0.523 HEAT:  72.76428
 CYCLE:    86 TIME:   0.023 TIME LEFT:  2.00D  GRAD.:     0.486 HEAT:  72.76366
 CYCLE:    87 TIME:   0.023 TIME LEFT:  2.00D  GRAD.:     0.410 HEAT:  72.76319
 CYCLE:    88 TIME:   0.023 TIME LEFT:  2.00D  GRAD.:     0.346 HEAT:  72.76289
 CYCLE:    89 TIME:   0.023 TIME LEFT:  2.00D  GRAD.:     0.258 HEAT:  72.76266
 CYCLE:    90 TIME:   0.023 TIME LEFT:  2.00D  GRAD.:     0.178 HEAT:  72.76253
 CYCLE:    91 TIME:   0.023 TIME LEFT:  2.00D  GRAD.:     0.152 HEAT:  72.76246
 CYCLE:    92 TIME:   0.023 TIME LEFT:  2.00D  GRAD.:     0.142 HEAT:  72.76241
 CYCLE:    93 TIME:   0.023 TIME LEFT:  2.00D  GRAD.:     0.108 HEAT:  72.76238
 CYCLE:    94 TIME:   0.023 TIME LEFT:  2.00D  GRAD.:     0.084 HEAT:  72.76236
 CYCLE:    95 TIME:   0.016 TIME LEFT:  2.00D  GRAD.:     0.045 HEAT:  72.76236

     GRADIENT =  0.04488  IS LESS THAN CUTOFF =  0.05000



 -------------------------------------------------------------------------------
 pm3  precise nosym THREADS=1
 InChI=1S/C7H10/c1-7-5-3-2-4-6-7/h5H,3-4,6H2,1H3/lp2



     GEOMETRY OPTIMISED USING EIGENVECTOR FOLLOWING (EF).     
     SCF FIELD WAS ACHIEVED                                   


                              PM3 CALCULATION
                                                       MOPAC2016 (Version: 18.184L)
                                                       Thu Jun 13 19:59:49 2019
                                                       No. of days remaining =  20




          FINAL HEAT OF FORMATION =         72.76236 KCAL/MOL =     304.43769 KJ/MOL


          TOTAL ENERGY            =       -980.65442 EV
          ELECTRONIC ENERGY       =      -4554.04666 EV  POINT GROUP:     C1  
          CORE-CORE REPULSION     =       3573.39224 EV
          COSMO AREA              =        143.76 SQUARE ANGSTROMS
          COSMO VOLUME            =        137.26 CUBIC ANGSTROMS

          GRADIENT NORM           =          0.04488 = 0.01089 PER ATOM
          IONIZATION POTENTIAL    =          8.578918 EV
          HOMO LUMO ENERGIES (EV) =         -8.579 -0.323
          NO. OF FILLED LEVELS    =         19
          MOLECULAR WEIGHT        =         94.1560

          MOLECULAR DIMENSIONS (Angstroms)

            Atom       Atom       Distance
            H    15    H    11     5.56732
            H    12    H    16     4.81775
            H    10    H    13     3.24161


          SCF CALCULATIONS        =        104
 
          WALL-CLOCK TIME         =          2.344 SECONDS
          COMPUTATION TIME        =          0.938 SECONDS




   ATOM   CHEMICAL          X               Y               Z
  NUMBER   SYMBOL      (ANGSTROMS)     (ANGSTROMS)     (ANGSTROMS)
 
     1       C          0.22203428  *  -1.16812427  *   0.25871956  *
     2       C         -1.23817832  *  -1.35884076  *  -0.12109183  *
     3       C         -1.60374695  *   1.09844870  *   0.13852445  *
     4       C          2.17857969  *   0.39944596  *  -0.04762714  *
     5       C          0.70758217  *   0.23042652  *   0.07009631  *
     6       C         -0.13325044  *   1.27108304  *   0.03568350  *
     7       C         -2.14696786  *  -0.23637838  *  -0.02443294  *
     8       H          0.37443990  *  -1.43701568  *   1.32405235  *
     9       H          0.85835975  *  -1.86778950  *  -0.31872794  *
    10       H         -1.36300846  *  -1.64161918  *  -1.19103104  *
    11       H         -1.68927578  *  -2.19695845  *   0.44925184  *
    12       H         -2.12934574  *   1.74239881  *  -0.59847239  *
    13       H         -1.97716683  *   1.43146074  *   1.13241732  *
    14       H          2.55250117  *  -0.09123947  *  -0.95681015  *
    15       H          2.47803170  *   1.45476121  *  -0.09253167  *
    16       H          2.69181340  *  -0.05650234  *   0.80986724  *
    17       H          0.23615040  *   2.29653374  *  -0.07898446  *

                             CARTESIAN COORDINATES

   1    C        0.222034279    -1.168124274     0.258719561
   2    C       -1.238178316    -1.358840761    -0.121091827
   3    C       -1.603746946     1.098448697     0.138524449
   4    C        2.178579691     0.399445959    -0.047627136
   5    C        0.707582171     0.230426519     0.070096310
   6    C       -0.133250438     1.271083038     0.035683498
   7    C       -2.146967861    -0.236378380    -0.024432937
   8    H        0.374439902    -1.437015677     1.324052353
   9    H        0.858359748    -1.867789495    -0.318727945
  10    H       -1.363008464    -1.641619184    -1.191031039
  11    H       -1.689275781    -2.196958446     0.449251839
  12    H       -2.129345739     1.742398812    -0.598472392
  13    H       -1.977166829     1.431460737     1.132417318
  14    H        2.552501166    -0.091239471    -0.956810147
  15    H        2.478031701     1.454761208    -0.092531670
  16    H        2.691813399    -0.056502340     0.809867241
  17    H        0.236150400     2.296533738    -0.078984461


           Empirical Formula: C7 H10  =    17 atoms



      MOLECULAR POINT GROUP   :   C1  


                  EIGENVALUES  
 -40.20586 -32.47410 -30.95000 -25.39029 -23.01773 -19.82731 -16.64446 -16.47552
 -15.95000 -15.51279 -14.35002 -14.10835 -13.95507 -13.34942 -13.21669 -12.37440
 -12.05296  -9.65409  -8.57892  -0.32289   0.82117   3.08703   3.17376   3.51999
   3.61434   3.67291   3.77937   4.05623   4.11176   4.12877   4.24054   4.33951
   4.50303   4.53541   4.57866   5.13507   5.60293   5.96534


              NET ATOMIC CHARGES AND DIPOLE CONTRIBUTIONS

  ATOM NO.   TYPE          CHARGE      No. of ELECS.   s-Pop       p-Pop       
    1          C          -0.063333        4.0633     1.14681     2.91652
    2          C          -0.190265        4.1903     1.17235     3.01792
    3          C          -0.151687        4.1517     1.15684     2.99485
    4          C          -0.066000        4.0660     1.12497     2.94103
    5          C          -0.119997        4.1200     1.19632     2.92368
    6          C          -0.171047        4.1710     1.19504     2.97601
    7          C          -0.032051        4.0321     1.65897     2.37308
    8          H           0.059956        0.9400     0.94004
    9          H           0.057481        0.9425     0.94252
   10          H           0.110494        0.8895     0.88951
   11          H           0.102073        0.8979     0.89793
   12          H           0.106415        0.8936     0.89359
   13          H           0.115367        0.8846     0.88463
   14          H           0.046300        0.9537     0.95370
   15          H           0.044019        0.9560     0.95598
   16          H           0.045243        0.9548     0.95476
   17          H           0.107032        0.8930     0.89297
 DIPOLE           X         Y         Z       TOTAL
 POINT-CHG.    -0.019    -0.209    -0.014     0.210
 HYBRID         1.922     0.273     0.077     1.942
 SUM            1.903     0.064     0.063     1.905


          ATOMIC ORBITAL ELECTRON POPULATIONS

     Atom    s        px        py        pz   
    1  C   1.14681   0.95886   0.94382   1.01385
    2  C   1.17235   0.95274   1.04850   1.01668
    3  C   1.15684   0.93230   1.04227   1.02028
    4  C   1.12497   0.92404   1.01089   1.00610
    5  C   1.19632   0.96098   0.95687   1.00583
    6  C   1.19504   0.95883   0.97963   1.03755
    7  C   1.65897   1.27097   0.87902   0.22310
    8  H   0.94004
    9  H   0.94252
   10  H   0.88951
   11  H   0.89793
   12  H   0.89359
   13  H   0.88463
   14  H   0.95370
   15  H   0.95598
   16  H   0.95476
   17  H   0.89297
 *******************************************************************************
 ** Site#: 14399        For non-commercial use only    Version 18.184L 64BITS **
 *******************************************************************************
 ** Cite this program as: MOPAC2016, Version: 18.184L, James J. P. Stewart,   **
 ** Stewart Computational Chemistry, web: HTTP://OpenMOPAC.net. Days left:  20**
 *******************************************************************************
 **                                                                           **
 **                                MOPAC2016                                  **
 **                                                                           **
 *******************************************************************************

                              PM3 CALCULATION RESULTS

 *******************************************************************************
 *  CALCULATION DONE:                                Thu Jun 13 19:59:49 2019  *
 *  PM3        - The PM3 Hamiltonian to be used
 *  OLDGEO     - PREVIOUS GEOMETRY TO BE USED
 *  PRECISE    - CRITERIA TO BE INCREASED BY 100 TIMES
 *  NOSYM      - POINT-GROUP SYMMETRY SET TO C1
 *  THREADS=1  - MULTI-THREADING NOT USED
 *  T=         - A TIME OF 172800.0 SECONDS REQUESTED
 *  DUMP=N     - RESTART FILE WRITTEN EVERY  7200.000 SECONDS
 *  THERMO     - THERMODYNAMIC QUANTITIES TO BE CALCULATED
 *******************************************************************************
oldgeo thermo nosym precise THREADS=1  pm3
 InChI=1S/C7H10/c1-7-5-3-2-4-6-7/h5H,3-4,6H2,1H3/lp2

   ATOM   CHEMICAL          X               Y               Z
  NUMBER   SYMBOL      (ANGSTROMS)     (ANGSTROMS)     (ANGSTROMS)
 
     1       C          0.22203428  *  -1.16812427  *   0.25871956  *
     2       C         -1.23817832  *  -1.35884076  *  -0.12109183  *
     3       C         -1.60374695  *   1.09844870  *   0.13852445  *
     4       C          2.17857969  *   0.39944596  *  -0.04762714  *
     5       C          0.70758217  *   0.23042652  *   0.07009631  *
     6       C         -0.13325044  *   1.27108304  *   0.03568350  *
     7       C         -2.14696786  *  -0.23637838  *  -0.02443294  *
     8       H          0.37443990  *  -1.43701568  *   1.32405235  *
     9       H          0.85835975  *  -1.86778950  *  -0.31872794  *
    10       H         -1.36300846  *  -1.64161918  *  -1.19103104  *
    11       H         -1.68927578  *  -2.19695845  *   0.44925184  *
    12       H         -2.12934574  *   1.74239881  *  -0.59847239  *
    13       H         -1.97716683  *   1.43146074  *   1.13241732  *
    14       H          2.55250117  *  -0.09123947  *  -0.95681015  *
    15       H          2.47803170  *   1.45476121  *  -0.09253167  *
    16       H          2.69181340  *  -0.05650234  *   0.80986724  *
    17       H          0.23615040  *   2.29653374  *  -0.07898446  *
 


          CARTESIAN COORDINATES 

    NO.       ATOM           X           Y           Z

     1         C          0.2220     -1.1681      0.2587
     2         C         -1.2382     -1.3588     -0.1211
     3         C         -1.6037      1.0984      0.1385
     4         C          2.1786      0.3994     -0.0476
     5         C          0.7076      0.2304      0.0701
     6         C         -0.1333      1.2711      0.0357
     7         C         -2.1470     -0.2364     -0.0244
     8         H          0.3744     -1.4370      1.3241
     9         H          0.8584     -1.8678     -0.3187
    10         H         -1.3630     -1.6416     -1.1910
    11         H         -1.6893     -2.1970      0.4493
    12         H         -2.1293      1.7424     -0.5985
    13         H         -1.9772      1.4315      1.1324
    14         H          2.5525     -0.0912     -0.9568
    15         H          2.4780      1.4548     -0.0925
    16         H          2.6918     -0.0565      0.8099
    17         H          0.2362      2.2965     -0.0790

  H: (PM3): J. J. P. STEWART, J. COMP. CHEM. 10, 209 (1989).
  C: (PM3): J. J. P. STEWART, J. COMP. CHEM. 10, 209 (1989).

           Empirical Formula: C7 H10  =    17 atoms



      MOLECULAR POINT GROUP   :   C1  


      RHF CALCULATION, NO. OF DOUBLY OCCUPIED LEVELS = 19



          HEAT OF FORMATION =      72.762355 KCALS/MOLE


          CARTESIAN COORDINATE DERIVATIVES

   NUMBER  ATOM         X            Y            Z

     1       C     -0.001236     0.001221     0.002418
     2       C      0.000180    -0.000940     0.001112
     3       C      0.012378     0.001221     0.000232
     4       C     -0.008309    -0.000578     0.012609
     5       C     -0.005519    -0.000493     0.005192
     6       C      0.001369    -0.006272    -0.002626
     7       C      0.005406     0.005425    -0.003044
     8       H      0.011069     0.005765    -0.002089
     9       H     -0.006597     0.002029     0.003658
    10       H     -0.005309     0.002951    -0.000910
    11       H     -0.000501    -0.000309    -0.002224
    12       H     -0.007149     0.000035    -0.015382
    13       H      0.005628    -0.004454     0.010109
    14       H     -0.000620     0.002440    -0.015702
    15       H     -0.002635    -0.012089     0.000633
    16       H      0.004364     0.008028     0.007659
    17       H     -0.002518    -0.003979    -0.001647
 


          GRADIENT NORM =   0.04297


          TIME FOR SCF CALCULATION =    0.02

          TIME FOR DERIVATIVES     =    0.01

          MOLECULAR WEIGHT =   94.16



          ROTATIONAL CONSTANTS IN CM(-1)

          A =    0.15714924   B =    0.08126748   C =    0.05639108



           PRINCIPAL MOMENTS OF INERTIA IN UNITS OF 10**(-40)*GRAM-CM**2

          A =      178.1286   B =      344.4523   C =      496.4043


          ORIENTATION OF MOLECULE IN FORCE CALCULATION

    NO.       ATOM         X         Y         Z

     1          C      -0.3427   -1.2226   -0.2626
     2          C       1.1781   -1.2226   -0.2626
     3          C       1.1562    1.2751   -0.2626
     4          C      -2.3413   -0.0163    0.7013
     5          C      -0.9371    0.0573    0.2227
     6          C      -0.2517    1.2067    0.2021
     7          C       1.8858    0.0309   -0.4141
     8          H      -0.7213   -1.4021   -1.2897
     9          H      -0.7217   -2.0675    0.3461
    10          H       1.6007   -1.5901    0.7001
    11          H       1.5739   -1.9184   -1.0311
    12          H       1.7641    1.9143    0.4126
    13          H       1.2247    1.7613   -1.2612
    14          H      -2.4117   -0.6489    1.5969
    15          H      -2.7500    0.9698    0.9581
    16          H      -2.9911   -0.4565   -0.0671
    17          H      -0.7064    2.1455    0.5383


    FIRST DERIVATIVES WILL BE USED IN THE CALCULATION OF SECOND DERIVATIVES

          ESTIMATED TIME TO COMPLETE CALCULATION =        6.38 SECONDS

    FOR POINT-GROUP C1   THERE ARE   1 UNIQUE SYMMETRY FUNCTIONS.

 STEP:   1 TIME =     0.05 SECS, INTEGRAL =      0.05 TIME LEFT: 172799.92
 STEP:   2 TIME =     0.03 SECS, INTEGRAL =      0.08 TIME LEFT: 172799.89
 STEP:   3 TIME =     0.03 SECS, INTEGRAL =      0.11 TIME LEFT: 172799.86
 STEP:   4 TIME =     0.03 SECS, INTEGRAL =      0.14 TIME LEFT: 172799.83
 STEP:   5 TIME =     0.02 SECS, INTEGRAL =      0.16 TIME LEFT: 172799.80
 STEP:   6 TIME =     0.03 SECS, INTEGRAL =      0.20 TIME LEFT: 172799.77
 STEP:   7 TIME =     0.02 SECS, INTEGRAL =      0.22 TIME LEFT: 172799.75
 STEP:   8 TIME =     0.02 SECS, INTEGRAL =      0.24 TIME LEFT: 172799.73
 STEP:   9 TIME =     0.03 SECS, INTEGRAL =      0.27 TIME LEFT: 172799.70
 STEP:  10 TIME =     0.02 SECS, INTEGRAL =      0.30 TIME LEFT: 172799.67
 STEP:  11 TIME =     0.03 SECS, INTEGRAL =      0.33 TIME LEFT: 172799.64
 STEP:  12 TIME =     0.03 SECS, INTEGRAL =      0.36 TIME LEFT: 172799.61
 STEP:  13 TIME =     0.02 SECS, INTEGRAL =      0.38 TIME LEFT: 172799.59
 STEP:  14 TIME =     0.03 SECS, INTEGRAL =      0.41 TIME LEFT: 172799.55
 STEP:  15 TIME =     0.02 SECS, INTEGRAL =      0.44 TIME LEFT: 172799.53
 STEP:  16 TIME =     0.02 SECS, INTEGRAL =      0.46 TIME LEFT: 172799.51
 STEP:  17 TIME =     0.03 SECS, INTEGRAL =      0.49 TIME LEFT: 172799.48
 STEP:  18 TIME =     0.03 SECS, INTEGRAL =      0.52 TIME LEFT: 172799.45
 STEP:  19 TIME =     0.03 SECS, INTEGRAL =      0.55 TIME LEFT: 172799.41
 STEP:  20 TIME =     0.03 SECS, INTEGRAL =      0.59 TIME LEFT: 172799.38
 STEP:  21 TIME =     0.03 SECS, INTEGRAL =      0.62 TIME LEFT: 172799.35
 STEP:  22 TIME =     0.02 SECS, INTEGRAL =      0.64 TIME LEFT: 172799.33
 STEP:  23 TIME =     0.02 SECS, INTEGRAL =      0.66 TIME LEFT: 172799.30
 STEP:  24 TIME =     0.02 SECS, INTEGRAL =      0.69 TIME LEFT: 172799.28
 STEP:  25 TIME =     0.03 SECS, INTEGRAL =      0.72 TIME LEFT: 172799.25
 STEP:  26 TIME =     0.02 SECS, INTEGRAL =      0.74 TIME LEFT: 172799.23
 STEP:  27 TIME =     0.03 SECS, INTEGRAL =      0.77 TIME LEFT: 172799.20
 STEP:  28 TIME =     0.02 SECS, INTEGRAL =      0.80 TIME LEFT: 172799.17
 STEP:  29 TIME =     0.03 SECS, INTEGRAL =      0.83 TIME LEFT: 172799.14
 STEP:  30 TIME =     0.03 SECS, INTEGRAL =      0.86 TIME LEFT: 172799.11
 STEP:  31 TIME =     0.02 SECS, INTEGRAL =      0.88 TIME LEFT: 172799.09
 STEP:  32 TIME =     0.04 SECS, INTEGRAL =      0.92 TIME LEFT: 172799.05
 STEP:  33 TIME =     0.03 SECS, INTEGRAL =      0.95 TIME LEFT: 172799.02
 STEP:  34 TIME =     0.03 SECS, INTEGRAL =      0.98 TIME LEFT: 172798.98
 STEP:  35 TIME =     0.03 SECS, INTEGRAL =      1.02 TIME LEFT: 172798.95
 STEP:  36 TIME =     0.02 SECS, INTEGRAL =      1.04 TIME LEFT: 172798.93
 STEP:  37 TIME =     0.03 SECS, INTEGRAL =      1.07 TIME LEFT: 172798.90
 STEP:  38 TIME =     0.03 SECS, INTEGRAL =      1.10 TIME LEFT: 172798.87
 STEP:  39 TIME =     0.02 SECS, INTEGRAL =      1.12 TIME LEFT: 172798.84
 STEP:  40 TIME =     0.03 SECS, INTEGRAL =      1.16 TIME LEFT: 172798.81
 STEP:  41 TIME =     0.02 SECS, INTEGRAL =      1.18 TIME LEFT: 172798.79
 STEP:  42 TIME =     0.02 SECS, INTEGRAL =      1.20 TIME LEFT: 172798.77
 STEP:  43 TIME =     0.03 SECS, INTEGRAL =      1.23 TIME LEFT: 172798.73
 STEP:  44 TIME =     0.02 SECS, INTEGRAL =      1.26 TIME LEFT: 172798.71
 STEP:  45 TIME =     0.03 SECS, INTEGRAL =      1.29 TIME LEFT: 172798.68
 STEP:  46 TIME =     0.04 SECS, INTEGRAL =      1.33 TIME LEFT: 172798.64
 STEP:  47 TIME =     0.04 SECS, INTEGRAL =      1.37 TIME LEFT: 172798.60
 STEP:  48 TIME =     0.03 SECS, INTEGRAL =      1.40 TIME LEFT: 172798.57
 STEP:  49 TIME =     0.05 SECS, INTEGRAL =      1.45 TIME LEFT: 172798.52
 STEP:  50 TIME =     0.04 SECS, INTEGRAL =      1.48 TIME LEFT: 172798.48
 STEP:  51 TIME =     0.04 SECS, INTEGRAL =      1.52 TIME LEFT: 172798.45

(To convert to Hartree/Bohr^2, multiply by (10^(-21) x N x a0^2)/(4.184 x 627.51) =  0.0642)


           FORCE MATRIX IN MILLIDYNES/ANGSTROM


                  C  1       C  2       C  3       C  4       C  5       C  6
 ------------------------------------------------------------------------------
     C    1  14.636790
     C    2   4.041589  14.446822
     C    3   0.119870   0.894300  14.871949
     C    4   0.619635   0.043777   0.140960  14.725348
     C    5   4.752455   0.659354   0.863857   5.029590  18.505579
     C    6   0.827112   0.044765   4.937536   0.830205  10.355510  18.252054
     C    7   0.701011   5.808132   5.701538   0.018441   0.060806   0.792374
     H    8   4.413659   0.436613   0.014061   0.016618   0.415119   0.026795
     H    9   4.456799   0.422518   0.010114   0.046989   0.449646   0.043790
     H   10   0.433077   4.279653   0.078936   0.001416   0.012790   0.005613
     H   11   0.420428   4.398370   0.081531   0.007938   0.045081   0.006758
     H   12   0.008536   0.083426   4.350323   0.015484   0.041868   0.417565
     H   13   0.011700   0.072741   4.287208   0.018710   0.030449   0.413043
     H   14   0.021211   0.003376   0.020628   4.695403   0.446067   0.031321
     H   15   0.045050   0.007706   0.001975   4.737213   0.472531   0.049590
     H   16   0.024419   0.001909   0.018783   4.705389   0.450973   0.035013
     H   17   0.115110   0.010707   0.422683   0.079687   0.459946   4.818365


                  C  7       H  8       H  9       H 10       H 11       H 12
 ------------------------------------------------------------------------------
     C    7  10.544708
     H    8   0.021623   4.997602
     H    9   0.053152   0.575273   5.054014
     H   10   0.320323   0.037146   0.034012   4.901510
     H   11   0.372635   0.036448   0.016570   0.585072   5.002657
     H   12   0.350866   0.001537   0.001638   0.021519   0.008114   4.944621
     H   13   0.305888   0.002494   0.001099   0.012383   0.018865   0.581653
     H   14   0.003660   0.001741   0.021537   0.000365   0.000456   0.002869
     H   15   0.003118   0.001189   0.002252   0.000326   0.001471   0.000729
     H   16   0.003259   0.006251   0.004541   0.000489   0.000669   0.001512
     H   17   0.050283   0.016830   0.012706   0.001433   0.001290   0.033179


                  H 13       H 14       H 15       H 16       H 17
 ------------------------------------------------------------------
     H   13   4.886125
     H   14   0.002373   5.414226
     H   15   0.000548   0.564038   5.457844
     H   16   0.003031   0.572963   0.562960   5.422560
     H   17   0.013258   0.009928   0.029854   0.008882   5.198072


          HEAT OF FORMATION =      72.762355 KCALS/MOLE

          ZERO POINT ENERGY      91.051 KCAL/MOL


           NORMAL COORDINATE ANALYSIS (Total motion = 1 Angstrom)


   Root No.       1         2         3         4         5         6         7         8

                 1 A       2 A       3 A       4 A       5 A       6 A       7 A       8 A   

                  85.8     103.3     186.1     239.5     363.6     444.0     497.2     526.5
  
           1    0.0045    0.0050   -0.0039    0.0021    0.0121    0.0207    0.0079   -0.0346
           2   -0.0157   -0.0070   -0.0047    0.0021   -0.0351    0.0235    0.0366   -0.0199
           3    0.0495    0.0225    0.0024    0.0076   -0.0196   -0.0024    0.0067   -0.0026
           4    0.0045    0.0051   -0.0028    0.0032    0.0199    0.0235    0.0207   -0.0396
           5    0.0003    0.0014   -0.0037    0.0002    0.0090   -0.0105    0.0292    0.0388
           6   -0.0327    0.0033   -0.0330   -0.0142   -0.0033   -0.0011   -0.0173   -0.0258
           7    0.0058   -0.0028    0.0014   -0.0116   -0.0173   -0.0105    0.0210    0.0343
           8    0.0028    0.0010    0.0022   -0.0015    0.0045   -0.0190   -0.0398    0.0216
           9    0.0250   -0.0067    0.0022   -0.0309    0.0077   -0.0063    0.0102    0.0036
          10   -0.0118   -0.0058    0.0113   -0.0115   -0.0043   -0.0240   -0.0611   -0.0025
          11    0.0103    0.0050    0.0003    0.0061    0.0669    0.0103   -0.0097   -0.0100
          12   -0.0279   -0.0121    0.0282   -0.0258    0.0147    0.0031    0.0221   -0.0011
          13    0.0017    0.0016   -0.0029    0.0056   -0.0071    0.0018   -0.0634    0.0138
          14   -0.0014   -0.0026    0.0020   -0.0020   -0.0439   -0.0095    0.0163   -0.0231
          15    0.0074    0.0076   -0.0145    0.0227   -0.0159    0.0662   -0.0242    0.0435
          16   -0.0009   -0.0006   -0.0147    0.0137   -0.0095   -0.0187    0.0030    0.0231
          17   -0.0004   -0.0014    0.0082   -0.0065   -0.0421    0.0004   -0.0229   -0.0267
          18    0.0020   -0.0008   -0.0482    0.0449    0.0046   -0.0223   -0.0013   -0.0244
          19   -0.0040   -0.0014    0.0110    0.0074    0.0051    0.0141    0.0755    0.0159
          20    0.0047    0.0029   -0.0002    0.0025    0.0194   -0.0047   -0.0047    0.0101
          21   -0.0263   -0.0126    0.0757    0.0263    0.0031   -0.0091   -0.0132    0.0154
          22   -0.0490   -0.0066   -0.0308   -0.0130    0.0300    0.0432    0.0029   -0.0729
          23   -0.0816   -0.0279   -0.0278    0.0046   -0.0436    0.1498   -0.0244    0.0062
          24    0.0806    0.0305    0.0164    0.0127   -0.0242   -0.0345    0.0202    0.0067
          25    0.0477    0.0196    0.0127    0.0095    0.0252   -0.0085    0.0520    0.0016
          26    0.0149    0.0001    0.0070    0.0015   -0.0427   -0.0369    0.0492   -0.0458
          27    0.1194    0.0417    0.0293    0.0114   -0.0237   -0.1084    0.0521   -0.0153
          28    0.0599    0.0194    0.0147    0.0150    0.0170    0.0211    0.0267   -0.0375
          29   -0.0316    0.0100   -0.1324   -0.0594    0.0339   -0.0616    0.0818    0.1709
          30   -0.0691    0.0004   -0.0910   -0.0430    0.0079   -0.0218    0.0028    0.0297
          31   -0.0293   -0.0012   -0.0155   -0.0073    0.0485    0.0019   -0.0103   -0.0145
          32    0.0315   -0.0019    0.0959    0.0455    0.0095    0.0110   -0.0296   -0.0346
          33   -0.0787    0.0031   -0.1313   -0.0615    0.0114   -0.0332    0.0217    0.0582
          34    0.0068    0.0002   -0.0373    0.0020   -0.0373   -0.0191   -0.0056   -0.0116
          35   -0.0421   -0.0002    0.0393    0.1050    0.0184   -0.0500    0.0153    0.0755
          36    0.0673   -0.0081    0.0015   -0.1470    0.0126    0.0326   -0.0204   -0.0079
          37    0.0244   -0.0089    0.0452   -0.0914   -0.0334    0.0160    0.0079    0.0484
          38    0.0568    0.0043   -0.0449   -0.1224    0.0145    0.0183   -0.0908   -0.0218
          39    0.0528   -0.0055   -0.0180   -0.0972    0.0115    0.0147   -0.0175   -0.0176
          40   -0.0323   -0.0732    0.0395   -0.0523   -0.0347   -0.0952   -0.0067   -0.0559
          41    0.0505   -0.2024   -0.0204    0.0211    0.1083    0.0203   -0.0172   -0.0080
          42   -0.0012   -0.1639    0.0160   -0.0189    0.0405    0.0032    0.0223   -0.0046
          43   -0.0261    0.0783    0.0269   -0.0211    0.0834   -0.0231   -0.0652   -0.0095
          44    0.0190   -0.0203   -0.0034    0.0113    0.1116    0.0212   -0.0193   -0.0062
          45   -0.0842    0.2196    0.0673   -0.0613   -0.0084   -0.0356    0.0510   -0.0286
          46    0.0125   -0.0364   -0.0194    0.0214   -0.0638    0.0171   -0.0945    0.0359
          47   -0.0291    0.2472    0.0230   -0.0053    0.0989    0.0160   -0.0183   -0.0084
          48   -0.0260   -0.1253    0.0414   -0.0475    0.0483   -0.0358    0.0558   -0.0359
          49   -0.0124   -0.0027   -0.0286    0.0308   -0.0214   -0.0353    0.0496   -0.0071
          50    0.0036    0.0001    0.0147   -0.0132   -0.0549    0.0258   -0.0064   -0.0183
          51   -0.0241   -0.0074   -0.0845    0.0862    0.0280   -0.1158    0.0151   -0.0871


   Root No.       9        10        11        12        13        14        15        16

                 9 A      10 A      11 A      12 A      13 A      14 A      15 A      16 A   

                 564.6     711.2     786.0     857.7     865.3     896.3     948.7     975.3
  
           1   -0.0176   -0.0059   -0.0203   -0.0002    0.0005    0.0063    0.0308   -0.0031
           2   -0.0043   -0.0083    0.0064    0.0006   -0.0008   -0.0122    0.0690   -0.0112
           3    0.0033    0.0113   -0.0047    0.0260    0.0310   -0.0142   -0.0024    0.0089
           4   -0.0122   -0.0054   -0.0250   -0.0104   -0.0073   -0.0042   -0.0177    0.0076
           5    0.0237    0.0052    0.0442    0.0197    0.0018    0.0292    0.0077   -0.0031
           6    0.0395    0.0324    0.0186    0.0030   -0.0129    0.0056    0.0050   -0.0070
           7    0.0183    0.0244   -0.0358   -0.0083   -0.0051    0.0012   -0.0022   -0.0040
           8    0.0181    0.0133   -0.0518   -0.0172   -0.0006   -0.0270   -0.0006    0.0042
           9   -0.0461    0.0436    0.0093    0.0005   -0.0117   -0.0056   -0.0023   -0.0129
          10   -0.0179   -0.0026    0.0482    0.0162    0.0045   -0.0093    0.0127   -0.0109
          11   -0.0089   -0.0018    0.0038    0.0004    0.0033    0.0011   -0.0241    0.0007
          12    0.0033   -0.0025   -0.0151   -0.0029   -0.0183    0.0007   -0.0123   -0.0269
          13   -0.0137   -0.0048    0.0161   -0.0004   -0.0050   -0.0011    0.0006    0.0066
          14   -0.0082   -0.0055   -0.0070   -0.0035    0.0014    0.0038   -0.0205   -0.0037
          15   -0.0010   -0.0123    0.0002   -0.0057   -0.0144    0.0036   -0.0013    0.0142
          16    0.0285    0.0086   -0.0230   -0.0111    0.0101    0.0075    0.0162   -0.0053
          17   -0.0313   -0.0107    0.0029   -0.0011   -0.0108    0.0075   -0.0420    0.0093
          18   -0.0026   -0.0053    0.0126   -0.0244    0.0172    0.0181   -0.0013    0.0137
          19    0.0165   -0.0100    0.0553   -0.0071    0.0024   -0.0361   -0.0409    0.0079
          20    0.0112    0.0101    0.0030    0.0007   -0.0083   -0.0003   -0.0032    0.0157
          21    0.0006   -0.0414   -0.0166   -0.0009    0.0182    0.0072    0.0068   -0.0055
          22    0.0093    0.0479   -0.0544    0.0541    0.0337    0.0286   -0.0303   -0.0702
          23   -0.0011    0.0515   -0.0253    0.0850    0.1154   -0.0494    0.0352    0.0464
          24   -0.0074   -0.0212    0.0134   -0.0110   -0.0038   -0.0153    0.0280    0.0238
          25   -0.0283   -0.0505    0.0054   -0.0351   -0.0343    0.0448    0.0706    0.0238
          26   -0.0119   -0.0363    0.0153   -0.0395   -0.0513   -0.0233    0.1136   -0.0458
          27   -0.0141   -0.0580    0.0273   -0.0555   -0.0650   -0.0067    0.0841   -0.0204
          28   -0.0355    0.0180   -0.0860    0.1020    0.0916    0.0618   -0.0282   -0.1181
          29   -0.1426   -0.1035   -0.0391    0.0642    0.0801    0.0826   -0.0106   -0.0551
          30   -0.0205   -0.0252    0.0103   -0.0296   -0.0239   -0.0035    0.0034    0.0275
          31   -0.0140   -0.0474   -0.0448   -0.0568   -0.0494    0.1041   -0.0696    0.0321
          32    0.1350    0.0700    0.0721    0.0304   -0.0276    0.1382   -0.0166   -0.0244
          33   -0.0671   -0.0518   -0.0163   -0.0302   -0.0073   -0.0355    0.0007    0.0257
          34    0.0361    0.0190   -0.0425   -0.0490    0.0130    0.1259   -0.0127   -0.0275
          35   -0.0859    0.1266   -0.0575   -0.0220   -0.0223   -0.1315   -0.0072   -0.0157
          36    0.0433   -0.0646    0.0187    0.0404   -0.0065   -0.0206    0.0126    0.0284
          37    0.0116   -0.0129   -0.0907    0.1215   -0.0999    0.0717    0.0425    0.1579
          38    0.1735   -0.1252   -0.0280   -0.0769    0.0801   -0.0849   -0.0238   -0.0512
          39    0.0341   -0.0324    0.0184   -0.0192    0.0228   -0.0277   -0.0104   -0.0291
          40   -0.0207    0.0320    0.0529   -0.0027    0.1136    0.0077   -0.0313    0.1264
          41   -0.0099   -0.0024    0.0055    0.0013   -0.0018   -0.0013    0.0351    0.0083
          42    0.0026    0.0006   -0.0143   -0.0049   -0.0115    0.0010    0.0251   -0.0079
          43   -0.0212    0.0054    0.0606    0.0193    0.0142   -0.0137    0.1588    0.0246
          44   -0.0102   -0.0031    0.0097    0.0052   -0.0059   -0.0034    0.0464   -0.0008
          45    0.0012    0.0148   -0.0195   -0.0174    0.0302    0.0106   -0.0400    0.0375
          46   -0.0148   -0.0300    0.0572    0.0351   -0.0588   -0.0200   -0.0796   -0.1265
          47   -0.0119   -0.0037    0.0075    0.0037   -0.0100   -0.0038    0.0337   -0.0073
          48    0.0019    0.0224   -0.0239   -0.0212    0.0453    0.0128    0.0353    0.0789
          49    0.0545   -0.0345   -0.0432    0.0654   -0.0255    0.0143   -0.0135   -0.0086
          50   -0.0411   -0.0007    0.0210   -0.0452    0.0099    0.0518   -0.0420    0.0053
          51    0.0608   -0.0918   -0.0652    0.2012   -0.0889   -0.0992   -0.0466    0.0215


   Root No.      17        18        19        20        21        22        23        24

                17 A      18 A      19 A      20 A      21 A      22 A      23 A      24 A   

                 987.9    1009.3    1047.0    1057.4    1086.8    1099.6    1110.1    1228.7
  
           1   -0.0045   -0.0090    0.0069   -0.0136    0.0456   -0.0016   -0.0056    0.0260
           2   -0.0173   -0.0074   -0.0014   -0.0012   -0.0083    0.0053   -0.0162   -0.0158
           3    0.0064   -0.0082    0.0194    0.0267    0.0188    0.0128   -0.0109   -0.0038
           4   -0.0057    0.0002    0.0038    0.0150   -0.0441   -0.0021    0.0141   -0.0073
           5    0.0030   -0.0035    0.0043   -0.0078    0.0156    0.0042    0.0032    0.0113
           6   -0.0027    0.0069   -0.0139   -0.0161   -0.0162   -0.0250    0.0048    0.0028
           7    0.0144   -0.0055   -0.0035   -0.0084    0.0067   -0.0073   -0.0259   -0.0104
           8    0.0073    0.0063    0.0062   -0.0091   -0.0029   -0.0033   -0.0123   -0.0133
           9    0.0027   -0.0229   -0.0030    0.0007   -0.0047    0.0060    0.0116    0.0014
          10   -0.0078    0.0006    0.0092    0.0098   -0.0051   -0.0023   -0.0018   -0.0215
          11   -0.0386   -0.0081    0.0065   -0.0141    0.0013    0.0018   -0.0069    0.0028
          12    0.0002    0.0082    0.0177    0.0097    0.0072   -0.0114   -0.0019    0.0080
          13    0.0093    0.0002   -0.0115   -0.0103   -0.0033    0.0084   -0.0053    0.0479
          14   -0.0028    0.0035   -0.0050    0.0119    0.0067   -0.0057    0.0112    0.0004
          15   -0.0061   -0.0103   -0.0278   -0.0227   -0.0081    0.0241    0.0069   -0.0187
          16   -0.0226    0.0039   -0.0033    0.0175    0.0010    0.0030    0.0279    0.0285
          17    0.0393    0.0065   -0.0099   -0.0094    0.0138   -0.0099   -0.0045    0.0118
          18   -0.0017    0.0398    0.0115    0.0065    0.0091   -0.0135   -0.0133   -0.0072
          19    0.0214    0.0133    0.0004   -0.0061   -0.0055    0.0000   -0.0146   -0.0055
          20   -0.0038    0.0014    0.0252    0.0060   -0.0266    0.0173    0.0387    0.0067
          21    0.0012   -0.0019    0.0076   -0.0040   -0.0033    0.0036    0.0071    0.0017
          22    0.0105    0.0683    0.0038   -0.0360    0.1798    0.2291   -0.0194   -0.0625
          23    0.0079   -0.0642    0.0551    0.0936   -0.0419   -0.1062   -0.0388    0.0575
          24   -0.0049   -0.0279    0.0097    0.0195   -0.0257   -0.0528   -0.0034    0.0158
          25   -0.0327   -0.0699    0.0079   -0.0964    0.1425   -0.2157    0.0489   -0.0678
          26   -0.0281    0.0298   -0.0337    0.0107   -0.1020    0.1198   -0.0544    0.0426
          27   -0.0255    0.0060   -0.0249   -0.0105   -0.0501    0.0396   -0.0279    0.0181
          28    0.0032    0.0895   -0.0958   -0.0783   -0.1636   -0.0853    0.0151   -0.0287
          29    0.0077    0.0060   -0.0528    0.0156   -0.0236   -0.0105   -0.0564    0.0136
          30   -0.0047   -0.0290    0.0082    0.0325    0.0221    0.0041   -0.0177    0.0107
          31   -0.0264   -0.0863   -0.0778    0.1865   -0.0012    0.0202   -0.1295   -0.0613
          32   -0.0118   -0.0371   -0.0927    0.0694    0.0216   -0.0261   -0.1048    0.0050
          33   -0.0002   -0.0091    0.0311    0.0059   -0.0017    0.0131    0.0258   -0.0157
          34    0.1209   -0.1139    0.1398   -0.0826   -0.0989    0.0488   -0.0323   -0.0569
          35   -0.0352    0.0286   -0.0982    0.0281    0.0694   -0.0442   -0.0230   -0.0399
          36   -0.0529    0.0557   -0.0340    0.0326    0.0230   -0.0071    0.0285    0.0597
          37   -0.0478    0.1508    0.0540   -0.0009   -0.0076   -0.0220   -0.0534   -0.0655
          38    0.0182   -0.0077   -0.0470   -0.0032    0.0369   -0.0234   -0.0211   -0.0433
          39    0.0036   -0.0187   -0.0247    0.0039    0.0132   -0.0041    0.0056   -0.0117
          40   -0.1401   -0.0650   -0.0550   -0.0818   -0.0300    0.0574   -0.0039   -0.0996
          41    0.0482    0.0074   -0.0110    0.0065    0.0004   -0.0005   -0.0019   -0.0005
          42    0.0498    0.0135   -0.0016    0.0154    0.0040   -0.0063    0.0012    0.0060
          43    0.1728    0.0241   -0.0389    0.0549   -0.0118   -0.0002    0.0309   -0.1131
          44    0.0569    0.0098   -0.0058    0.0171    0.0020   -0.0066    0.0074   -0.0382
          45   -0.0580   -0.0186   -0.0152   -0.0366   -0.0045    0.0218   -0.0097    0.0362
          46   -0.1240    0.0073    0.0971    0.0289    0.0076   -0.0335   -0.0135   -0.0799
          47    0.0497    0.0119    0.0001    0.0153    0.0026   -0.0089   -0.0034   -0.0070
          48    0.0485   -0.0097   -0.0551   -0.0244   -0.0047    0.0228    0.0062    0.0557
          49    0.0085   -0.0495   -0.0585    0.0588    0.0376    0.0249    0.2905   -0.0525
          50    0.0397    0.0319   -0.0230    0.0299    0.0396   -0.0085    0.1401   -0.0361
          51    0.0440   -0.1005   -0.0309   -0.0466   -0.0092    0.0095   -0.0593    0.0139


   Root No.      25        26        27        28        29        30        31        32

                25 A      26 A      27 A      28 A      29 A      30 A      31 A      32 A   

                1261.6    1325.0    1333.2    1371.6    1386.4    1395.5    1403.7    1422.7
  
           1    0.0334    0.0138   -0.0004    0.0307   -0.0184   -0.0001   -0.0026   -0.0282
           2   -0.0104   -0.0052   -0.0061   -0.0109   -0.0288   -0.0053    0.0250   -0.0055
           3   -0.0060   -0.0039   -0.0015   -0.0032   -0.0114   -0.0017    0.0093   -0.0000
           4   -0.0130   -0.0169   -0.0291    0.0051   -0.0011    0.0029   -0.0113    0.0565
           5   -0.0019   -0.0106    0.0368    0.0262   -0.0100    0.0022   -0.0126    0.0376
           6    0.0035    0.0024   -0.0058   -0.0021    0.0021   -0.0001    0.0007   -0.0058
           7    0.0040    0.0246    0.0036    0.0162   -0.0113    0.0026   -0.0131    0.0600
           8    0.0032    0.0512   -0.0063   -0.0186   -0.0057   -0.0029    0.0141   -0.0220
           9    0.0001   -0.0113   -0.0004   -0.0045    0.0036   -0.0008    0.0037   -0.0174
          10   -0.0030   -0.0048    0.0028   -0.0264   -0.0198   -0.0142    0.0164    0.0344
          11    0.0104    0.0015    0.0042   -0.0153   -0.0195    0.0062   -0.0175   -0.0009
          12    0.0027    0.0019   -0.0006    0.0076    0.0047   -0.0361   -0.0109   -0.0116
          13    0.0025   -0.0119    0.0094   -0.0083    0.0057   -0.0039    0.0095   -0.0137
          14   -0.0291   -0.0118   -0.0106    0.0099    0.0088    0.0033   -0.0088   -0.0127
          15   -0.0077    0.0011   -0.0055    0.0042    0.0007    0.0007   -0.0057    0.0037
          16   -0.0335   -0.0210   -0.0088    0.0043    0.0147    0.0013   -0.0040   -0.0333
          17   -0.0018   -0.0009    0.0015    0.0074    0.0053    0.0016   -0.0085    0.0052
          18    0.0112    0.0077    0.0032   -0.0002   -0.0043   -0.0004    0.0001    0.0118
          19    0.0062    0.0135   -0.0019   -0.0169    0.0050   -0.0025    0.0114   -0.0394
          20   -0.0084   -0.0109   -0.0062   -0.0026    0.0103    0.0005   -0.0019   -0.0119
          21   -0.0017   -0.0038   -0.0004    0.0034   -0.0005    0.0005   -0.0024    0.0073
          22   -0.0639   -0.0095    0.0168   -0.0923    0.1051    0.0025   -0.0175    0.0311
          23    0.0783    0.0400    0.0816   -0.0582    0.1689    0.0158   -0.0753    0.0393
          24    0.0160   -0.0009   -0.0168    0.0415   -0.0723   -0.0051    0.0246   -0.0239
          25   -0.0921   -0.0086    0.0145   -0.1134    0.1118    0.0082   -0.0033    0.0083
          26    0.0904    0.0348    0.0428   -0.0058    0.0671    0.0023   -0.0433    0.0184
          27    0.0538    0.0345    0.0647   -0.0712    0.1719    0.0112   -0.0742    0.0465
          28   -0.0268    0.0164    0.1366   -0.0023   -0.0150   -0.0057    0.0233   -0.0682
          29    0.0475    0.0032   -0.1898   -0.0389    0.0216   -0.0001    0.0055   -0.0150
          30    0.0238   -0.0053   -0.1375   -0.0193    0.0161    0.0024   -0.0063    0.0253
          31   -0.0389    0.0245    0.1670   -0.0187   -0.0224   -0.0091    0.0379   -0.0805
          32    0.0399    0.0120   -0.1201   -0.0327    0.0137   -0.0015    0.0097   -0.0256
          33   -0.0410    0.0011    0.2028    0.0338   -0.0262   -0.0025    0.0048   -0.0151
          34    0.0430   -0.0442    0.0007   -0.0299    0.0051   -0.0050    0.0228   -0.0624
          35    0.0626   -0.1412    0.0174    0.0185    0.0051    0.0022   -0.0112    0.0216
          36   -0.0779    0.1972   -0.0177    0.0023   -0.0178    0.0011   -0.0046    0.0453
          37    0.0766   -0.1329    0.0138   -0.0198    0.0117   -0.0035    0.0175   -0.0640
          38    0.0675   -0.1728    0.0159    0.0174    0.0106    0.0023   -0.0108    0.0089
          39    0.0281   -0.1065    0.0095    0.0101    0.0104    0.0012   -0.0061   -0.0060
          40    0.0206    0.0548   -0.0283    0.1314    0.0965   -0.1086   -0.0134   -0.0505
          41   -0.0076    0.0011   -0.0025    0.0583    0.0892    0.1640    0.1641    0.0479
          42   -0.0076    0.0024   -0.0046    0.0575    0.0786    0.0949    0.1150    0.0218
          43   -0.0420    0.0277   -0.0384    0.0643    0.0013    0.1518   -0.1427   -0.0973
          44   -0.0113    0.0143   -0.0157    0.0297   -0.0019   -0.0299   -0.0848   -0.0536
          45    0.0182   -0.0057    0.0147   -0.0195   -0.0051    0.3574    0.0725    0.0220
          46    0.0271    0.0443   -0.0165    0.0711    0.0289    0.1455   -0.0445   -0.0534
          47   -0.0106    0.0038   -0.0081    0.0792    0.1139   -0.2146    0.1504    0.0524
          48   -0.0106   -0.0359    0.0196   -0.1124   -0.0994   -0.0139   -0.0508    0.0248
          49    0.1393    0.0589    0.0240   -0.0466   -0.0225   -0.0116    0.0447    0.0043
          50    0.0961    0.0465    0.0197   -0.0216   -0.0157   -0.0059    0.0180    0.0273
          51   -0.0276   -0.0109   -0.0037    0.0135    0.0042    0.0042   -0.0122    0.0035


   Root No.      33        34        35        36        37        38        39        40

                33 A      34 A      35 A      36 A      37 A      38 A      39 A      40 A   

                1476.8    1551.3    1897.0    2912.4    2918.0    2944.1    3004.5    3015.1
  
           1   -0.0631    0.0078    0.0003   -0.0000    0.0005   -0.0016   -0.0005    0.0050
           2    0.0607    0.0241   -0.0267    0.0004   -0.0037    0.0164   -0.0006    0.0062
           3    0.0265    0.0053   -0.0054   -0.0012    0.0111   -0.0460   -0.0001    0.0020
           4    0.0320   -0.0738    0.0024    0.0003   -0.0036   -0.0008   -0.0030    0.0183
           5    0.0120   -0.0910    0.0056    0.0005   -0.0048   -0.0015    0.0037   -0.0251
           6   -0.0039    0.0079    0.0008    0.0046   -0.0443   -0.0119    0.0007   -0.0026
           7    0.0045    0.0987    0.0276   -0.0149   -0.0011    0.0001    0.0192    0.0025
           8   -0.0007   -0.0913    0.0088   -0.0022   -0.0001    0.0001    0.0299    0.0044
           9   -0.0019   -0.0288   -0.0074   -0.0515   -0.0044    0.0001   -0.0042   -0.0006
          10   -0.0755   -0.0035   -0.0294   -0.0000    0.0000   -0.0001    0.0000   -0.0000
          11    0.0054    0.0037   -0.0100    0.0000   -0.0000    0.0000   -0.0000   -0.0000
          12    0.0265    0.0022    0.0083   -0.0000    0.0000   -0.0001   -0.0000   -0.0001
          13    0.0938    0.0092    0.1387   -0.0001   -0.0002    0.0001   -0.0003   -0.0003
          14   -0.0679   -0.0204    0.2158   -0.0001    0.0001   -0.0002   -0.0002    0.0003
          15   -0.0458   -0.0079   -0.0067   -0.0002   -0.0000   -0.0001    0.0001    0.0001
          16   -0.0149   -0.0358   -0.1504   -0.0001   -0.0000    0.0000    0.0017    0.0002
          17    0.0136    0.0119   -0.1814    0.0007    0.0000    0.0001   -0.0027   -0.0004
          18    0.0079    0.0131    0.0173   -0.0000    0.0001   -0.0002   -0.0011   -0.0001
          19   -0.0102   -0.0045   -0.0035   -0.0002    0.0001   -0.0001   -0.0001   -0.0002
          20   -0.0172    0.1563   -0.0027    0.0002    0.0009    0.0002    0.0013   -0.0010
          21    0.0012    0.0057    0.0006   -0.0006   -0.0009   -0.0003   -0.0002    0.0003
          22    0.0533    0.0173    0.0139    0.0037   -0.0308    0.1398    0.0022   -0.0248
          23   -0.0493   -0.0266   -0.0070    0.0021   -0.0164    0.0668    0.0008   -0.0085
          24   -0.0017    0.0072   -0.0085    0.0111   -0.0937    0.3728    0.0076   -0.0792
          25    0.0660    0.0483    0.0269   -0.0028    0.0251   -0.1191    0.0028   -0.0267
          26   -0.0522   -0.0166   -0.0430   -0.0066    0.0596   -0.2613    0.0074   -0.0681
          27   -0.0454   -0.0204   -0.0204    0.0044   -0.0413    0.1797   -0.0059    0.0551
          28   -0.0143    0.0746   -0.0051   -0.0158    0.1489    0.0428    0.0149   -0.0944
          29   -0.0045    0.0453   -0.0031    0.0152   -0.1392   -0.0363   -0.0130    0.0774
          30    0.0092   -0.0116    0.0009   -0.0374    0.3481    0.0897    0.0423   -0.2575
          31    0.0086    0.0721   -0.0144    0.0114   -0.1065   -0.0324    0.0212   -0.1251
          32   -0.0017    0.0112   -0.0030   -0.0210    0.1872    0.0536   -0.0394    0.2280
          33   -0.0006   -0.0051   -0.0002   -0.0213    0.1935    0.0548   -0.0488    0.2842
          34   -0.0169   -0.0783    0.0342    0.2083    0.0166   -0.0008   -0.2255   -0.0292
          35    0.0070    0.0245    0.0013    0.2260    0.0174   -0.0009   -0.2265   -0.0287
          36    0.0084    0.0252   -0.0132    0.2239    0.0174   -0.0011   -0.2801   -0.0357
          37   -0.0091   -0.0804    0.0201   -0.0276   -0.0022   -0.0002   -0.0036   -0.0009
          38    0.0027    0.0377   -0.0031   -0.2050   -0.0166   -0.0002   -0.1363   -0.0175
          39    0.0002    0.0184   -0.0071    0.4056    0.0336    0.0004    0.3318    0.0433
          40    0.1014    0.0052   -0.0255    0.0001    0.0001   -0.0004   -0.0000   -0.0001
          41   -0.0419   -0.0028   -0.0003    0.0001    0.0001   -0.0002    0.0000   -0.0004
          42   -0.0049   -0.0024    0.0075   -0.0002   -0.0003    0.0008   -0.0001    0.0006
          43    0.0502   -0.0078    0.0480    0.0000    0.0001   -0.0006   -0.0002   -0.0004
          44    0.0509    0.0012    0.0291    0.0000   -0.0002    0.0012    0.0001    0.0010
          45   -0.0035    0.0034   -0.0114    0.0000   -0.0000    0.0003    0.0001    0.0002
          46    0.0900    0.0095   -0.0296   -0.0001   -0.0001    0.0007   -0.0001    0.0003
          47   -0.0432   -0.0034   -0.0022   -0.0001   -0.0001    0.0004   -0.0001    0.0003
          48   -0.0714   -0.0038    0.0132   -0.0000   -0.0001    0.0004   -0.0001    0.0005
          49    0.0692   -0.0371    0.1013    0.0012   -0.0001    0.0001   -0.0142   -0.0017
          50    0.0623    0.0089   -0.0825   -0.0063   -0.0001   -0.0007    0.0341    0.0040
          51   -0.0144    0.0188   -0.0492   -0.0029    0.0001   -0.0009    0.0112    0.0014


   Root No.      41        42        43        44        45

                41 A      42 A      43 A      44 A      45 A   

                3026.3    3055.1    3068.2    3076.4    3168.0
  
           1   -0.0186    0.0010   -0.0002   -0.0005   -0.0001
           2   -0.0270    0.0019   -0.0003   -0.0002   -0.0001
           3   -0.0063    0.0003   -0.0000    0.0002    0.0001
           4    0.0045   -0.0003    0.0000    0.0000   -0.0000
           5   -0.0070    0.0004   -0.0000    0.0000    0.0000
           6   -0.0012    0.0001   -0.0000    0.0000   -0.0000
           7    0.0002   -0.0021   -0.0000    0.0000    0.0000
           8    0.0005   -0.0032   -0.0000    0.0001    0.0000
           9   -0.0000   -0.0003   -0.0001    0.0000   -0.0000
          10    0.0002    0.0001   -0.0178   -0.0012    0.0236
          11    0.0001   -0.0034    0.0130   -0.0486   -0.0002
          12    0.0004   -0.0000   -0.0505   -0.0121   -0.0078
          13    0.0000    0.0031    0.0001   -0.0005    0.0004
          14   -0.0005    0.0044    0.0001   -0.0006    0.0001
          15   -0.0001   -0.0003   -0.0001    0.0000   -0.0001
          16    0.0007    0.0235    0.0001   -0.0002   -0.0003
          17   -0.0009   -0.0579   -0.0006    0.0023    0.0001
          18   -0.0004   -0.0192   -0.0003    0.0005    0.0001
          19    0.0002   -0.0005   -0.0000    0.0000   -0.0000
          20   -0.0002    0.0002    0.0000   -0.0000   -0.0000
          21    0.0000    0.0001    0.0000   -0.0000    0.0000
          22    0.1022   -0.0047    0.0004    0.0003    0.0003
          23    0.0316   -0.0011    0.0002    0.0002    0.0000
          24    0.3162   -0.0144    0.0024    0.0019    0.0007
          25    0.1243   -0.0064    0.0020    0.0005    0.0010
          26    0.2931   -0.0148    0.0031    0.0035    0.0012
          27   -0.2388    0.0119   -0.0034   -0.0021   -0.0013
          28   -0.0253    0.0011   -0.0000   -0.0000    0.0000
          29    0.0197   -0.0008    0.0000    0.0000   -0.0000
          30   -0.0678    0.0029   -0.0001   -0.0001    0.0001
          31   -0.0380    0.0017   -0.0001    0.0000    0.0000
          32    0.0647   -0.0030    0.0001   -0.0000   -0.0001
          33    0.0810   -0.0038    0.0001   -0.0000   -0.0001
          34   -0.0025    0.0284    0.0003   -0.0009   -0.0000
          35   -0.0025    0.0240    0.0003   -0.0007   -0.0000
          36   -0.0031    0.0283    0.0003   -0.0009    0.0000
          37   -0.0002    0.0014    0.0001   -0.0001   -0.0000
          38   -0.0014    0.0094   -0.0000   -0.0003    0.0000
          39    0.0036   -0.0266   -0.0001    0.0008    0.0000
          40    0.0005    0.0004   -0.0276    0.0063   -0.0013
          41    0.0018    0.0074   -0.2785    0.0880   -0.1809
          42   -0.0029   -0.0127    0.3757   -0.1652    0.2519
          43    0.0012   -0.0131    0.0131   -0.1617   -0.1103
          44   -0.0029    0.0273   -0.0507    0.3928    0.3122
          45   -0.0005    0.0078   -0.0400    0.0983    0.0747
          46   -0.0018    0.0050    0.2273    0.1719   -0.1726
          47   -0.0017    0.0021    0.1732    0.0971   -0.1285
          48   -0.0026    0.0067    0.2703    0.2110   -0.2329
          49   -0.0079   -0.3103   -0.0030    0.0116    0.0023
          50    0.0165    0.6380    0.0062   -0.0210   -0.0033
          51    0.0057    0.2287    0.0028   -0.0079   -0.0014


           MASS-WEIGHTED COORDINATE ANALYSIS (NORMAL COORDINATES)


   Root No.       1         2         3         4         5         6         7         8

                 1 A       2 A       3 A       4 A       5 A       6 A       7 A       8 A   

                  85.8     103.3     186.1     239.5     363.6     444.0     497.2     526.5
  
           1    0.0399    0.0361   -0.0295    0.0178    0.0912    0.1686    0.0497   -0.2591
           2   -0.1390   -0.0508   -0.0352    0.0180   -0.2643    0.1913    0.2314   -0.1489
           3    0.4383    0.1644    0.0184    0.0642   -0.1479   -0.0193    0.0421   -0.0196
           4    0.0398    0.0372   -0.0211    0.0276    0.1501    0.1918    0.1312   -0.2966
           5    0.0030    0.0099   -0.0278    0.0021    0.0677   -0.0852    0.1850    0.2903
           6   -0.2896    0.0242   -0.2487   -0.1209   -0.0252   -0.0089   -0.1096   -0.1933
           7    0.0515   -0.0207    0.0109   -0.0985   -0.1302   -0.0859    0.1330    0.2568
           8    0.0249    0.0076    0.0165   -0.0127    0.0339   -0.1553   -0.2517    0.1616
           9    0.2215   -0.0489    0.0169   -0.2621    0.0580   -0.0512    0.0648    0.0270
          10   -0.1042   -0.0424    0.0853   -0.0974   -0.0326   -0.1955   -0.3869   -0.0188
          11    0.0911    0.0365    0.0020    0.0518    0.5042    0.0837   -0.0615   -0.0746
          12   -0.2476   -0.0881    0.2124   -0.2188    0.1106    0.0251    0.1396   -0.0083
          13    0.0152    0.0115   -0.0222    0.0474   -0.0537    0.0144   -0.4009    0.1033
          14   -0.0123   -0.0190    0.0149   -0.0173   -0.3312   -0.0771    0.1029   -0.1729
          15    0.0655    0.0551   -0.1095    0.1930   -0.1195    0.5395   -0.1533    0.3258
          16   -0.0080   -0.0045   -0.1110    0.1160   -0.0719   -0.1526    0.0192    0.1730
          17   -0.0036   -0.0105    0.0621   -0.0549   -0.3172    0.0033   -0.1449   -0.2000
          18    0.0176   -0.0060   -0.3633    0.3817    0.0346   -0.1821   -0.0080   -0.1826
          19   -0.0358   -0.0101    0.0829    0.0631    0.0387    0.1152    0.4776    0.1188
          20    0.0418    0.0209   -0.0013    0.0210    0.1461   -0.0385   -0.0296    0.0758
          21   -0.2331   -0.0916    0.5706    0.2236    0.0237   -0.0741   -0.0833    0.1154
          22   -0.1257   -0.0140   -0.0674   -0.0319    0.0655    0.1019    0.0053   -0.1581
          23   -0.2094   -0.0589   -0.0607    0.0114   -0.0951    0.3539   -0.0447    0.0135
          24    0.2069    0.0645    0.0359    0.0312   -0.0528   -0.0816    0.0370    0.0146
          25    0.1225    0.0414    0.0277    0.0233    0.0550   -0.0200    0.0952    0.0035
          26    0.0384    0.0003    0.0153    0.0038   -0.0933   -0.0873    0.0901   -0.0992
          27    0.3065    0.0882    0.0640    0.0281   -0.0519   -0.2560    0.0956   -0.0333
          28    0.1538    0.0411    0.0322    0.0369    0.0372    0.0499    0.0489   -0.0812
          29   -0.0812    0.0211   -0.2892   -0.1461    0.0740   -0.1454    0.1499    0.3705
          30   -0.1775    0.0009   -0.1988   -0.1057    0.0173   -0.0516    0.0052    0.0643
          31   -0.0753   -0.0024   -0.0338   -0.0179    0.1058    0.0044   -0.0190   -0.0315
          32    0.0808   -0.0041    0.2094    0.1119    0.0208    0.0259   -0.0542   -0.0750
          33   -0.2020    0.0065   -0.2868   -0.1512    0.0248   -0.0784    0.0397    0.1261
          34    0.0173    0.0004   -0.0814    0.0048   -0.0815   -0.0451   -0.0102   -0.0251
          35   -0.1079   -0.0005    0.0859    0.2583    0.0402   -0.1181    0.0281    0.1637
          36    0.1727   -0.0171    0.0032   -0.3616    0.0274    0.0770   -0.0373   -0.0171
          37    0.0626   -0.0188    0.0987   -0.2248   -0.0730    0.0377    0.0145    0.1049
          38    0.1459    0.0090   -0.0981   -0.3011    0.0318    0.0432   -0.1664   -0.0472
          39    0.1355   -0.0117   -0.0393   -0.2391    0.0251    0.0346   -0.0320   -0.0382
          40   -0.0830   -0.1547    0.0862   -0.1286   -0.0758   -0.2248   -0.0123   -0.1212
          41    0.1297   -0.4276   -0.0446    0.0518    0.2365    0.0481   -0.0315   -0.0174
          42   -0.0031   -0.3464    0.0350   -0.0464    0.0885    0.0076    0.0408   -0.0100
          43   -0.0670    0.1654    0.0589   -0.0520    0.1822   -0.0545   -0.1196   -0.0205
          44    0.0488   -0.0429   -0.0074    0.0279    0.2439    0.0500   -0.0354   -0.0135
          45   -0.2162    0.4639    0.1469   -0.1507   -0.0184   -0.0840    0.0934   -0.0619
          46    0.0321   -0.0768   -0.0424    0.0526   -0.1393    0.0404   -0.1732    0.0779
          47   -0.0747    0.5223    0.0501   -0.0130    0.2160    0.0377   -0.0336   -0.0182
          48   -0.0667   -0.2647    0.0905   -0.1169    0.1054   -0.0846    0.1022   -0.0779
          49   -0.0319   -0.0056   -0.0624    0.0758   -0.0467   -0.0834    0.0909   -0.0154
          50    0.0091    0.0001    0.0320   -0.0324   -0.1199    0.0609   -0.0117   -0.0398
          51   -0.0618   -0.0157   -0.1845    0.2121    0.0611   -0.2737    0.0277   -0.1889


   Root No.       9        10        11        12        13        14        15        16

                 9 A      10 A      11 A      12 A      13 A      14 A      15 A      16 A   

                 564.6     711.2     786.0     857.7     865.3     896.3     948.7     975.3
  
           1   -0.1374   -0.0506   -0.1476   -0.0018    0.0052    0.0555    0.2294   -0.0296
           2   -0.0331   -0.0720    0.0467    0.0058   -0.0081   -0.1071    0.5138   -0.1079
           3    0.0254    0.0974   -0.0343    0.2372    0.3073   -0.1239   -0.0177    0.0852
           4   -0.0947   -0.0469   -0.1819   -0.0951   -0.0726   -0.0369   -0.1321    0.0727
           5    0.1849    0.0445    0.3221    0.1800    0.0183    0.2556    0.0573   -0.0299
           6    0.3074    0.2801    0.1357    0.0271   -0.1276    0.0490    0.0373   -0.0677
           7    0.1424    0.2110   -0.2604   -0.0756   -0.0502    0.0103   -0.0164   -0.0382
           8    0.1413    0.1152   -0.3770   -0.1574   -0.0059   -0.2360   -0.0046    0.0402
           9   -0.3590    0.3767    0.0675    0.0049   -0.1161   -0.0491   -0.0174   -0.1240
          10   -0.1391   -0.0223    0.3506    0.1476    0.0447   -0.0814    0.0947   -0.1048
          11   -0.0693   -0.0159    0.0273    0.0035    0.0328    0.0094   -0.1797    0.0066
          12    0.0261   -0.0220   -0.1100   -0.0265   -0.1817    0.0063   -0.0912   -0.2582
          13   -0.1066   -0.0415    0.1175   -0.0036   -0.0499   -0.0094    0.0042    0.0639
          14   -0.0636   -0.0476   -0.0511   -0.0323    0.0140    0.0330   -0.1530   -0.0357
          15   -0.0076   -0.1064    0.0012   -0.0524   -0.1427    0.0318   -0.0093    0.1362
          16    0.2219    0.0747   -0.1673   -0.1013    0.1002    0.0655    0.1208   -0.0511
          17   -0.2435   -0.0920    0.0213   -0.0103   -0.1068    0.0660   -0.3125    0.0893
          18   -0.0199   -0.0454    0.0916   -0.2225    0.1704    0.1585   -0.0096    0.1314
          19    0.1286   -0.0861    0.4024   -0.0648    0.0240   -0.3159   -0.3048    0.0758
          20    0.0874    0.0872    0.0221    0.0060   -0.0826   -0.0026   -0.0237    0.1506
          21    0.0049   -0.3578   -0.1206   -0.0081    0.1805    0.0627    0.0505   -0.0529
          22    0.0210    0.1198   -0.1148    0.1431    0.0968    0.0724   -0.0653   -0.1954
          23   -0.0024    0.1289   -0.0534    0.2250    0.3312   -0.1252    0.0760    0.1291
          24   -0.0168   -0.0531    0.0282   -0.0290   -0.0110   -0.0387    0.0603    0.0664
          25   -0.0638   -0.1264    0.0114   -0.0929   -0.0985    0.1137    0.1522    0.0664
          26   -0.0269   -0.0907    0.0324   -0.1045   -0.1472   -0.0591    0.2451   -0.1275
          27   -0.0319   -0.1451    0.0577   -0.1469   -0.1866   -0.0169    0.1813   -0.0569
          28   -0.0802    0.0450   -0.1813    0.2701    0.2627    0.1567   -0.0608   -0.3288
          29   -0.3220   -0.2588   -0.0824    0.1700    0.2297    0.2094   -0.0229   -0.1535
          30   -0.0462   -0.0631    0.0217   -0.0783   -0.0684   -0.0089    0.0073    0.0766
          31   -0.0315   -0.1185   -0.0946   -0.1504   -0.1418    0.2639   -0.1501    0.0894
          32    0.3047    0.1751    0.1521    0.0804   -0.0793    0.3504   -0.0357   -0.0678
          33   -0.1515   -0.1296   -0.0344   -0.0800   -0.0210   -0.0899    0.0016    0.0716
          34    0.0815    0.0474   -0.0897   -0.1296    0.0372    0.3193   -0.0273   -0.0766
          35   -0.1939    0.3165   -0.1212   -0.0582   -0.0641   -0.3334   -0.0155   -0.0436
          36    0.0978   -0.1617    0.0394    0.1070   -0.0185   -0.0523    0.0272    0.0790
          37    0.0262   -0.0322   -0.1912    0.3216   -0.2865    0.1818    0.0916    0.4398
          38    0.3915   -0.3130   -0.0590   -0.2036    0.2298   -0.2153   -0.0514   -0.1425
          39    0.0769   -0.0811    0.0389   -0.0509    0.0655   -0.0701   -0.0224   -0.0810
          40   -0.0468    0.0800    0.1116   -0.0071    0.3260    0.0195   -0.0674    0.3519
          41   -0.0224   -0.0060    0.0115    0.0035   -0.0053   -0.0034    0.0756    0.0232
          42    0.0058    0.0016   -0.0302   -0.0129   -0.0331    0.0025    0.0542   -0.0220
          43   -0.0479    0.0136    0.1278    0.0510    0.0409   -0.0348    0.3425    0.0686
          44   -0.0231   -0.0079    0.0206    0.0138   -0.0168   -0.0085    0.1002   -0.0023
          45    0.0026    0.0371   -0.0412   -0.0462    0.0868    0.0268   -0.0862    0.1045
          46   -0.0334   -0.0749    0.1207    0.0928   -0.1686   -0.0506   -0.1717   -0.3522
          47   -0.0268   -0.0092    0.0158    0.0098   -0.0286   -0.0096    0.0728   -0.0205
          48    0.0043    0.0561   -0.0505   -0.0562    0.1300    0.0326    0.0760    0.2196
          49    0.1229   -0.0862   -0.0911    0.1730   -0.0730    0.0362   -0.0291   -0.0239
          50   -0.0927   -0.0018    0.0443   -0.1197    0.0283    0.1314   -0.0906    0.0147
          51    0.1373   -0.2295   -0.1376    0.5325   -0.2552   -0.2516   -0.1006    0.0600


   Root No.      17        18        19        20        21        22        23        24

                17 A      18 A      19 A      20 A      21 A      22 A      23 A      24 A   

                 987.9    1009.3    1047.0    1057.4    1086.8    1099.6    1110.1    1228.7
  
           1   -0.0377   -0.0871    0.0665   -0.1281    0.3598   -0.0132   -0.0426    0.2395
           2   -0.1455   -0.0719   -0.0133   -0.0109   -0.0652    0.0433   -0.1225   -0.1454
           3    0.0543   -0.0793    0.1879    0.2511    0.1483    0.1052   -0.0821   -0.0351
           4   -0.0479    0.0015    0.0366    0.1414   -0.3474   -0.0173    0.1063   -0.0667
           5    0.0255   -0.0334    0.0419   -0.0734    0.1230    0.0342    0.0239    0.1038
           6   -0.0229    0.0671   -0.1351   -0.1516   -0.1280   -0.2049    0.0359    0.0255
           7    0.1210   -0.0529   -0.0338   -0.0788    0.0528   -0.0596   -0.1951   -0.0959
           8    0.0613    0.0605    0.0599   -0.0857   -0.0228   -0.0271   -0.0926   -0.1219
           9    0.0228   -0.2216   -0.0292    0.0065   -0.0371    0.0494    0.0874    0.0129
          10   -0.0654    0.0055    0.0890    0.0923   -0.0403   -0.0190   -0.0133   -0.1974
          11   -0.3250   -0.0785    0.0627   -0.1330    0.0101    0.0148   -0.0520    0.0261
          12    0.0013    0.0791    0.1716    0.0914    0.0571   -0.0935   -0.0142    0.0736
          13    0.0788    0.0023   -0.1114   -0.0965   -0.0257    0.0685   -0.0398    0.4401
          14   -0.0237    0.0336   -0.0486    0.1120    0.0529   -0.0467    0.0843    0.0035
          15   -0.0510   -0.0994   -0.2691   -0.2141   -0.0642    0.1973    0.0520   -0.1720
          16   -0.1906    0.0379   -0.0320    0.1647    0.0079    0.0243    0.2103    0.2621
          17    0.3313    0.0625   -0.0961   -0.0885    0.1085   -0.0810   -0.0338    0.1082
          18   -0.0142    0.3848    0.1119    0.0612    0.0720   -0.1105   -0.1006   -0.0659
          19    0.1806    0.1288    0.0040   -0.0578   -0.0430    0.0000   -0.1103   -0.0509
          20   -0.0322    0.0138    0.2445    0.0563   -0.2097    0.1415    0.2917    0.0613
          21    0.0100   -0.0185    0.0738   -0.0380   -0.0259    0.0291    0.0538    0.0152
          22    0.0256    0.1912    0.0108   -0.0982    0.4107    0.5435   -0.0424   -0.1666
          23    0.0193   -0.1799    0.1545    0.2552   -0.0958   -0.2520   -0.0847    0.1531
          24   -0.0119   -0.0782    0.0272    0.0531   -0.0586   -0.1252   -0.0074    0.0421
          25   -0.0798   -0.1957    0.0221   -0.2627    0.3253   -0.5118    0.1067   -0.1806
          26   -0.0686    0.0834   -0.0947    0.0291   -0.2330    0.2844   -0.1189    0.1136
          27   -0.0623    0.0168   -0.0698   -0.0287   -0.1145    0.0939   -0.0609    0.0482
          28    0.0079    0.2505   -0.2689   -0.2136   -0.3736   -0.2023    0.0330   -0.0765
          29    0.0188    0.0168   -0.1481    0.0424   -0.0540   -0.0248   -0.1232    0.0361
          30   -0.0116   -0.0812    0.0229    0.0886    0.0505    0.0096   -0.0387    0.0286
          31   -0.0645   -0.2417   -0.2183    0.5083   -0.0027    0.0480   -0.2829   -0.1632
          32   -0.0289   -0.1039   -0.2601    0.1892    0.0493   -0.0619   -0.2291    0.0133
          33   -0.0005   -0.0256    0.0872    0.0160   -0.0040    0.0311    0.0564   -0.0419
          34    0.2951   -0.3190    0.3923   -0.2251   -0.2258    0.1159   -0.0705   -0.1516
          35   -0.0859    0.0802   -0.2756    0.0765    0.1586   -0.1049   -0.0503   -0.1063
          36   -0.1290    0.1559   -0.0954    0.0889    0.0526   -0.0169    0.0623    0.1591
          37   -0.1166    0.4223    0.1517   -0.0026   -0.0174   -0.0523   -0.1167   -0.1744
          38    0.0443   -0.0214   -0.1318   -0.0088    0.0842   -0.0555   -0.0462   -0.1153
          39    0.0087   -0.0523   -0.0694    0.0107    0.0302   -0.0096    0.0122   -0.0312
          40   -0.3420   -0.1819   -0.1544   -0.2230   -0.0686    0.1361   -0.0085   -0.2652
          41    0.1177    0.0209   -0.0309    0.0176    0.0009   -0.0012   -0.0042   -0.0012
          42    0.1215    0.0377   -0.0044    0.0420    0.0091   -0.0150    0.0027    0.0161
          43    0.4217    0.0676   -0.1091    0.1496   -0.0271   -0.0005    0.0676   -0.3012
          44    0.1388    0.0274   -0.0162    0.0466    0.0047   -0.0155    0.0162   -0.1017
          45   -0.1415   -0.0522   -0.0426   -0.0999   -0.0103    0.0518   -0.0211    0.0965
          46   -0.3026    0.0205    0.2726    0.0787    0.0174   -0.0796   -0.0295   -0.2128
          47    0.1214    0.0332    0.0003    0.0416    0.0059   -0.0211   -0.0073   -0.0186
          48    0.1183   -0.0271   -0.1547   -0.0665   -0.0107    0.0540    0.0135    0.1484
          49    0.0208   -0.1387   -0.1642    0.1601    0.0860    0.0591    0.6347   -0.1400
          50    0.0970    0.0894   -0.0646    0.0814    0.0904   -0.0202    0.3061   -0.0961
          51    0.1074   -0.2813   -0.0868   -0.1271   -0.0210    0.0225   -0.1297    0.0371


   Root No.      25        26        27        28        29        30        31        32

                25 A      26 A      27 A      28 A      29 A      30 A      31 A      32 A   

                1261.6    1325.0    1333.2    1371.6    1386.4    1395.5    1403.7    1422.7
  
           1    0.3076    0.1068   -0.0029    0.2819   -0.1515   -0.0003   -0.0231   -0.2038
           2   -0.0957   -0.0402   -0.0458   -0.1003   -0.2369   -0.0344    0.2226   -0.0395
           3   -0.0553   -0.0302   -0.0113   -0.0289   -0.0933   -0.0112    0.0828   -0.0003
           4   -0.1201   -0.1305   -0.2200    0.0471   -0.0089    0.0187   -0.1005    0.4088
           5   -0.0179   -0.0821    0.2779    0.2403   -0.0820    0.0142   -0.1125    0.2723
           6    0.0323    0.0186   -0.0436   -0.0194    0.0172   -0.0004    0.0061   -0.0421
           7    0.0366    0.1903    0.0275    0.1484   -0.0931    0.0168   -0.1166    0.4338
           8    0.0294    0.3964   -0.0474   -0.1704   -0.0470   -0.0189    0.1259   -0.1592
           9    0.0005   -0.0876   -0.0027   -0.0411    0.0299   -0.0054    0.0329   -0.1261
          10   -0.0280   -0.0371    0.0212   -0.2426   -0.1626   -0.0915    0.1465    0.2489
          11    0.0960    0.0113    0.0317   -0.1402   -0.1604    0.0398   -0.1559   -0.0066
          12    0.0247    0.0147   -0.0046    0.0702    0.0387   -0.2323   -0.0970   -0.0841
          13    0.0227   -0.0920    0.0712   -0.0761    0.0471   -0.0251    0.0844   -0.0995
          14   -0.2674   -0.0916   -0.0800    0.0910    0.0724    0.0211   -0.0784   -0.0922
          15   -0.0705    0.0088   -0.0417    0.0388    0.0054    0.0042   -0.0504    0.0265
          16   -0.3086   -0.1627   -0.0664    0.0392    0.1210    0.0084   -0.0358   -0.2405
          17   -0.0168   -0.0070    0.0112    0.0682    0.0434    0.0106   -0.0761    0.0373
          18    0.1034    0.0596    0.0239   -0.0016   -0.0353   -0.0024    0.0005    0.0855
          19    0.0567    0.1048   -0.0147   -0.1547    0.0411   -0.0158    0.1013   -0.2852
          20   -0.0773   -0.0841   -0.0470   -0.0240    0.0847    0.0030   -0.0172   -0.0860
          21   -0.0159   -0.0294   -0.0031    0.0311   -0.0042    0.0035   -0.0217    0.0530
          22   -0.1704   -0.0214    0.0367   -0.2453    0.2500    0.0046   -0.0453    0.0652
          23    0.2087    0.0896    0.1788   -0.1548    0.4018    0.0295   -0.1944    0.0823
          24    0.0426   -0.0019   -0.0369    0.1104   -0.1720   -0.0095    0.0635   -0.0500
          25   -0.2457   -0.0194    0.0319   -0.3014    0.2660    0.0153   -0.0085    0.0173
          26    0.2411    0.0781    0.0938   -0.0154    0.1597    0.0042   -0.1118    0.0385
          27    0.1435    0.0774    0.1417   -0.1892    0.4089    0.0209   -0.1917    0.0974
          28   -0.0714    0.0367    0.2993   -0.0062   -0.0356   -0.0107    0.0601   -0.1428
          29    0.1267    0.0072   -0.4158   -0.1034    0.0515   -0.0002    0.0143   -0.0313
          30    0.0634   -0.0119   -0.3012   -0.0512    0.0383    0.0045   -0.0163    0.0530
          31   -0.1037    0.0550    0.3657   -0.0496   -0.0533   -0.0171    0.0978   -0.1686
          32    0.1064    0.0269   -0.2631   -0.0869    0.0326   -0.0028    0.0251   -0.0536
          33   -0.1094    0.0025    0.4442    0.0898   -0.0624   -0.0046    0.0124   -0.0316
          34    0.1146   -0.0990    0.0015   -0.0795    0.0120   -0.0093    0.0588   -0.1307
          35    0.1670   -0.3167    0.0381    0.0493    0.0122    0.0041   -0.0289    0.0452
          36   -0.2076    0.4422   -0.0388    0.0060   -0.0424    0.0021   -0.0120    0.0950
          37    0.2043   -0.2980    0.0303   -0.0527    0.0279   -0.0065    0.0452   -0.1341
          38    0.1800   -0.3874    0.0349    0.0463    0.0252    0.0042   -0.0278    0.0186
          39    0.0750   -0.2388    0.0208    0.0269    0.0248    0.0023   -0.0159   -0.0126
[...]
 EFF. MASS   4.2018

 VIBRATION   24   24A         ATOM PAIR      ENERGY CONTRIBUTION    RADIAL
 FREQ.      1228.72         C  4 -- C  5         +19.3% ( 60.5%)     99.2%
 T-DIPOLE    0.0997         C  1 -- C  5         +13.1% ( 49.8%)      0.0%
 TRAVEL      0.0937         C  5 -- C  6         +11.9% ( 47.5%)      0.0%
 RED. MASS   0.8309         C  3 -- C  6          +7.9% ( 38.7%)     75.0%
 EFF. MASS   6.2573

 VIBRATION   25   25A         ATOM PAIR      ENERGY CONTRIBUTION    RADIAL
 FREQ.      1261.60         C  6 -- H 17         +20.8% ( 56.4%)      1.8%
 T-DIPOLE    0.2876         C  1 -- H  9         +14.8% ( 47.6%)      0.4%
 TRAVEL      0.1134         C  1 -- H  8         +10.4% ( 39.9%)      0.2%
 RED. MASS   0.4340         C  5 -- C  6          +9.1% ( 37.3%)      0.9%
 EFF. MASS   4.1584

 VIBRATION   26   26A         ATOM PAIR      ENERGY CONTRIBUTION    RADIAL
 FREQ.      1325.05         C  3 -- H 12         +25.3% ( 58.4%)      7.0%
 T-DIPOLE    0.5202         C  3 -- H 13         +24.8% ( 57.9%)      6.4%
 TRAVEL      0.1106         C  3 -- C  6         +14.6% ( 44.4%)     51.7%
 RED. MASS   0.6973         C  3 -- C  7         +12.6% ( 41.3%)     54.6%
 EFF. MASS   4.1628

 VIBRATION   27   27A         ATOM PAIR      ENERGY CONTRIBUTION    RADIAL
 FREQ.      1333.19         C  2 -- H 11         +37.0% ( 60.2%)      5.1%
 T-DIPOLE    0.4171         C  2 -- H 10         +32.4% ( 56.4%)      5.1%
 TRAVEL      0.1436         C  2 -- C  7          +9.1% ( 29.9%)     23.0%
 RED. MASS   0.4876         C  1 -- C  2          +8.8% ( 29.3%)     30.8%
 EFF. MASS   2.4530

 VIBRATION   28   28A         ATOM PAIR      ENERGY CONTRIBUTION    RADIAL
 FREQ.      1371.62         C  4 -- H 16         +12.7% ( 42.3%)      4.3%
 T-DIPOLE    0.1415         C  4 -- H 14         +12.7% ( 42.3%)      4.4%
 TRAVEL      0.1080         C  1 -- H  9         +11.6% ( 40.4%)      0.6%
 RED. MASS   0.3559         C  1 -- H  8          +9.5% ( 36.6%)      1.2%
 EFF. MASS   4.2109

 VIBRATION   29   29A         ATOM PAIR      ENERGY CONTRIBUTION    RADIAL
 FREQ.      1386.36         C  1 -- H  9         +22.5% ( 49.0%)      4.9%
 T-DIPOLE    0.2590         C  1 -- H  8         +21.8% ( 48.3%)      4.9%
 TRAVEL      0.1294         C  4 -- H 16         +11.7% ( 35.4%)      4.4%
 RED. MASS   0.3055         C  4 -- H 14         +11.7% ( 35.3%)      4.5%
 EFF. MASS   2.9035

 VIBRATION   30   30A         ATOM PAIR      ENERGY CONTRIBUTION    RADIAL
 FREQ.      1395.46         C  4 -- H 15         +52.5% ( 62.8%)      0.0%
 T-DIPOLE    0.0734         C  4 -- H 16         +23.5% ( 42.1%)      9.1%
 TRAVEL      0.1745         C  4 -- H 14         +17.4% ( 36.2%)     14.0%
 RED. MASS   0.4137         C  4 -- C  5          +4.9% ( 19.3%)      0.3%
 EFF. MASS   1.5868

 VIBRATION   31   31A         ATOM PAIR      ENERGY CONTRIBUTION    RADIAL
 FREQ.      1403.67         C  4 -- H 14         +20.4% ( 46.7%)      0.0%
 T-DIPOLE    0.0663         C  4 -- H 15         +16.7% ( 42.2%)     11.6%
 TRAVEL      0.1285         C  4 -- H 16         +14.6% ( 39.5%)      0.4%
 RED. MASS   0.2571         C  1 -- H  9          +6.9% ( 27.1%)      5.2%
 EFF. MASS   2.9096

 VIBRATION   32   32A         ATOM PAIR      ENERGY CONTRIBUTION    RADIAL
 FREQ.      1422.71         C  3 -- C  6         +12.3% ( 52.9%)     90.2%
 T-DIPOLE    0.3120         C  2 -- C  7         +12.1% ( 52.6%)     70.3%
 TRAVEL      0.0720         C  1 -- C  2         +10.0% ( 47.9%)     79.1%
 RED. MASS   1.5868         C  3 -- C  7          +9.7% ( 47.0%)     35.4%
 EFF. MASS   9.1437

 VIBRATION   33   33A         ATOM PAIR      ENERGY CONTRIBUTION    RADIAL
 FREQ.      1476.85         C  1 -- C  5         +23.9% ( 74.0%)     83.1%
 T-DIPOLE    0.2760         C  4 -- C  5         +21.9% ( 70.9%)     82.3%
 TRAVEL      0.0661         C  5 -- C  6         +12.5% ( 53.6%)      0.9%
 RED. MASS   3.0859         C  1 -- C  2          +7.4% ( 41.2%)     73.3%
 EFF. MASS  10.4626

 VIBRATION   34   34A         ATOM PAIR      ENERGY CONTRIBUTION    RADIAL
 FREQ.      1551.33         C  3 -- C  7         +26.7% ( 76.0%)     98.2%
 T-DIPOLE    2.2713         C  2 -- C  7         +23.2% ( 70.8%)     93.4%
 TRAVEL      0.0618         C  3 -- C  6         +10.4% ( 47.4%)     60.6%
 RED. MASS   3.4852         C  3 -- H 13          +8.9% ( 43.8%)      0.2%
 EFF. MASS  11.3822

 VIBRATION   35   35A         ATOM PAIR      ENERGY CONTRIBUTION    RADIAL
 FREQ.      1897.04         C  5 -- C  6         +43.9% ( 97.6%)     99.1%
 T-DIPOLE    0.2167         C  4 -- C  5         +15.3% ( 57.6%)     38.5%
 TRAVEL      0.0548         C  1 -- C  5         +15.1% ( 57.2%)     29.8%
 RED. MASS   5.5601         C  3 -- C  6         +12.7% ( 52.6%)     50.2%
 EFF. MASS  11.8524         C  6 -- H 17         +11.9% ( 50.8%)      4.4%

 VIBRATION   36   36A         ATOM PAIR      ENERGY CONTRIBUTION    RADIAL
 FREQ.      2912.42         C  3 -- H 13         +56.6% ( 77.9%)     97.4%
 T-DIPOLE    0.3059         C  3 -- H 12         +40.7% ( 66.1%)     95.7%
 TRAVEL      0.1239         C  3 -- C  6          +0.9% ( 10.1%)      0.1%
 RED. MASS   0.5171         C  3 -- C  7          +0.9% ( 10.1%)      0.0%
 EFF. MASS   1.5078

 VIBRATION   37   37A         ATOM PAIR      ENERGY CONTRIBUTION    RADIAL
 FREQ.      2917.97         C  2 -- H 10         +59.0% ( 79.6%)     97.9%
 T-DIPOLE    0.3370         C  2 -- H 11         +32.2% ( 58.8%)     94.5%
 TRAVEL      0.1236         C  1 -- H  8          +3.7% ( 20.0%)     96.9%
 RED. MASS   0.4831         C  1 -- H  9          +2.3% ( 15.7%)     94.4%
 EFF. MASS   1.5139

 VIBRATION   38   38A         ATOM PAIR      ENERGY CONTRIBUTION    RADIAL
 FREQ.      2944.10         C  1 -- H  8         +53.3% ( 75.7%)     97.2%
 T-DIPOLE    0.1287         C  1 -- H  9         +38.7% ( 64.5%)     95.5%
 TRAVEL      0.1223         C  2 -- H 10          +3.6% ( 19.5%)     98.1%
 RED. MASS   0.4699         C  2 -- H 11          +2.3% ( 15.7%)     95.8%
 EFF. MASS   1.5325

 VIBRATION   39   39A         ATOM PAIR      ENERGY CONTRIBUTION    RADIAL
 FREQ.      3004.45         C  3 -- H 12         +56.6% ( 74.1%)     98.7%
 T-DIPOLE    0.4431         C  3 -- H 13         +39.5% ( 61.9%)     96.7%
 TRAVEL      0.1325         C  2 -- H 11          +1.4% ( 11.6%)     99.5%
 RED. MASS   0.4719         C  2 -- H 10          +0.7% (  8.0%)     95.6%
 EFF. MASS   1.2779

 VIBRATION   40   40A         ATOM PAIR      ENERGY CONTRIBUTION    RADIAL
 FREQ.      3015.10         C  2 -- H 11         +59.4% ( 75.9%)     99.2%
 T-DIPOLE    0.3033         C  2 -- H 10         +31.2% ( 55.0%)     95.2%
 TRAVEL      0.1320         C  1 -- H  9          +3.4% ( 18.0%)     98.2%
 RED. MASS   0.4429         C  1 -- H  8          +2.7% ( 16.3%)     97.1%
 EFF. MASS   1.2843

 VIBRATION   41   41A         ATOM PAIR      ENERGY CONTRIBUTION    RADIAL
 FREQ.      3026.33         C  1 -- H  9         +54.8% ( 72.9%)     98.6%
 T-DIPOLE    0.1718         C  1 -- H  8         +37.7% ( 60.5%)     96.5%
 TRAVEL      0.1320         C  2 -- H 11          +4.2% ( 20.2%)     99.4%
 RED. MASS   0.4392         C  2 -- H 10          +1.8% ( 13.4%)     94.5%
 EFF. MASS   1.2779

 VIBRATION   42   42A         ATOM PAIR      ENERGY CONTRIBUTION    RADIAL
 FREQ.      3055.13         C  6 -- H 17         +96.2% ( 99.5%)    100.0%
 T-DIPOLE    0.3393         C  5 -- C  6          +1.6% ( 12.6%)     39.3%
 TRAVEL      0.1204         C  3 -- C  6          +1.4% ( 12.1%)     19.2%
 RED. MASS   0.9134         C  3 -- H 12          +0.3% (  5.9%)     98.4%
 EFF. MASS   1.5233

 VIBRATION   43   43A         ATOM PAIR      ENERGY CONTRIBUTION    RADIAL
 FREQ.      3068.19         C  4 -- H 14         +56.8% ( 77.7%)     98.0%
 T-DIPOLE    0.0314         C  4 -- H 16         +40.4% ( 65.6%)     95.6%
 TRAVEL      0.1210         C  4 -- H 15          +1.8% ( 14.0%)     20.7%
 RED. MASS   0.5138         C  4 -- C  5          +1.0% ( 10.2%)      0.0%
 EFF. MASS   1.5020

 VIBRATION   44   44A         ATOM PAIR      ENERGY CONTRIBUTION    RADIAL
 FREQ.      3076.37         C  4 -- H 15         +60.5% ( 80.3%)     98.7%
 T-DIPOLE    0.0281         C  4 -- H 16         +26.7% ( 53.3%)     90.8%
 TRAVEL      0.1204         C  4 -- H 14         +11.6% ( 35.2%)     76.5%
 RED. MASS   0.4814         C  4 -- C  5          +1.0% ( 10.6%)      0.0%
 EFF. MASS   1.5128

 VIBRATION   45   45A         ATOM PAIR      ENERGY CONTRIBUTION    RADIAL
 FREQ.      3167.97         C  4 -- H 15         +37.2% ( 58.7%)     97.6%
 T-DIPOLE    0.0579         C  4 -- H 16         +32.0% ( 54.5%)     96.9%
 TRAVEL      0.1367         C  4 -- H 14         +30.5% ( 53.2%)     96.6%
 RED. MASS   0.3290         C  4 -- C  5          +0.3% (  5.3%)     99.6%
 EFF. MASS   1.1389

      SYMMETRY NUMBER FOR POINT-GROUP C1  =  1


          SYSTEM IS A GROUND STATE



 InChI=1S/C7H10/c1-7-5-3-2-4-6-7/h5H,3-4,6H2,1H3/lp2


          MOLECULE IS NOT LINEAR

          THERE ARE 45 GENUINE VIBRATIONS IN THIS SYSTEM
          THIS THERMODYNAMICS CALCULATION IS LIMITED TO
          MOLECULES WHICH HAVE NO INTERNAL ROTATIONS




                    CALCULATED THERMODYNAMIC PROPERTIES
                                          *
   TEMP. (K)   PARTITION FUNCTION   H.O.F.    ENTHALPY  HEAT CAPACITY ENTROPY
                                   KCAL/MOL   CAL/MOLE    CAL/K/MOL  CAL/K/MOL


 298.00  VIB.     0.3868D+02                  2860.5381    21.5182    16.8631
         ROT.     0.1969D+06                   888.2813     2.9808    27.2055
         INT.     0.7615D+07                  3748.8194    24.4990    44.0686
         TRA.     0.8833D+27                  1480.4688     4.9680    39.5363
         TOT.                       72.762    5229.2882    29.4670    83.6048

 200.00  VIB.     0.8415D+01                  1186.7300    12.8771    10.1665
         ROT.     0.1082D+06                   596.1620     2.9808    26.0168
         INT.     0.9109D+06                  1782.8920    15.8579    36.1834
         TRA.     0.4856D+27                   993.6033     4.9680    37.5551
         TOT.                       70.310    2776.4952    20.8259    73.7385

 210.00  VIB.     0.9777D+01                  1319.5050    13.6818    10.8142
         ROT.     0.1165D+06                   625.9700     2.9808    26.1623
         INT.     0.1139D+07                  1945.4751    16.6626    36.9764
         TRA.     0.5225D+27                  1043.2834     4.9680    37.7975
         TOT.                       70.522    2988.7585    21.6306    74.7740

 220.00  VIB.     0.1137D+02                  1460.4399    14.5089    11.4697
         ROT.     0.1249D+06                   655.7781     2.9808    26.3009
         INT.     0.1420D+07                  2116.2181    17.4897    37.7706
         TRA.     0.5603D+27                  1092.9636     4.9680    38.0286
         TOT.                       70.742    3209.1816    22.4577    75.7992

 230.00  VIB.     0.1325D+02                  1609.7526    15.3570    12.1333
         ROT.     0.1335D+06                   685.5862     2.9808    26.4334
         INT.     0.1768D+07                  2295.3388    18.3378    38.5667
         TRA.     0.5989D+27                  1142.6437     4.9680    38.2495
         TOT.                       70.971    3437.9825    23.3059    76.8162

 240.00  VIB.     0.1545D+02                  1767.6450    16.2245    12.8051
         ROT.     0.1423D+06                   715.3943     2.9808    26.5603
         INT.     0.2198D+07                  2483.0393    19.2053    39.3654
         TRA.     0.6384D+27                  1192.3239     4.9680    38.4609
         TOT.                       71.208    3675.3632    24.1733    77.8263

 250.00  VIB.     0.1804D+02                  1934.2997    17.1091    13.4853
         ROT.     0.1513D+06                   745.2024     2.9808    26.6820
         INT.     0.2729D+07                  2679.5021    20.0899    40.1673
         TRA.     0.6787D+27                  1242.0041     4.9680    38.6637
         TOT.                       71.455    3921.5062    25.0579    78.8310

 260.00  VIB.     0.2109D+02                  2109.8769    18.0086    14.1738
         ROT.     0.1604D+06                   775.0105     2.9808    26.7989
         INT.     0.3384D+07                  2884.8874    20.9894    40.9727
         TRA.     0.7198D+27                  1291.6842     4.9680    38.8586
         TOT.                       71.710    4176.5717    25.9574    79.8313

 270.00  VIB.     0.2470D+02                  2294.5130    18.9205    14.8705
         ROT.     0.1698D+06                   804.8186     2.9808    26.9114
         INT.     0.4193D+07                  3099.3317    21.9013    41.7819
         TRA.     0.7618D+27                  1341.3644     4.9680    39.0461
         TOT.                       71.974    4440.6961    26.8693    80.8280

 280.00  VIB.     0.2895D+02                  2488.3193    19.8422    15.5753
         ROT.     0.1793D+06                   834.6267     2.9808    27.0198
         INT.     0.5192D+07                  3322.9461    22.8230    42.5950
         TRA.     0.8045D+27                  1391.0445     4.9680    39.2267
         TOT.                       72.247    4713.9906    27.7910    81.8218

 290.00  VIB.     0.3399D+02                  2691.3818    20.7713    16.2877
         ROT.     0.1890D+06                   864.4348     2.9808    27.1244
         INT.     0.6424D+07                  3555.8167    23.7521    43.4121
         TRA.     0.8479D+27                  1440.7247     4.9680    39.4011
         TOT.                       72.530    4996.5414    28.7201    82.8132

 300.00  VIB.     0.3996D+02                  2903.7615    21.7052    17.0076
         ROT.     0.1989D+06                   894.2429     2.9808    27.2254
         INT.     0.7946D+07                  3798.0044    24.6861    44.2331
         TRA.     0.8922D+27                  1490.4049     4.9680    39.5695
         TOT.                       72.821    5288.4093    29.6541    83.8026

 310.00  VIB.     0.4703D+02                  3125.4950    22.6417    17.7346
         ROT.     0.2089D+06                   924.0510     2.9808    27.3232
         INT.     0.9824D+07                  4049.5460    25.6225    45.0578
         TRA.     0.9372D+27                  1540.0850     4.9680    39.7324
         TOT.                       73.123    5589.6311    30.5905    84.7902

 320.00  VIB.     0.5543D+02                  3356.5962    23.5784    18.4683
         ROT.     0.2191D+06                   953.8591     2.9808    27.4178
         INT.     0.1214D+08                  4310.4553    26.5592    45.8861
         TRA.     0.9829D+27                  1589.7652     4.9680    39.8901
         TOT.                       73.433    5900.2205    31.5272    85.7762

 330.00  VIB.     0.6541D+02                  3597.0570    24.5133    19.2081
         ROT.     0.2294D+06                   983.6672     2.9808    27.5095
         INT.     0.1501D+08                  4580.7242    27.4941    46.7177
         TRA.     0.1029D+28                  1639.4454     4.9680    40.0430
         TOT.                       73.753    6220.1696    32.4621    86.7607

 340.00  VIB.     0.7729D+02                  3846.8495    25.4444    19.9538
         ROT.     0.2399D+06                  1013.4753     2.9808    27.5985
         INT.     0.1854D+08                  4860.3249    28.4253    47.5523
         TRA.     0.1076D+28                  1689.1255     4.9680    40.1913
         TOT.                       74.083    6549.4504    33.3933    87.7436

 350.00  VIB.     0.9143D+02                  4105.9276    26.3701    20.7047
         ROT.     0.2506D+06                  1043.2834     2.9808    27.6849
         INT.     0.2291D+08                  5149.2110    29.3509    48.3896
         TRA.     0.1124D+28                  1738.8057     4.9680    40.3353
         TOT.                       74.421    6888.0167    34.3189    88.7250

 360.00  VIB.     0.1083D+03                  4374.2284    27.2888    21.4605
         ROT.     0.2614D+06                  1073.0915     2.9808    27.7689
         INT.     0.2831D+08                  5447.3199    30.2696    49.2294
         TRA.     0.1173D+28                  1788.4859     4.9680    40.4753
         TOT.                       74.769    7235.8058    35.2376    89.7046

 370.00  VIB.     0.1284D+03                  4651.6748    28.1990    22.2206
         ROT.     0.2724D+06                  1102.8996     2.9808    27.8506
         INT.     0.3498D+08                  5754.5744    31.1798    50.0711
         TRA.     0.1222D+28                  1838.1660     4.9680    40.6114
         TOT.                       75.126    7592.7404    36.1478    90.6826

 380.00  VIB.     0.1525D+03                  4938.1765    29.0996    22.9846
         ROT.     0.2835D+06                  1132.7077     2.9808    27.9301
         INT.     0.4322D+08                  6070.8842    32.0805    50.9146
         TRA.     0.1272D+28                  1887.8462     4.9680    40.7439
         TOT.                       75.492    7958.7304    37.0485    91.6585

 390.00  VIB.     0.1812D+03                  5233.6323    29.9897    23.7520
         ROT.     0.2948D+06                  1162.5158     2.9808    28.0075
         INT.     0.5340D+08                  6396.1481    32.9705    51.7595
         TRA.     0.1322D+28                  1937.5263     4.9680    40.8729
         TOT.                       75.867    8333.6744    37.9385    92.6324

 400.00  VIB.     0.2155D+03                  5537.9313    30.8682    24.5224
         ROT.     0.3062D+06                  1192.3239     2.9808    28.0830
         INT.     0.6599D+08                  6730.2552    33.8490    52.6053
         TRA.     0.1374D+28                  1987.2065     4.9680    40.9987
         TOT.                       76.251    8717.4617    38.8170    93.6040

   *: NOTE: HEATS OF FORMATION ARE RELATIVE TO THE
            ELEMENTS IN THEIR STANDARD STATE AT 298K
              (=  Standard Enthalpy of Formation).

            Hvib:  Zero-point energy is not included.
                   frequencies of less than zero cm-1 are not included.
            Hrot = (3/2)RT
            Htra = (3/2)RT + pV = (5/2)RT

            Heat capacity is Cp, not Cv

          For more information, see: HTTP://OpenMOPAC.net/Manual/thermochemistry.html


           FORCE CONSTANT IN CARTESIAN COORDINATES (Millidynes/A)

    ATOM   CHEMICAL       X               Y               Z
   NUMBER   SYMBOL  FORCE CONSTANT  FORCE CONSTANT  FORCE CONSTANT

      1       C        8.445406        8.935764        7.935216
      2       C        8.555229        9.200010        7.037122
      3       C        9.260296        9.140908        7.084461
      4       C        8.898119        8.491827        8.081511
      5       C       10.866887       13.409896        3.745207
      6       C       10.431466       13.612074        3.300429
      7       C        4.844855        9.230826        1.078871
      8       H        1.150658        0.720800        4.368175
      9       H        1.197253        3.109069        2.058972
     10       H        1.160694        0.886756        3.862422
     11       H        1.188957        2.151375        2.790968
     12       H        1.858896        1.861162        2.299417
     13       H        0.583969        1.227817        4.052914
     14       H        0.676019        2.218293        3.764833
     15       H        1.326237        4.544022        0.904244
     16       H        2.214260        1.405547        3.043674
     17       H        1.491579        3.950020        0.809320

 **********************
 *                    *
 * JOB ENDED NORMALLY *
 *                    *
 **********************



 TOTAL JOB TIME:             6.83 SECONDS

 == MOPAC DONE ==
