 *******************************************************************************
 ** Site#: 14399        For non-commercial use only    Version 18.184L 64BITS **
 *******************************************************************************
 ** Cite this program as: MOPAC2016, Version: 18.184L, James J. P. Stewart,   **
 ** Stewart Computational Chemistry, web: HTTP://OpenMOPAC.net. Days left:  20**
 *******************************************************************************
 **                                                                           **
 **                                MOPAC2016                                  **
 **                                                                           **
 *******************************************************************************

                              PM3 CALCULATION RESULTS

 *******************************************************************************
 *  CALCULATION DONE:                                Thu Jun 13 19:49:02 2019  *
 *  PM3        - The PM3 Hamiltonian to be used
 *  PRECISE    - CRITERIA TO BE INCREASED BY 100 TIMES
 *  NOSYM      - POINT-GROUP SYMMETRY SET TO C1
 *  THREADS=1  - MULTI-THREADING NOT USED
 *  T=         - A TIME OF 172800.0 SECONDS REQUESTED
 *  DUMP=N     - RESTART FILE WRITTEN EVERY  7200.000 SECONDS
 *******************************************************************************
pm3  precise nosym THREADS=1
 InChI=1S/C7H10/c1-3-4-7-5-6(7)2/h2-4,6-7H,5H2,1H3/lp2

   ATOM   CHEMICAL          X               Y               Z
  NUMBER   SYMBOL      (ANGSTROMS)     (ANGSTROMS)     (ANGSTROMS)
 
     1       C         -0.85760000  *   0.10080000  *  -0.54900000  *
     2       C         -2.00760000  *   0.03930000  *   0.44490000  *
     3       C         -1.37120000  *  -1.24790000  *  -0.05340000  *
     4       C          2.91080000  *   0.30120000  *   0.27130000  *
     5       C          0.46090000  *   0.50800000  *   0.04310000  *
     6       C          1.59340000  *  -0.11560000  *  -0.30470000  *
     7       C         -3.36840000  *   0.32870000  *  -0.16550000  *
     8       H         -1.08840000  *   0.32350000  *  -1.61340000  *
     9       H         -1.79310000  *   0.30090000  *   1.50370000  *
    10       H         -1.95970000  *  -1.81410000  *  -0.80730000  *
    11       H         -0.73840000  *  -1.75920000  *   0.70410000  *
    12       H          2.89340000  *   0.18960000  *   1.37610000  *
    13       H          3.12090000  *   1.35980000  *   0.00980000  *
    14       H          3.71920000  *  -0.33790000  *  -0.14140000  *
    15       H          1.56560000  *  -0.93890000  *  -1.01370000  *
    16       H          0.49010000  *   1.34250000  *   0.73890000  *
    17       H         -3.57000000  *   1.41930000  *  -0.12670000  *
 


          CARTESIAN COORDINATES 

    NO.       ATOM           X           Y           Z

     1         C         -0.8576      0.1008     -0.5490
     2         C         -2.0076      0.0393      0.4449
     3         C         -1.3712     -1.2479     -0.0534
     4         C          2.9108      0.3012      0.2713
     5         C          0.4609      0.5080      0.0431
     6         C          1.5934     -0.1156     -0.3047
     7         C         -3.3684      0.3287     -0.1655
     8         H         -1.0884      0.3235     -1.6134
     9         H         -1.7931      0.3009      1.5037
    10         H         -1.9597     -1.8141     -0.8073
    11         H         -0.7384     -1.7592      0.7041
    12         H          2.8934      0.1896      1.3761
    13         H          3.1209      1.3598      0.0098
    14         H          3.7192     -0.3379     -0.1414
    15         H          1.5656     -0.9389     -1.0137
    16         H          0.4901      1.3425      0.7389
    17         H         -3.5700      1.4193     -0.1267

  H: (PM3): J. J. P. STEWART, J. COMP. CHEM. 10, 209 (1989).
  C: (PM3): J. J. P. STEWART, J. COMP. CHEM. 10, 209 (1989).

           Empirical Formula: C7 H10  =    17 atoms



      MOLECULAR POINT GROUP   :   C1  


      RHF CALCULATION, NO. OF DOUBLY OCCUPIED LEVELS = 19


          Geometry optimization using EF

          DIAGONAL MATRIX USED AS START HESSIAN

 CYCLE:     1 TIME:   0.023 TIME LEFT:  2.00D  GRAD.:   103.693 HEAT:  134.5430
 CYCLE:     2 TIME:   0.039 TIME LEFT:  2.00D  GRAD.:    94.671 HEAT:  131.5655
 CYCLE:     3 TIME:   0.023 TIME LEFT:  2.00D  GRAD.:    96.817 HEAT:  130.5027
 CYCLE:     4 TIME:   0.031 TIME LEFT:  2.00D  GRAD.:    44.663 HEAT:  128.6210
 CYCLE:     5 TIME:   0.031 TIME LEFT:  2.00D  GRAD.:    26.123 HEAT:  127.9454
 CYCLE:     6 TIME:   0.023 TIME LEFT:  2.00D  GRAD.:    49.756 HEAT:  127.8427
 CYCLE:     7 TIME:   0.031 TIME LEFT:  2.00D  GRAD.:    27.113 HEAT:  127.0989
 CYCLE:     8 TIME:   0.039 TIME LEFT:  2.00D  GRAD.:    14.285 HEAT:  126.9001
 CYCLE:     9 TIME:   0.016 TIME LEFT:  2.00D  GRAD.:    15.376 HEAT:  126.7755
 CYCLE:    10 TIME:   0.023 TIME LEFT:  2.00D  GRAD.:    15.169 HEAT:  126.6378
 CYCLE:    11 TIME:   0.023 TIME LEFT:  2.00D  GRAD.:    21.126 HEAT:  126.6148
 CYCLE:    12 TIME:   0.031 TIME LEFT:  2.00D  GRAD.:    11.264 HEAT:  126.4970
 CYCLE:    13 TIME:   0.023 TIME LEFT:  2.00D  GRAD.:    10.041 HEAT:  126.4617
 CYCLE:    14 TIME:   0.031 TIME LEFT:  2.00D  GRAD.:     5.800 HEAT:  126.4199
 CYCLE:    15 TIME:   0.023 TIME LEFT:  2.00D  GRAD.:     6.362 HEAT:  126.3677
 CYCLE:    16 TIME:   0.016 TIME LEFT:  2.00D  GRAD.:    11.072 HEAT:  126.2990
 CYCLE:    17 TIME:   0.031 TIME LEFT:  2.00D  GRAD.:    14.176 HEAT:  126.2410
 CYCLE:    18 TIME:   0.023 TIME LEFT:  2.00D  GRAD.:    10.160 HEAT:  126.1404
 CYCLE:    19 TIME:   0.031 TIME LEFT:  2.00D  GRAD.:    10.231 HEAT:  126.0456
 CYCLE:    20 TIME:   0.023 TIME LEFT:  2.00D  GRAD.:    12.324 HEAT:  125.8831
 CYCLE:    21 TIME:   0.023 TIME LEFT:  2.00D  GRAD.:    15.676 HEAT:  125.7852
 CYCLE:    22 TIME:   0.023 TIME LEFT:  2.00D  GRAD.:    15.868 HEAT:  125.6520
 CYCLE:    23 TIME:   0.023 TIME LEFT:  2.00D  GRAD.:     9.868 HEAT:  125.4667
 CYCLE:    24 TIME:   0.023 TIME LEFT:  2.00D  GRAD.:    14.855 HEAT:  125.4052
 CYCLE:    25 TIME:   0.023 TIME LEFT:  2.00D  GRAD.:    17.618 HEAT:  125.3911
 CYCLE:    26 TIME:   0.023 TIME LEFT:  2.00D  GRAD.:     8.152 HEAT:  125.2760
 CYCLE:    27 TIME:   0.023 TIME LEFT:  2.00D  GRAD.:     5.993 HEAT:  125.2113
 CYCLE:    28 TIME:   0.023 TIME LEFT:  2.00D  GRAD.:     6.642 HEAT:  125.1375
 CYCLE:    29 TIME:   0.023 TIME LEFT:  2.00D  GRAD.:     8.339 HEAT:  125.0264
 CYCLE:    30 TIME:   0.016 TIME LEFT:  2.00D  GRAD.:     6.545 HEAT:  124.9645
 CYCLE:    31 TIME:   0.023 TIME LEFT:  2.00D  GRAD.:     8.949 HEAT:  124.9114
 CYCLE:    32 TIME:   0.023 TIME LEFT:  2.00D  GRAD.:     7.276 HEAT:  124.8298
 CYCLE:    33 TIME:   0.023 TIME LEFT:  2.00D  GRAD.:     6.486 HEAT:  124.6988
 CYCLE:    34 TIME:   0.023 TIME LEFT:  2.00D  GRAD.:     4.596 HEAT:  124.6303
 CYCLE:    35 TIME:   0.023 TIME LEFT:  2.00D  GRAD.:     3.965 HEAT:  124.6028
 CYCLE:    36 TIME:   0.023 TIME LEFT:  2.00D  GRAD.:     3.618 HEAT:  124.5809
 CYCLE:    37 TIME:   0.023 TIME LEFT:  2.00D  GRAD.:     3.279 HEAT:  124.5612
 CYCLE:    38 TIME:   0.023 TIME LEFT:  2.00D  GRAD.:     3.025 HEAT:  124.5412
 CYCLE:    39 TIME:   0.023 TIME LEFT:  2.00D  GRAD.:     2.211 HEAT:  124.5302
 CYCLE:    40 TIME:   0.023 TIME LEFT:  2.00D  GRAD.:     1.939 HEAT:  124.5220
 CYCLE:    41 TIME:   0.031 TIME LEFT:  2.00D  GRAD.:     1.986 HEAT:  124.5141
 CYCLE:    42 TIME:   0.023 TIME LEFT:  2.00D  GRAD.:     2.341 HEAT:  124.5037
 CYCLE:    43 TIME:   0.023 TIME LEFT:  2.00D  GRAD.:     2.133 HEAT:  124.4959
 CYCLE:    44 TIME:   0.023 TIME LEFT:  2.00D  GRAD.:     1.962 HEAT:  124.4866
 CYCLE:    45 TIME:   0.023 TIME LEFT:  2.00D  GRAD.:     1.986 HEAT:  124.4777
 CYCLE:    46 TIME:   0.023 TIME LEFT:  2.00D  GRAD.:     2.122 HEAT:  124.4663
 CYCLE:    47 TIME:   0.023 TIME LEFT:  2.00D  GRAD.:     2.154 HEAT:  124.4539
 CYCLE:    48 TIME:   0.023 TIME LEFT:  2.00D  GRAD.:     2.202 HEAT:  124.4408
 CYCLE:    49 TIME:   0.023 TIME LEFT:  2.00D  GRAD.:     2.394 HEAT:  124.4294
 CYCLE:    50 TIME:   0.023 TIME LEFT:  2.00D  GRAD.:     2.426 HEAT:  124.4167
 CYCLE:    51 TIME:   0.023 TIME LEFT:  2.00D  GRAD.:     2.090 HEAT:  124.4082
 CYCLE:    52 TIME:   0.023 TIME LEFT:  2.00D  GRAD.:     1.603 HEAT:  124.4019
 CYCLE:    53 TIME:   0.016 TIME LEFT:  2.00D  GRAD.:     1.310 HEAT:  124.3979
 CYCLE:    54 TIME:   0.023 TIME LEFT:  2.00D  GRAD.:     1.306 HEAT:  124.3943
 CYCLE:    55 TIME:   0.023 TIME LEFT:  2.00D  GRAD.:     1.210 HEAT:  124.3902
 CYCLE:    56 TIME:   0.023 TIME LEFT:  2.00D  GRAD.:     1.092 HEAT:  124.3854
 CYCLE:    57 TIME:   0.023 TIME LEFT:  2.00D  GRAD.:     0.999 HEAT:  124.3820
 CYCLE:    58 TIME:   0.023 TIME LEFT:  2.00D  GRAD.:     1.110 HEAT:  124.3786
 CYCLE:    59 TIME:   0.023 TIME LEFT:  2.00D  GRAD.:     1.477 HEAT:  124.3740
 CYCLE:    60 TIME:   0.039 TIME LEFT:  2.00D  GRAD.:     2.055 HEAT:  124.3651
 CYCLE:    61 TIME:   0.023 TIME LEFT:  2.00D  GRAD.:     3.338 HEAT:  124.3476
 CYCLE:    62 TIME:   0.031 TIME LEFT:  2.00D  GRAD.:     3.088 HEAT:  124.3325
 CYCLE:    63 TIME:   0.023 TIME LEFT:  2.00D  GRAD.:     6.284 HEAT:  124.3079
 CYCLE:    64 TIME:   0.023 TIME LEFT:  2.00D  GRAD.:     4.962 HEAT:  124.2812
 CYCLE:    65 TIME:   0.016 TIME LEFT:  2.00D  GRAD.:     4.265 HEAT:  124.2482
 CYCLE:    66 TIME:   0.023 TIME LEFT:  2.00D  GRAD.:    10.753 HEAT:  124.1803
 CYCLE:    67 TIME:   0.023 TIME LEFT:  2.00D  GRAD.:     5.287 HEAT:  124.1574
 CYCLE:    68 TIME:   0.023 TIME LEFT:  2.00D  GRAD.:     3.646 HEAT:  124.1131
 CYCLE:    69 TIME:   0.023 TIME LEFT:  2.00D  GRAD.:     7.562 HEAT:  124.0758
 CYCLE:    70 TIME:   0.023 TIME LEFT:  2.00D  GRAD.:     5.329 HEAT:  124.0392
 CYCLE:    71 TIME:   0.023 TIME LEFT:  2.00D  GRAD.:    11.676 HEAT:  123.9968
 CYCLE:    72 TIME:   0.023 TIME LEFT:  2.00D  GRAD.:     6.598 HEAT:  123.9431
 CYCLE:    73 TIME:   0.023 TIME LEFT:  2.00D  GRAD.:     3.567 HEAT:  123.8939
 CYCLE:    74 TIME:   0.023 TIME LEFT:  2.00D  GRAD.:     4.796 HEAT:  123.8596
 CYCLE:    75 TIME:   0.023 TIME LEFT:  2.00D  GRAD.:     4.885 HEAT:  123.8296
 CYCLE:    76 TIME:   0.023 TIME LEFT:  2.00D  GRAD.:     4.492 HEAT:  123.7915
 CYCLE:    77 TIME:   0.023 TIME LEFT:  2.00D  GRAD.:     4.183 HEAT:  123.7798
 CYCLE:    78 TIME:   0.023 TIME LEFT:  2.00D  GRAD.:     3.743 HEAT:  123.7636
 CYCLE:    79 TIME:   0.023 TIME LEFT:  2.00D  GRAD.:     3.203 HEAT:  123.7483
 CYCLE:    80 TIME:   0.023 TIME LEFT:  2.00D  GRAD.:     2.480 HEAT:  123.7270
 CYCLE:    81 TIME:   0.023 TIME LEFT:  2.00D  GRAD.:     3.267 HEAT:  123.7172
 CYCLE:    82 TIME:   0.023 TIME LEFT:  2.00D  GRAD.:     2.451 HEAT:  123.7085
 CYCLE:    83 TIME:   0.031 TIME LEFT:  2.00D  GRAD.:     2.174 HEAT:  123.7019
 CYCLE:    84 TIME:   0.023 TIME LEFT:  2.00D  GRAD.:     1.350 HEAT:  123.6901
 CYCLE:    85 TIME:   0.023 TIME LEFT:  2.00D  GRAD.:     1.369 HEAT:  123.6871
 CYCLE:    86 TIME:   0.023 TIME LEFT:  2.00D  GRAD.:     0.927 HEAT:  123.6851
 CYCLE:    87 TIME:   0.023 TIME LEFT:  2.00D  GRAD.:     0.949 HEAT:  123.6835
 CYCLE:    88 TIME:   0.023 TIME LEFT:  2.00D  GRAD.:     1.179 HEAT:  123.6818
 CYCLE:    89 TIME:   0.023 TIME LEFT:  2.00D  GRAD.:     1.505 HEAT:  123.6791
 CYCLE:    90 TIME:   0.023 TIME LEFT:  2.00D  GRAD.:     1.217 HEAT:  123.6766
 CYCLE:    91 TIME:   0.016 TIME LEFT:  2.00D  GRAD.:     1.097 HEAT:  123.6748
 CYCLE:    92 TIME:   0.023 TIME LEFT:  2.00D  GRAD.:     0.709 HEAT:  123.6739
 CYCLE:    93 TIME:   0.023 TIME LEFT:  2.00D  GRAD.:     0.558 HEAT:  123.6735
 CYCLE:    94 TIME:   0.023 TIME LEFT:  2.00D  GRAD.:     0.473 HEAT:  123.6732
 CYCLE:    95 TIME:   0.023 TIME LEFT:  2.00D  GRAD.:     0.461 HEAT:  123.6728
 CYCLE:    96 TIME:   0.023 TIME LEFT:  2.00D  GRAD.:     0.444 HEAT:  123.6725
 CYCLE:    97 TIME:   0.023 TIME LEFT:  2.00D  GRAD.:     0.465 HEAT:  123.6720
 CYCLE:    98 TIME:   0.023 TIME LEFT:  2.00D  GRAD.:     0.340 HEAT:  123.6718
 CYCLE:    99 TIME:   0.023 TIME LEFT:  2.00D  GRAD.:     0.312 HEAT:  123.6715
 CYCLE:   100 TIME:   0.023 TIME LEFT:  2.00D  GRAD.:     0.262 HEAT:  123.6714
 CYCLE:   101 TIME:   0.023 TIME LEFT:  2.00D  GRAD.:     1.717 HEAT:  123.6760
 CYCLE:   102 TIME:   0.023 TIME LEFT:  2.00D  GRAD.:     0.188 HEAT:  123.6711
 CYCLE:   103 TIME:   0.023 TIME LEFT:  2.00D  GRAD.:     0.212 HEAT:  123.6710
 CYCLE:   104 TIME:   0.031 TIME LEFT:  2.00D  GRAD.:     0.147 HEAT:  123.6710
 CYCLE:   105 TIME:   0.023 TIME LEFT:  2.00D  GRAD.:     0.164 HEAT:  123.6709
 CYCLE:   106 TIME:   0.023 TIME LEFT:  2.00D  GRAD.:     0.242 HEAT:  123.6709
 CYCLE:   107 TIME:   0.023 TIME LEFT:  2.00D  GRAD.:     0.310 HEAT:  123.6707
 CYCLE:   108 TIME:   0.023 TIME LEFT:  2.00D  GRAD.:     0.384 HEAT:  123.6705
 CYCLE:   109 TIME:   0.023 TIME LEFT:  2.00D  GRAD.:     0.348 HEAT:  123.6704
 CYCLE:   110 TIME:   0.023 TIME LEFT:  2.00D  GRAD.:     0.706 HEAT:  123.6698
 CYCLE:   111 TIME:   0.023 TIME LEFT:  2.00D  GRAD.:     0.483 HEAT:  123.6694
 CYCLE:   112 TIME:   0.023 TIME LEFT:  2.00D  GRAD.:     0.401 HEAT:  123.6684
 CYCLE:   113 TIME:   0.016 TIME LEFT:  2.00D  GRAD.:     0.332 HEAT:  123.6681
 CYCLE:   114 TIME:   0.031 TIME LEFT:  2.00D  GRAD.:     1.058 HEAT:  123.6676
 CYCLE:   115 TIME:   0.016 TIME LEFT:  2.00D  GRAD.:     0.436 HEAT:  123.6673
 CYCLE:   116 TIME:   0.023 TIME LEFT:  2.00D  GRAD.:     0.378 HEAT:  123.6670
 CYCLE:   117 TIME:   0.023 TIME LEFT:  2.00D  GRAD.:     0.325 HEAT:  123.6662
 CYCLE:   118 TIME:   0.023 TIME LEFT:  2.00D  GRAD.:     0.229 HEAT:  123.6659
 CYCLE:   119 TIME:   0.023 TIME LEFT:  2.00D  GRAD.:     0.155 HEAT:  123.6657
 CYCLE:   120 TIME:   0.023 TIME LEFT:  2.00D  GRAD.:     0.069 HEAT:  123.6657
 CYCLE:   121 TIME:   0.023 TIME LEFT:  2.00D  GRAD.:     0.058 HEAT:  123.6657
 CYCLE:   122 TIME:   0.031 TIME LEFT:  2.00D  GRAD.:     0.031 HEAT:  123.6657

     GRADIENT =  0.03072  IS LESS THAN CUTOFF =  0.05000



 -------------------------------------------------------------------------------
 pm3  precise nosym THREADS=1
 InChI=1S/C7H10/c1-3-4-7-5-6(7)2/h2-4,6-7H,5H2,1H3/lp2



     GEOMETRY OPTIMISED USING EIGENVECTOR FOLLOWING (EF).     
     SCF FIELD WAS ACHIEVED                                   


                              PM3 CALCULATION
                                                       MOPAC2016 (Version: 18.184L)
                                                       Thu Jun 13 19:49:05 2019
                                                       No. of days remaining =  20




          FINAL HEAT OF FORMATION =        123.66570 KCAL/MOL =     517.41728 KJ/MOL


          TOTAL ENERGY            =       -978.44704 EV
          ELECTRONIC ENERGY       =      -4359.86779 EV  POINT GROUP:     C1  
          CORE-CORE REPULSION     =       3381.42075 EV
          COSMO AREA              =        155.50 SQUARE ANGSTROMS
          COSMO VOLUME            =        146.22 CUBIC ANGSTROMS

          GRADIENT NORM           =          0.03072 = 0.00745 PER ATOM
          IONIZATION POTENTIAL    =          8.568170 EV
          HOMO LUMO ENERGIES (EV) =         -8.568 -0.662
          NO. OF FILLED LEVELS    =         19
          MOLECULAR WEIGHT        =         94.1560

          MOLECULAR DIMENSIONS (Angstroms)

            Atom       Atom       Distance
            H    17    H    14     7.61142
            H    13    H    10     4.23047
            H    12    H     8     3.12774


          SCF CALCULATIONS        =        130
 
          WALL-CLOCK TIME         =          3.008 SECONDS
          COMPUTATION TIME        =          1.259 SECONDS




   ATOM   CHEMICAL          X               Y               Z
  NUMBER   SYMBOL      (ANGSTROMS)     (ANGSTROMS)     (ANGSTROMS)
 
     1       C         -0.83627505  *   0.06423169  *  -0.63095621  *
     2       C         -1.97491926  *   0.08018706  *   0.40107475  *
     3       C         -1.38671792  *  -1.22192627  *  -0.13258116  *
     4       C          2.88211738  *   0.30844339  *   0.32151953  *
     5       C          0.47785750  *   0.57039589  *  -0.19669404  *
     6       C          1.55427497  *  -0.20812917  *  -0.07514589  *
     7       C         -3.25098810  *   0.43002800  *  -0.14440550  *
     8       H         -1.08323611  *   0.38365041  *  -1.66273202  *
     9       H         -1.71246375  *   0.36593665  *   1.43763627  *
    10       H         -1.99977871  *  -1.84561759  *  -0.79385743  *
    11       H         -0.81023486  *  -1.84502533  *   0.56148373  *
    12       H          3.23169943  *  -0.19137957  *   1.23497479  *
    13       H          2.88234771  *   1.38965799  *   0.51381565  *
    14       H          3.62139512  *   0.11127169  *  -0.46658351  *
    15       H          1.49270242  *  -1.28614798  *  -0.27238615  *
    16       H          0.52269503  *   1.64958020  *  -0.00229950  *
    17       H         -3.86816563  *   0.97822685  *   0.57676289  *

                             CARTESIAN COORDINATES

   1    C       -0.836275051     0.064231686    -0.630956212
   2    C       -1.974919261     0.080187060     0.401074747
   3    C       -1.386717922    -1.221926274    -0.132581161
   4    C        2.882117384     0.308443386     0.321519531
   5    C        0.477857500     0.570395891    -0.196694036
   6    C        1.554274974    -0.208129168    -0.075145887
   7    C       -3.250988104     0.430028001    -0.144405502
   8    H       -1.083236109     0.383650413    -1.662732025
   9    H       -1.712463747     0.365936651     1.437636268
  10    H       -1.999778708    -1.845617585    -0.793857431
  11    H       -0.810234859    -1.845025333     0.561483728
  12    H        3.231699434    -0.191379566     1.234974786
  13    H        2.882347709     1.389657986     0.513815655
  14    H        3.621395117     0.111271692    -0.466583512
  15    H        1.492702416    -1.286147984    -0.272386155
  16    H        0.522695029     1.649580199    -0.002299502
  17    H       -3.868165633     0.978226854     0.576762886


           Empirical Formula: C7 H10  =    17 atoms



      MOLECULAR POINT GROUP   :   C1  


                  EIGENVALUES  
 -40.27568 -34.61403 -27.78556 -25.34627 -22.15727 -19.42314 -19.07800 -17.61264
 -15.96397 -15.13158 -14.59150 -14.40164 -13.26164 -12.78395 -12.67867 -12.42426
 -11.80556 -10.05072  -8.56817  -0.66215   0.78237   2.65747   2.78744   2.93370
   3.17851   3.45431   3.71040   3.80912   3.90878   4.13434   4.18830   4.29109
   4.48100   4.55359   4.70431   5.24522   5.43647   5.64293


              NET ATOMIC CHARGES AND DIPOLE CONTRIBUTIONS

  ATOM NO.   TYPE          CHARGE      No. of ELECS.   s-Pop       p-Pop       
    1          C          -0.013691        4.0137     1.15970     2.85399
    2          C          -0.301140        4.3011     1.20429     3.09685
    3          C          -0.064711        4.0647     1.15862     2.90609
    4          C          -0.077350        4.0774     1.12537     2.95198
    5          C          -0.150303        4.1503     1.18849     2.96182
    6          C          -0.125099        4.1251     1.19220     2.93290
    7          C           0.043193        3.9568     1.63646     2.32035
    8          H           0.115959        0.8840     0.88404
    9          H           0.093634        0.9064     0.90637
   10          H           0.092494        0.9075     0.90751
   11          H           0.079623        0.9204     0.92038
   12          H           0.046596        0.9534     0.95340
   13          H           0.043396        0.9566     0.95660
   14          H           0.047750        0.9523     0.95225
   15          H           0.100784        0.8992     0.89922
   16          H           0.109664        0.8903     0.89034
   17          H          -0.040798        1.0408     1.04080
 DIPOLE           X         Y         Z       TOTAL
 POINT-CHG.     1.657    -0.873    -0.847     2.056
 HYBRID         0.486     0.553     2.053     2.181
 SUM            2.143    -0.320     1.206     2.480


          ATOMIC ORBITAL ELECTRON POPULATIONS

     Atom    s        px        py        pz   
    1  C   1.15970   0.89610   0.99270   0.96518
    2  C   1.20429   1.03246   1.06877   0.99562
    3  C   1.15862   1.00131   0.89028   1.01450
    4  C   1.12537   0.94859   1.00181   1.00158
    5  C   1.18849   0.94240   0.99370   1.02571
    6  C   1.19220   0.95279   0.99082   0.98929
    7  C   1.63646   0.77207   0.36770   1.18058
    8  H   0.88404
    9  H   0.90637
   10  H   0.90751
   11  H   0.92038
   12  H   0.95340
   13  H   0.95660
   14  H   0.95225
   15  H   0.89922
   16  H   0.89034
   17  H   1.04080
 *******************************************************************************
 ** Site#: 14399        For non-commercial use only    Version 18.184L 64BITS **
 *******************************************************************************
 ** Cite this program as: MOPAC2016, Version: 18.184L, James J. P. Stewart,   **
 ** Stewart Computational Chemistry, web: HTTP://OpenMOPAC.net. Days left:  20**
 *******************************************************************************
 **                                                                           **
 **                                MOPAC2016                                  **
 **                                                                           **
 *******************************************************************************

                              PM3 CALCULATION RESULTS

 *******************************************************************************
 *  CALCULATION DONE:                                Thu Jun 13 19:49:05 2019  *
 *  PM3        - The PM3 Hamiltonian to be used
 *  OLDGEO     - PREVIOUS GEOMETRY TO BE USED
 *  PRECISE    - CRITERIA TO BE INCREASED BY 100 TIMES
 *  NOSYM      - POINT-GROUP SYMMETRY SET TO C1
 *  THREADS=1  - MULTI-THREADING NOT USED
 *  T=         - A TIME OF 172800.0 SECONDS REQUESTED
 *  DUMP=N     - RESTART FILE WRITTEN EVERY  7200.000 SECONDS
 *  THERMO     - THERMODYNAMIC QUANTITIES TO BE CALCULATED
 *******************************************************************************
oldgeo thermo nosym precise THREADS=1  pm3
 InChI=1S/C7H10/c1-3-4-7-5-6(7)2/h2-4,6-7H,5H2,1H3/lp2

   ATOM   CHEMICAL          X               Y               Z
  NUMBER   SYMBOL      (ANGSTROMS)     (ANGSTROMS)     (ANGSTROMS)
 
     1       C         -0.83627505  *   0.06423169  *  -0.63095621  *
     2       C         -1.97491926  *   0.08018706  *   0.40107475  *
     3       C         -1.38671792  *  -1.22192627  *  -0.13258116  *
     4       C          2.88211738  *   0.30844339  *   0.32151953  *
     5       C          0.47785750  *   0.57039589  *  -0.19669404  *
     6       C          1.55427497  *  -0.20812917  *  -0.07514589  *
     7       C         -3.25098810  *   0.43002800  *  -0.14440550  *
     8       H         -1.08323611  *   0.38365041  *  -1.66273202  *
     9       H         -1.71246375  *   0.36593665  *   1.43763627  *
    10       H         -1.99977871  *  -1.84561759  *  -0.79385743  *
    11       H         -0.81023486  *  -1.84502533  *   0.56148373  *
    12       H          3.23169943  *  -0.19137957  *   1.23497479  *
    13       H          2.88234771  *   1.38965799  *   0.51381565  *
    14       H          3.62139512  *   0.11127169  *  -0.46658351  *
    15       H          1.49270242  *  -1.28614798  *  -0.27238615  *
    16       H          0.52269503  *   1.64958020  *  -0.00229950  *
    17       H         -3.86816563  *   0.97822685  *   0.57676289  *
 


          CARTESIAN COORDINATES 

    NO.       ATOM           X           Y           Z

     1         C         -0.8363      0.0642     -0.6310
     2         C         -1.9749      0.0802      0.4011
     3         C         -1.3867     -1.2219     -0.1326
     4         C          2.8821      0.3084      0.3215
     5         C          0.4779      0.5704     -0.1967
     6         C          1.5543     -0.2081     -0.0751
     7         C         -3.2510      0.4300     -0.1444
     8         H         -1.0832      0.3837     -1.6627
     9         H         -1.7125      0.3659      1.4376
    10         H         -1.9998     -1.8456     -0.7939
    11         H         -0.8102     -1.8450      0.5615
    12         H          3.2317     -0.1914      1.2350
    13         H          2.8823      1.3897      0.5138
    14         H          3.6214      0.1113     -0.4666
    15         H          1.4927     -1.2861     -0.2724
    16         H          0.5227      1.6496     -0.0023
    17         H         -3.8682      0.9782      0.5768

  H: (PM3): J. J. P. STEWART, J. COMP. CHEM. 10, 209 (1989).
  C: (PM3): J. J. P. STEWART, J. COMP. CHEM. 10, 209 (1989).

           Empirical Formula: C7 H10  =    17 atoms



      MOLECULAR POINT GROUP   :   C1  


      RHF CALCULATION, NO. OF DOUBLY OCCUPIED LEVELS = 19



          HEAT OF FORMATION =     123.665700 KCALS/MOLE


          CARTESIAN COORDINATE DERIVATIVES

   NUMBER  ATOM         X            Y            Z

     1       C      0.000328     0.003824    -0.001393
     2       C      0.017100     0.007437    -0.010240
     3       C     -0.003092     0.000867     0.000966
     4       C     -0.008534     0.001948     0.007077
     5       C     -0.004919     0.008928    -0.003902
     6       C      0.003369     0.003886    -0.003920
     7       C     -0.020041    -0.024932     0.009886
     8       H     -0.001330    -0.001081    -0.000825
     9       H     -0.000947     0.000178     0.001551
    10       H      0.000163    -0.001177     0.000035
    11       H      0.000645    -0.002996     0.000098
    12       H     -0.005318    -0.009225    -0.004511
    13       H     -0.002235     0.007982     0.001722
    14       H      0.011669    -0.002011     0.002230
    15       H     -0.000193     0.002382     0.000829
    16       H      0.004606    -0.013132     0.001543
    17       H      0.008729     0.017121    -0.001146
 


          GRADIENT NORM =   0.05320


          TIME FOR SCF CALCULATION =    0.02

          TIME FOR DERIVATIVES     =    0.01

          MOLECULAR WEIGHT =   94.16



          ROTATIONAL CONSTANTS IN CM(-1)

          A =    0.29949125   B =    0.04169359   C =    0.03938328



           PRINCIPAL MOMENTS OF INERTIA IN UNITS OF 10**(-40)*GRAM-CM**2

          A =       93.4678   B =      671.3928   C =      710.7782


          ORIENTATION OF MOLECULE IN FORCE CALCULATION

    NO.       ATOM         X         Y         Z

     1          C       0.0061   -0.0641   -0.7941
     2          C       1.5430   -0.0641   -0.7941
     3          C       0.7353    1.2297   -0.7941
     4          C      -2.1067   -0.3312    2.4087
     5          C      -0.6706   -0.5777    0.4100
     6          C      -1.3946    0.1932    1.2232
     7          C       2.1257   -0.4075   -2.0553
     8          H      -0.5005   -0.3885   -1.7245
     9          H       2.0476   -0.3449    0.1501
    10          H       0.7389    1.8538   -1.6956
    11          H       0.7678    1.8529    0.1075
    12          H      -1.7575    0.1720    3.3204
    13          H      -1.9665   -1.4111    2.5510
    14          H      -3.1857   -0.1452    2.3213
    15          H      -1.4927    1.2703    1.0361
    16          H      -0.5621   -1.6558    0.5839
    17          H       3.0730   -0.9459   -1.9356


    FIRST DERIVATIVES WILL BE USED IN THE CALCULATION OF SECOND DERIVATIVES

          ESTIMATED TIME TO COMPLETE CALCULATION =        6.38 SECONDS

    FOR POINT-GROUP C1   THERE ARE   1 UNIQUE SYMMETRY FUNCTIONS.

 STEP:   1 TIME =     0.04 SECS, INTEGRAL =      0.04 TIME LEFT: 172799.93
 STEP:   2 TIME =     0.04 SECS, INTEGRAL =      0.08 TIME LEFT: 172799.89
 STEP:   3 TIME =     0.03 SECS, INTEGRAL =      0.11 TIME LEFT: 172799.86
 STEP:   4 TIME =     0.04 SECS, INTEGRAL =      0.15 TIME LEFT: 172799.82
 STEP:   5 TIME =     0.02 SECS, INTEGRAL =      0.17 TIME LEFT: 172799.80
 STEP:   6 TIME =     0.03 SECS, INTEGRAL =      0.20 TIME LEFT: 172799.77
 STEP:   7 TIME =     0.03 SECS, INTEGRAL =      0.23 TIME LEFT: 172799.73
 STEP:   8 TIME =     0.05 SECS, INTEGRAL =      0.28 TIME LEFT: 172799.69
 STEP:   9 TIME =     0.04 SECS, INTEGRAL =      0.32 TIME LEFT: 172799.65
 STEP:  10 TIME =     0.03 SECS, INTEGRAL =      0.35 TIME LEFT: 172799.62
 STEP:  11 TIME =     0.03 SECS, INTEGRAL =      0.38 TIME LEFT: 172799.59
 STEP:  12 TIME =     0.03 SECS, INTEGRAL =      0.41 TIME LEFT: 172799.55
 STEP:  13 TIME =     0.03 SECS, INTEGRAL =      0.45 TIME LEFT: 172799.52
 STEP:  14 TIME =     0.03 SECS, INTEGRAL =      0.48 TIME LEFT: 172799.49
 STEP:  15 TIME =     0.03 SECS, INTEGRAL =      0.51 TIME LEFT: 172799.46
 STEP:  16 TIME =     0.03 SECS, INTEGRAL =      0.54 TIME LEFT: 172799.43
 STEP:  17 TIME =     0.02 SECS, INTEGRAL =      0.56 TIME LEFT: 172799.41
 STEP:  18 TIME =     0.03 SECS, INTEGRAL =      0.59 TIME LEFT: 172799.38
 STEP:  19 TIME =     0.03 SECS, INTEGRAL =      0.62 TIME LEFT: 172799.34
 STEP:  20 TIME =     0.05 SECS, INTEGRAL =      0.67 TIME LEFT: 172799.30
 STEP:  21 TIME =     0.04 SECS, INTEGRAL =      0.71 TIME LEFT: 172799.26
 STEP:  22 TIME =     0.04 SECS, INTEGRAL =      0.75 TIME LEFT: 172799.22
 STEP:  23 TIME =     0.03 SECS, INTEGRAL =      0.78 TIME LEFT: 172799.19
 STEP:  24 TIME =     0.03 SECS, INTEGRAL =      0.81 TIME LEFT: 172799.16
 STEP:  25 TIME =     0.03 SECS, INTEGRAL =      0.84 TIME LEFT: 172799.12
 STEP:  26 TIME =     0.04 SECS, INTEGRAL =      0.88 TIME LEFT: 172799.09
 STEP:  27 TIME =     0.04 SECS, INTEGRAL =      0.92 TIME LEFT: 172799.05
 STEP:  28 TIME =     0.04 SECS, INTEGRAL =      0.96 TIME LEFT: 172799.01
 STEP:  29 TIME =     0.04 SECS, INTEGRAL =      1.00 TIME LEFT: 172798.97
 STEP:  30 TIME =     0.04 SECS, INTEGRAL =      1.04 TIME LEFT: 172798.93
 STEP:  31 TIME =     0.04 SECS, INTEGRAL =      1.08 TIME LEFT: 172798.89
 STEP:  32 TIME =     0.04 SECS, INTEGRAL =      1.12 TIME LEFT: 172798.85
 STEP:  33 TIME =     0.03 SECS, INTEGRAL =      1.15 TIME LEFT: 172798.82
 STEP:  34 TIME =     0.02 SECS, INTEGRAL =      1.17 TIME LEFT: 172798.80
 STEP:  35 TIME =     0.03 SECS, INTEGRAL =      1.20 TIME LEFT: 172798.77
 STEP:  36 TIME =     0.02 SECS, INTEGRAL =      1.23 TIME LEFT: 172798.74
 STEP:  37 TIME =     0.03 SECS, INTEGRAL =      1.26 TIME LEFT: 172798.71
 STEP:  38 TIME =     0.03 SECS, INTEGRAL =      1.29 TIME LEFT: 172798.68
 STEP:  39 TIME =     0.03 SECS, INTEGRAL =      1.32 TIME LEFT: 172798.65
 STEP:  40 TIME =     0.02 SECS, INTEGRAL =      1.34 TIME LEFT: 172798.62
 STEP:  41 TIME =     0.02 SECS, INTEGRAL =      1.37 TIME LEFT: 172798.60
 STEP:  42 TIME =     0.03 SECS, INTEGRAL =      1.40 TIME LEFT: 172798.57
 STEP:  43 TIME =     0.03 SECS, INTEGRAL =      1.43 TIME LEFT: 172798.54
 STEP:  44 TIME =     0.03 SECS, INTEGRAL =      1.46 TIME LEFT: 172798.51
 STEP:  45 TIME =     0.04 SECS, INTEGRAL =      1.50 TIME LEFT: 172798.47
 STEP:  46 TIME =     0.04 SECS, INTEGRAL =      1.54 TIME LEFT: 172798.43
 STEP:  47 TIME =     0.04 SECS, INTEGRAL =      1.58 TIME LEFT: 172798.39
 STEP:  48 TIME =     0.04 SECS, INTEGRAL =      1.62 TIME LEFT: 172798.35
 STEP:  49 TIME =     0.03 SECS, INTEGRAL =      1.65 TIME LEFT: 172798.32
 STEP:  50 TIME =     0.03 SECS, INTEGRAL =      1.68 TIME LEFT: 172798.29
 STEP:  51 TIME =     0.04 SECS, INTEGRAL =      1.72 TIME LEFT: 172798.25

(To convert to Hartree/Bohr^2, multiply by (10^(-21) x N x a0^2)/(4.184 x 627.51) =  0.0642)


           FORCE MATRIX IN MILLIDYNES/ANGSTROM


                  C  1       C  2       C  3       C  4       C  5       C  6
 ------------------------------------------------------------------------------
     C    1  15.550767
     C    2   3.498890  14.197594
     C    3   5.449005   3.983633  15.125639
     C    4   0.143173   0.029412   0.006700  14.720203
     C    5   5.302911   0.654222   0.567592   0.851119  18.340504
     C    6   0.856180   0.051386   0.039505   5.272741  10.655372  18.164602
     C    7   0.876075   5.991236   0.829658   0.009939   0.087635   0.013110
     H    8   4.497327   0.440817   0.447562   0.016927   0.391518   0.026000
     H    9   0.431873   4.472499   0.427358   0.001379   0.021204   0.003919
     H   10   0.461011   0.451928   4.827679   0.000827   0.046494   0.005268
     H   11   0.469859   0.516432   4.798849   0.002189   0.021837   0.012327
     H   12   0.017161   0.006242   0.001339   4.707037   0.036253   0.437428
     H   13   0.002656   0.001469   0.000578   4.729059   0.040743   0.480476
     H   14   0.020154   0.002298   0.001386   4.708209   0.035373   0.437994
     H   15   0.084834   0.011451   0.012345   0.423670   0.471750   4.769203
     H   16   0.427512   0.013616   0.041982   0.082747   4.772682   0.472065
     H   17   0.065708   0.554474   0.067084   0.002353   0.017817   0.001648


                  C  7       H  8       H  9       H 10       H 11       H 12
 ------------------------------------------------------------------------------
     C    7   9.698186
     H    8   0.051705   5.010082
     H    9   0.510815   0.034271   5.048650
     H   10   0.044408   0.021951   0.037704   5.406093
     H   11   0.074350   0.039074   0.021463   0.456817   5.386127
     H   12   0.002691   0.001849   0.000403   0.000193   0.000460   5.425883
     H   13   0.000809   0.000488   0.000267   0.000212   0.000430   0.562577
     H   14   0.001437   0.002842   0.000278   0.000207   0.000386   0.574596
     H   15   0.004567   0.008616   0.000871   0.001383   0.018784   0.024254
     H   16   0.007156   0.017297   0.003581   0.007021   0.003808   0.008989
     H   17   4.829244   0.008302   0.027932   0.007990   0.014050   0.000685


                  H 13       H 14       H 15       H 16       H 17
 ------------------------------------------------------------------
     H   13   5.452216
     H   14   0.564526   5.425396
     H   15   0.041579   0.023744   5.144266
     H   16   0.029191   0.009399   0.104277   5.142711
     H   17   0.000556   0.000373   0.001319   0.002723   4.911530


          HEAT OF FORMATION =     123.665700 KCALS/MOLE

          ZERO POINT ENERGY      90.027 KCAL/MOL


           NORMAL COORDINATE ANALYSIS (Total motion = 1 Angstrom)


   Root No.       1         2         3         4         5         6         7         8

                 1 A       2 A       3 A       4 A       5 A       6 A       7 A       8 A   

                  78.0     127.5     144.7     166.8     235.9     369.0     382.2     426.5
  
           1   -0.0128    0.0107   -0.0096    0.0104   -0.0133   -0.0346   -0.0181   -0.0022
           2   -0.0034   -0.0221   -0.0261   -0.0148    0.0041    0.0323   -0.0184    0.0225
           3   -0.0215    0.0144   -0.0110    0.0138    0.0012   -0.0164   -0.0147    0.0079
           4   -0.0121    0.0098   -0.0102    0.0097   -0.0138   -0.0400   -0.0252   -0.0133
           5    0.0074   -0.0019   -0.0271    0.0122   -0.0401   -0.0040   -0.0192   -0.0112
           6    0.0162   -0.0081    0.0007   -0.0070   -0.0169   -0.0297    0.0164    0.0420
           7   -0.0214   -0.0067   -0.0089   -0.0129    0.0200   -0.0064   -0.0280    0.0212
           8    0.0014   -0.0120   -0.0258   -0.0020   -0.0164    0.0177   -0.0167    0.0134
           9   -0.0165    0.0093    0.0324   -0.0128   -0.0387    0.0060    0.0223   -0.0156
          10    0.0249   -0.0209    0.0148   -0.0437   -0.0149   -0.0159    0.0260    0.0084
          11   -0.0017    0.0225    0.0406    0.0027   -0.0266    0.0163   -0.0171    0.0073
          12    0.0064   -0.0050    0.0085   -0.0207    0.0127    0.0025   -0.0489   -0.0171
          13   -0.0314    0.0159   -0.0208    0.0043   -0.0085    0.0419    0.0355    0.0184
          14   -0.0054   -0.0160   -0.0263   -0.0112    0.0375   -0.0198    0.0242   -0.0219
          15   -0.0330    0.0208   -0.0156    0.0116    0.0200    0.0105    0.0219   -0.0088
          16    0.0285   -0.0055    0.0099    0.0562   -0.0161    0.0257    0.0296    0.0183
          17    0.0041   -0.0056   -0.0009    0.0066    0.0212   -0.0344    0.0515   -0.0205
          18    0.0111   -0.0076   -0.0116    0.0412    0.0293    0.0083   -0.0116   -0.0163
          19    0.0228   -0.0012    0.0209   -0.0102    0.0417    0.0373   -0.0163   -0.0742
          20   -0.0029    0.0290    0.0558    0.0057    0.0185   -0.0168    0.0106   -0.0204
          21    0.0355   -0.0224   -0.0079   -0.0152   -0.0079    0.0105    0.0166    0.0242
          22    0.0113    0.0042   -0.0050    0.0105   -0.0373   -0.0827   -0.0284    0.0051
          23   -0.0137   -0.0284   -0.0054   -0.0338   -0.0018    0.0797   -0.0278    0.0297
          24   -0.0309    0.0201   -0.0199    0.0194    0.0169   -0.0046   -0.0035    0.0000
          25   -0.0344    0.0290   -0.0208    0.0320   -0.0299   -0.0816   -0.0456   -0.0130
          26    0.0210   -0.0027   -0.0649    0.0345   -0.0521   -0.0350   -0.0463   -0.0003
          27    0.0322   -0.0189   -0.0050   -0.0128   -0.0113   -0.0131    0.0195    0.0434
          28   -0.0048   -0.0269    0.0014   -0.0378    0.0303   -0.0030   -0.0036    0.0520
          29   -0.0080   -0.0077    0.0012   -0.0141   -0.0421    0.0387    0.0033   -0.0246
          30   -0.0229    0.0122    0.0512   -0.0213   -0.0571    0.0210    0.0372   -0.0430
          31   -0.0449   -0.0029   -0.0154   -0.0095    0.0482    0.0247   -0.0577    0.0365
          32    0.0116   -0.0158   -0.0524    0.0113    0.0072   -0.0036   -0.0391    0.0491
          33   -0.0226    0.0118    0.0513   -0.0221   -0.0566    0.0199    0.0395   -0.0419
          34    0.0972    0.1115   -0.0357   -0.1479   -0.0229   -0.0285   -0.0014    0.0110
          35   -0.0787   -0.0920    0.1245    0.0119   -0.0579    0.0292   -0.0712    0.0176
          36    0.0212    0.0078   -0.0185    0.0136    0.0327    0.0001   -0.0098   -0.0238
          37   -0.0582   -0.1787    0.0743   -0.0422   -0.0062   -0.0615    0.0413   -0.0089
          38   -0.0206   -0.0084    0.0587    0.0054   -0.0309    0.0154   -0.0251    0.0076
          39   -0.0559   -0.0860    0.0867   -0.0025   -0.0259    0.0332   -0.1148   -0.0007
          40    0.0370    0.0027    0.0060   -0.0379   -0.0165   -0.0062    0.0243    0.0123
          41    0.0909    0.1950   -0.0276   -0.0146   -0.0343    0.0571   -0.0342    0.0243
          42    0.0534    0.0722   -0.0298   -0.1352    0.0162   -0.0395   -0.0619   -0.0288
          43    0.0856   -0.0091    0.0353    0.1483   -0.0314    0.0130   -0.0078    0.0260
          44    0.0172   -0.0102   -0.0002    0.0243    0.0229   -0.0401    0.0446   -0.0228
          45    0.0563   -0.0341   -0.0239    0.0935    0.0520   -0.0258   -0.0236   -0.0362
          46   -0.0933    0.0292   -0.0472   -0.0744   -0.0032    0.1083    0.0713    0.0395
          47   -0.0187   -0.0107   -0.0287   -0.0262    0.0381   -0.0118    0.0373   -0.0219
          48   -0.0765    0.0433   -0.0179   -0.0339    0.0267    0.0116    0.0831   -0.0261
          49    0.0227    0.0154    0.0541   -0.0059    0.1266    0.0222   -0.0328    0.1176
          50    0.0037    0.0533    0.1114    0.0103    0.1718   -0.0266   -0.0194    0.3074
          51    0.0663   -0.0449   -0.0208   -0.0286    0.0099    0.0959    0.0097   -0.0382


   Root No.       9        10        11        12        13        14        15        16

                 9 A      10 A      11 A      12 A      13 A      14 A      15 A      16 A   

                 456.2     590.9     850.6     877.3     902.1     905.0     928.1     961.6
  
           1   -0.0061   -0.0075    0.0266   -0.0043    0.0402   -0.0088    0.0215   -0.0087
           2    0.0070    0.0134    0.0022   -0.0229   -0.0195   -0.0113   -0.0010   -0.0003
           3   -0.0131    0.0627    0.0048   -0.0099    0.0059   -0.0130    0.0105    0.0139
           4   -0.0071   -0.0197   -0.0116   -0.0264   -0.0355   -0.0058   -0.0054   -0.0024
           5   -0.0269   -0.0054   -0.0217    0.0296   -0.0136    0.0042   -0.0048    0.0026
           6    0.0400   -0.0103    0.0000   -0.0106   -0.0047    0.0004   -0.0007   -0.0011
           7    0.0260    0.0074   -0.0217    0.0387    0.0041    0.0129   -0.0076    0.0044
           8   -0.0073    0.0110    0.0152    0.0065    0.0281   -0.0144    0.0226   -0.0131
           9   -0.0423   -0.0077    0.0020   -0.0115   -0.0017   -0.0085    0.0133    0.0071
          10   -0.0085    0.0226   -0.0152   -0.0078    0.0081   -0.0075    0.0020    0.0221
          11    0.0042   -0.0006   -0.0050    0.0010   -0.0024   -0.0031    0.0027   -0.0223
          12    0.0091   -0.0306   -0.0105   -0.0011    0.0087   -0.0031    0.0042   -0.0207
          13    0.0149   -0.0188    0.0394    0.0013   -0.0011   -0.0020   -0.0331   -0.0082
          14   -0.0035   -0.0418    0.0241   -0.0202    0.0105    0.0062   -0.0113    0.0182
          15   -0.0014    0.0219    0.0081    0.0224   -0.0129   -0.0086   -0.0193   -0.0033
          16    0.0060   -0.0030   -0.0170   -0.0063    0.0076   -0.0078   -0.0080   -0.0036
          17   -0.0214    0.0156   -0.0108    0.0061   -0.0017   -0.0029    0.0003   -0.0070
          18    0.0059   -0.0242   -0.0134   -0.0037    0.0042   -0.0056   -0.0056    0.0026
          19   -0.0163    0.0159   -0.0005   -0.0106   -0.0102   -0.0100    0.0047   -0.0014
          20    0.0695    0.0116   -0.0026    0.0056    0.0065    0.0114   -0.0077    0.0028
          21    0.0170   -0.0009   -0.0010   -0.0084   -0.0023    0.0170   -0.0163   -0.0082
          22   -0.0045   -0.0600    0.0044    0.0085    0.0992    0.0101    0.0572   -0.0359
          23   -0.0073    0.0543   -0.0286   -0.0903   -0.0922   -0.0167   -0.0068   -0.0080
          24   -0.0084    0.0755    0.0271    0.0088   -0.0038   -0.0225   -0.0083    0.0324
          25   -0.0425   -0.0075   -0.0448   -0.0074   -0.0464    0.0224   -0.0330    0.0515
          26   -0.0675    0.0041   -0.0835    0.0334   -0.0543    0.0967   -0.1043    0.0482
          27    0.0442   -0.0124   -0.0004   -0.0186   -0.0093    0.0148   -0.0166   -0.0168
          28    0.0955   -0.0658   -0.0293    0.2084   -0.0823   -0.1190    0.0298    0.0464
          29   -0.0752   -0.0502    0.0089    0.0633    0.0396    0.0380   -0.0419   -0.0375
          30   -0.0921   -0.0529   -0.0013    0.0301    0.0078    0.0300   -0.0344   -0.0106
          31   -0.0041    0.1093   -0.0550   -0.0531    0.0962    0.2059   -0.0871   -0.0383
          32    0.0546    0.0714    0.0147   -0.0428    0.0113   -0.0669    0.0914    0.0085
          33   -0.0870   -0.0558    0.0029    0.0292    0.0060    0.0233   -0.0347   -0.0070
          34   -0.0117    0.0401    0.0926    0.0212   -0.0418    0.0340   -0.0163    0.0447
          35    0.0174   -0.0092    0.0673   -0.0062   -0.0124    0.0246   -0.0158    0.0949
          36    0.0033   -0.0331   -0.0880   -0.0077    0.0323   -0.0329    0.0209   -0.0934
          37   -0.0281    0.0578    0.0262    0.0330   -0.0383    0.0083    0.0049   -0.0930
          38    0.0051   -0.0004    0.0096    0.0025   -0.0069    0.0025   -0.0001   -0.0120
          39    0.0307   -0.0540    0.0532   -0.0192    0.0149    0.0220   -0.0154    0.1325
          40   -0.0045    0.0162   -0.0259   -0.0176    0.0183   -0.0119    0.0015    0.0497
          41    0.0219   -0.0301   -0.0234   -0.0353    0.0316   -0.0106   -0.0046    0.0999
          42   -0.0072    0.0015    0.1116    0.0570   -0.0652    0.0454   -0.0077   -0.1115
          43   -0.0027    0.0501    0.1149    0.0589   -0.1003    0.1164    0.1362   -0.0401
          44   -0.0236    0.0174    0.0222    0.0137   -0.0209    0.0248    0.0295    0.0046
          45   -0.0061   -0.0354    0.1048    0.0104   -0.0495    0.0881    0.0871    0.0805
          46    0.0473   -0.0795   -0.0842   -0.0491   -0.0365    0.0983    0.2082   -0.0031
          47   -0.0007   -0.0510   -0.0045   -0.0236    0.0064    0.0279    0.0402    0.0251
          48   -0.0033   -0.0017   -0.0936    0.0375   -0.0136    0.0636    0.1504    0.0329
          49   -0.1514   -0.0243    0.0004   -0.0200   -0.0257   -0.0199    0.0078   -0.0088
          50   -0.1818   -0.0525   -0.0006    0.0184    0.0020   -0.0026    0.0034    0.0046
          51   -0.0565    0.0382    0.0021    0.1453    0.1152    0.0225    0.0242    0.0749


   Root No.      17        18        19        20        21        22        23        24

                17 A      18 A      19 A      20 A      21 A      22 A      23 A      24 A   

                 983.9    1015.7    1029.9    1041.9    1074.1    1126.6    1150.8    1172.4
  
           1    0.0010    0.0136   -0.0048    0.0401   -0.0111   -0.0138    0.0216    0.0034
           2   -0.0234    0.0083    0.0103   -0.0328   -0.0088    0.0328   -0.0159   -0.0110
           3   -0.0211    0.0155    0.0083   -0.0134   -0.0165   -0.0096    0.0069    0.0029
           4    0.0085   -0.0137   -0.0051   -0.0228   -0.0280    0.0278    0.0223   -0.0027
           5    0.0298   -0.0397   -0.0130   -0.0168   -0.0066   -0.0234    0.0097    0.0058
           6    0.0001    0.0039    0.0002    0.0023   -0.0076    0.0057   -0.0044   -0.0033
           7    0.0140   -0.0120   -0.0058    0.0042   -0.0111   -0.0307   -0.0629   -0.0071
           8   -0.0245   -0.0080    0.0046    0.0245    0.0131   -0.0007    0.0035   -0.0008
           9    0.0308    0.0011    0.0065   -0.0117    0.0400   -0.0151   -0.0067   -0.0042
          10   -0.0131   -0.0003   -0.0314   -0.0071    0.0019    0.0019   -0.0031    0.0098
          11    0.0011    0.0146   -0.0058   -0.0109   -0.0018   -0.0095   -0.0029    0.0372
          12    0.0060    0.0091   -0.0251    0.0029    0.0066    0.0037    0.0037   -0.0255
          13    0.0140    0.0077   -0.0218   -0.0047    0.0156    0.0078   -0.0054    0.0009
          14    0.0091    0.0131   -0.0037   -0.0107    0.0041   -0.0198    0.0079   -0.0118
          15   -0.0061   -0.0158   -0.0135    0.0011    0.0061    0.0255   -0.0149    0.0098
          16    0.0063   -0.0042    0.0463    0.0091   -0.0074   -0.0061    0.0056   -0.0100
          17    0.0038   -0.0092    0.0080    0.0119    0.0000    0.0117    0.0022   -0.0251
          18    0.0007   -0.0056    0.0336    0.0003   -0.0086   -0.0072   -0.0005    0.0204
          19   -0.0148   -0.0041    0.0043    0.0018    0.0139   -0.0069   -0.0068   -0.0000
          20    0.0024    0.0097   -0.0002    0.0001   -0.0065    0.0048    0.0010   -0.0002
          21   -0.0112   -0.0101   -0.0065    0.0076    0.0003   -0.0077    0.0111    0.0006
          22   -0.0511   -0.0276    0.0737   -0.0825    0.0905    0.2047   -0.1304    0.0649
          23    0.1242    0.0497   -0.0501    0.2384   -0.0654    0.0981    0.0439    0.0688
          24   -0.0448    0.0221   -0.0152   -0.0413   -0.0554   -0.1580    0.0713   -0.0611
          25   -0.0160    0.1517    0.0466   -0.0014    0.0376    0.0841    0.0168   -0.0290
          26   -0.0565    0.1678    0.0359    0.1035    0.1341   -0.0515   -0.0959   -0.0072
          27   -0.0122   -0.0240   -0.0143    0.0287   -0.0020   -0.0370   -0.0337    0.0071
          28   -0.0710    0.0277    0.0215    0.0022    0.1118    0.0228    0.2360    0.0439
          29   -0.1544   -0.0111   -0.0152    0.0571   -0.0994    0.0269    0.0096    0.0012
          30   -0.0669    0.0006   -0.0077    0.0122   -0.0426    0.0037   -0.0014   -0.0029
          31    0.0219   -0.0649    0.0031   -0.0517    0.1029    0.0362    0.2177    0.0394
          32    0.1086   -0.0169    0.0225    0.0022    0.1311   -0.0296   -0.0289   -0.0098
          33   -0.0685    0.0091   -0.0069    0.0058   -0.0503    0.0022    0.0052   -0.0005
          34    0.0046   -0.0383    0.1164    0.0128   -0.0179   -0.0044   -0.0046    0.0287
          35   -0.0073   -0.0435    0.0651    0.0153   -0.0098    0.0019   -0.0009    0.0025
          36    0.0050    0.0547   -0.1178   -0.0178    0.0186    0.0002    0.0037   -0.0159
          37    0.0151    0.0332    0.0446   -0.0250   -0.0121   -0.0278   -0.0077    0.0928
          38    0.0024    0.0078    0.0103   -0.0070   -0.0036   -0.0092   -0.0024    0.0345
          39   -0.0055   -0.0671    0.0222    0.0515    0.0087    0.0394    0.0131   -0.1434
          40   -0.0219   -0.0064   -0.0505   -0.0077    0.0038    0.0052   -0.0040    0.0056
          41   -0.0272   -0.0217   -0.0490   -0.0008    0.0039    0.0070   -0.0020   -0.0022
          42    0.0568    0.0038    0.1547    0.0262   -0.0116   -0.0089    0.0117   -0.0333
          43   -0.0201    0.0317   -0.1119   -0.0342    0.0259    0.0283   -0.0003   -0.2002
          44   -0.0008   -0.0064   -0.0269    0.0090    0.0055    0.0152   -0.0035    0.0044
          45   -0.0112   -0.0085   -0.0845    0.0087    0.0066   -0.0045   -0.0303    0.2875
          46   -0.0312    0.0724    0.0725   -0.0632   -0.0526   -0.0908    0.0273    0.0230
          47    0.0035    0.0062    0.0107    0.0042   -0.0024   -0.0179    0.0118   -0.0199
          48   -0.0133   -0.1008    0.0167    0.1307    0.0075    0.0958   -0.0131   -0.0380
          49   -0.0194   -0.0243    0.0004    0.0059    0.0221   -0.0188   -0.0075   -0.0003
          50    0.0285    0.0001   -0.0053   -0.0074   -0.0159    0.0083    0.0044   -0.0018
          51    0.1695    0.1321    0.0098   -0.0752   -0.1212    0.1241    0.0297   -0.0085


   Root No.      25        26        27        28        29        30        31        32

                25 A      26 A      27 A      28 A      29 A      30 A      31 A      32 A   

                1199.9    1220.8    1234.9    1291.8    1373.4    1391.4    1395.4    1410.9
  
           1   -0.0072   -0.0028   -0.0028    0.0067   -0.0233   -0.0074    0.0001   -0.0148
           2    0.0177   -0.0240    0.0086    0.0112   -0.0191   -0.0035    0.0001   -0.0120
           3   -0.0141   -0.0028    0.0065    0.0489    0.0264    0.0151   -0.0001   -0.0025
           4    0.0060   -0.0304    0.0008   -0.0260   -0.0107   -0.0048    0.0002   -0.0249
           5   -0.0111    0.0189   -0.0012    0.0245    0.0112    0.0046   -0.0001    0.0189
           6    0.0019   -0.0139   -0.0028   -0.0302    0.0276    0.0040   -0.0004    0.0704
           7    0.0034    0.0165    0.0011    0.0004    0.0003   -0.0003    0.0000   -0.0003
           8    0.0122    0.0067   -0.0028   -0.0342   -0.0210   -0.0161   -0.0002    0.0331
           9    0.0046   -0.0062    0.0002   -0.0058   -0.0091   -0.0032    0.0001   -0.0088
          10   -0.0034    0.0015   -0.0073   -0.0012    0.0134   -0.0223   -0.0341    0.0075
          11    0.0123   -0.0060   -0.0146    0.0048    0.0033    0.0218   -0.0095    0.0137
          12    0.0010   -0.0001    0.0153    0.0007   -0.0197    0.0227   -0.0247   -0.0162
          13    0.0100   -0.0043    0.0116    0.0128    0.0068    0.0078   -0.0002    0.0008
          14   -0.0032   -0.0016   -0.0365    0.0230    0.0213    0.0042   -0.0002    0.0072
          15   -0.0222    0.0136   -0.0087   -0.0307   -0.0120   -0.0123   -0.0001    0.0040
          16    0.0128   -0.0075    0.0204    0.0143    0.0063    0.0089   -0.0007   -0.0004
          17   -0.0156    0.0115    0.0519   -0.0156   -0.0161    0.0037   -0.0001   -0.0081
          18   -0.0124    0.0055   -0.0448   -0.0145   -0.0050   -0.0141   -0.0003    0.0015
          19   -0.0024   -0.0006   -0.0007   -0.0034    0.0119    0.0025   -0.0002    0.0259
          20    0.0015    0.0008    0.0006    0.0033   -0.0058   -0.0009    0.0001   -0.0152
          21    0.0139    0.0487    0.0002    0.0242   -0.0222   -0.0031    0.0003   -0.0559
          22   -0.1016    0.0298   -0.0018    0.1125    0.0299    0.0166    0.0003   -0.0168
          23   -0.1053    0.0537   -0.0335    0.0585    0.0394    0.0115   -0.0001    0.0193
          24    0.0836   -0.0516    0.0211   -0.0275   -0.0242   -0.0037   -0.0002   -0.0121
          25    0.1376    0.2506   -0.0191   -0.0571    0.0232    0.0006   -0.0005    0.0704
          26   -0.0436   -0.1570    0.0144   -0.0021   -0.0354   -0.0095    0.0002   -0.0455
          27   -0.0812   -0.2234    0.0132   -0.0211   -0.0046   -0.0030    0.0000   -0.0007
          28   -0.0435   -0.0288    0.0027    0.0452    0.0132    0.0098    0.0000   -0.0198
          29   -0.0015    0.0071   -0.0111   -0.1024    0.1720    0.0777    0.0005   -0.1125
          30   -0.0057   -0.0080   -0.0051   -0.0493    0.1198    0.0593    0.0005   -0.1026
          31   -0.0101   -0.0319   -0.0053   -0.0385    0.0138   -0.0004   -0.0003    0.0480
          32    0.0243    0.0039   -0.0107   -0.1298    0.1266    0.0625    0.0009   -0.1628
          33   -0.0038   -0.0042    0.0058    0.0586   -0.1035   -0.0537   -0.0007    0.1197
          34   -0.0228    0.0104   -0.0848   -0.0357   -0.1098    0.2395    0.0333    0.0120
          35   -0.0310    0.0166   -0.0317   -0.0270   -0.0047   -0.1409   -0.2263   -0.0684
          36    0.0340   -0.0167    0.0640    0.0347    0.0420   -0.0029    0.0988    0.0304
          37    0.0138   -0.0075   -0.0980   -0.0117   -0.0242   -0.0426    0.3482   -0.0461
          38    0.0089   -0.0040   -0.0123    0.0027    0.0038    0.0104    0.0754    0.0095
          39   -0.0226    0.0120    0.1437    0.0153    0.0274    0.0809    0.2334    0.0714
          40   -0.0149    0.0073   -0.0234   -0.0124   -0.0045   -0.0262    0.0378   -0.0111
          41   -0.0289    0.0158   -0.0183   -0.0216    0.0152   -0.1846    0.2675   -0.0682
          42    0.0387   -0.0190    0.1063    0.0492    0.1164   -0.1930   -0.0309    0.0137
          43   -0.0599    0.0141   -0.1270    0.0083    0.0048   -0.0116   -0.0018    0.0071
          44   -0.0071    0.0106    0.0770   -0.0165   -0.0171    0.0075   -0.0006   -0.0087
          45    0.0829   -0.0171    0.1585   -0.0094   -0.0006    0.0136   -0.0022   -0.0007
          46   -0.1258    0.0774    0.0831   -0.0536   -0.0140   -0.0020    0.0008   -0.0007
          47    0.0164   -0.0154   -0.0464    0.0372    0.0239    0.0061    0.0001    0.0056
          48    0.1879   -0.1220   -0.1042    0.0868    0.0079    0.0017    0.0011   -0.0100
          49   -0.0006    0.0094   -0.0010   -0.0014    0.0121    0.0025   -0.0002    0.0295
          50    0.0035   -0.0064    0.0009   -0.0024   -0.0110   -0.0032    0.0002   -0.0177
          51    0.0108   -0.0836    0.0015   -0.0511   -0.0149   -0.0073    0.0001   -0.0185


   Root No.      33        34        35        36        37        38        39        40

                33 A      34 A      35 A      36 A      37 A      38 A      39 A      40 A   

                1428.4    1586.8    1890.4    2979.1    2983.7    2999.0    3036.7    3038.5
  
           1   -0.0117   -0.1118    0.0266   -0.0049   -0.0240   -0.0046    0.0002   -0.0009
           2   -0.0010   -0.1031    0.0150   -0.0038   -0.0157   -0.0027   -0.0002   -0.0008
           3    0.0179    0.0592   -0.0360   -0.0092   -0.0422   -0.0085   -0.0005   -0.0017
           4   -0.0195    0.0822   -0.0007    0.0129    0.0008   -0.0165   -0.0001    0.0000
           5    0.0146   -0.0461    0.0027   -0.0073   -0.0011    0.0091    0.0001   -0.0002
           6    0.0341   -0.0409   -0.0028    0.0212    0.0026   -0.0327   -0.0002    0.0002
           7   -0.0013    0.0230   -0.0029    0.0003   -0.0002   -0.0002    0.0001    0.0003
           8   -0.0072    0.1127   -0.0071    0.0000    0.0008   -0.0001   -0.0005    0.0002
           9   -0.0071   -0.0009    0.0033   -0.0005    0.0026    0.0034   -0.0010    0.0010
          10   -0.0344   -0.0095   -0.0200    0.0000   -0.0000   -0.0000   -0.0025    0.0012
          11   -0.0340   -0.0024   -0.0067    0.0000    0.0000    0.0000    0.0074   -0.0032
          12    0.0607    0.0137    0.0308   -0.0000   -0.0000   -0.0000    0.0014   -0.0007
          13    0.0192    0.0136   -0.1395    0.0001   -0.0001   -0.0003   -0.0014    0.0088
          14   -0.0047    0.0369    0.0956    0.0005    0.0017    0.0004   -0.0066   -0.0614
          15   -0.0246   -0.0256    0.1738   -0.0001   -0.0004    0.0000    0.0040    0.0059
          16    0.0162    0.0205    0.1383   -0.0000   -0.0003   -0.0000    0.0067   -0.0041
          17    0.0184   -0.0132   -0.0988   -0.0001   -0.0002    0.0001   -0.0555    0.0119
          18   -0.0292   -0.0281   -0.1692    0.0000    0.0002    0.0000    0.0072    0.0023
          19    0.0137   -0.0137   -0.0012   -0.0329    0.0152   -0.0224   -0.0001   -0.0001
          20   -0.0074    0.0092    0.0003    0.0185   -0.0089    0.0126    0.0000    0.0000
          21   -0.0266    0.0235    0.0018   -0.0019    0.0009   -0.0008   -0.0000   -0.0000
          22    0.0095    0.0290   -0.0001    0.0629    0.2927    0.0593    0.0009    0.0107
          23    0.0112    0.0413    0.0069    0.0409    0.1843    0.0351    0.0004    0.0051
          24    0.0023   -0.0753   -0.0138    0.1126    0.5130    0.0988    0.0015    0.0203
          25    0.0294   -0.0402   -0.0004   -0.1556   -0.0106    0.2102    0.0012   -0.0005
          26   -0.0268    0.0102    0.0025    0.0864    0.0082   -0.1155   -0.0008    0.0003
          27   -0.0047    0.0439   -0.0049   -0.2763   -0.0276    0.3804    0.0022   -0.0010
          28    0.0031    0.0078   -0.0081   -0.0016   -0.0022    0.0014   -0.0001    0.0003
          29    0.0169   -0.0072   -0.0112   -0.0006    0.0117    0.0137   -0.0011    0.0056
          30    0.0106   -0.0827    0.0005    0.0016   -0.0185   -0.0223    0.0009   -0.0073
          31    0.0174   -0.0452    0.0078    0.0016    0.0020   -0.0019    0.0009   -0.0003
          32   -0.0205   -0.0130    0.0027    0.0027   -0.0091   -0.0145    0.0072   -0.0051
          33    0.0026    0.0885   -0.0046    0.0046   -0.0159   -0.0228    0.0099   -0.0071
          34    0.0318    0.0044   -0.0117    0.0000   -0.0001    0.0000   -0.0169    0.0057
          35    0.1472    0.0037   -0.0028   -0.0000   -0.0002   -0.0000   -0.0182    0.0056
          36   -0.0778    0.0033    0.0180    0.0000   -0.0005   -0.0000   -0.0319    0.0109
          37    0.1242    0.0124    0.0288   -0.0000    0.0000    0.0000    0.0113   -0.0035
          38   -0.0242   -0.0020   -0.0091   -0.0001   -0.0002   -0.0001   -0.0676    0.0312
          39   -0.1772   -0.0166   -0.0388    0.0000    0.0001    0.0000    0.0055   -0.0050
          40    0.0178   -0.0061   -0.0120   -0.0003   -0.0004   -0.0001    0.0374   -0.0129
          41    0.1387    0.0015   -0.0029    0.0000    0.0000    0.0000   -0.0053    0.0013
          42   -0.0852   -0.0022    0.0174    0.0000    0.0001    0.0000    0.0073   -0.0024
          43   -0.0209    0.0034   -0.0352    0.0000    0.0003    0.0003   -0.0585    0.0073
          44    0.0261   -0.0094   -0.1111    0.0012    0.0022   -0.0011    0.6403   -0.1038
          45    0.0244    0.0107    0.0815   -0.0002   -0.0000    0.0002   -0.1115    0.0208
          46   -0.0154    0.0050    0.0264    0.0007    0.0017    0.0001   -0.0126   -0.0699
          47   -0.0017    0.0373    0.1123   -0.0056   -0.0202   -0.0045    0.1052    0.6968
          48    0.0227   -0.0324   -0.0759    0.0006    0.0015    0.0004   -0.0144   -0.1123
          49    0.0157   -0.0213   -0.0018    0.3852   -0.1816    0.2541    0.0006    0.0012
          50   -0.0107    0.0100    0.0006   -0.2182    0.1032   -0.1439   -0.0002   -0.0007
          51   -0.0181    0.0512   -0.0003    0.0431   -0.0193    0.0261    0.0001    0.0002


   Root No.      41        42        43        44        45

                41 A      42 A      43 A      44 A      45 A   

                3070.2    3076.4    3085.6    3114.7    3169.5
  
           1   -0.0001    0.0001   -0.0011   -0.0013   -0.0000
           2   -0.0000    0.0000   -0.0007   -0.0005   -0.0000
           3   -0.0001   -0.0001   -0.0026   -0.0004    0.0000
           4   -0.0000   -0.0000   -0.0013    0.0007    0.0000
           5   -0.0000    0.0000    0.0008    0.0002   -0.0000
           6    0.0000   -0.0001   -0.0028   -0.0003   -0.0000
           7   -0.0000   -0.0000   -0.0011    0.0015   -0.0000
           8    0.0000   -0.0001   -0.0040    0.0432    0.0000
           9    0.0000   -0.0007   -0.0553   -0.0062   -0.0000
          10   -0.0466    0.0151   -0.0002    0.0000   -0.0120
          11   -0.0099   -0.0430    0.0006   -0.0001   -0.0088
          12   -0.0324   -0.0085    0.0001   -0.0000    0.0199
          13   -0.0001   -0.0008    0.0000   -0.0001    0.0002
          14   -0.0000    0.0016   -0.0010   -0.0003    0.0001
          15   -0.0001    0.0007    0.0001    0.0001   -0.0003
          16   -0.0001    0.0011   -0.0002    0.0001   -0.0002
          17   -0.0001   -0.0063    0.0010   -0.0005    0.0002
          18   -0.0000    0.0003   -0.0000    0.0001    0.0003
          19    0.0000   -0.0000   -0.0009   -0.0002   -0.0000
          20   -0.0000    0.0000    0.0008    0.0002    0.0000
          21   -0.0000   -0.0000    0.0001    0.0001    0.0000
          22    0.0003   -0.0001    0.0159    0.0024    0.0001
          23    0.0002    0.0000    0.0127    0.0017    0.0000
          24    0.0004   -0.0002    0.0251    0.0045    0.0000
          25   -0.0000    0.0003    0.0173    0.0012   -0.0000
          26    0.0000   -0.0002   -0.0121   -0.0010    0.0000
          27   -0.0001    0.0006    0.0280    0.0013   -0.0001
          28   -0.0000   -0.0000   -0.0005    0.0002    0.0000
          29    0.0000   -0.0023   -0.2221   -0.2839   -0.0002
          30   -0.0001    0.0030    0.2966    0.4274    0.0002
          31    0.0000    0.0003    0.0144   -0.0127    0.0000
          32   -0.0000    0.0039    0.2681   -0.2282   -0.0001
          33   -0.0000    0.0054    0.3700   -0.3532   -0.0001
          34    0.1359    0.0844   -0.0010    0.0002   -0.1139
          35    0.2198    0.0858   -0.0010    0.0002   -0.1556
          36    0.3720    0.1815   -0.0024    0.0004   -0.2541
          37   -0.0230   -0.0541    0.0007   -0.0000   -0.0524
          38   -0.0093    0.4082   -0.0055    0.0004    0.3236
          39   -0.0160   -0.0523    0.0007   -0.0001   -0.0276
          40    0.4460   -0.2099    0.0027   -0.0005    0.3105
          41   -0.0917    0.0179   -0.0002    0.0000   -0.0617
          42    0.0331   -0.0278    0.0003   -0.0000    0.0427
          43   -0.0012   -0.0045    0.0005   -0.0002    0.0000
          44    0.0004    0.0706   -0.0117    0.0062   -0.0029
          45   -0.0009   -0.0151    0.0023   -0.0012    0.0009
          46    0.0005    0.0006   -0.0010   -0.0003   -0.0000
          47    0.0002   -0.0150    0.0075    0.0019   -0.0030
          48    0.0003    0.0036   -0.0011   -0.0002    0.0009
          49    0.0000    0.0000    0.0074    0.0021    0.0002
          50   -0.0000   -0.0000   -0.0048   -0.0009   -0.0001
          51    0.0000   -0.0000    0.0012    0.0003    0.0000


           MASS-WEIGHTED COORDINATE ANALYSIS (NORMAL COORDINATES)


   Root No.       1         2         3         4         5         6         7         8

                 1 A       2 A       3 A       4 A       5 A       6 A       7 A       8 A   

                  78.0     127.5     144.7     166.8     235.9     369.0     382.2     426.5
  
           1   -0.1104    0.0892   -0.0749    0.0804   -0.1004   -0.2653   -0.1327   -0.0142
           2   -0.0294   -0.1839   -0.2032   -0.1148    0.0309    0.2479   -0.1352    0.1470
           3   -0.1848    0.1201   -0.0852    0.1069    0.0094   -0.1263   -0.1079    0.0518
           4   -0.1041    0.0817   -0.0795    0.0754   -0.1038   -0.3068   -0.1850   -0.0870
           5    0.0638   -0.0156   -0.2107    0.0944   -0.3022   -0.0307   -0.1406   -0.0730
           6    0.1395   -0.0676    0.0054   -0.0547   -0.1276   -0.2279    0.1207    0.2749
           7   -0.1840   -0.0557   -0.0693   -0.1001    0.1510   -0.0490   -0.2057    0.1388
           8    0.0119   -0.0998   -0.2008   -0.0155   -0.1236    0.1360   -0.1229    0.0876
           9   -0.1417    0.0773    0.2523   -0.0990   -0.2913    0.0464    0.1633   -0.1022
          10    0.2140   -0.1741    0.1150   -0.3387   -0.1120   -0.1224    0.1905    0.0552
          11   -0.0143    0.1874    0.3160    0.0212   -0.2004    0.1252   -0.1254    0.0478
          12    0.0548   -0.0417    0.0660   -0.1606    0.0954    0.0191   -0.3586   -0.1119
          13   -0.2702    0.1325   -0.1619    0.0331   -0.0641    0.3214    0.2603    0.1202
          14   -0.0465   -0.1334   -0.2045   -0.0871    0.2829   -0.1519    0.1777   -0.1432
          15   -0.2841    0.1730   -0.1216    0.0898    0.1508    0.0809    0.1610   -0.0573
          16    0.2452   -0.0459    0.0772    0.4358   -0.1213    0.1975    0.2173    0.1198
          17    0.0357   -0.0468   -0.0067    0.0515    0.1598   -0.2643    0.3778   -0.1340
          18    0.0955   -0.0633   -0.0906    0.3199    0.2207    0.0636   -0.0855   -0.1066
          19    0.1963   -0.0098    0.1628   -0.0788    0.3141    0.2860   -0.1197   -0.4855
          20   -0.0248    0.2414    0.4338    0.0443    0.1393   -0.1287    0.0781   -0.1332
          21    0.3059   -0.1863   -0.0612   -0.1177   -0.0598    0.0805    0.1221    0.1585
          22    0.0281    0.0100   -0.0113    0.0236   -0.0815   -0.1840   -0.0605    0.0097
          23   -0.0341   -0.0685   -0.0121   -0.0759   -0.0039    0.1773   -0.0591    0.0562
          24   -0.0772    0.0485   -0.0448    0.0436    0.0368   -0.0103   -0.0075    0.0000
          25   -0.0857    0.0699   -0.0469    0.0719   -0.0653   -0.1815   -0.0970   -0.0245
          26    0.0523   -0.0066   -0.1462    0.0776   -0.1136   -0.0778   -0.0984   -0.0006
          27    0.0804   -0.0456   -0.0113   -0.0287   -0.0247   -0.0291    0.0415    0.0822
          28   -0.0121   -0.0649    0.0030   -0.0849    0.0661   -0.0067   -0.0078    0.0986
          29   -0.0199   -0.0186    0.0028   -0.0317   -0.0919    0.0862    0.0070   -0.0465
          30   -0.0571    0.0293    0.1154   -0.0479   -0.1246    0.0468    0.0791   -0.0814
          31   -0.1119   -0.0070   -0.0348   -0.0213    0.1052    0.0549   -0.1226    0.0692
          32    0.0290   -0.0381   -0.1181    0.0255    0.0158   -0.0079   -0.0832    0.0930
          33   -0.0562    0.0284    0.1156   -0.0496   -0.1235    0.0444    0.0839   -0.0794
          34    0.2424    0.2691   -0.0805   -0.3325   -0.0499   -0.0634   -0.0030    0.0208
          35   -0.1962   -0.2220    0.2806    0.0267   -0.1263    0.0650   -0.1514    0.0333
          36    0.0530    0.0188   -0.0416    0.0306    0.0715    0.0003   -0.0208   -0.0452
          37   -0.1452   -0.4313    0.1674   -0.0947   -0.0136   -0.1368    0.0878   -0.0169
          38   -0.0513   -0.0202    0.1323    0.0121   -0.0674    0.0343   -0.0533    0.0144
          39   -0.1394   -0.2076    0.1954   -0.0055   -0.0565    0.0739   -0.2441   -0.0013
          40    0.0924    0.0065    0.0136   -0.0851   -0.0360   -0.0138    0.0516    0.0233
          41    0.2268    0.4707   -0.0621   -0.0327   -0.0748    0.1269   -0.0728    0.0461
          42    0.1332    0.1743   -0.0671   -0.3038    0.0355   -0.0880   -0.1315   -0.0546
          43    0.2135   -0.0220    0.0796    0.3334   -0.0686    0.0289   -0.0165    0.0493
          44    0.0429   -0.0246   -0.0005    0.0546    0.0500   -0.0891    0.0949   -0.0432
          45    0.1405   -0.0822   -0.0538    0.2100    0.1136   -0.0573   -0.0501   -0.0686
          46   -0.2327    0.0706   -0.1062   -0.1672   -0.0070    0.2408    0.1516    0.0748
          47   -0.0466   -0.0257   -0.0647   -0.0590    0.0832   -0.0263    0.0793   -0.0415
          48   -0.1908    0.1044   -0.0403   -0.0763    0.0583    0.0258    0.1767   -0.0495
          49    0.0565    0.0372    0.1220   -0.0134    0.2764    0.0495   -0.0698    0.2227
          50    0.0093    0.1286    0.2509    0.0231    0.3750   -0.0591   -0.0412    0.5824
          51    0.1654   -0.1083   -0.0469   -0.0642    0.0217    0.2133    0.0206   -0.0723


   Root No.       9        10        11        12        13        14        15        16

                 9 A      10 A      11 A      12 A      13 A      14 A      15 A      16 A   

                 456.2     590.9     850.6     877.3     902.1     905.0     928.1     961.6
  
           1   -0.0428   -0.0591    0.2333   -0.0369    0.3722   -0.0817    0.1778   -0.0832
           2    0.0488    0.1056    0.0196   -0.1960   -0.1800   -0.1055   -0.0083   -0.0032
           3   -0.0914    0.4947    0.0416   -0.0845    0.0542   -0.1209    0.0865    0.1335
           4   -0.0494   -0.1550   -0.1015   -0.2253   -0.3283   -0.0541   -0.0450   -0.0226
           5   -0.1880   -0.0426   -0.1897    0.2526   -0.1254    0.0391   -0.0397    0.0247
           6    0.2797   -0.0816    0.0004   -0.0907   -0.0435    0.0039   -0.0055   -0.0102
           7    0.1817    0.0585   -0.1899    0.3307    0.0382    0.1203   -0.0630    0.0422
           8   -0.0513    0.0869    0.1331    0.0555    0.2603   -0.1337    0.1867   -0.1261
           9   -0.2956   -0.0604    0.0179   -0.0979   -0.0161   -0.0787    0.1102    0.0682
          10   -0.0591    0.1780   -0.1327   -0.0668    0.0746   -0.0698    0.0168    0.2127
          11    0.0292   -0.0044   -0.0439    0.0086   -0.0223   -0.0288    0.0220   -0.2140
          12    0.0639   -0.2416   -0.0916   -0.0098    0.0803   -0.0289    0.0346   -0.1987
          13    0.1044   -0.1485    0.3446    0.0111   -0.0106   -0.0185   -0.2741   -0.0792
          14   -0.0247   -0.3294    0.2111   -0.1723    0.0973    0.0575   -0.0936    0.1744
          15   -0.0098    0.1730    0.0710    0.1911   -0.1190   -0.0795   -0.1593   -0.0316
          16    0.0418   -0.0236   -0.1486   -0.0534    0.0706   -0.0721   -0.0662   -0.0350
          17   -0.1494    0.1231   -0.0945    0.0518   -0.0154   -0.0265    0.0027   -0.0668
          18    0.0414   -0.1907   -0.1176   -0.0317    0.0388   -0.0517   -0.0463    0.0253
          19   -0.1140    0.1255   -0.0046   -0.0903   -0.0944   -0.0927    0.0391   -0.0132
          20    0.4862    0.0913   -0.0224    0.0479    0.0597    0.1061   -0.0634    0.0269
          21    0.1188   -0.0072   -0.0088   -0.0720   -0.0216    0.1576   -0.1350   -0.0784
          22   -0.0090   -0.1370    0.0112    0.0211    0.2658    0.0272    0.1372   -0.0999
          23   -0.0147    0.1241   -0.0727   -0.2235   -0.2471   -0.0451   -0.0164   -0.0223
          24   -0.0169    0.1725    0.0687    0.0217   -0.0103   -0.0606   -0.0199    0.0900
          25   -0.0861   -0.0170   -0.1136   -0.0183   -0.1243    0.0602   -0.0790    0.1433
          26   -0.1366    0.0094   -0.2119    0.0827   -0.1455    0.2604   -0.2500    0.1342
          27    0.0895   -0.0284   -0.0011   -0.0460   -0.0249    0.0399   -0.0398   -0.0468
          28    0.1935   -0.1504   -0.0744    0.5156   -0.2206   -0.3205    0.0714    0.1292
          29   -0.1522   -0.1147    0.0226    0.1566    0.1062    0.1023   -0.1005   -0.1044
          30   -0.1865   -0.1208   -0.0033    0.0744    0.0208    0.0807   -0.0823   -0.0294
          31   -0.0083    0.2496   -0.1394   -0.1314    0.2579    0.5543   -0.2088   -0.1065
          32    0.1106    0.1632    0.0373   -0.1060    0.0303   -0.1802    0.2190    0.0236
          33   -0.1762   -0.1275    0.0073    0.0724    0.0162    0.0627   -0.0833   -0.0194
          34   -0.0237    0.0916    0.2349    0.0525   -0.1121    0.0916   -0.0391    0.1243
          35    0.0351   -0.0210    0.1707   -0.0154   -0.0333    0.0663   -0.0378    0.2642
          36    0.0067   -0.0756   -0.2233   -0.0191    0.0865   -0.0886    0.0500   -0.2598
          37   -0.0568    0.1321    0.0664    0.0816   -0.1026    0.0224    0.0118   -0.2588
          38    0.0104   -0.0010    0.0244    0.0062   -0.0184    0.0068   -0.0001   -0.0334
          39    0.0621   -0.1234    0.1351   -0.0475    0.0400    0.0592   -0.0370    0.3686
          40   -0.0091    0.0370   -0.0658   -0.0436    0.0492   -0.0321    0.0037    0.1384
          41    0.0444   -0.0688   -0.0592   -0.0874    0.0848   -0.0286   -0.0110    0.2782
          42   -0.0145    0.0034    0.2831    0.1409   -0.1749    0.1222   -0.0186   -0.3104
          43   -0.0054    0.1145    0.2916    0.1457   -0.2687    0.3134    0.3264   -0.1115
          44   -0.0478    0.0396    0.0564    0.0339   -0.0560    0.0667    0.0708    0.0127
          45   -0.0123   -0.0808    0.2660    0.0258   -0.1328    0.2373    0.2087    0.2241
          46    0.0957   -0.1817   -0.2135   -0.1214   -0.0978    0.2646    0.4990   -0.0088
          47   -0.0014   -0.1165   -0.0115   -0.0583    0.0172    0.0751    0.0962    0.0698
          48   -0.0068   -0.0040   -0.2374    0.0927   -0.0365    0.1712    0.3603    0.0915
          49   -0.3067   -0.0554    0.0009   -0.0495   -0.0689   -0.0536    0.0187   -0.0244
          50   -0.3681   -0.1199   -0.0016    0.0455    0.0053   -0.0069    0.0081    0.0129
          51   -0.1144    0.0872    0.0053    0.3596    0.3088    0.0606    0.0580    0.2086


   Root No.      17        18        19        20        21        22        23        24

                17 A      18 A      19 A      20 A      21 A      22 A      23 A      24 A   

                 983.9    1015.7    1029.9    1041.9    1074.1    1126.6    1150.8    1172.4
  
           1    0.0081    0.1212   -0.0391    0.3301   -0.0965   -0.1087    0.1613    0.0253
           2   -0.1987    0.0736    0.0843   -0.2703   -0.0768    0.2576   -0.1191   -0.0809
           3   -0.1788    0.1374    0.0685   -0.1100   -0.1437   -0.0753    0.0515    0.0215
           4    0.0723   -0.1218   -0.0420   -0.1876   -0.2443    0.2183    0.1668   -0.0196
           5    0.2531   -0.3525   -0.1071   -0.1381   -0.0579   -0.1836    0.0727    0.0426
           6    0.0006    0.0350    0.0019    0.0189   -0.0660    0.0448   -0.0329   -0.0244
           7    0.1190   -0.1068   -0.0479    0.0343   -0.0970   -0.2411   -0.4707   -0.0526
           8   -0.2079   -0.0709    0.0380    0.2017    0.1140   -0.0053    0.0258   -0.0060
           9    0.2614    0.0097    0.0536   -0.0961    0.3486   -0.1186   -0.0498   -0.0307
          10   -0.1109   -0.0029   -0.2577   -0.0588    0.0168    0.0146   -0.0235    0.0718
          11    0.0094    0.1300   -0.0479   -0.0897   -0.0156   -0.0748   -0.0219    0.2739
          12    0.0510    0.0808   -0.2066    0.0235    0.0574    0.0289    0.0280   -0.1876
          13    0.1186    0.0684   -0.1788   -0.0387    0.1361    0.0613   -0.0404    0.0065
          14    0.0772    0.1167   -0.0304   -0.0883    0.0357   -0.1557    0.0593   -0.0867
          15   -0.0518   -0.1401   -0.1110    0.0094    0.0528    0.2002   -0.1116    0.0718
          16    0.0533   -0.0374    0.3804    0.0749   -0.0645   -0.0482    0.0422   -0.0734
          17    0.0321   -0.0818    0.0659    0.0977    0.0003    0.0915    0.0161   -0.1846
          18    0.0057   -0.0494    0.2765    0.0026   -0.0750   -0.0568   -0.0038    0.1504
          19   -0.1257   -0.0363    0.0357    0.0151    0.1213   -0.0541   -0.0511   -0.0003
          20    0.0200    0.0865   -0.0014    0.0007   -0.0567    0.0378    0.0072   -0.0017
          21   -0.0947   -0.0899   -0.0533    0.0622    0.0027   -0.0608    0.0834    0.0046
          22   -0.1256   -0.0709    0.1755   -0.1968    0.2285    0.4658   -0.2826    0.1384
          23    0.3052    0.1279   -0.1193    0.5684   -0.1652    0.2232    0.0952    0.1466
          24   -0.1101    0.0569   -0.0362   -0.0985   -0.1399   -0.3594    0.1546   -0.1304
          25   -0.0393    0.3903    0.1109   -0.0033    0.0948    0.1914    0.0364   -0.0618
          26   -0.1389    0.4318    0.0855    0.2467    0.3385   -0.1172   -0.2078   -0.0154
          27   -0.0299   -0.0618   -0.0340    0.0684   -0.0052   -0.0841   -0.0730    0.0151
          28   -0.1745    0.0712    0.0513    0.0053    0.2822    0.0520    0.5114    0.0936
          29   -0.3794   -0.0287   -0.0361    0.1362   -0.2510    0.0613    0.0207    0.0026
          30   -0.1643    0.0015   -0.0182    0.0291   -0.1076    0.0083   -0.0030   -0.0062
          31    0.0539   -0.1670    0.0074   -0.1234    0.2600    0.0825    0.4718    0.0839
          32    0.2669   -0.0434    0.0535    0.0052    0.3310   -0.0674   -0.0626   -0.0210
          33   -0.1683    0.0233   -0.0164    0.0139   -0.1270    0.0049    0.0113   -0.0011
          34    0.0112   -0.0985    0.2771    0.0304   -0.0451   -0.0100   -0.0099    0.0611
          35   -0.0180   -0.1120    0.1551    0.0364   -0.0248    0.0044   -0.0019    0.0053
          36    0.0122    0.1408   -0.2804   -0.0424    0.0469    0.0004    0.0080   -0.0340
          37    0.0371    0.0854    0.1062   -0.0597   -0.0307   -0.0632   -0.0166    0.1979
          38    0.0058    0.0200    0.0246   -0.0166   -0.0091   -0.0209   -0.0052    0.0735
          39   -0.0135   -0.1726    0.0529    0.1229    0.0220    0.0896    0.0284   -0.3058
          40   -0.0538   -0.0164   -0.1202   -0.0183    0.0096    0.0118   -0.0087    0.0119
          41   -0.0669   -0.0559   -0.1168   -0.0020    0.0097    0.0159   -0.0044   -0.0047
          42    0.1397    0.0098    0.3683    0.0624   -0.0292   -0.0203    0.0253   -0.0711
          43   -0.0493    0.0815   -0.2663   -0.0817    0.0653    0.0644   -0.0006   -0.4269
          44   -0.0021   -0.0163   -0.0640    0.0216    0.0140    0.0345   -0.0077    0.0094
          45   -0.0275   -0.0219   -0.2012    0.0207    0.0167   -0.0102   -0.0658    0.6130
          46   -0.0767    0.1862    0.1727   -0.1508   -0.1329   -0.2066    0.0592    0.0489
          47    0.0085    0.0160    0.0255    0.0099   -0.0061   -0.0407    0.0256   -0.0423
          48   -0.0328   -0.2593    0.0398    0.3116    0.0189    0.2179   -0.0285   -0.0810
          49   -0.0478   -0.0625    0.0009    0.0140    0.0558   -0.0427   -0.0163   -0.0006
          50    0.0701    0.0002   -0.0125   -0.0178   -0.0400    0.0190    0.0094   -0.0039
          51    0.4166    0.3399    0.0234   -0.1794   -0.3060    0.2824    0.0644   -0.0182


   Root No.      25        26        27        28        29        30        31        32

                25 A      26 A      27 A      28 A      29 A      30 A      31 A      32 A   

                1199.9    1220.8    1234.9    1291.8    1373.4    1391.4    1395.4    1410.9
  
           1   -0.0628   -0.0200   -0.0207    0.0540   -0.1952   -0.0564    0.0004   -0.1043
           2    0.1549   -0.1696    0.0645    0.0902   -0.1598   -0.0266    0.0007   -0.0844
           3   -0.1234   -0.0198    0.0491    0.3932    0.2209    0.1143   -0.0008   -0.0173
           4    0.0527   -0.2150    0.0059   -0.2086   -0.0895   -0.0365    0.0010   -0.1756
           5   -0.0974    0.1332   -0.0089    0.1969    0.0935    0.0347   -0.0007    0.1335
           6    0.0163   -0.0979   -0.0208   -0.2423    0.2309    0.0305   -0.0025    0.4969
           7    0.0297    0.1164    0.0080    0.0032    0.0022   -0.0025    0.0001   -0.0022
           8    0.1064    0.0474   -0.0207   -0.2747   -0.1754   -0.1226   -0.0012    0.2339
           9    0.0399   -0.0440    0.0018   -0.0466   -0.0760   -0.0239    0.0004   -0.0624
          10   -0.0300    0.0103   -0.0550   -0.0098    0.1121   -0.1694   -0.2021    0.0531
          11    0.1073   -0.0424   -0.1092    0.0385    0.0276    0.1654   -0.0564    0.0968
          12    0.0091   -0.0011    0.1150    0.0058   -0.1648    0.1720   -0.1462   -0.1146
          13    0.0873   -0.0302    0.0871    0.1031    0.0573    0.0590   -0.0014    0.0056
          14   -0.0278   -0.0110   -0.2742    0.1852    0.1781    0.0316   -0.0009    0.0510
          15   -0.1943    0.0958   -0.0653   -0.2463   -0.1003   -0.0937   -0.0004    0.0279
          16    0.1118   -0.0531    0.1529    0.1153    0.0525    0.0678   -0.0044   -0.0025
[...]

 VIBRATION   24   24A         ATOM PAIR      ENERGY CONTRIBUTION    RADIAL
 FREQ.      1172.39         C  6 -- H 15         +38.9% ( 72.0%)      5.4%
 T-DIPOLE    0.0366         C  4 -- C  6         +17.9% ( 48.9%)     73.3%
 TRAVEL      0.1278         C  4 -- H 13         +12.4% ( 40.6%)     55.9%
 RED. MASS   0.5459         C  4 -- H 12          +7.9% ( 32.4%)      0.0%
 EFF. MASS   3.5195

 VIBRATION   25   25A         ATOM PAIR      ENERGY CONTRIBUTION    RADIAL
 FREQ.      1199.92         C  5 -- H 16         +30.0% ( 63.5%)      0.0%
 T-DIPOLE    0.2453         C  1 -- H  8         +15.6% ( 45.8%)      1.4%
 TRAVEL      0.1483         C  2 -- H  9         +12.2% ( 40.6%)      1.9%
 RED. MASS   0.2595         C  6 -- H 15         +10.0% ( 36.6%)      3.9%
 EFF. MASS   2.5561

 VIBRATION   26   26A         ATOM PAIR      ENERGY CONTRIBUTION    RADIAL
 FREQ.      1220.77         C  2 -- H  9         +46.1% ( 77.9%)      2.3%
 T-DIPOLE    0.1870         C  2 -- C  7         +11.0% ( 38.1%)     29.1%
 TRAVEL      0.1251         C  7 -- H 17          +7.5% ( 31.4%)      0.3%
 RED. MASS   0.5936         C  5 -- H 16          +7.5% ( 31.3%)      0.2%
 EFF. MASS   3.5288

 VIBRATION   27   27A         ATOM PAIR      ENERGY CONTRIBUTION    RADIAL
 FREQ.      1234.90         C  6 -- H 15         +25.5% ( 64.7%)     12.5%
 T-DIPOLE    0.0560         C  5 -- C  6         +22.0% ( 60.0%)      6.4%
 TRAVEL      0.0960         C  4 -- C  6         +21.7% ( 59.6%)     82.3%
 RED. MASS   1.1838         C  5 -- H 16          +8.4% ( 37.2%)     53.7%
 EFF. MASS   5.9249

 VIBRATION   28   28A         ATOM PAIR      ENERGY CONTRIBUTION    RADIAL
 FREQ.      1291.77         C  1 -- C  5         +13.9% ( 54.0%)     79.5%
 T-DIPOLE    0.2389         C  1 -- C  2         +12.6% ( 51.4%)     14.2%
 TRAVEL      0.0814         C  2 -- C  3         +11.2% ( 48.4%)     85.9%
 RED. MASS   0.8492         C  1 -- C  3         +11.1% ( 48.1%)     35.7%
 EFF. MASS   7.8770

 VIBRATION   29   29A         ATOM PAIR      ENERGY CONTRIBUTION    RADIAL
 FREQ.      1373.38         C  3 -- H 10         +14.9% ( 48.2%)      0.3%
 T-DIPOLE    0.4738         C  1 -- C  5         +10.9% ( 41.3%)     87.6%
 TRAVEL      0.0989         C  3 -- H 11          +8.7% ( 36.8%)      6.5%
 RED. MASS   0.4102         C  1 -- C  2          +8.3% ( 36.1%)     14.8%
 EFF. MASS   5.0153

 VIBRATION   30   30A         ATOM PAIR      ENERGY CONTRIBUTION    RADIAL
 FREQ.      1391.44         C  4 -- H 12         +31.1% ( 54.8%)      2.8%
 T-DIPOLE    0.1633         C  4 -- H 14         +29.1% ( 53.0%)      3.6%
 TRAVEL      0.1379         C  4 -- C  6          +8.7% ( 28.9%)     54.6%
 RED. MASS   0.3680         C  4 -- H 13          +6.2% ( 24.5%)     86.9%
 EFF. MASS   2.5470

 VIBRATION   31   31A         ATOM PAIR      ENERGY CONTRIBUTION    RADIAL
 FREQ.      1395.42         C  4 -- H 13         +53.7% ( 63.3%)      0.0%
 T-DIPOLE    0.0726         C  4 -- H 14         +22.3% ( 40.8%)      9.6%
 TRAVEL      0.1761         C  4 -- H 12         +18.9% ( 37.6%)     13.4%
 RED. MASS   0.4202         C  4 -- C  6          +5.0% ( 19.4%)      0.0%
 EFF. MASS   1.5590

 VIBRATION   32   32A         ATOM PAIR      ENERGY CONTRIBUTION    RADIAL
 FREQ.      1410.85         C  2 -- C  7         +28.4% ( 72.4%)     99.8%
 T-DIPOLE    1.2979         C  2 -- C  3         +12.8% ( 48.7%)      0.0%
 TRAVEL      0.0788         C  2 -- H  9         +12.0% ( 47.0%)     12.3%
 RED. MASS   1.6324         C  1 -- C  2         +11.7% ( 46.6%)      1.6%
 EFF. MASS   7.6992

 VIBRATION   33   33A         ATOM PAIR      ENERGY CONTRIBUTION    RADIAL
 FREQ.      1428.36         C  4 -- H 13         +18.3% ( 58.8%)      5.7%
 T-DIPOLE    0.6205         C  4 -- C  6         +17.6% ( 57.6%)     98.8%
 TRAVEL      0.0822         C  4 -- H 12         +15.2% ( 53.5%)      2.7%
 RED. MASS   1.2627         C  4 -- H 14         +14.8% ( 52.9%)      2.7%
 EFF. MASS   6.9919

 VIBRATION   34   34A         ATOM PAIR      ENERGY CONTRIBUTION    RADIAL
 FREQ.      1586.83         C  1 -- C  3         +22.8% ( 78.5%)     94.5%
 T-DIPOLE    1.6907         C  1 -- C  2         +17.5% ( 68.7%)     73.9%
 TRAVEL      0.0604         C  1 -- C  5         +13.9% ( 61.4%)     72.6%
 RED. MASS   3.5760         C  1 -- H  8         +11.6% ( 56.1%)      1.2%
 EFF. MASS  11.6414         C  2 -- C  3         +11.2% ( 55.2%)     90.9%

 VIBRATION   35   35A         ATOM PAIR      ENERGY CONTRIBUTION    RADIAL
 FREQ.      1890.44         C  5 -- C  6         +43.3% ( 97.1%)     95.8%
 T-DIPOLE    0.5959         C  1 -- C  5         +14.8% ( 56.8%)     61.8%
 TRAVEL      0.0549         C  4 -- C  6         +14.0% ( 55.1%)     56.5%
 RED. MASS   5.3208         C  5 -- H 16         +13.3% ( 53.8%)      3.2%
 EFF. MASS  11.8186         C  6 -- H 15         +13.0% ( 53.1%)      3.3%

 VIBRATION   36   36A         ATOM PAIR      ENERGY CONTRIBUTION    RADIAL
 FREQ.      2979.11         C  7 -- H 17         +60.1% ( 78.4%)     99.9%
 T-DIPOLE    0.5153         C  2 -- H  9         +32.6% ( 57.8%)     99.9%
 TRAVEL      0.1255         C  1 -- H  8          +5.5% ( 23.8%)    100.0%
 RED. MASS   0.4539         C  2 -- C  7          +0.8% (  9.0%)      0.6%
 EFF. MASS   1.4366

 VIBRATION   37   37A         ATOM PAIR      ENERGY CONTRIBUTION    RADIAL
 FREQ.      2983.68         C  1 -- H  8         +86.5% ( 94.5%)    100.0%
 T-DIPOLE    0.3657         C  7 -- H 17         +10.0% ( 32.1%)     99.9%
 TRAVEL      0.1249         C  1 -- C  3          +1.0% ( 10.1%)     23.8%
 RED. MASS   0.7497         C  1 -- C  2          +1.0% ( 10.1%)     21.6%
 EFF. MASS   1.4491

 VIBRATION   38   38A         ATOM PAIR      ENERGY CONTRIBUTION    RADIAL
 FREQ.      2999.00         C  2 -- H  9         +64.6% ( 81.3%)    100.0%
 T-DIPOLE    0.2817         C  7 -- H 17         +27.5% ( 53.0%)     99.9%
 TRAVEL      0.1236         C  1 -- H  8          +4.6% ( 21.7%)     99.9%
 RED. MASS   0.4867         C  2 -- C  7          +1.2% ( 10.9%)     92.3%
 EFF. MASS   1.4728

 VIBRATION   39   39A         ATOM PAIR      ENERGY CONTRIBUTION    RADIAL
 FREQ.      3036.68         C  6 -- H 15         +93.1% ( 97.8%)    100.0%
 T-DIPOLE    0.2927         C  5 -- H 16          +2.4% ( 15.7%)     99.5%
 TRAVEL      0.1221         C  4 -- C  6          +1.3% ( 11.7%)     12.5%
 RED. MASS   0.8522         C  5 -- C  6          +1.2% ( 11.3%)     38.1%
 EFF. MASS   1.4904

 VIBRATION   40   40A         ATOM PAIR      ENERGY CONTRIBUTION    RADIAL
 FREQ.      3038.47         C  5 -- H 16         +94.2% ( 98.6%)    100.0%
 T-DIPOLE    0.2643         C  6 -- H 15          +2.2% ( 15.1%)     99.0%
 TRAVEL      0.1201         C  5 -- C  6          +1.7% ( 13.3%)     40.0%
 RED. MASS   0.8806         C  1 -- C  5          +1.4% ( 11.8%)     13.7%
 EFF. MASS   1.5393

 VIBRATION   41   41A         ATOM PAIR      ENERGY CONTRIBUTION    RADIAL
 FREQ.      3070.23         C  4 -- H 14         +49.4% ( 72.5%)     97.1%
 T-DIPOLE    0.0470         C  4 -- H 12         +48.7% ( 72.0%)     97.0%
 TRAVEL      0.1210         C  4 -- C  6          +1.0% ( 10.2%)      0.0%
 RED. MASS   0.5094         C  4 -- H 13          +0.9% (  9.9%)      0.1%
 EFF. MASS   1.5013

 VIBRATION   42   42A         ATOM PAIR      ENERGY CONTRIBUTION    RADIAL
 FREQ.      3076.39         C  4 -- H 13         +62.6% ( 81.5%)     98.9%
 T-DIPOLE    0.0786         C  4 -- H 12         +17.7% ( 43.3%)     85.3%
 TRAVEL      0.1205         C  4 -- H 14         +16.8% ( 42.3%)     84.6%
 RED. MASS   0.4793         C  6 -- H 15          +1.8% ( 13.7%)    100.0%
 EFF. MASS   1.5091

 VIBRATION   43   43A         ATOM PAIR      ENERGY CONTRIBUTION    RADIAL
 FREQ.      3085.58         C  3 -- H 11         +57.8% ( 78.5%)     98.1%
 T-DIPOLE    0.2590         C  3 -- H 10         +39.2% ( 64.6%)     96.0%
 TRAVEL      0.1185         C  2 -- C  3          +1.2% ( 11.2%)      0.6%
 RED. MASS   0.5318         C  1 -- C  3          +1.2% ( 11.1%)      0.3%
 EFF. MASS   1.5560

 VIBRATION   44   44A         ATOM PAIR      ENERGY CONTRIBUTION    RADIAL
 FREQ.      3114.65         C  3 -- H 10         +59.2% ( 76.6%)     97.4%
 T-DIPOLE    0.2352         C  3 -- H 11         +39.1% ( 62.3%)     94.1%
 TRAVEL      0.1290         C  1 -- C  3          +0.8% (  9.1%)     79.7%
 RED. MASS   0.5019         C  2 -- C  3          +0.8% (  9.0%)     68.9%
 EFF. MASS   1.3016

 VIBRATION   45   45A         ATOM PAIR      ENERGY CONTRIBUTION    RADIAL
 FREQ.      3169.55         C  4 -- H 13         +34.7% ( 56.7%)     97.3%
 T-DIPOLE    0.0949         C  4 -- H 14         +32.5% ( 54.9%)     97.0%
 TRAVEL      0.1366         C  4 -- H 12         +32.4% ( 54.8%)     97.0%
 RED. MASS   0.3273         C  4 -- C  6          +0.3% (  5.4%)    100.0%
 EFF. MASS   1.1395

      SYMMETRY NUMBER FOR POINT-GROUP C1  =  1


          SYSTEM IS A GROUND STATE



 InChI=1S/C7H10/c1-3-4-7-5-6(7)2/h2-4,6-7H,5H2,1H3/lp2


          MOLECULE IS NOT LINEAR

          THERE ARE 45 GENUINE VIBRATIONS IN THIS SYSTEM
          THIS THERMODYNAMICS CALCULATION IS LIMITED TO
          MOLECULES WHICH HAVE NO INTERNAL ROTATIONS




                    CALCULATED THERMODYNAMIC PROPERTIES
                                          *
   TEMP. (K)   PARTITION FUNCTION   H.O.F.    ENTHALPY  HEAT CAPACITY ENTROPY
                                   KCAL/MOL   CAL/MOLE    CAL/K/MOL  CAL/K/MOL


 298.00  VIB.     0.8250D+02                  3296.9371    23.0815    19.8326
         ROT.     0.2382D+06                   888.2813     2.9808    27.5845
         INT.     0.1965D+08                  4185.2184    26.0623    47.4172
         TRA.     0.8833D+27                  1480.4688     4.9680    39.5363
         TOT.                      123.666    5665.6873    31.0303    86.9534

 200.00  VIB.     0.1353D+02                  1449.2924    14.8739    12.4229
         ROT.     0.1310D+06                   596.1620     2.9808    26.3959
         INT.     0.1772D+07                  2045.4543    17.8548    38.8187
         TRA.     0.4856D+27                   993.6033     4.9680    37.5551
         TOT.                      121.039    3039.0576    22.8228    76.3739

 210.00  VIB.     0.1624D+02                  1601.8206    15.6349    13.1669
         ROT.     0.1409D+06                   625.9700     2.9808    26.5413
         INT.     0.2289D+07                  2227.7907    18.6158    39.7082
         TRA.     0.5225D+27                  1043.2834     4.9680    37.7975
         TOT.                      121.271    3271.0741    23.5838    77.5057

 220.00  VIB.     0.1950D+02                  1762.0573    16.4157    13.9122
         ROT.     0.1511D+06                   655.7781     2.9808    26.6800
         INT.     0.2947D+07                  2417.8354    19.3965    40.5921
         TRA.     0.5603D+27                  1092.9636     4.9680    38.0286
         TOT.                      121.511    3510.7990    24.3645    78.6208

 230.00  VIB.     0.2343D+02                  1930.2013    17.2164    14.6595
         ROT.     0.1615D+06                   685.5862     2.9808    26.8125
         INT.     0.3784D+07                  2615.7876    20.1972    41.4719
         TRA.     0.5989D+27                  1142.6437     4.9680    38.2495
         TOT.                      121.758    3758.4313    25.1652    79.7214

 240.00  VIB.     0.2815D+02                  2106.4491    18.0363    15.4095
         ROT.     0.1722D+06                   715.3943     2.9808    26.9393
         INT.     0.4848D+07                  2821.8435    21.0171    42.3488
         TRA.     0.6384D+27                  1192.3239     4.9680    38.4609
         TOT.                      122.014    4014.1674    25.9851    80.8097

 250.00  VIB.     0.3385D+02                  2290.9872    18.8742    16.1627
         ROT.     0.1831D+06                   745.2024     2.9808    27.0610
         INT.     0.6197D+07                  3036.1897    21.8550    43.2237
         TRA.     0.6787D+27                  1242.0041     4.9680    38.6637
         TOT.                      122.278    4278.1937    26.8230    81.8874

 260.00  VIB.     0.4071D+02                  2483.9866    19.7282    16.9195
         ROT.     0.1942D+06                   775.0105     2.9808    27.1779
         INT.     0.7905D+07                  3258.9971    22.7090    44.0974
         TRA.     0.7198D+27                  1291.6842     4.9680    38.8586
         TOT.                      122.551    4550.6814    27.6771    82.9560

 270.00  VIB.     0.4899D+02                  2685.5987    20.5963    17.6803
         ROT.     0.2055D+06                   804.8186     2.9808    27.2904
         INT.     0.1007D+08                  3490.4173    23.5771    44.9707
         TRA.     0.7618D+27                  1341.3644     4.9680    39.0461
         TOT.                      122.832    4831.7817    28.5452    84.0168

 280.00  VIB.     0.5899D+02                  2895.9524    21.4762    18.4452
         ROT.     0.2170D+06                   834.6267     2.9808    27.3988
         INT.     0.1280D+08                  3730.5791    24.4570    45.8440
         TRA.     0.8045D+27                  1391.0445     4.9680    39.2267
         TOT.                      123.122    5121.6237    29.4250    85.0708

 290.00  VIB.     0.7106D+02                  3115.1527    22.3652    19.2143
         ROT.     0.2287D+06                   864.4348     2.9808    27.5034
         INT.     0.1625D+08                  3979.5875    25.3460    46.7177
         TRA.     0.8479D+27                  1440.7247     4.9680    39.4011
         TOT.                      123.420    5420.3123    30.3141    86.1188

 300.00  VIB.     0.8564D+02                  3343.2797    23.2611    19.9876
         ROT.     0.2406D+06                   894.2429     2.9808    27.6045
         INT.     0.2061D+08                  4237.5226    26.2419    47.5921
         TRA.     0.8922D+27                  1490.4049     4.9680    39.5695
         TOT.                      123.728    5727.9275    31.2099    87.1616

 310.00  VIB.     0.1033D+03                  3580.3887    24.1613    20.7650
         ROT.     0.2528D+06                   924.0510     2.9808    27.7022
         INT.     0.2610D+08                  4504.4398    27.1421    48.4672
         TRA.     0.9372D+27                  1540.0850     4.9680    39.7324
         TOT.                      124.045    6044.5248    32.1101    88.1996

 320.00  VIB.     0.1246D+03                  3826.5113    25.0634    21.5463
         ROT.     0.2651D+06                   953.8591     2.9808    27.7969
         INT.     0.3303D+08                  4780.3704    28.0442    49.3432
         TRA.     0.9829D+27                  1589.7652     4.9680    39.8901
         TOT.                      124.370    6370.1356    33.0122    89.2333

 330.00  VIB.     0.1504D+03                  4081.6559    25.9653    22.3314
         ROT.     0.2776D+06                   983.6672     2.9808    27.8886
         INT.     0.4176D+08                  5065.3231    28.9461    50.2200
         TRA.     0.1029D+28                  1639.4454     4.9680    40.0430
         TOT.                      124.705    6704.7685    33.9141    90.2630

 340.00  VIB.     0.1817D+03                  4345.8097    26.8649    23.1199
         ROT.     0.2903D+06                  1013.4753     2.9808    27.9776
         INT.     0.5276D+08                  5359.2850    29.8457    51.0975
         TRA.     0.1076D+28                  1689.1255     4.9680    40.1913
         TOT.                      125.048    7048.4105    34.8137    91.2888

 350.00  VIB.     0.2196D+03                  4618.9401    27.7603    23.9116
         ROT.     0.3033D+06                  1043.2834     2.9808    28.0640
         INT.     0.6659D+08                  5662.2235    30.7411    51.9756
         TRA.     0.1124D+28                  1738.8057     4.9680    40.3353
         TOT.                      125.401    7401.0292    35.7092    92.3109

 360.00  VIB.     0.2656D+03                  4900.9969    28.6499    24.7061
         ROT.     0.3163D+06                  1073.0915     2.9808    28.1479
         INT.     0.8401D+08                  5974.0884    31.6307    52.8540
         TRA.     0.1173D+28                  1788.4859     4.9680    40.4753
         TOT.                      125.763    7762.5742    36.5987    93.3293

 370.00  VIB.     0.3213D+03                  5191.9135    29.5321    25.5031
         ROT.     0.3296D+06                  1102.8996     2.9808    28.2296
         INT.     0.1059D+09                  6294.8132    32.5129    53.7327
         TRA.     0.1222D+28                  1838.1660     4.9680    40.6114
         TOT.                      126.133    8132.9792    37.4809    94.3441

 380.00  VIB.     0.3890D+03                  5491.6096    30.4056    26.3023
         ROT.     0.3431D+06                  1132.7077     2.9808    28.3091
         INT.     0.1334D+09                  6624.3173    33.3864    54.6114
         TRA.     0.1272D+28                  1887.8462     4.9680    40.7439
         TOT.                      126.512    8512.1635    38.3544    95.3553

 390.00  VIB.     0.4711D+03                  5799.9924    31.2692    27.1033
         ROT.     0.3567D+06                  1162.5158     2.9808    28.3865
         INT.     0.1681D+09                  6962.5082    34.2501    55.4898
         TRA.     0.1322D+28                  1937.5263     4.9680    40.8729
         TOT.                      126.900    8900.0345    39.2181    96.3628

 400.00  VIB.     0.5709D+03                  6116.9585    32.1221    27.9058
         ROT.     0.3705D+06                  1192.3239     2.9808    28.4620
         INT.     0.2115D+09                  7309.2824    35.1029    56.3677
         TRA.     0.1374D+28                  1987.2065     4.9680    40.9987
         TOT.                      127.297    9296.4889    40.0709    97.3665

   *: NOTE: HEATS OF FORMATION ARE RELATIVE TO THE
            ELEMENTS IN THEIR STANDARD STATE AT 298K
              (=  Standard Enthalpy of Formation).

            Hvib:  Zero-point energy is not included.
                   frequencies of less than zero cm-1 are not included.
            Hrot = (3/2)RT
            Htra = (3/2)RT + pV = (5/2)RT

            Heat capacity is Cp, not Cv

          For more information, see: HTTP://OpenMOPAC.net/Manual/thermochemistry.html


           FORCE CONSTANT IN CARTESIAN COORDINATES (Millidynes/A)

    ATOM   CHEMICAL       X               Y               Z
   NUMBER   SYMBOL  FORCE CONSTANT  FORCE CONSTANT  FORCE CONSTANT

      1       C        8.756186        7.276917        9.355485
      2       C        7.705351        4.988531       10.208190
      3       C        4.284767       11.468289        8.842939
      4       C        8.256687        8.486250        8.712114
      5       C        6.755611       10.921870        9.824892
      6       C        6.647287       10.894228        9.642126
      7       C        5.592101        2.164802        5.858828
      8       H        1.627922        0.970754        3.606471
      9       H        1.649727        0.860251        3.758750
     10       H        0.539875        2.262648        3.812849
     11       H        0.538785        2.243302        3.810525
     12       H        1.166622        1.703522        3.794203
     13       H        0.777651        5.209410        0.780562
     14       H        5.148912        0.812411        0.697779
     15       H        0.539342        4.900131        0.766894
     16       H        0.522857        4.913662        0.740484
     17       H        3.692877        1.245369        0.554470

 **********************
 *                    *
 * JOB ENDED NORMALLY *
 *                    *
 **********************



 TOTAL JOB TIME:             8.46 SECONDS

 == MOPAC DONE ==
