 *******************************************************************************
 ** Site#: 14399        For non-commercial use only    Version 18.184L 64BITS **
 *******************************************************************************
 ** Cite this program as: MOPAC2016, Version: 18.184L, James J. P. Stewart,   **
 ** Stewart Computational Chemistry, web: HTTP://OpenMOPAC.net. Days left:  20**
 *******************************************************************************
 **                                                                           **
 **                                MOPAC2016                                  **
 **                                                                           **
 *******************************************************************************

                              PM3 CALCULATION RESULTS

 *******************************************************************************
 *  CALCULATION DONE:                                Thu Jun 13 21:06:45 2019  *
 *  PM3        - The PM3 Hamiltonian to be used
 *  PRECISE    - CRITERIA TO BE INCREASED BY 100 TIMES
 *  NOSYM      - POINT-GROUP SYMMETRY SET TO C1
 *  THREADS=1  - MULTI-THREADING NOT USED
 *  T=         - A TIME OF 172800.0 SECONDS REQUESTED
 *  DUMP=N     - RESTART FILE WRITTEN EVERY  7200.000 SECONDS
 *******************************************************************************
pm3  precise nosym THREADS=1
 InChI=1S/C5H8/c1-5-3-2-4-5/h2-3,5H,4H2,1H3

   ATOM   CHEMICAL          X               Y               Z
  NUMBER   SYMBOL      (ANGSTROMS)     (ANGSTROMS)     (ANGSTROMS)
 
     1       C          0.34780000  *  -0.38240000  *  -0.28890000  *
     2       C         -0.66010000  *  -0.70510000  *   0.68400000  *
     3       C          1.46740000  *   0.52740000  *   0.22690000  *
     4       C         -0.67900000  *   0.36990000  *  -1.07290000  *
     5       C         -1.65890000  *   0.04820000  *  -0.13420000  *
     6       H          0.73000000  *  -1.26740000  *  -0.84520000  *
     7       H         -0.52180000  *  -0.24310000  *   1.68730000  *
     8       H         -0.90130000  *  -1.79020000  *   0.72430000  *
     9       H          2.10390000  *   0.85110000  *  -0.62340000  *
    10       H          1.05820000  *   1.43110000  *   0.73000000  *
    11       H          2.09960000  *  -0.03180000  *   0.94850000  *
    12       H         -0.66790000  *   0.93200000  *  -2.00050000  *
    13       H         -2.71800000  *   0.26030000  *  -0.03580000  *
 


          CARTESIAN COORDINATES 

    NO.       ATOM           X           Y           Z

     1         C          0.3478     -0.3824     -0.2889
     2         C         -0.6601     -0.7051      0.6840
     3         C          1.4674      0.5274      0.2269
     4         C         -0.6790      0.3699     -1.0729
     5         C         -1.6589      0.0482     -0.1342
     6         H          0.7300     -1.2674     -0.8452
     7         H         -0.5218     -0.2431      1.6873
     8         H         -0.9013     -1.7902      0.7243
     9         H          2.1039      0.8511     -0.6234
    10         H          1.0582      1.4311      0.7300
    11         H          2.0996     -0.0318      0.9485
    12         H         -0.6679      0.9320     -2.0005
    13         H         -2.7180      0.2603     -0.0358

  H: (PM3): J. J. P. STEWART, J. COMP. CHEM. 10, 209 (1989).
  C: (PM3): J. J. P. STEWART, J. COMP. CHEM. 10, 209 (1989).

           Empirical Formula: C5 H8  =    13 atoms



      MOLECULAR POINT GROUP   :   C1  


      RHF CALCULATION, NO. OF DOUBLY OCCUPIED LEVELS = 14


          Geometry optimization using EF

          DIAGONAL MATRIX USED AS START HESSIAN

 CYCLE:     1 TIME:   0.016 TIME LEFT:  2.00D  GRAD.:   213.638 HEAT:  42.93380
 CYCLE:     2 TIME:   0.031 TIME LEFT:  2.00D  GRAD.:    65.914 HEAT:  34.10257
 CYCLE:     3 TIME:   0.023 TIME LEFT:  2.00D  GRAD.:    54.807 HEAT:  33.02836
 CYCLE:     4 TIME:   0.016 TIME LEFT:  2.00D  GRAD.:    67.695 HEAT:  32.87184
 CYCLE:     5 TIME:   0.023 TIME LEFT:  2.00D  GRAD.:    43.929 HEAT:  32.07999
 CYCLE:     6 TIME:   0.031 TIME LEFT:  2.00D  GRAD.:    26.517 HEAT:  31.59783
 CYCLE:     7 TIME:   0.023 TIME LEFT:  2.00D  GRAD.:    18.611 HEAT:  31.37627
 CYCLE:     8 TIME:   0.016 TIME LEFT:  2.00D  GRAD.:    24.112 HEAT:  31.27391
 CYCLE:     9 TIME:   0.023 TIME LEFT:  2.00D  GRAD.:    18.279 HEAT:  31.17067
 CYCLE:    10 TIME:   0.023 TIME LEFT:  2.00D  GRAD.:    19.562 HEAT:  31.13975
 CYCLE:    11 TIME:   0.023 TIME LEFT:  2.00D  GRAD.:    13.504 HEAT:  31.06793
 CYCLE:    12 TIME:   0.023 TIME LEFT:  2.00D  GRAD.:     6.041 HEAT:  31.01783
 CYCLE:    13 TIME:   0.023 TIME LEFT:  2.00D  GRAD.:     4.786 HEAT:  30.99758
 CYCLE:    14 TIME:   0.023 TIME LEFT:  2.00D  GRAD.:     5.495 HEAT:  30.97384
 CYCLE:    15 TIME:   0.023 TIME LEFT:  2.00D  GRAD.:     3.817 HEAT:  30.95851
 CYCLE:    16 TIME:   0.023 TIME LEFT:  2.00D  GRAD.:     4.381 HEAT:  30.95323
 CYCLE:    17 TIME:   0.016 TIME LEFT:  2.00D  GRAD.:     2.826 HEAT:  30.94541
 CYCLE:    18 TIME:   0.023 TIME LEFT:  2.00D  GRAD.:     2.583 HEAT:  30.93832
 CYCLE:    19 TIME:   0.023 TIME LEFT:  2.00D  GRAD.:     2.147 HEAT:  30.93167
 CYCLE:    20 TIME:   0.023 TIME LEFT:  2.00D  GRAD.:     1.963 HEAT:  30.92607
 CYCLE:    21 TIME:   0.023 TIME LEFT:  2.00D  GRAD.:     1.941 HEAT:  30.92341
 CYCLE:    22 TIME:   0.023 TIME LEFT:  2.00D  GRAD.:     1.635 HEAT:  30.92039
 CYCLE:    23 TIME:   0.023 TIME LEFT:  2.00D  GRAD.:     0.945 HEAT:  30.91802
 CYCLE:    24 TIME:   0.023 TIME LEFT:  2.00D  GRAD.:     1.071 HEAT:  30.91607
 CYCLE:    25 TIME:   0.031 TIME LEFT:  2.00D  GRAD.:     1.198 HEAT:  30.91347
 CYCLE:    26 TIME:   0.016 TIME LEFT:  2.00D  GRAD.:     0.984 HEAT:  30.91123
 CYCLE:    27 TIME:   0.023 TIME LEFT:  2.00D  GRAD.:     0.625 HEAT:  30.91002
 CYCLE:    28 TIME:   0.023 TIME LEFT:  2.00D  GRAD.:     0.665 HEAT:  30.90917
 CYCLE:    29 TIME:   0.023 TIME LEFT:  2.00D  GRAD.:     0.703 HEAT:  30.90842
 CYCLE:    30 TIME:   0.023 TIME LEFT:  2.00D  GRAD.:     0.454 HEAT:  30.90767
 CYCLE:    31 TIME:   0.023 TIME LEFT:  2.00D  GRAD.:     0.273 HEAT:  30.90746
 CYCLE:    32 TIME:   0.023 TIME LEFT:  2.00D  GRAD.:     0.279 HEAT:  30.90724
 CYCLE:    33 TIME:   0.023 TIME LEFT:  2.00D  GRAD.:     0.313 HEAT:  30.90712
 CYCLE:    34 TIME:   0.023 TIME LEFT:  2.00D  GRAD.:     0.262 HEAT:  30.90685
 CYCLE:    35 TIME:   0.023 TIME LEFT:  2.00D  GRAD.:     0.213 HEAT:  30.90673
 CYCLE:    36 TIME:   0.023 TIME LEFT:  2.00D  GRAD.:     0.265 HEAT:  30.90654
 CYCLE:    37 TIME:   0.023 TIME LEFT:  2.00D  GRAD.:     0.313 HEAT:  30.90638
 CYCLE:    38 TIME:   0.023 TIME LEFT:  2.00D  GRAD.:     0.288 HEAT:  30.90614
 CYCLE:    39 TIME:   0.016 TIME LEFT:  2.00D  GRAD.:     0.216 HEAT:  30.90603
 CYCLE:    40 TIME:   0.023 TIME LEFT:  2.00D  GRAD.:     0.342 HEAT:  30.90583
 CYCLE:    41 TIME:   0.023 TIME LEFT:  2.00D  GRAD.:     0.311 HEAT:  30.90570
 CYCLE:    42 TIME:   0.023 TIME LEFT:  2.00D  GRAD.:     0.213 HEAT:  30.90532
 CYCLE:    43 TIME:   0.023 TIME LEFT:  2.00D  GRAD.:     0.223 HEAT:  30.90520
 CYCLE:    44 TIME:   0.023 TIME LEFT:  2.00D  GRAD.:     0.309 HEAT:  30.90487
 CYCLE:    45 TIME:   0.023 TIME LEFT:  2.00D  GRAD.:     0.260 HEAT:  30.90474
 CYCLE:    46 TIME:   0.023 TIME LEFT:  2.00D  GRAD.:     0.202 HEAT:  30.90451
 CYCLE:    47 TIME:   0.023 TIME LEFT:  2.00D  GRAD.:     0.098 HEAT:  30.90445
 CYCLE:    48 TIME:   0.023 TIME LEFT:  2.00D  GRAD.:     0.079 HEAT:  30.90443
 CYCLE:    49 TIME:   0.023 TIME LEFT:  2.00D  GRAD.:     0.127 HEAT:  30.90442
 CYCLE:    50 TIME:   0.023 TIME LEFT:  2.00D  GRAD.:     0.061 HEAT:  30.90440
 CYCLE:    51 TIME:   0.023 TIME LEFT:  2.00D  GRAD.:     0.036 HEAT:  30.90440

     GRADIENT =  0.03562  IS LESS THAN CUTOFF =  0.05000



 -------------------------------------------------------------------------------
 pm3  precise nosym THREADS=1
 InChI=1S/C5H8/c1-5-3-2-4-5/h2-3,5H,4H2,1H3



     GEOMETRY OPTIMISED USING EIGENVECTOR FOLLOWING (EF).     
     SCF FIELD WAS ACHIEVED                                   


                              PM3 CALCULATION
                                                       MOPAC2016 (Version: 18.184L)
                                                       Thu Jun 13 21:06:46 2019
                                                       No. of days remaining =  20




          FINAL HEAT OF FORMATION =         30.90440 KCAL/MOL =     129.30399 KJ/MOL


          TOTAL ENERGY            =       -714.52337 EV
          ELECTRONIC ENERGY       =      -2820.19640 EV  POINT GROUP:     C1  
          CORE-CORE REPULSION     =       2105.67303 EV
          COSMO AREA              =        117.29 SQUARE ANGSTROMS
          COSMO VOLUME            =        105.22 CUBIC ANGSTROMS

          GRADIENT NORM           =          0.03562 = 0.00988 PER ATOM
          IONIZATION POTENTIAL    =          9.846711 EV
          HOMO LUMO ENERGIES (EV) =         -9.847  1.045
          NO. OF FILLED LEVELS    =         14
          MOLECULAR WEIGHT        =         68.1182

          MOLECULAR DIMENSIONS (Angstroms)

            Atom       Atom       Distance
            H    13    H    11     4.99460
            H    12    H     8     3.91537
            H    10    H     6     2.96119


          SCF CALCULATIONS        =         58
 
          WALL-CLOCK TIME         =          1.227 SECONDS
          COMPUTATION TIME        =          0.334 SECONDS




   ATOM   CHEMICAL          X               Y               Z
  NUMBER   SYMBOL      (ANGSTROMS)     (ANGSTROMS)     (ANGSTROMS)
 
     1       C          0.39560239  *  -0.34992843  *  -0.31127351  *
     2       C         -0.72529172  *  -0.71863929  *   0.73268303  *
     3       C          1.50652755  *   0.51921617  *   0.20603476  *
     4       C         -0.71526658  *   0.37600490  *  -1.06481022  *
     5       C         -1.67144750  *   0.04539972  *  -0.17467894  *
     6       H          0.79732827  *  -1.22744209  *  -0.85795715  *
     7       H         -0.58930000  *  -0.29068042  *   1.73631602  *
     8       H         -0.93582398  *  -1.79163088  *   0.84030351  *
     9       H          2.12852992  *   0.89447298  *  -0.61662821  *
    10       H          1.12529797  *   1.39056666  *   0.75472020  *
    11       H          2.15807428  *  -0.04068627  *   0.88914412  *
    12       H         -0.67342583  *   0.93912970  *  -1.98686530  *
    13       H         -2.73451258  *   0.21975798  *  -0.08081726  *

                             CARTESIAN COORDINATES

   1    C        0.395602392    -0.349928428    -0.311273512
   2    C       -0.725291723    -0.718639291     0.732683027
   3    C        1.506527549     0.519216175     0.206034761
   4    C       -0.715266582     0.376004897    -1.064810225
   5    C       -1.671447501     0.045399721    -0.174678941
   6    H        0.797328272    -1.227442088    -0.857957149
   7    H       -0.589300003    -0.290680417     1.736316024
   8    H       -0.935823979    -1.791630878     0.840303507
   9    H        2.128529920     0.894472977    -0.616628214
  10    H        1.125297975     1.390566662     0.754720195
  11    H        2.158074281    -0.040686266     0.889144123
  12    H       -0.673425832     0.939129695    -1.986865304
  13    H       -2.734512579     0.219757978    -0.080817264


           Empirical Formula: C5 H8  =    13 atoms



      MOLECULAR POINT GROUP   :   C1  


                  EIGENVALUES  
 -39.75567 -29.76265 -24.74028 -21.92660 -17.66000 -17.39963 -15.63259 -15.02172
 -13.60911 -13.24718 -12.61637 -11.75538 -11.51775  -9.84671   1.04491   3.23802
   3.38367   3.41263   3.87723   4.00624   4.22568   4.41640   4.45035   4.66851
   4.81074   5.11543   5.14985   6.17706


              NET ATOMIC CHARGES AND DIPOLE CONTRIBUTIONS

  ATOM NO.   TYPE          CHARGE      No. of ELECS.   s-Pop       p-Pop       
    1          C          -0.066441        4.0664     1.18525     2.88119
    2          C          -0.085910        4.0859     1.17246     2.91345
    3          C          -0.097135        4.0971     1.13373     2.96341
    4          C          -0.163574        4.1636     1.22129     2.94229
    5          C          -0.158805        4.1588     1.21769     2.94111
    6          H           0.074626        0.9254     0.92537
    7          H           0.064736        0.9353     0.93526
    8          H           0.060913        0.9391     0.93909
    9          H           0.040521        0.9595     0.95948
   10          H           0.042803        0.9572     0.95720
   11          H           0.039380        0.9606     0.96062
   12          H           0.125017        0.8750     0.87498
   13          H           0.123869        0.8761     0.87613
 DIPOLE           X         Y         Z       TOTAL
 POINT-CHG.     0.158    -0.072     0.111     0.206
 HYBRID        -0.044     0.028    -0.018     0.055
 SUM            0.114    -0.044     0.093     0.154


          ATOMIC ORBITAL ELECTRON POPULATIONS

     Atom    s        px        py        pz   
    1  C   1.18525   0.93847   0.97965   0.96307
    2  C   1.17246   0.95244   0.99301   0.96800
    3  C   1.13373   0.97219   0.98983   1.00140
    4  C   1.22129   0.96163   0.99879   0.98187
    5  C   1.21769   0.97406   0.99359   0.97346
    6  H   0.92537
    7  H   0.93526
    8  H   0.93909
    9  H   0.95948
   10  H   0.95720
   11  H   0.96062
   12  H   0.87498
   13  H   0.87613
 *******************************************************************************
 ** Site#: 14399        For non-commercial use only    Version 18.184L 64BITS **
 *******************************************************************************
 ** Cite this program as: MOPAC2016, Version: 18.184L, James J. P. Stewart,   **
 ** Stewart Computational Chemistry, web: HTTP://OpenMOPAC.net. Days left:  20**
 *******************************************************************************
 **                                                                           **
 **                                MOPAC2016                                  **
 **                                                                           **
 *******************************************************************************

                              PM3 CALCULATION RESULTS

 *******************************************************************************
 *  CALCULATION DONE:                                Thu Jun 13 21:06:46 2019  *
 *  PM3        - The PM3 Hamiltonian to be used
 *  OLDGEO     - PREVIOUS GEOMETRY TO BE USED
 *  PRECISE    - CRITERIA TO BE INCREASED BY 100 TIMES
 *  NOSYM      - POINT-GROUP SYMMETRY SET TO C1
 *  THREADS=1  - MULTI-THREADING NOT USED
 *  T=         - A TIME OF 172800.0 SECONDS REQUESTED
 *  DUMP=N     - RESTART FILE WRITTEN EVERY  7200.000 SECONDS
 *  THERMO     - THERMODYNAMIC QUANTITIES TO BE CALCULATED
 *******************************************************************************
oldgeo thermo nosym precise THREADS=1  pm3
 InChI=1S/C5H8/c1-5-3-2-4-5/h2-3,5H,4H2,1H3

   ATOM   CHEMICAL          X               Y               Z
  NUMBER   SYMBOL      (ANGSTROMS)     (ANGSTROMS)     (ANGSTROMS)
 
     1       C          0.39560239  *  -0.34992843  *  -0.31127351  *
     2       C         -0.72529172  *  -0.71863929  *   0.73268303  *
     3       C          1.50652755  *   0.51921617  *   0.20603476  *
     4       C         -0.71526658  *   0.37600490  *  -1.06481022  *
     5       C         -1.67144750  *   0.04539972  *  -0.17467894  *
     6       H          0.79732827  *  -1.22744209  *  -0.85795715  *
     7       H         -0.58930000  *  -0.29068042  *   1.73631602  *
     8       H         -0.93582398  *  -1.79163088  *   0.84030351  *
     9       H          2.12852992  *   0.89447298  *  -0.61662821  *
    10       H          1.12529797  *   1.39056666  *   0.75472020  *
    11       H          2.15807428  *  -0.04068627  *   0.88914412  *
    12       H         -0.67342583  *   0.93912970  *  -1.98686530  *
    13       H         -2.73451258  *   0.21975798  *  -0.08081726  *
 


          CARTESIAN COORDINATES 

    NO.       ATOM           X           Y           Z

     1         C          0.3956     -0.3499     -0.3113
     2         C         -0.7253     -0.7186      0.7327
     3         C          1.5065      0.5192      0.2060
     4         C         -0.7153      0.3760     -1.0648
     5         C         -1.6714      0.0454     -0.1747
     6         H          0.7973     -1.2274     -0.8580
     7         H         -0.5893     -0.2907      1.7363
     8         H         -0.9358     -1.7916      0.8403
     9         H          2.1285      0.8945     -0.6166
    10         H          1.1253      1.3906      0.7547
    11         H          2.1581     -0.0407      0.8891
    12         H         -0.6734      0.9391     -1.9869
    13         H         -2.7345      0.2198     -0.0808

  H: (PM3): J. J. P. STEWART, J. COMP. CHEM. 10, 209 (1989).
  C: (PM3): J. J. P. STEWART, J. COMP. CHEM. 10, 209 (1989).

           Empirical Formula: C5 H8  =    13 atoms



      MOLECULAR POINT GROUP   :   C1  


      RHF CALCULATION, NO. OF DOUBLY OCCUPIED LEVELS = 14



          HEAT OF FORMATION =      30.904395 KCALS/MOLE


          CARTESIAN COORDINATE DERIVATIVES

   NUMBER  ATOM         X            Y            Z

     1       C      0.002142     0.004000     0.006040
     2       C     -0.001728     0.001031     0.006092
     3       C      0.010112    -0.004853     0.003174
     4       C     -0.003020    -0.008812     0.001585
     5       C      0.005311    -0.001828    -0.000070
     6       H     -0.005440     0.004082    -0.000863
     7       H      0.008585    -0.004744     0.005077
     8       H     -0.010881     0.007257    -0.008330
     9       H      0.002960    -0.005626    -0.011279
    10       H      0.002292    -0.002813    -0.001834
    11       H     -0.004625     0.004412    -0.003172
    12       H      0.005664    -0.001999     0.006902
    13       H     -0.011371     0.009894    -0.003322
 


          GRADIENT NORM =   0.03635


          TIME FOR SCF CALCULATION =    0.02

          TIME FOR DERIVATIVES     =    0.01

          MOLECULAR WEIGHT =   68.12



          ROTATIONAL CONSTANTS IN CM(-1)

          A =    0.33622286   B =    0.15748416   C =    0.12539220



           PRINCIPAL MOMENTS OF INERTIA IN UNITS OF 10**(-40)*GRAM-CM**2

          A =       83.2566   B =      177.7498   C =      223.2418


          ORIENTATION OF MOLECULE IN FORCE CALCULATION

    NO.       ATOM         X         Y         Z

     1          C      -0.4843   -0.0413   -0.5153
     2          C       1.0912   -0.0413   -0.5153
     3          C      -1.1353    1.3128   -0.5153
     4          C      -0.3631   -0.7164    0.8479
     5          C       0.9843   -0.7252    0.8349
     6          H      -0.9269   -0.6966   -1.2930
     7          H       1.5594    0.9535   -0.5020
     8          H       1.5635   -0.6346   -1.3104
     9          H      -2.2107    1.2326   -0.3118
    10          H      -0.7044    1.9761    0.2462
    11          H      -1.0151    1.8067   -1.4881
    12          H      -1.1356   -1.0443    1.5296
    13          H       1.7621   -1.0757    1.4994


    FIRST DERIVATIVES WILL BE USED IN THE CALCULATION OF SECOND DERIVATIVES

          ESTIMATED TIME TO COMPLETE CALCULATION =        4.88 SECONDS

    FOR POINT-GROUP C1   THERE ARE   1 UNIQUE SYMMETRY FUNCTIONS.

 STEP:   1 TIME =     0.02 SECS, INTEGRAL =      0.02 TIME LEFT: 172799.95
 STEP:   2 TIME =     0.02 SECS, INTEGRAL =      0.05 TIME LEFT: 172799.92
 STEP:   3 TIME =     0.02 SECS, INTEGRAL =      0.07 TIME LEFT: 172799.90
 STEP:   4 TIME =     0.02 SECS, INTEGRAL =      0.09 TIME LEFT: 172799.88
 STEP:   5 TIME =     0.02 SECS, INTEGRAL =      0.12 TIME LEFT: 172799.85
 STEP:   6 TIME =     0.03 SECS, INTEGRAL =      0.15 TIME LEFT: 172799.82
 STEP:   7 TIME =     0.02 SECS, INTEGRAL =      0.17 TIME LEFT: 172799.80
 STEP:   8 TIME =     0.02 SECS, INTEGRAL =      0.20 TIME LEFT: 172799.77
 STEP:   9 TIME =     0.03 SECS, INTEGRAL =      0.23 TIME LEFT: 172799.74
 STEP:  10 TIME =     0.02 SECS, INTEGRAL =      0.25 TIME LEFT: 172799.72
 STEP:  11 TIME =     0.03 SECS, INTEGRAL =      0.28 TIME LEFT: 172799.69
 STEP:  12 TIME =     0.02 SECS, INTEGRAL =      0.30 TIME LEFT: 172799.66
 STEP:  13 TIME =     0.02 SECS, INTEGRAL =      0.33 TIME LEFT: 172799.64
 STEP:  14 TIME =     0.02 SECS, INTEGRAL =      0.35 TIME LEFT: 172799.62
 STEP:  15 TIME =     0.02 SECS, INTEGRAL =      0.38 TIME LEFT: 172799.59
 STEP:  16 TIME =     0.02 SECS, INTEGRAL =      0.40 TIME LEFT: 172799.57
 STEP:  17 TIME =     0.02 SECS, INTEGRAL =      0.42 TIME LEFT: 172799.55
 STEP:  18 TIME =     0.02 SECS, INTEGRAL =      0.45 TIME LEFT: 172799.52
 STEP:  19 TIME =     0.03 SECS, INTEGRAL =      0.48 TIME LEFT: 172799.49
 STEP:  20 TIME =     0.02 SECS, INTEGRAL =      0.50 TIME LEFT: 172799.47
 STEP:  21 TIME =     0.02 SECS, INTEGRAL =      0.52 TIME LEFT: 172799.45
 STEP:  22 TIME =     0.02 SECS, INTEGRAL =      0.55 TIME LEFT: 172799.42
 STEP:  23 TIME =     0.02 SECS, INTEGRAL =      0.57 TIME LEFT: 172799.40
 STEP:  24 TIME =     0.02 SECS, INTEGRAL =      0.59 TIME LEFT: 172799.38
 STEP:  25 TIME =     0.02 SECS, INTEGRAL =      0.62 TIME LEFT: 172799.35
 STEP:  26 TIME =     0.03 SECS, INTEGRAL =      0.65 TIME LEFT: 172799.32
 STEP:  27 TIME =     0.03 SECS, INTEGRAL =      0.68 TIME LEFT: 172799.29
 STEP:  28 TIME =     0.03 SECS, INTEGRAL =      0.71 TIME LEFT: 172799.26
 STEP:  29 TIME =     0.02 SECS, INTEGRAL =      0.73 TIME LEFT: 172799.23
 STEP:  30 TIME =     0.02 SECS, INTEGRAL =      0.76 TIME LEFT: 172799.21
 STEP:  31 TIME =     0.02 SECS, INTEGRAL =      0.78 TIME LEFT: 172799.19
 STEP:  32 TIME =     0.02 SECS, INTEGRAL =      0.80 TIME LEFT: 172799.16
 STEP:  33 TIME =     0.03 SECS, INTEGRAL =      0.84 TIME LEFT: 172799.13
 STEP:  34 TIME =     0.02 SECS, INTEGRAL =      0.86 TIME LEFT: 172799.11
 STEP:  35 TIME =     0.02 SECS, INTEGRAL =      0.88 TIME LEFT: 172799.09
 STEP:  36 TIME =     0.03 SECS, INTEGRAL =      0.91 TIME LEFT: 172799.05
 STEP:  37 TIME =     0.02 SECS, INTEGRAL =      0.94 TIME LEFT: 172799.03
 STEP:  38 TIME =     0.03 SECS, INTEGRAL =      0.97 TIME LEFT: 172799.00
 STEP:  39 TIME =     0.03 SECS, INTEGRAL =      1.00 TIME LEFT: 172798.97

(To convert to Hartree/Bohr^2, multiply by (10^(-21) x N x a0^2)/(4.184 x 627.51) =  0.0642)


           FORCE MATRIX IN MILLIDYNES/ANGSTROM


                  C  1       C  2       C  3       C  4       C  5       H  6
 ------------------------------------------------------------------------------
     C    1  14.475948
     C    2   2.863606  14.282017
     C    3   4.701746   0.508643  14.535311
     C    4   3.871001   2.263427   0.563057  18.329921
     C    5   2.243180   4.157393   0.051796  10.348743  18.421123
     H    6   4.445684   0.414876   0.429472   0.414800   0.043571   4.956251
     H    7   0.434268   4.698107   0.021386   0.040876   0.434408   0.024296
     H    8   0.421270   4.721836   0.026941   0.040154   0.435007   0.026134
     H    9   0.452847   0.046131   4.748512   0.011105   0.004102   0.027759
     H   10   0.469161   0.018004   4.733364   0.013221   0.003140   0.045488
     H   11   0.452872   0.009363   4.744288   0.048050   0.006524   0.027796
     H   12   0.339205   0.112923   0.008821   5.287098   0.423371   0.005539
     H   13   0.114550   0.341340   0.016518   0.424515   5.283072   0.013991


                  H  7       H  8       H  9       H 10       H 11       H 12
 ------------------------------------------------------------------------------
     H    7   5.317375
     H    8   0.530328   5.339556
     H    9   0.002456   0.004818   5.472969
     H   10   0.015518   0.001442   0.570806   5.465622
     H   11   0.003454   0.001869   0.568362   0.569674   5.469317
     H   12   0.014973   0.014374   0.003141   0.002278   0.001594   5.671671
     H   13   0.005760   0.005635   0.001338   0.001478   0.002515   0.029710


                  H 13
 ------------------
     H   13   5.668518


          HEAT OF FORMATION =      30.904395 KCALS/MOLE

          ZERO POINT ENERGY      71.877 KCAL/MOL


           NORMAL COORDINATE ANALYSIS (Total motion = 1 Angstrom)


   Root No.       1         2         3         4         5         6         7         8

                 1 A       2 A       3 A       4 A       5 A       6 A       7 A       8 A   

                 171.3     248.4     342.0     493.6     765.5     818.1     884.9     903.4
  
           1    0.0095   -0.0045    0.0327   -0.0038   -0.0165    0.0399   -0.0347   -0.0048
           2    0.0060   -0.0262    0.0219   -0.0405   -0.0014    0.0169   -0.0132   -0.0013
           3   -0.0075   -0.0319   -0.0248   -0.0270   -0.0132    0.0382    0.0278   -0.0017
           4    0.0100   -0.0048    0.0368   -0.0082   -0.0015    0.0009    0.0750   -0.0035
           5    0.0057   -0.0182   -0.0361    0.0277   -0.0230    0.0187    0.0018    0.0303
           6    0.0120   -0.0198   -0.0075   -0.0000    0.0090   -0.0284   -0.0067    0.0198
           7   -0.0039    0.0313   -0.0451    0.0314   -0.0166    0.0261   -0.0265   -0.0062
           8   -0.0004   -0.0067   -0.0157   -0.0332    0.0245   -0.0225   -0.0084   -0.0054
           9   -0.0002    0.0456    0.0287    0.0176   -0.0041    0.0118    0.0189    0.0023
          10   -0.0072   -0.0142   -0.0055   -0.0135    0.0179   -0.0326   -0.0142    0.0009
          11   -0.0044   -0.0170    0.0508    0.0438   -0.0249   -0.0223    0.0075   -0.0346
          12   -0.0114   -0.0271   -0.0104    0.0118   -0.0177    0.0143   -0.0150   -0.0150
          13   -0.0073   -0.0134   -0.0067   -0.0143    0.0178   -0.0317   -0.0153    0.0026
          14   -0.0064    0.0672   -0.0109   -0.0115   -0.0269   -0.0016    0.0136    0.0065
          15    0.0049    0.0232    0.0037   -0.0195    0.0027   -0.0285   -0.0318    0.0019
          16    0.0183   -0.0186    0.0449    0.0075   -0.0277    0.0512   -0.0448    0.0627
          17    0.0085    0.0068    0.0225   -0.0609    0.0341    0.0284   -0.0492    0.0337
          18   -0.0148   -0.0486   -0.0330   -0.0128   -0.0348    0.0178    0.0663   -0.0701
          19    0.0123   -0.0028    0.0808   -0.0847   -0.0321    0.0576    0.1020    0.0510
          20    0.0044   -0.0187   -0.0581    0.0663   -0.0075   -0.0076   -0.0127    0.0014
          21    0.0275   -0.0979   -0.0213    0.0896    0.1170   -0.0196    0.0270   -0.1411
          22    0.0197   -0.0017    0.0174    0.0698    0.0337   -0.0662    0.0930   -0.0595
          23    0.0122   -0.0835   -0.0755    0.1252    0.0644    0.0313   -0.0001   -0.1167
          24    0.0128    0.0299    0.0095   -0.0225   -0.0308   -0.0805    0.0073    0.0895
          25    0.0457    0.0357   -0.0393    0.0350   -0.0190    0.0254   -0.0457   -0.0114
          26    0.0047    0.0147   -0.1155   -0.0038    0.0488   -0.1121    0.1714    0.0588
          27    0.2666    0.0762    0.0274    0.0441   -0.0054   -0.0246   -0.0234   -0.0077
          28    0.1686    0.0746   -0.0978    0.0758   -0.0087   -0.0562    0.0436    0.0279
          29    0.0871   -0.0578   -0.0272   -0.0853    0.0218    0.0680   -0.0020   -0.0111
          30   -0.1737    0.0665    0.0679    0.0403   -0.0061   -0.0239   -0.0258   -0.0117
          31   -0.2458    0.0163   -0.0889    0.0289   -0.0130    0.0210    0.0918    0.0332
          32   -0.1002    0.0389    0.0498    0.0063    0.0291   -0.0959   -0.1098   -0.0319
          33   -0.0803    0.0674    0.0578    0.0385   -0.0021   -0.0265   -0.0200   -0.0076
          34   -0.0167   -0.0204   -0.0304   -0.0173    0.0315   -0.0483    0.0228    0.0154
          35   -0.0076   -0.0477    0.1206    0.1566    0.1838    0.0660   -0.0212    0.2127
          36   -0.0236   -0.0489   -0.0049    0.0617    0.0978    0.0396    0.0145    0.1204
          37   -0.0160   -0.0167   -0.0318   -0.0155    0.0204   -0.0150   -0.0746    0.0114
          38   -0.0137    0.1579   -0.0350   -0.0417    0.2410    0.1506    0.0089   -0.0935
          39    0.0113    0.0747    0.0203   -0.0344    0.1419    0.0302    0.0350   -0.0609


   Root No.       9        10        11        12        13        14        15        16

                 9 A      10 A      11 A      12 A      13 A      14 A      15 A      16 A   

                 937.1     949.2    1008.5    1024.6    1037.4    1045.0    1153.7    1164.8
  
           1    0.0008    0.0035   -0.0017    0.0072   -0.0004    0.0350   -0.0092    0.0510
           2   -0.0008   -0.0070    0.0013    0.0014   -0.0006    0.0026    0.0417    0.0447
           3   -0.0120    0.0047   -0.0144   -0.0002   -0.0136    0.0096    0.0375   -0.0186
           4    0.0198    0.0099   -0.0162   -0.0068   -0.0083    0.0022    0.0127   -0.0438
           5   -0.0067   -0.0220   -0.0268    0.0104    0.0052   -0.0143   -0.0104   -0.0027
           6    0.0031   -0.0151    0.0116    0.0154   -0.0032   -0.0371   -0.0014   -0.0123
           7   -0.0026    0.0088   -0.0046   -0.0085   -0.0005   -0.0323    0.0012   -0.0137
           8    0.0173    0.0196   -0.0106   -0.0009   -0.0052    0.0080   -0.0502   -0.0197
           9   -0.0235    0.0145    0.0223    0.0073    0.0125   -0.0050   -0.0316    0.0071
          10   -0.0200   -0.0049   -0.0016   -0.0031    0.0048   -0.0052   -0.0002    0.0007
          11   -0.0236   -0.0173    0.0093    0.0222    0.0247   -0.0204   -0.0008   -0.0051
          12    0.0471   -0.0042    0.0038    0.0132    0.0123    0.0244    0.0010   -0.0185
          13   -0.0231   -0.0046    0.0026    0.0007   -0.0013   -0.0037    0.0031   -0.0108
          14    0.0154    0.0184    0.0238   -0.0411   -0.0214    0.0044    0.0040    0.0023
          15   -0.0322    0.0030   -0.0006   -0.0243   -0.0055    0.0240   -0.0018    0.0060
          16    0.0631   -0.0621    0.0658    0.0377    0.0994    0.1471   -0.1928   -0.0785
          17   -0.0036    0.0354    0.1012   -0.0168    0.0947   -0.0166    0.3201   -0.0765
          18   -0.0417    0.0085   -0.1379   -0.0014   -0.1509   -0.0372   -0.0870    0.1558
          19    0.0527   -0.1622    0.0471   -0.0762   -0.0665   -0.0937   -0.0728   -0.0045
          20   -0.0218    0.0634   -0.0572    0.0436    0.0333    0.0349    0.0330   -0.0211
          21    0.0395   -0.0310    0.1560   -0.1177   -0.0830   -0.0447   -0.0159    0.0873
          22    0.0874    0.1862   -0.0129    0.1036   -0.0084    0.0349    0.0649    0.0720
          23   -0.0244    0.0161    0.0225   -0.1016   -0.0072    0.0825    0.0160   -0.0463
          24    0.0549    0.0660   -0.0216    0.1621    0.0043   -0.0903    0.0141    0.0912
          25    0.0096    0.0057   -0.0181   -0.0138   -0.0071   -0.0395    0.0119   -0.0182
          26   -0.0250   -0.0719    0.0503    0.0546    0.0222    0.1684   -0.0271    0.0682
          27    0.0308   -0.0267   -0.0329   -0.0049   -0.0175    0.0074    0.0290   -0.0003
          28    0.0172   -0.0985   -0.0118    0.0127   -0.0083    0.0681    0.1098    0.0577
          29   -0.0572    0.1319    0.0595    0.0038    0.0385   -0.0580   -0.1914   -0.0568
          30    0.0325   -0.0261   -0.0372   -0.0080   -0.0224    0.0004    0.0294   -0.0004
          31   -0.0752   -0.0127    0.0704    0.0289    0.0374    0.0225    0.0114    0.0640
          32    0.1407   -0.0456   -0.1278   -0.0325   -0.0698    0.0326    0.0184   -0.0685
          33    0.0319   -0.0227   -0.0309   -0.0048   -0.0176    0.0129    0.0068   -0.0076
          34    0.0983    0.0034   -0.0053   -0.0893    0.1532   -0.0857   -0.0261    0.1206
          35   -0.0788    0.0504   -0.0201   -0.0321   -0.1326    0.0321    0.0178   -0.0281
          36    0.1554    0.0381   -0.0155   -0.1106    0.1039   -0.0397   -0.0186    0.1027
          37    0.0456   -0.0122    0.1229    0.1215   -0.1317   -0.0047    0.0027   -0.0143
          38    0.0506   -0.0817    0.0069    0.1772   -0.0106   -0.0395    0.0013   -0.0042
          39   -0.0937   -0.0411   -0.1501   -0.0504    0.1525    0.0027   -0.0023    0.0035


   Root No.      17        18        19        20        21        22        23        24

                17 A      18 A      19 A      20 A      21 A      22 A      23 A      24 A   

                1186.1    1207.8    1294.6    1343.1    1398.2    1404.8    1408.3    1441.4
  
           1   -0.0207    0.0110   -0.0391    0.0342    0.0045    0.0020   -0.0028    0.0563
           2    0.0252    0.0031    0.0030   -0.0446   -0.0102    0.0043   -0.0025   -0.0762
           3    0.0654   -0.0118    0.0255    0.0417    0.0026    0.0017   -0.0002    0.0327
           4   -0.0129    0.0366   -0.0053   -0.0123    0.0071   -0.0283    0.0208   -0.0229
           5   -0.0430   -0.0113    0.0255    0.0104    0.0053   -0.0161    0.0108    0.0020
           6    0.0290    0.0279   -0.0606   -0.0112   -0.0083    0.0304   -0.0208    0.0139
           7    0.0106   -0.0037    0.0074    0.0090   -0.0282   -0.0098   -0.0181   -0.0401
           8   -0.0057   -0.0020    0.0038   -0.0219   -0.0017   -0.0217    0.0014    0.0780
           9   -0.0112    0.0032   -0.0040   -0.0066   -0.0273    0.0096    0.0213   -0.0034
          10   -0.0049   -0.0231   -0.0040   -0.0098   -0.0009   -0.0007    0.0005   -0.0128
          11    0.0162    0.0114    0.0138    0.0206    0.0010    0.0019   -0.0008    0.0174
          12   -0.0612   -0.0249   -0.0297   -0.0329   -0.0007   -0.0049    0.0027   -0.0223
          13    0.0094   -0.0167   -0.0109   -0.0034   -0.0017    0.0062   -0.0046    0.0037
          14    0.0252   -0.0131   -0.0345   -0.0024   -0.0016    0.0064   -0.0045    0.0046
          15   -0.0328    0.0261    0.0705    0.0015    0.0025   -0.0123    0.0085   -0.0151
          16    0.2687   -0.0691    0.0919   -0.0343   -0.0079   -0.0087    0.0020   -0.0702
          17   -0.1100   -0.0179   -0.0120    0.0799    0.0098   -0.0023   -0.0014    0.0799
          18    0.0106    0.0516   -0.0398   -0.0224   -0.0079    0.0131   -0.0036   -0.0249
          19   -0.1466   -0.1097    0.1320    0.0041   -0.0288    0.1235   -0.0908    0.0646
          20    0.0186    0.0609   -0.0381   -0.0020    0.0177   -0.0721    0.0528   -0.0350
          21    0.0380   -0.1395   -0.0160    0.0686    0.0479   -0.1593    0.1119   -0.0278
          22   -0.0065   -0.1219    0.1564   -0.0228   -0.0387    0.1262   -0.0890    0.0137
          23   -0.0164    0.0783    0.0375   -0.0588   -0.0506    0.1720   -0.1206    0.0371
          24    0.0169   -0.1338    0.0241    0.0378    0.0105   -0.0342    0.0236    0.0032
          25    0.0259   -0.0063    0.0187   -0.0202    0.0544   -0.0117   -0.0276   -0.0116
          26   -0.0736    0.0205   -0.0841    0.1797   -0.0651   -0.0350   -0.1303   -0.1416
          27    0.0298   -0.0003    0.0089   -0.0178    0.3084   -0.0525   -0.1645   -0.0120
          28    0.0422   -0.0007    0.0189   -0.0932   -0.0715    0.0892    0.2117    0.1273
          29   -0.0734    0.0017   -0.0303    0.0976    0.0953    0.1035    0.0508   -0.1324
          30    0.0308   -0.0013    0.0155   -0.0373   -0.0552   -0.1463   -0.1592    0.0608
          31   -0.0028    0.0077    0.0078   -0.1119    0.3163    0.0620    0.0338    0.0466
          32    0.0223   -0.0131   -0.0145    0.1617    0.0797    0.1352    0.0943   -0.1033
          33    0.0068   -0.0012   -0.0092    0.0593    0.0700    0.0837    0.0586   -0.0695
          34    0.0600    0.1107    0.0734    0.0522    0.0026    0.0010   -0.0002    0.0267
          35    0.0135   -0.0482   -0.0209   -0.0153   -0.0023    0.0024   -0.0022   -0.0110
          36    0.0072    0.0991    0.0440    0.0184    0.0021   -0.0044    0.0024    0.0068
          37   -0.0212    0.1406    0.1198    0.0151    0.0041   -0.0159    0.0114   -0.0104
          38    0.0067    0.0588    0.0238    0.0080    0.0011   -0.0032    0.0028   -0.0008
          39   -0.0102   -0.1191   -0.0486   -0.0179   -0.0031    0.0078   -0.0060   -0.0054


   Root No.      25        26        27        28        29        30        31        32

                25 A      26 A      27 A      28 A      29 A      30 A      31 A      32 A   

                1775.0    2963.5    3049.1    3080.6    3083.9    3104.8    3179.1    3195.5
  
           1   -0.0048   -0.0262   -0.0012   -0.0010   -0.0003   -0.0010   -0.0003    0.0005
           2    0.0152   -0.0377   -0.0018   -0.0013   -0.0002   -0.0001    0.0003   -0.0001
           3   -0.0180   -0.0458   -0.0019   -0.0017   -0.0000    0.0004   -0.0002    0.0006
           4    0.0013   -0.0008   -0.0017   -0.0004    0.0001   -0.0302   -0.0001    0.0008
           5    0.0092    0.0040   -0.0525   -0.0006   -0.0009   -0.0098   -0.0002    0.0003
           6   -0.0183    0.0015   -0.0248    0.0002   -0.0003    0.0271    0.0000   -0.0007
           7    0.0018    0.0021    0.0007   -0.0258   -0.0405    0.0006   -0.0112    0.0000
           8   -0.0058    0.0007    0.0005   -0.0132   -0.0197    0.0001    0.0219   -0.0000
           9    0.0029    0.0026    0.0001   -0.0409    0.0320    0.0007   -0.0004    0.0000
          10   -0.2060   -0.0008   -0.0000    0.0001   -0.0002   -0.0000    0.0000   -0.0264
          11    0.0008    0.0001   -0.0003   -0.0002    0.0002   -0.0001   -0.0001   -0.0112
          12    0.0032   -0.0007   -0.0002    0.0001   -0.0001    0.0002    0.0001    0.0233
          13    0.2066    0.0007   -0.0000    0.0000    0.0000   -0.0006   -0.0001   -0.0284
          14   -0.0022   -0.0005   -0.0003   -0.0000    0.0000   -0.0002    0.0000    0.0127
          15   -0.0006    0.0002   -0.0001    0.0000   -0.0000    0.0006   -0.0001   -0.0240
          16   -0.0178    0.3209    0.0179    0.0086    0.0002   -0.0013    0.0006   -0.0014
          17   -0.0262    0.4628    0.0191    0.0185    0.0017   -0.0010    0.0022   -0.0017
          18    0.0146    0.5560    0.0231    0.0178    0.0029   -0.0006    0.0017   -0.0019
          19    0.0138   -0.0109    0.2067    0.0048    0.0036    0.1714    0.0008   -0.0033
          20    0.0072   -0.0304    0.4214    0.0086    0.0063    0.3942    0.0029   -0.0065
          21    0.0364   -0.0000   -0.0014   -0.0001    0.0001    0.0218    0.0002   -0.0004
          22    0.0160    0.0089   -0.1852    0.0013   -0.0020    0.1971    0.0002   -0.0033
          23   -0.0338   -0.0161    0.2140   -0.0023    0.0026   -0.2776   -0.0005    0.0042
          24    0.0168   -0.0231    0.3015   -0.0026    0.0037   -0.3460   -0.0004    0.0051
          25   -0.0002   -0.0158   -0.0107    0.1731    0.4494   -0.0056    0.3169   -0.0011
          26    0.0026   -0.0048   -0.0007    0.0119    0.0377   -0.0006    0.0422   -0.0002
          27   -0.0011    0.0039    0.0021   -0.0566   -0.0735    0.0015   -0.0615    0.0003
          28   -0.0029   -0.0138   -0.0028    0.1821    0.0035   -0.0030   -0.1361    0.0003
          29    0.0050   -0.0142   -0.0028    0.2736    0.0247   -0.0040   -0.1788    0.0004
          30   -0.0030   -0.0211   -0.0040    0.3150    0.0577   -0.0045   -0.2258    0.0005
          31    0.0038    0.0044    0.0002   -0.0476    0.0318    0.0008   -0.0447    0.0001
          32   -0.0083    0.0053   -0.0005   -0.1271    0.1733    0.0028   -0.1297    0.0004
          33    0.0020   -0.0167    0.0012    0.2304   -0.3671   -0.0051    0.2911   -0.0008
          34   -0.1098   -0.0005    0.0004    0.0001   -0.0002    0.0127    0.0003    0.3135
          35   -0.0746   -0.0010   -0.0002   -0.0000    0.0001    0.0055    0.0003    0.1334
          36    0.1508    0.0001   -0.0006   -0.0002   -0.0001   -0.0112   -0.0004   -0.2770
          37    0.1103    0.0051    0.0004    0.0004    0.0002   -0.0011    0.0010    0.3324
          38   -0.0760   -0.0028   -0.0010   -0.0001   -0.0001    0.0005   -0.0004   -0.1498
          39    0.1501    0.0042   -0.0001    0.0003    0.0001   -0.0008    0.0009    0.2843


   Root No.      33

                33 A   

                3215.8
  
           1   -0.0014
           2    0.0005
           3   -0.0014
           4    0.0018
           5    0.0009
           6   -0.0019
           7   -0.0000
           8   -0.0000
           9    0.0000
          10   -0.0356
          11   -0.0122
          12    0.0254
          13    0.0344
          14   -0.0125
          15    0.0235
          16    0.0007
          17    0.0016
          18    0.0019
          19   -0.0027
          20   -0.0071
          21   -0.0003
          22   -0.0031
          23    0.0048
          24    0.0062
          25    0.0007
          26   -0.0001
          27   -0.0000
          28   -0.0002
          29   -0.0000
          30   -0.0002
          31   -0.0000
          32   -0.0003
          33    0.0003
          34    0.3249
          35    0.1379
          36   -0.2868
          37   -0.3103
          38    0.1398
          39   -0.2650


           MASS-WEIGHTED COORDINATE ANALYSIS (NORMAL COORDINATES)


   Root No.       1         2         3         4         5         6         7         8

                 1 A       2 A       3 A       4 A       5 A       6 A       7 A       8 A   

                 171.3     248.4     342.0     493.6     765.5     818.1     884.9     903.4
  
           1    0.0686   -0.0325    0.2454   -0.0296   -0.1263    0.3112   -0.2545   -0.0398
           2    0.0429   -0.1901    0.1640   -0.3138   -0.0104    0.1318   -0.0966   -0.0108
           3   -0.0541   -0.2315   -0.1861   -0.2092   -0.1014    0.2975    0.2040   -0.0138
           4    0.0721   -0.0347    0.2756   -0.0633   -0.0112    0.0072    0.5496   -0.0295
           5    0.0407   -0.1317   -0.2708    0.2147   -0.1767    0.1458    0.0129    0.2528
           6    0.0863   -0.1435   -0.0564   -0.0003    0.0694   -0.2217   -0.0491    0.1652
           7   -0.0278    0.2271   -0.3378    0.2434   -0.1276    0.2031   -0.1946   -0.0514
           8   -0.0032   -0.0488   -0.1176   -0.2570    0.1880   -0.1756   -0.0619   -0.0448
           9   -0.0012    0.3304    0.2151    0.1359   -0.0311    0.0924    0.1383    0.0194
          10   -0.0521   -0.1029   -0.0415   -0.1046    0.1378   -0.2544   -0.1043    0.0077
          11   -0.0315   -0.1232    0.3804    0.3391   -0.1907   -0.1737    0.0550   -0.2885
          12   -0.0819   -0.1961   -0.0783    0.0917   -0.1362    0.1116   -0.1099   -0.1246
          13   -0.0525   -0.0974   -0.0504   -0.1105    0.1369   -0.2472   -0.1120    0.0215
          14   -0.0462    0.4873   -0.0816   -0.0888   -0.2066   -0.0126    0.0998    0.0539
          15    0.0353    0.1682    0.0278   -0.1510    0.0205   -0.2226   -0.2331    0.0161
          16    0.0382   -0.0390    0.0975    0.0169   -0.0615    0.1156   -0.0951    0.1513
          17    0.0178    0.0144    0.0490   -0.1366    0.0759    0.0641   -0.1044    0.0812
          18   -0.0310   -0.1020   -0.0717   -0.0286   -0.0774    0.0402    0.1407   -0.1691
          19    0.0257   -0.0060    0.1755   -0.1901   -0.0714    0.1301    0.2165    0.1232
          20    0.0092   -0.0392   -0.1262    0.1487   -0.0167   -0.0172   -0.0270    0.0034
          21    0.0575   -0.2054   -0.0463    0.2010    0.2601   -0.0444    0.0573   -0.3406
          22    0.0412   -0.0036    0.0377    0.1566    0.0749   -0.1495    0.1975   -0.1435
          23    0.0255   -0.1753   -0.1640    0.2809    0.1433    0.0707   -0.0003   -0.2817
          24    0.0268    0.0627    0.0207   -0.0505   -0.0685   -0.1818    0.0154    0.2159
          25    0.0954    0.0749   -0.0853    0.0785   -0.0423    0.0574   -0.0970   -0.0276
          26    0.0099    0.0309   -0.2508   -0.0084    0.1084   -0.2531    0.3638    0.1419
          27    0.5565    0.1600    0.0596    0.0988   -0.0120   -0.0555   -0.0497   -0.0185
          28    0.3520    0.1567   -0.2123    0.1699   -0.0194   -0.1269    0.0926    0.0674
          29    0.1819   -0.1214   -0.0591   -0.1912    0.0485    0.1537   -0.0043   -0.0267
          30   -0.3626    0.1397    0.1475    0.0905   -0.0135   -0.0540   -0.0548   -0.0281
          31   -0.5132    0.0342   -0.1931    0.0648   -0.0288    0.0475    0.1949    0.0801
          32   -0.2093    0.0816    0.1082    0.0141    0.0647   -0.2165   -0.2331   -0.0771
          33   -0.1676    0.1414    0.1256    0.0863   -0.0047   -0.0599   -0.0425   -0.0183
          34   -0.0349   -0.0429   -0.0661   -0.0388    0.0700   -0.1092    0.0484    0.0371
          35   -0.0159   -0.1002    0.2619    0.3513    0.4087    0.1490   -0.0451    0.5135
          36   -0.0493   -0.1027   -0.0106    0.1385    0.2175    0.0895    0.0309    0.2906
          37   -0.0335   -0.0350   -0.0691   -0.0348    0.0454   -0.0340   -0.1584    0.0276
          38   -0.0285    0.3315   -0.0760   -0.0934    0.5359    0.3401    0.0190   -0.2256
          39    0.0236    0.1569    0.0440   -0.0772    0.3156    0.0682    0.0743   -0.1469


   Root No.       9        10        11        12        13        14        15        16

                 9 A      10 A      11 A      12 A      13 A      14 A      15 A      16 A   

                 937.1     949.2    1008.5    1024.6    1037.4    1045.0    1153.7    1164.8
  
           1    0.0067    0.0310   -0.0146    0.0572   -0.0037    0.2922   -0.0582    0.3896
           2   -0.0062   -0.0620    0.0111    0.0109   -0.0051    0.0216    0.2646    0.3415
           3   -0.0968    0.0413   -0.1223   -0.0016   -0.1113    0.0801    0.2378   -0.1426
           4    0.1588    0.0880   -0.1378   -0.0542   -0.0679    0.0181    0.0809   -0.3350
           5   -0.0542   -0.1945   -0.2271    0.0831    0.0425   -0.1197   -0.0663   -0.0203
           6    0.0245   -0.1335    0.0980    0.1225   -0.0264   -0.3105   -0.0088   -0.0937
           7   -0.0209    0.0783   -0.0390   -0.0674   -0.0040   -0.2701    0.0074   -0.1045
           8    0.1391    0.1737   -0.0901   -0.0076   -0.0430    0.0665   -0.3187   -0.1504
           9   -0.1890    0.1289    0.1892    0.0585    0.1027   -0.0422   -0.2004    0.0540
          10   -0.1605   -0.0431   -0.0140   -0.0249    0.0395   -0.0432   -0.0012    0.0052
          11   -0.1896   -0.1532    0.0787    0.1765    0.2028   -0.1709   -0.0054   -0.0389
          12    0.3785   -0.0375    0.0320    0.1048    0.1010    0.2039    0.0065   -0.1413
          13   -0.1855   -0.0410    0.0217    0.0056   -0.0107   -0.0313    0.0196   -0.0829
          14    0.1241    0.1631    0.2021   -0.3272   -0.1755    0.0369    0.0255    0.0178
          15   -0.2586    0.0268   -0.0047   -0.1936   -0.0449    0.2008   -0.0114    0.0462
          16    0.1468   -0.1593    0.1618    0.0869    0.2361    0.3562   -0.3546   -0.1739
          17   -0.0084    0.0909    0.2488   -0.0387    0.2250   -0.0402    0.5887   -0.1693
          18   -0.0971    0.0218   -0.3389   -0.0032   -0.3586   -0.0900   -0.1600    0.3450
          19    0.1226   -0.4162    0.1157   -0.1758   -0.1579   -0.2269   -0.1339   -0.0101
          20   -0.0508    0.1626   -0.1407    0.1005    0.0791    0.0845    0.0608   -0.0467
          21    0.0918   -0.0796    0.3835   -0.2714   -0.1973   -0.1083   -0.0293    0.1933
          22    0.2034    0.4779   -0.0317    0.2389   -0.0200    0.0844    0.1194    0.1595
          23   -0.0568    0.0414    0.0554   -0.2343   -0.0170    0.1997    0.0294   -0.1024
          24    0.1279    0.1694   -0.0532    0.3740    0.0103   -0.2186    0.0260    0.2021
          25    0.0223    0.0147   -0.0444   -0.0318   -0.0169   -0.0957    0.0218   -0.0402
          26   -0.0581   -0.1846    0.1235    0.1259    0.0528    0.4077   -0.0498    0.1511
          27    0.0717   -0.0684   -0.0809   -0.0112   -0.0415    0.0180    0.0533   -0.0007
          28    0.0401   -0.2527   -0.0289    0.0293   -0.0198    0.1649    0.2019    0.1279
          29   -0.1331    0.3385    0.1463    0.0088    0.0915   -0.1405   -0.3520   -0.1257
          30    0.0756   -0.0670   -0.0914   -0.0185   -0.0533    0.0010    0.0540   -0.0009
          31   -0.1750   -0.0326    0.1729    0.0667    0.0888    0.0545    0.0210    0.1418
          32    0.3273   -0.1170   -0.3140   -0.0751   -0.1659    0.0789    0.0339   -0.1517
          33    0.0743   -0.0581   -0.0759   -0.0111   -0.0419    0.0311    0.0125   -0.0168
          34    0.2287    0.0088   -0.0131   -0.2060    0.3641   -0.2074   -0.0481    0.2672
          35   -0.1833    0.1293   -0.0494   -0.0741   -0.3151    0.0777    0.0327   -0.0623
          36    0.3615    0.0978   -0.0381   -0.2552    0.2469   -0.0960   -0.0342    0.2276
          37    0.1062   -0.0313    0.3019    0.2804   -0.3131   -0.0115    0.0050   -0.0317
          38    0.1178   -0.2098    0.0170    0.4088   -0.0252   -0.0957    0.0024   -0.0093
          39   -0.2180   -0.1055   -0.3689   -0.1163    0.3624    0.0065   -0.0042    0.0078


   Root No.      17        18        19        20        21        22        23        24

                17 A      18 A      19 A      20 A      21 A      22 A      23 A      24 A   

                1186.1    1207.8    1294.6    1343.1    1398.2    1404.8    1408.3    1441.4
  
           1   -0.1305    0.0841   -0.2663    0.2601    0.0303    0.0155   -0.0219    0.3382
           2    0.1592    0.0237    0.0201   -0.3386   -0.0693    0.0328   -0.0191   -0.4572
           3    0.4130   -0.0901    0.1738    0.3172    0.0176    0.0132   -0.0013    0.1963
           4   -0.0816    0.2800   -0.0359   -0.0937    0.0479   -0.2179    0.1601   -0.1373
           5   -0.2718   -0.0863    0.1740    0.0793    0.0361   -0.1236    0.0832    0.0118
           6    0.1830    0.2133   -0.4129   -0.0850   -0.0559    0.2341   -0.1606    0.0832
           7    0.0671   -0.0285    0.0503    0.0685   -0.1908   -0.0757   -0.1397   -0.2405
           8   -0.0360   -0.0152    0.0261   -0.1663   -0.0116   -0.1671    0.0109    0.4680
           9   -0.0710    0.0248   -0.0271   -0.0499   -0.1848    0.0738    0.1645   -0.0207
          10   -0.0310   -0.1766   -0.0275   -0.0748   -0.0063   -0.0056    0.0037   -0.0766
          11    0.1021    0.0876    0.0937    0.1564    0.0071    0.0145   -0.0059    0.1045
          12   -0.3864   -0.1907   -0.2020   -0.2499   -0.0050   -0.0375    0.0206   -0.1339
          13    0.0595   -0.1277   -0.0743   -0.0255   -0.0118    0.0477   -0.0354    0.0222
          14    0.1591   -0.1003   -0.2347   -0.0184   -0.0108    0.0494   -0.0343    0.0276
          15   -0.2074    0.1997    0.4803    0.0112    0.0166   -0.0949    0.0654   -0.0903
          16    0.4916   -0.1531    0.1814   -0.0756   -0.0155   -0.0193    0.0044   -0.1221
          17   -0.2013   -0.0397   -0.0236    0.1759    0.0192   -0.0052   -0.0030    0.1390
          18    0.0194    0.1144   -0.0784   -0.0493   -0.0154    0.0292   -0.0081   -0.0433
          19   -0.2682   -0.2433    0.2604    0.0090   -0.0564    0.2752   -0.2027    0.1124
          20    0.0340    0.1350   -0.0751   -0.0044    0.0347   -0.1606    0.1180   -0.0608
          21    0.0695   -0.3094   -0.0316    0.1509    0.0937   -0.3551    0.2500   -0.0484
          22   -0.0119   -0.2703    0.3086   -0.0502   -0.0758    0.2813   -0.1988    0.0239
          23   -0.0301    0.1737    0.0739   -0.1295   -0.0992    0.3833   -0.2694    0.0645
          24    0.0310   -0.2967    0.0475    0.0832    0.0206   -0.0763    0.0528    0.0055
          25    0.0474   -0.0139    0.0370   -0.0446    0.1065   -0.0261   -0.0617   -0.0202
          26   -0.1346    0.0455   -0.1660    0.3955   -0.1276   -0.0780   -0.2910   -0.2462
          27    0.0545   -0.0007    0.0175   -0.0392    0.6041   -0.1169   -0.3673   -0.0208
          28    0.0772   -0.0016    0.0372   -0.2051   -0.1401    0.1987    0.4729    0.2214
          29   -0.1343    0.0037   -0.0598    0.2148    0.1866    0.2306    0.1134   -0.2302
          30    0.0564   -0.0029    0.0307   -0.0822   -0.1082   -0.3261   -0.3555    0.1058
          31   -0.0052    0.0171    0.0154   -0.2462    0.6196    0.1381    0.0756    0.0810
          32    0.0408   -0.0291   -0.0285    0.3560    0.1562    0.3013    0.2107   -0.1796
          33    0.0124   -0.0026   -0.0182    0.1304    0.1370    0.1864    0.1309   -0.1209
          34    0.1098    0.2454    0.1448    0.1149    0.0051    0.0023   -0.0005    0.0465
          35    0.0248   -0.1070   -0.0412   -0.0336   -0.0046    0.0054   -0.0049   -0.0192
          36    0.0132    0.2198    0.0868    0.0405    0.0042   -0.0099    0.0053    0.0118
          37   -0.0389    0.3117    0.2363    0.0331    0.0080   -0.0355    0.0254   -0.0181
          38    0.0123    0.1304    0.0470    0.0177    0.0022   -0.0070    0.0062   -0.0014
          39   -0.0187   -0.2640   -0.0959   -0.0395   -0.0062    0.0175   -0.0134   -0.0093


   Root No.      25        26        27        28        29        30        31        32

                25 A      26 A      27 A      28 A      29 A      30 A      31 A      32 A   

                1775.0    2963.5    3049.1    3080.6    3083.9    3104.8    3179.1    3195.5
  
           1   -0.0158   -0.1097   -0.0062   -0.0058   -0.0014   -0.0050   -0.0018    0.0026
           2    0.0496   -0.1580   -0.0095   -0.0076   -0.0011   -0.0004    0.0017   -0.0006
           3   -0.0590   -0.1917   -0.0102   -0.0098   -0.0001    0.0022   -0.0011    0.0030
           4    0.0042   -0.0035   -0.0089   -0.0021    0.0006   -0.1567   -0.0003    0.0040
           5    0.0300    0.0166   -0.2755   -0.0038   -0.0051   -0.0508   -0.0013    0.0018
           6   -0.0598    0.0063   -0.1300    0.0011   -0.0014    0.1407    0.0002   -0.0036
           7    0.0058    0.0090    0.0036   -0.1522   -0.2172    0.0033   -0.0688    0.0001
           8   -0.0191    0.0029    0.0024   -0.0778   -0.1055    0.0007    0.1341   -0.0001
           9    0.0096    0.0108    0.0003   -0.2412    0.1714    0.0036   -0.0022    0.0001
          10   -0.6741   -0.0033   -0.0002    0.0004   -0.0008   -0.0001    0.0000   -0.1372
          11    0.0027    0.0004   -0.0017   -0.0012    0.0009   -0.0004   -0.0003   -0.0582
          12    0.0104   -0.0028   -0.0011    0.0004   -0.0006    0.0010    0.0005    0.1210
          13    0.6763    0.0028   -0.0001    0.0000    0.0000   -0.0032   -0.0006   -0.1474
          14   -0.0070   -0.0019   -0.0016   -0.0002    0.0000   -0.0013    0.0003    0.0658
          15   -0.0019    0.0007   -0.0007    0.0001   -0.0001    0.0029   -0.0003   -0.1249
          16   -0.0169    0.3890    0.0272    0.0148    0.0003   -0.0020    0.0011   -0.0021
          17   -0.0249    0.5611    0.0290    0.0316    0.0026   -0.0015    0.0039   -0.0025
          18    0.0139    0.6742    0.0351    0.0305    0.0045   -0.0009    0.0029   -0.0029
          19    0.0130   -0.0132    0.3141    0.0082    0.0056    0.2578    0.0015   -0.0049
          20    0.0068   -0.0368    0.6403    0.0147    0.0099    0.5928    0.0051   -0.0098
          21    0.0345   -0.0000   -0.0021   -0.0001    0.0001    0.0327    0.0003   -0.0006
          22    0.0152    0.0108   -0.2815    0.0022   -0.0032    0.2964    0.0004   -0.0050
          23   -0.0320   -0.0195    0.3252   -0.0038    0.0040   -0.4176   -0.0008    0.0063
          24    0.0159   -0.0280    0.4582   -0.0044    0.0057   -0.5204   -0.0008    0.0076
          25   -0.0002   -0.0191   -0.0162    0.2956    0.6976   -0.0084    0.5617   -0.0017
          26    0.0024   -0.0058   -0.0010    0.0204    0.0584   -0.0010    0.0747   -0.0003
          27   -0.0010    0.0047    0.0033   -0.0966   -0.1141    0.0023   -0.1090    0.0004
          28   -0.0027   -0.0167   -0.0042    0.3109    0.0055   -0.0045   -0.2413    0.0005
          29    0.0047   -0.0172   -0.0043    0.4672    0.0383   -0.0060   -0.3169    0.0006
          30   -0.0028   -0.0256   -0.0060    0.5380    0.0896   -0.0067   -0.4002    0.0008
          31    0.0036    0.0053    0.0003   -0.0813    0.0493    0.0012   -0.0792    0.0002
          32   -0.0079    0.0064   -0.0008   -0.2171    0.2690    0.0041   -0.2299    0.0005
          33    0.0019   -0.0203    0.0018    0.3934   -0.5698   -0.0076    0.5160   -0.0012
          34   -0.1041   -0.0006    0.0007    0.0001   -0.0002    0.0191    0.0005    0.4719
          35   -0.0707   -0.0012   -0.0003   -0.0000    0.0002    0.0082    0.0005    0.2008
          36    0.1430    0.0002   -0.0009   -0.0003   -0.0002   -0.0169   -0.0006   -0.4169
          37    0.1046    0.0062    0.0007    0.0006    0.0004   -0.0016    0.0018    0.5004
          38   -0.0720   -0.0034   -0.0015   -0.0002   -0.0002    0.0007   -0.0008   -0.2256
          39    0.1423    0.0051   -0.0001    0.0006    0.0002   -0.0012    0.0016    0.4279


   Root No.      33

                33 A   

                3215.8
  
           1   -0.0071
           2    0.0028
           3   -0.0074
           4    0.0094
           5    0.0046
           6   -0.0098
           7   -0.0002
           8   -0.0001
           9    0.0000
          10   -0.1853
          11   -0.0632
          12    0.1322
          13    0.1788
          14   -0.0649
          15    0.1224
          16    0.0010
          17    0.0024
          18    0.0029
          19   -0.0041
          20   -0.0108
          21   -0.0004
          22   -0.0047
          23    0.0072
          24    0.0094
          25    0.0010
          26   -0.0001
          27   -0.0000
          28   -0.0003
          29   -0.0001
          30   -0.0002
          31   -0.0001
          32   -0.0004
          33    0.0005
          34    0.4897
          35    0.2079
          36   -0.4321
          37   -0.4677
          38    0.2106
          39   -0.3994


          DESCRIPTION OF VIBRATIONS


 VIBRATION    1    1A         ATOM PAIR      ENERGY CONTRIBUTION    RADIAL
 FREQ.       171.31         C  3 -- H 11         +30.3% (352.0%)      0.0%
 T-DIPOLE    0.0121         C  3 -- H  9         +29.7% (349.0%)      0.1%
 TRAVEL      0.2609         C  3 -- H 10         +27.6% (336.0%)      0.0%
 RED. MASS   0.3050         C  2 -- C  4          +1.7% ( 84.6%)      0.0%
 EFF. MASS   5.7834

 VIBRATION    2    2A         ATOM PAIR      ENERGY CONTRIBUTION    RADIAL
 FREQ.       248.43         C  1 -- C  3         +15.3% (223.0%)      0.1%
 T-DIPOLE    0.0365         C  1 -- C  5         +10.3% (182.7%)      0.0%
 TRAVEL      0.0744         C  2 -- C  5          +9.2% (172.6%)      0.0%
 RED. MASS   1.4239         C  3 -- H  9          +8.7% (168.6%)     21.3%
 EFF. MASS  49.0441

 VIBRATION    3    3A         ATOM PAIR      ENERGY CONTRIBUTION    RADIAL
 FREQ.       342.00         C  1 -- C  3         +14.8% (172.8%)      0.0%
 T-DIPOLE    0.0531         C  2 -- C  4          +9.9% (141.0%)      0.0%
 TRAVEL      0.0797         C  1 -- C  2          +9.4% (137.8%)      0.4%
 RED. MASS   1.1264         C  3 -- H 10          +9.1% (135.4%)      6.0%
 EFF. MASS  31.0766

 VIBRATION    4    4A         ATOM PAIR      ENERGY CONTRIBUTION    RADIAL
 FREQ.       493.56         C  1 -- C  4         +11.7% (105.6%)      0.1%
 T-DIPOLE    0.1293         C  1 -- C  2         +10.9% (101.9%)      0.3%
 TRAVEL      0.0938         C  1 -- C  3         +10.7% (100.9%)      2.3%
 RED. MASS   0.8116         C  1 -- C  5          +9.9% ( 96.9%)     14.0%
 EFF. MASS  15.5441

 VIBRATION    5    5A         ATOM PAIR      ENERGY CONTRIBUTION    RADIAL
 FREQ.       765.46         C  5 -- H 13         +20.6% ( 77.2%)      2.4%
 T-DIPOLE    0.6225         C  4 -- H 12         +14.4% ( 64.5%)      1.6%
 TRAVEL      0.1408         C  1 -- C  5          +7.9% ( 47.7%)     86.1%
 RED. MASS   0.3765         C  2 -- C  4          +7.2% ( 45.5%)     83.0%
 EFF. MASS   4.4414

 VIBRATION    6    6A         ATOM PAIR      ENERGY CONTRIBUTION    RADIAL
 FREQ.       818.07         C  1 -- C  5         +14.5% ( 91.3%)     75.5%
 T-DIPOLE    0.3542         C  1 -- C  4         +12.2% ( 83.8%)      1.3%
 TRAVEL      0.0889         C  1 -- C  2          +9.2% ( 72.9%)     25.5%
 RED. MASS   0.9479         C  1 -- C  3          +8.9% ( 71.6%)     35.8%
 EFF. MASS  10.4309

 VIBRATION    7    7A         ATOM PAIR      ENERGY CONTRIBUTION    RADIAL
 FREQ.       884.94         C  1 -- C  2         +15.8% ( 81.8%)     89.5%
 T-DIPOLE    0.0350         C  2 -- C  5         +13.8% ( 76.4%)      5.1%
 TRAVEL      0.0906         C  2 -- C  4         +10.8% ( 67.6%)     36.8%
 RED. MASS   1.4354         C  2 -- H  7          +8.8% ( 60.9%)     25.2%
 EFF. MASS   9.2924

 VIBRATION    8    8A         ATOM PAIR      ENERGY CONTRIBUTION    RADIAL
 FREQ.       903.43         C  4 -- H 12         +22.9% ( 65.0%)      0.0%
 T-DIPOLE    0.1964         C  2 -- H  7         +18.2% ( 57.8%)      8.1%
 TRAVEL      0.1569         C  2 -- H  8         +17.6% ( 56.9%)     13.7%
 RED. MASS   0.3911         C  2 -- C  4          +8.8% ( 40.2%)      0.4%
 EFF. MASS   3.0337

 VIBRATION    9    9A         ATOM PAIR      ENERGY CONTRIBUTION    RADIAL
 FREQ.       937.10         C  4 -- C  5         +17.0% ( 76.2%)      0.1%
 T-DIPOLE    0.0749         C  1 -- C  4         +13.0% ( 66.7%)     84.4%
 TRAVEL      0.0963         C  2 -- C  4         +13.0% ( 66.6%)     99.1%
 RED. MASS   0.7957         C  4 -- H 12         +12.6% ( 65.7%)     55.7%
 EFF. MASS   7.7524

 VIBRATION   10   10A         ATOM PAIR      ENERGY CONTRIBUTION    RADIAL
 FREQ.       949.16         C  2 -- H  8         +19.1% ( 60.8%)     10.7%
 T-DIPOLE    0.0747         C  2 -- H  7         +19.0% ( 60.8%)      3.1%
 TRAVEL      0.1484         C  3 -- H 10         +13.8% ( 51.7%)     15.8%
 RED. MASS   0.2520         C  3 -- H  9          +7.5% ( 38.1%)      1.6%
 EFF. MASS   3.2254

 VIBRATION   11   11A         ATOM PAIR      ENERGY CONTRIBUTION    RADIAL
 FREQ.      1008.51         C  5 -- H 13         +13.8% ( 48.7%)      0.6%
 T-DIPOLE    0.1955         C  2 -- H  7         +13.3% ( 47.7%)     23.5%
 TRAVEL      0.1409         C  1 -- H  6         +11.6% ( 44.6%)      2.6%
 RED. MASS   0.2722         C  3 -- H 11         +10.6% ( 42.7%)     15.0%
 EFF. MASS   3.3677

 VIBRATION   12   12A         ATOM PAIR      ENERGY CONTRIBUTION    RADIAL
 FREQ.      1024.61         C  5 -- H 13         +25.6% ( 57.0%)      0.0%
 T-DIPOLE    0.1071         C  2 -- H  8         +20.5% ( 50.9%)      5.3%
 TRAVEL      0.1482         C  2 -- H  7         +11.8% ( 38.6%)      1.0%
 RED. MASS   0.4395         C  4 -- H 12         +10.5% ( 36.6%)      0.2%
 EFF. MASS   2.9954

 VIBRATION   13   13A         ATOM PAIR      ENERGY CONTRIBUTION    RADIAL
 FREQ.      1037.36         C  4 -- H 12         +27.4% ( 55.3%)      0.1%
 T-DIPOLE    0.0342         C  5 -- H 13         +20.9% ( 48.3%)      0.1%
 TRAVEL      0.1751         C  1 -- H  6         +19.2% ( 46.3%)      2.0%
 RED. MASS   0.2528         C  2 -- H  7          +5.5% ( 24.7%)      0.1%
 EFF. MASS   2.1200

 VIBRATION   14   14A         ATOM PAIR      ENERGY CONTRIBUTION    RADIAL
 FREQ.      1045.03         C  2 -- C  4          +9.5% ( 48.5%)     56.7%
 T-DIPOLE    0.0282         C  1 -- C  2          +9.1% ( 47.5%)     30.3%
 TRAVEL      0.1032         C  1 -- C  3          +9.1% ( 47.5%)     24.2%
 RED. MASS   0.4808         C  3 -- H  9          +8.8% ( 46.8%)     22.7%
 EFF. MASS   6.0574

 VIBRATION   15   15A         ATOM PAIR      ENERGY CONTRIBUTION    RADIAL
 FREQ.      1153.70         C  1 -- H  6         +28.8% ( 70.3%)     12.1%
 T-DIPOLE    0.0656         C  1 -- C  3         +19.2% ( 57.4%)     57.2%
 TRAVEL      0.1139         C  3 -- H 10         +11.2% ( 43.9%)     52.2%
 RED. MASS   0.7250         C  3 -- H 11          +7.8% ( 36.5%)      0.5%
 EFF. MASS   4.5046

 VIBRATION   16   16A         ATOM PAIR      ENERGY CONTRIBUTION    RADIAL
 FREQ.      1164.79         C  1 -- H  6         +17.7% ( 62.1%)      4.2%
 T-DIPOLE    0.0958         C  1 -- C  2         +15.6% ( 58.2%)     79.8%
 TRAVEL      0.0990         C  1 -- C  3         +11.7% ( 50.4%)     10.0%
 RED. MASS   1.2602         C  1 -- C  5          +9.2% ( 44.7%)      2.9%
 EFF. MASS   5.9091

 VIBRATION   17   17A         ATOM PAIR      ENERGY CONTRIBUTION    RADIAL
 FREQ.      1186.11         C  1 -- H  6         +15.9% ( 64.5%)      8.6%
 T-DIPOLE    0.0784         C  1 -- C  4         +14.7% ( 62.1%)     71.1%
 TRAVEL      0.0856         C  2 -- C  4         +10.2% ( 51.8%)     58.8%
 RED. MASS   1.1623         C  1 -- C  2         +10.0% ( 51.1%)      1.0%
 EFF. MASS   7.7506

 VIBRATION   18   18A         ATOM PAIR      ENERGY CONTRIBUTION    RADIAL
 FREQ.      1207.78         C  2 -- H  8         +18.1% ( 52.3%)      0.0%
 T-DIPOLE    0.0494         C  2 -- H  7         +16.9% ( 50.4%)      0.1%
 TRAVEL      0.1344         C  5 -- H 13         +15.5% ( 48.4%)      0.4%
 RED. MASS   0.4480         C  4 -- H 12         +12.8% ( 43.9%)      0.1%
 EFF. MASS   3.0924

 VIBRATION   19   19A         ATOM PAIR      ENERGY CONTRIBUTION    RADIAL
 FREQ.      1294.64         C  2 -- C  5         +20.9% ( 70.8%)     99.7%
 T-DIPOLE    0.1457         C  1 -- C  5         +11.5% ( 52.6%)     87.0%
 TRAVEL      0.0802         C  4 -- C  5         +11.0% ( 51.2%)      0.5%
 RED. MASS   1.6877         C  5 -- H 13         +10.4% ( 50.0%)      9.7%
 EFF. MASS   8.1010

 VIBRATION   20   20A         ATOM PAIR      ENERGY CONTRIBUTION    RADIAL
 FREQ.      1343.08         C  1 -- C  4         +17.8% ( 59.6%)     83.3%
 T-DIPOLE    0.1172         C  1 -- H  6         +13.7% ( 52.2%)      1.5%
 TRAVEL      0.0969         C  1 -- C  2         +12.3% ( 49.6%)     27.1%
 RED. MASS   1.1647         C  1 -- C  5         +11.1% ( 47.1%)     89.5%
 EFF. MASS   5.3415

 VIBRATION   21   21A         ATOM PAIR      ENERGY CONTRIBUTION    RADIAL
 FREQ.      1398.17         C  3 -- H 11         +40.4% ( 57.1%)      1.9%
 T-DIPOLE    0.0505         C  3 -- H  9         +37.5% ( 55.0%)      2.6%
 TRAVEL      0.1652         C  3 -- H 10          +7.7% ( 24.9%)     77.9%
 RED. MASS   0.4049         C  1 -- C  3          +6.3% ( 22.5%)     23.4%
 EFF. MASS   1.7664

 VIBRATION   22   22A         ATOM PAIR      ENERGY CONTRIBUTION    RADIAL
 FREQ.      1404.76         C  2 -- H  8         +21.8% ( 50.2%)      4.5%
 T-DIPOLE    0.0390         C  2 -- H  7         +21.5% ( 49.9%)      4.8%
 TRAVEL      0.1324         C  3 -- H 10         +13.8% ( 40.0%)      1.3%
 RED. MASS   0.3544         C  3 -- H 11         +10.3% ( 34.5%)      6.5%
 EFF. MASS   2.7383

 VIBRATION   23   23A         ATOM PAIR      ENERGY CONTRIBUTION    RADIAL
 FREQ.      1408.34         C  3 -- H 10         +29.1% ( 52.2%)      0.5%
 T-DIPOLE    0.0319         C  3 -- H  9         +18.1% ( 41.1%)      6.2%
 TRAVEL      0.1516         C  2 -- H  7         +13.5% ( 35.5%)      4.6%
 RED. MASS   0.2824         C  2 -- H  8         +13.3% ( 35.3%)      4.7%
 EFF. MASS   2.0835

 VIBRATION   24   24A         ATOM PAIR      ENERGY CONTRIBUTION    RADIAL
 FREQ.      1441.43         C  1 -- C  3         +22.6% ( 76.1%)     95.0%
 T-DIPOLE    0.1174         C  1 -- C  4         +11.6% ( 54.4%)     55.7%
 TRAVEL      0.0737         C  1 -- H  6         +11.5% ( 54.3%)      0.0%
 RED. MASS   2.5420         C  1 -- C  2         +10.7% ( 52.3%)     49.3%
 EFF. MASS   8.6215         C  3 -- H 10         +10.5% ( 51.9%)      3.3%

 VIBRATION   25   25A         ATOM PAIR      ENERGY CONTRIBUTION    RADIAL
 FREQ.      1775.04         C  4 -- C  5         +36.3% (102.1%)    100.0%
 T-DIPOLE    0.0592         C  1 -- C  5         +11.2% ( 56.7%)     59.4%
 TRAVEL      0.0563         C  2 -- C  4         +11.1% ( 56.4%)     58.7%
 RED. MASS   4.9987         C  2 -- C  5         +10.9% ( 56.0%)      0.1%
 EFF. MASS  11.9867         C  1 -- C  4         +10.9% ( 56.0%)      0.2%

 VIBRATION   26   26A         ATOM PAIR      ENERGY CONTRIBUTION    RADIAL
 FREQ.      2963.47         C  1 -- H  6         +95.3% ( 99.7%)    100.0%
 T-DIPOLE    0.0961         C  1 -- C  2          +1.0% ( 10.4%)     13.9%
 TRAVEL      0.1256         C  1 -- C  3          +1.0% ( 10.4%)     10.8%
 RED. MASS   0.9196         C  1 -- C  5          +1.0% ( 10.3%)     30.8%
 EFF. MASS   1.4416

 VIBRATION   27   27A         ATOM PAIR      ENERGY CONTRIBUTION    RADIAL
 FREQ.      3049.06         C  2 -- H  7         +53.8% ( 76.3%)     97.6%
 T-DIPOLE    0.0742         C  2 -- H  8         +42.6% ( 67.9%)     96.3%
 TRAVEL      0.1199         C  2 -- C  4          +1.1% ( 10.9%)      0.1%
 RED. MASS   0.5217         C  2 -- C  5          +1.1% ( 10.9%)      0.1%
 EFF. MASS   1.5392

 VIBRATION   28   28A         ATOM PAIR      ENERGY CONTRIBUTION    RADIAL
 FREQ.      3080.58         C  3 -- H 10         +64.8% ( 83.0%)     98.8%
 T-DIPOLE    0.0258         C  3 -- H 11         +22.9% ( 49.4%)     89.2%
 TRAVEL      0.1206         C  3 -- H  9         +11.1% ( 34.4%)     76.0%
 RED. MASS   0.5131         C  1 -- C  3          +1.0% ( 10.3%)      0.0%
 EFF. MASS   1.5057

 VIBRATION   29   29A         ATOM PAIR      ENERGY CONTRIBUTION    RADIAL
 FREQ.      3083.93         C  3 -- H  9         +54.1% ( 75.9%)     97.8%
 T-DIPOLE    0.0254         C  3 -- H 11         +43.1% ( 67.7%)     96.0%
 TRAVEL      0.1205         C  3 -- H 10          +1.8% ( 13.7%)     18.0%
 RED. MASS   0.5083         C  1 -- C  3          +1.0% ( 10.4%)      0.0%
 EFF. MASS   1.5070

 VIBRATION   30   30A         ATOM PAIR      ENERGY CONTRIBUTION    RADIAL
 FREQ.      3104.80         C  2 -- H  8         +55.1% ( 73.7%)     97.7%
 T-DIPOLE    0.1204         C  2 -- H  7         +42.7% ( 64.9%)     96.0%
 TRAVEL      0.1302         C  2 -- C  4          +0.7% (  8.3%)     99.1%
 RED. MASS   0.4898         C  1 -- C  2          +0.7% (  8.3%)     51.5%
 EFF. MASS   1.2815

 VIBRATION   31   31A         ATOM PAIR      ENERGY CONTRIBUTION    RADIAL
 FREQ.      3179.06         C  3 -- H  9         +34.1% ( 56.2%)     97.2%
 T-DIPOLE    0.0335         C  3 -- H 11         +33.2% ( 55.5%)     97.1%
 TRAVEL      0.1366         C  3 -- H 10         +32.4% ( 54.8%)     97.0%
 RED. MASS   0.3271         C  1 -- C  3          +0.3% (  5.2%)    100.0%
 EFF. MASS   1.1365

 VIBRATION   32   32A         ATOM PAIR      ENERGY CONTRIBUTION    RADIAL
 FREQ.      3195.46         C  5 -- H 13         +50.4% ( 72.7%)    100.0%
 T-DIPOLE    0.4762         C  4 -- H 12         +45.4% ( 69.0%)    100.0%
 TRAVEL      0.1201         C  4 -- C  5          +1.1% ( 10.6%)      0.1%
 RED. MASS   0.4659         C  1 -- C  5          +0.8% (  9.4%)     99.9%
 EFF. MASS   1.4642

 VIBRATION   33   33A         ATOM PAIR      ENERGY CONTRIBUTION    RADIAL
 FREQ.      3215.83         C  4 -- H 12         +48.7% ( 72.2%)     99.9%
 T-DIPOLE    0.3664         C  5 -- H 13         +43.9% ( 68.5%)     99.9%
 TRAVEL      0.1099         C  4 -- C  5          +3.0% ( 17.9%)    100.0%
 RED. MASS   0.4713         C  2 -- C  4          +1.1% ( 11.1%)     98.4%
 EFF. MASS   1.7368

      SYMMETRY NUMBER FOR POINT-GROUP C1  =  1


          SYSTEM IS A GROUND STATE



 InChI=1S/C5H8/c1-5-3-2-4-5/h2-3,5H,4H2,1H3


          MOLECULE IS NOT LINEAR

          THERE ARE 33 GENUINE VIBRATIONS IN THIS SYSTEM
          THIS THERMODYNAMICS CALCULATION IS LIMITED TO
          MOLECULES WHICH HAVE NO INTERNAL ROTATIONS




                    CALCULATED THERMODYNAMIC PROPERTIES
                                          *
   TEMP. (K)   PARTITION FUNCTION   H.O.F.    ENTHALPY  HEAT CAPACITY ENTROPY
                                   KCAL/MOL   CAL/MOLE    CAL/K/MOL  CAL/K/MOL


 298.00  VIB.     0.3998D+01                  1450.9998    12.7040     7.6229
         ROT.     0.6484D+05                   888.2813     2.9808    24.9984
         INT.     0.2592D+06                  2339.2811    15.6848    32.6213
         TRA.     0.5435D+27                  1480.4688     4.9680    38.5714
         TOT.                       30.904    3819.7500    20.6529    71.1927

 200.00  VIB.     0.1939D+01                   518.5458     6.6361     3.9089
         ROT.     0.3565D+05                   596.1620     2.9808    23.8097
         INT.     0.6914D+05                  1114.7078     9.6169    27.7187
         TRA.     0.2988D+27                   993.6033     4.9680    36.5902
         TOT.                       29.193    2108.3110    14.5849    64.3089

 210.00  VIB.     0.2072D+01                   587.4955     7.1583     4.2452
         ROT.     0.3836D+05                   625.9700     2.9808    23.9552
         INT.     0.7947D+05                  1213.4655    10.1391    28.2004
         TRA.     0.3215D+27                  1043.2834     4.9680    36.8326
         TOT.                       29.341    2256.7489    15.1071    65.0330

 220.00  VIB.     0.2218D+01                   661.7995     7.7069     4.5908
         ROT.     0.4113D+05                   655.7781     2.9808    24.0938
         INT.     0.9121D+05                  1317.5777    10.6877    28.6846
         TRA.     0.3448D+27                  1092.9636     4.9680    37.0637
         TOT.                       29.495    2410.5412    15.6557    65.7484

 230.00  VIB.     0.2378D+01                   741.7181     8.2810     4.9460
         ROT.     0.4397D+05                   685.5862     2.9808    24.2263
         INT.     0.1045D+06                  1427.3044    11.2618    29.1723
         TRA.     0.3685D+27                  1142.6437     4.9680    37.2846
         TOT.                       29.655    2569.9481    16.2298    66.4569

 240.00  VIB.     0.2554D+01                   827.4989     8.8790     5.3110
         ROT.     0.4686D+05                   715.3943     2.9808    24.3532
         INT.     0.1197D+06                  1542.8933    11.8598    29.6642
         TRA.     0.3928D+27                  1192.3239     4.9680    37.4960
         TOT.                       29.820    2735.2172    16.8279    67.1602

 250.00  VIB.     0.2747D+01                   919.3720     9.4991     5.6859
         ROT.     0.4982D+05                   745.2024     2.9808    24.4749
         INT.     0.1369D+06                  1664.5744    12.4799    30.1608
         TRA.     0.4176D+27                  1242.0041     4.9680    37.6988
         TOT.                       29.991    2906.5785    17.4479    67.8596

 260.00  VIB.     0.2961D+01                  1017.5457    10.1388     6.0709
         ROT.     0.5284D+05                   775.0105     2.9808    24.5918
         INT.     0.1565D+06                  1792.5562    13.1196    30.6627
         TRA.     0.4430D+27                  1291.6842     4.9680    37.8937
         TOT.                       30.169    3084.2404    18.0876    68.5563

 270.00  VIB.     0.3197D+01                  1122.2044    10.7956     6.4658
         ROT.     0.5592D+05                   804.8186     2.9808    24.7043
         INT.     0.1788D+06                  1927.0230    13.7764    31.1701
         TRA.     0.4687D+27                  1341.3644     4.9680    38.0812
         TOT.                       30.353    3268.3874    18.7445    69.2512

 280.00  VIB.     0.3457D+01                  1233.5068    11.4671     6.8705
         ROT.     0.5905D+05                   834.6267     2.9808    24.8127
         INT.     0.2042D+06                  2068.1335    14.4479    31.6832
         TRA.     0.4950D+27                  1391.0445     4.9680    38.2618
         TOT.                       30.544    3459.1781    19.4159    69.9450

 290.00  VIB.     0.3745D+01                  1351.5855    12.1504     7.2848
         ROT.     0.6225D+05                   864.4348     2.9808    24.9173
         INT.     0.2331D+06                  2216.0203    15.1313    32.2021
         TRA.     0.5218D+27                  1440.7247     4.9680    38.4362
         TOT.                       30.741    3656.7450    20.0993    70.6382

 300.00  VIB.     0.4064D+01                  1476.5470    12.8432     7.7083
         ROT.     0.6549D+05                   894.2429     2.9808    25.0184
         INT.     0.2662D+06                  2370.7899    15.8240    32.7267
         TRA.     0.5490D+27                  1490.4049     4.9680    38.6046
         TOT.                       30.946    3861.1948    20.7920    71.3313

 310.00  VIB.     0.4418D+01                  1608.4726    13.5429     8.1409
         ROT.     0.6880D+05                   924.0510     2.9808    25.1161
         INT.     0.3039D+06                  2532.5236    16.5237    33.2570
         TRA.     0.5767D+27                  1540.0850     4.9680    38.7675
         TOT.                       31.157    4072.6087    21.4917    72.0244

 320.00  VIB.     0.4810D+01                  1747.4195    14.2471     8.5819
         ROT.     0.7215D+05                   953.8591     2.9808    25.2107
         INT.     0.3470D+06                  2701.2786    17.2279    33.7927
         TRA.     0.6048D+27                  1589.7652     4.9680    38.9252
         TOT.                       31.376    4291.0438    22.1959    72.7179

 330.00  VIB.     0.5245D+01                  1893.4223    14.9537     9.0312
         ROT.     0.7556D+05                   983.6672     2.9808    25.3025
         INT.     0.3963D+06                  2877.0895    17.9345    34.3336
         TRA.     0.6334D+27                  1639.4454     4.9680    39.0781
         TOT.                       31.601    4516.5349    22.9025    73.4117

 340.00  VIB.     0.5730D+01                  2046.4947    15.6607     9.4881
         ROT.     0.7902D+05                  1013.4753     2.9808    25.3914
         INT.     0.4528D+06                  3059.9700    18.6415    34.8795
         TRA.     0.6624D+27                  1689.1255     4.9680    39.2264
         TOT.                       31.834    4749.0955    23.6095    74.1059

 350.00  VIB.     0.6268D+01                  2206.6312    16.3662     9.9522
         ROT.     0.8253D+05                  1043.2834     2.9808    25.4778
         INT.     0.5173D+06                  3249.9146    19.3470    35.4301
         TRA.     0.6918D+27                  1738.8057     4.9680    39.3704
         TOT.                       32.073    4988.7203    24.3151    74.8005

 360.00  VIB.     0.6868D+01                  2373.8091    17.0687    10.4231
         ROT.     0.8609D+05                  1073.0915     2.9808    25.5618
         INT.     0.5913D+06                  3446.9006    20.0495    35.9850
         TRA.     0.7217D+27                  1788.4859     4.9680    39.5104
         TOT.                       32.320    5235.3864    25.0175    75.4953

 370.00  VIB.     0.7537D+01                  2547.9903    17.7667    10.9003
         ROT.     0.8971D+05                  1102.8996     2.9808    25.6435
         INT.     0.6761D+06                  3650.8899    20.7475    36.5438
         TRA.     0.7520D+27                  1838.1660     4.9680    39.6465
         TOT.                       32.574    5489.0560    25.7155    76.1903

 380.00  VIB.     0.8283D+01                  2729.1232    18.4588    11.3833
         ROT.     0.9337D+05                  1132.7077     2.9808    25.7230
         INT.     0.7734D+06                  3861.8309    21.4397    37.1063
         TRA.     0.7827D+27                  1887.8462     4.9680    39.7790
         TOT.                       32.834    5749.6771    26.4077    76.8853

 390.00  VIB.     0.9116D+01                  2917.1443    19.1441    11.8717
         ROT.     0.9708D+05                  1162.5158     2.9808    25.8004
         INT.     0.8850D+06                  4079.6601    22.1249    37.6721
         TRA.     0.8138D+27                  1937.5263     4.9680    39.9080
         TOT.                       33.102    6017.1864    27.0930    77.5801

 400.00  VIB.     0.1005D+02                  3111.9798    19.8216    12.3649
         ROT.     0.1008D+06                  1192.3239     2.9808    25.8759
         INT.     0.1013D+07                  4304.3037    22.8024    38.2408
         TRA.     0.8452D+27                  1987.2065     4.9680    40.0338
         TOT.                       33.376    6291.5102    27.7704    78.2746

   *: NOTE: HEATS OF FORMATION ARE RELATIVE TO THE
            ELEMENTS IN THEIR STANDARD STATE AT 298K
              (=  Standard Enthalpy of Formation).

            Hvib:  Zero-point energy is not included.
                   frequencies of less than zero cm-1 are not included.
            Hrot = (3/2)RT
            Htra = (3/2)RT + pV = (5/2)RT

            Heat capacity is Cp, not Cv

          For more information, see: HTTP://OpenMOPAC.net/Manual/thermochemistry.html


           FORCE CONSTANT IN CARTESIAN COORDINATES (Millidynes/A)

    ATOM   CHEMICAL       X               Y               Z
   NUMBER   SYMBOL  FORCE CONSTANT  FORCE CONSTANT  FORCE CONSTANT

      1       C        7.543583        8.658535        8.247308
      2       C        7.316467        8.394514        8.311823
      3       C        8.387466        8.487358        8.297961
      4       C       15.180747        3.625321        7.683251
      5       C       15.218510        3.685240        7.751811
      6       H        1.385056        2.134602        2.711812
      7       H        1.499060        4.413018        0.650372
      8       H        1.508814        2.046929        3.028190
      9       H        5.181130        0.742039        0.824619
     10       H        1.463103        2.323539        2.976991
     11       H        0.727589        1.575177        4.442514
     12       H        3.179902        0.855297        2.559165
     13       H        3.214846        0.926660        2.457391

 **********************
 *                    *
 * JOB ENDED NORMALLY *
 *                    *
 **********************



 TOTAL JOB TIME:             4.02 SECONDS

 == MOPAC DONE ==
