 *******************************************************************************
 ** Site#: 14399        For non-commercial use only    Version 18.184L 64BITS **
 *******************************************************************************
 ** Cite this program as: MOPAC2016, Version: 18.184L, James J. P. Stewart,   **
 ** Stewart Computational Chemistry, web: HTTP://OpenMOPAC.net. Days left:  20**
 *******************************************************************************
 **                                                                           **
 **                                MOPAC2016                                  **
 **                                                                           **
 *******************************************************************************

                              PM3 CALCULATION RESULTS

 *******************************************************************************
 *  CALCULATION DONE:                                Thu Jun 13 15:43:43 2019  *
 *  PM3        - The PM3 Hamiltonian to be used
 *  PRECISE    - CRITERIA TO BE INCREASED BY 100 TIMES
 *  NOSYM      - POINT-GROUP SYMMETRY SET TO C1
 *  THREADS=1  - MULTI-THREADING NOT USED
 *  T=         - A TIME OF 172800.0 SECONDS REQUESTED
 *  DUMP=N     - RESTART FILE WRITTEN EVERY  7200.000 SECONDS
 *******************************************************************************
pm3  precise nosym THREADS=1
 InChI=1S/C6H8/c1-6-4-2-3-5-6/h2-4H,5H2,1H3

   ATOM   CHEMICAL          X               Y               Z
  NUMBER   SYMBOL      (ANGSTROMS)     (ANGSTROMS)     (ANGSTROMS)
 
     1       C         -0.33630000  *  -1.13240000  *   0.10340000  *
     2       C          1.94730000  *   0.14350000  *  -0.31930000  *
     3       C          0.47270000  *   0.11030000  *  -0.08080000  *
     4       C         -1.70110000  *  -0.55800000  *   0.29780000  *
     5       C         -0.29500000  *   1.18660000  *  -0.00430000  *
     6       C         -1.66260000  *   0.76340000  *   0.23400000  *
     7       H         -0.30100000  *  -1.76990000  *  -0.80520000  *
     8       H         -0.00980000  *  -1.69100000  *   1.00590000  *
     9       H          2.44620000  *   0.71120000  *   0.49400000  *
    10       H          2.35540000  *  -0.88880000  *  -0.33990000  *
    11       H          2.15900000  *   0.63330000  *  -1.29290000  *
    12       H         -2.60130000  *  -1.13370000  *   0.46750000  *
    13       H          0.04500000  *   2.20940000  *  -0.10350000  *
    14       H         -2.51850000  *   1.41590000  *   0.34320000  *
 


          CARTESIAN COORDINATES 

    NO.       ATOM           X           Y           Z

     1         C         -0.3363     -1.1324      0.1034
     2         C          1.9473      0.1435     -0.3193
     3         C          0.4727      0.1103     -0.0808
     4         C         -1.7011     -0.5580      0.2978
     5         C         -0.2950      1.1866     -0.0043
     6         C         -1.6626      0.7634      0.2340
     7         H         -0.3010     -1.7699     -0.8052
     8         H         -0.0098     -1.6910      1.0059
     9         H          2.4462      0.7112      0.4940
    10         H          2.3554     -0.8888     -0.3399
    11         H          2.1590      0.6333     -1.2929
    12         H         -2.6013     -1.1337      0.4675
    13         H          0.0450      2.2094     -0.1035
    14         H         -2.5185      1.4159      0.3432

  H: (PM3): J. J. P. STEWART, J. COMP. CHEM. 10, 209 (1989).
  C: (PM3): J. J. P. STEWART, J. COMP. CHEM. 10, 209 (1989).

           Empirical Formula: C6 H8  =    14 atoms



      MOLECULAR POINT GROUP   :   C1  


      RHF CALCULATION, NO. OF DOUBLY OCCUPIED LEVELS = 16


          Geometry optimization using EF

          DIAGONAL MATRIX USED AS START HESSIAN

 CYCLE:     1 TIME:   0.012 TIME LEFT:  2.00D  GRAD.:   116.439 HEAT:  25.62052
 CYCLE:     2 TIME:   0.039 TIME LEFT:  2.00D  GRAD.:    67.477 HEAT:  23.94213
 CYCLE:     3 TIME:   0.020 TIME LEFT:  2.00D  GRAD.:    34.646 HEAT:  22.92007
 CYCLE:     4 TIME:   0.027 TIME LEFT:  2.00D  GRAD.:    27.124 HEAT:  22.60946
 CYCLE:     5 TIME:   0.023 TIME LEFT:  2.00D  GRAD.:    23.801 HEAT:  22.45274
 CYCLE:     6 TIME:   0.016 TIME LEFT:  2.00D  GRAD.:    24.556 HEAT:  22.34468
 CYCLE:     7 TIME:   0.023 TIME LEFT:  2.00D  GRAD.:    13.937 HEAT:  22.15176
 CYCLE:     8 TIME:   0.027 TIME LEFT:  2.00D  GRAD.:    17.085 HEAT:  22.12703
 CYCLE:     9 TIME:   0.020 TIME LEFT:  2.00D  GRAD.:    15.778 HEAT:  22.07533
 CYCLE:    10 TIME:   0.023 TIME LEFT:  2.00D  GRAD.:    18.897 HEAT:  22.07292
 CYCLE:    11 TIME:   0.023 TIME LEFT:  2.00D  GRAD.:    11.196 HEAT:  22.00906
 CYCLE:    12 TIME:   0.027 TIME LEFT:  2.00D  GRAD.:     7.709 HEAT:  21.98274
 CYCLE:    13 TIME:   0.016 TIME LEFT:  2.00D  GRAD.:     8.852 HEAT:  21.97594
 CYCLE:    14 TIME:   0.023 TIME LEFT:  2.00D  GRAD.:     4.658 HEAT:  21.94835
 CYCLE:    15 TIME:   0.023 TIME LEFT:  2.00D  GRAD.:     5.208 HEAT:  21.93390
 CYCLE:    16 TIME:   0.023 TIME LEFT:  2.00D  GRAD.:     5.838 HEAT:  21.90971
 CYCLE:    17 TIME:   0.023 TIME LEFT:  2.00D  GRAD.:     4.163 HEAT:  21.89213
 CYCLE:    18 TIME:   0.023 TIME LEFT:  2.00D  GRAD.:     4.828 HEAT:  21.88563
 CYCLE:    19 TIME:   0.023 TIME LEFT:  2.00D  GRAD.:     2.834 HEAT:  21.87408
 CYCLE:    20 TIME:   0.023 TIME LEFT:  2.00D  GRAD.:     2.866 HEAT:  21.86633
 CYCLE:    21 TIME:   0.023 TIME LEFT:  2.00D  GRAD.:     2.451 HEAT:  21.85978
 CYCLE:    22 TIME:   0.023 TIME LEFT:  2.00D  GRAD.:     1.378 HEAT:  21.85623
 CYCLE:    23 TIME:   0.023 TIME LEFT:  2.00D  GRAD.:     0.811 HEAT:  21.85475
 CYCLE:    24 TIME:   0.020 TIME LEFT:  2.00D  GRAD.:     1.015 HEAT:  21.85353
 CYCLE:    25 TIME:   0.023 TIME LEFT:  2.00D  GRAD.:     0.724 HEAT:  21.85270
 CYCLE:    26 TIME:   0.023 TIME LEFT:  2.00D  GRAD.:     0.338 HEAT:  21.85229
 CYCLE:    27 TIME:   0.023 TIME LEFT:  2.00D  GRAD.:     0.349 HEAT:  21.85217
 CYCLE:    28 TIME:   0.023 TIME LEFT:  2.00D  GRAD.:     0.161 HEAT:  21.85212
 CYCLE:    29 TIME:   0.023 TIME LEFT:  2.00D  GRAD.:     0.135 HEAT:  21.85208
 CYCLE:    30 TIME:   0.020 TIME LEFT:  2.00D  GRAD.:     0.124 HEAT:  21.85204
 CYCLE:    31 TIME:   0.023 TIME LEFT:  2.00D  GRAD.:     0.065 HEAT:  21.85203
 CYCLE:    32 TIME:   0.023 TIME LEFT:  2.00D  GRAD.:     0.029 HEAT:  21.85203

     GRADIENT =  0.02928  IS LESS THAN CUTOFF =  0.05000



 -------------------------------------------------------------------------------
 pm3  precise nosym THREADS=1
 InChI=1S/C6H8/c1-6-4-2-3-5-6/h2-4H,5H2,1H3



     GEOMETRY OPTIMISED USING EIGENVECTOR FOLLOWING (EF).     
     SCF FIELD WAS ACHIEVED                                   


                              PM3 CALCULATION
                                                       MOPAC2016 (Version: 18.184L)
                                                       Thu Jun 13 15:43:44 2019
                                                       No. of days remaining =  20




          FINAL HEAT OF FORMATION =         21.85203 KCAL/MOL =      91.42889 KJ/MOL


          TOTAL ENERGY            =       -833.55633 EV
          ELECTRONIC ENERGY       =      -3473.32519 EV  POINT GROUP:     C1  
          CORE-CORE REPULSION     =       2639.76886 EV
          COSMO AREA              =        128.23 SQUARE ANGSTROMS
          COSMO VOLUME            =        117.22 CUBIC ANGSTROMS

          GRADIENT NORM           =          0.02928 = 0.00783 PER ATOM
          IONIZATION POTENTIAL    =          8.964658 EV
          HOMO LUMO ENERGIES (EV) =         -8.965  0.309
          NO. OF FILLED LEVELS    =         16
          MOLECULAR WEIGHT        =         80.1292

          MOLECULAR DIMENSIONS (Angstroms)

            Atom       Atom       Distance
            H    14    H    10     5.45362
            H    13    H    12     4.27514
            H     8    H    11     1.78228


          SCF CALCULATIONS        =         39
 
          WALL-CLOCK TIME         =          0.789 SECONDS
          COMPUTATION TIME        =          0.234 SECONDS




   ATOM   CHEMICAL          X               Y               Z
  NUMBER   SYMBOL      (ANGSTROMS)     (ANGSTROMS)     (ANGSTROMS)
 
     1       C         -0.32462843  *  -1.11352385  *   0.09940122  *
     2       C          1.94745078  *   0.10875295  *  -0.31777499  *
     3       C          0.49531249  *   0.13675858  *  -0.08540565  *
     4       C         -1.71202556  *  -0.57523612  *   0.29956852  *
     5       C         -0.31490259  *   1.22179401  *  -0.00121584  *
     6       C         -1.68679265  *   0.77571070  *   0.23815455  *
     7       H         -0.26440723  *  -1.77539544  *  -0.78362960  *
     8       H          0.01741442  *  -1.70085210  *   0.97089146  *
     9       H          2.48323150  *   0.66368800  *   0.46403402  *
    10       H          2.33563067  *  -0.91782963  *  -0.32498185  *
    11       H          2.20160359  *   0.56932655  *  -1.28193872  *
    12       H         -2.57162986  *  -1.22021819  *   0.46528088  *
    13       H         -0.02876818  *   2.26773739  *  -0.09145294  *
    14       H         -2.52701055  *   1.45890431  *   0.34424183  *

                             CARTESIAN COORDINATES

   1    C       -0.324628426    -1.113523852     0.099401224
   2    C        1.947450779     0.108752954    -0.317774995
   3    C        0.495312491     0.136758578    -0.085405650
   4    C       -1.712025562    -0.575236121     0.299568516
   5    C       -0.314902589     1.221794014    -0.001215844
   6    C       -1.686792651     0.775710696     0.238154553
   7    H       -0.264407231    -1.775395444    -0.783629605
   8    H        0.017414420    -1.700852096     0.970891465
   9    H        2.483231504     0.663688002     0.464034025
  10    H        2.335630674    -0.917829631    -0.324981854
  11    H        2.201603595     0.569326549    -1.281938724
  12    H       -2.571629859    -1.220218189     0.465280877
  13    H       -0.028768182     2.267737388    -0.091452943
  14    H       -2.527010547     1.458904307     0.344241827


           Empirical Formula: C6 H8  =    14 atoms



      MOLECULAR POINT GROUP   :   C1  


                  EIGENVALUES  
 -39.91415 -31.22628 -27.37308 -24.36630 -19.16152 -18.40599 -17.10156 -15.33553
 -14.31068 -13.82357 -13.69041 -13.50357 -12.78411 -12.38206 -10.80771  -8.96466
   0.30874   2.01560   3.27033   3.42124   3.76528   3.84001   4.15145   4.23124
   4.28277   4.31256   4.48484   4.59237   4.94486   5.81929   5.87668   6.22654


              NET ATOMIC CHARGES AND DIPOLE CONTRIBUTIONS

  ATOM NO.   TYPE          CHARGE      No. of ELECS.   s-Pop       p-Pop       
    1          C          -0.040504        4.0405     1.14465     2.89585
    2          C          -0.047314        4.0473     1.11580     2.93152
    3          C          -0.138780        4.1388     1.20907     2.92971
    4          C          -0.169619        4.1696     1.20702     2.96260
    5          C          -0.130213        4.1302     1.18990     2.94031
    6          C          -0.113114        4.1131     1.19084     2.92227
    7          H           0.081370        0.9186     0.91863
    8          H           0.081368        0.9186     0.91863
    9          H           0.046288        0.9537     0.95371
   10          H           0.040429        0.9596     0.95957
   11          H           0.046336        0.9537     0.95366
   12          H           0.115264        0.8847     0.88474
   13          H           0.115832        0.8842     0.88417
   14          H           0.112657        0.8873     0.88734
 DIPOLE           X         Y         Z       TOTAL
 POINT-CHG.     0.391    -0.503    -0.042     0.638
 HYBRID        -0.002    -0.018     0.001     0.018
 SUM            0.388    -0.522    -0.041     0.652


          ATOMIC ORBITAL ELECTRON POPULATIONS

     Atom    s        px        py        pz   
    1  C   1.14465   0.93155   0.95829   1.00601
    2  C   1.11580   0.91958   1.00784   1.00410
    3  C   1.20907   0.95748   0.96171   1.01053
    4  C   1.20702   0.97102   0.96632   1.02526
    5  C   1.18990   0.94039   0.97149   1.02842
    6  C   1.19084   0.96056   0.95442   1.00729
    7  H   0.91863
    8  H   0.91863
    9  H   0.95371
   10  H   0.95957
   11  H   0.95366
   12  H   0.88474
   13  H   0.88417
   14  H   0.88734
 *******************************************************************************
 ** Site#: 14399        For non-commercial use only    Version 18.184L 64BITS **
 *******************************************************************************
 ** Cite this program as: MOPAC2016, Version: 18.184L, James J. P. Stewart,   **
 ** Stewart Computational Chemistry, web: HTTP://OpenMOPAC.net. Days left:  20**
 *******************************************************************************
 **                                                                           **
 **                                MOPAC2016                                  **
 **                                                                           **
 *******************************************************************************

                              PM3 CALCULATION RESULTS

 *******************************************************************************
 *  CALCULATION DONE:                                Thu Jun 13 15:43:44 2019  *
 *  PM3        - The PM3 Hamiltonian to be used
 *  OLDGEO     - PREVIOUS GEOMETRY TO BE USED
 *  PRECISE    - CRITERIA TO BE INCREASED BY 100 TIMES
 *  NOSYM      - POINT-GROUP SYMMETRY SET TO C1
 *  THREADS=1  - MULTI-THREADING NOT USED
 *  T=         - A TIME OF 172800.0 SECONDS REQUESTED
 *  DUMP=N     - RESTART FILE WRITTEN EVERY  7200.000 SECONDS
 *  THERMO     - THERMODYNAMIC QUANTITIES TO BE CALCULATED
 *******************************************************************************
oldgeo thermo nosym precise THREADS=1  pm3
 InChI=1S/C6H8/c1-6-4-2-3-5-6/h2-4H,5H2,1H3

   ATOM   CHEMICAL          X               Y               Z
  NUMBER   SYMBOL      (ANGSTROMS)     (ANGSTROMS)     (ANGSTROMS)
 
     1       C         -0.32462843  *  -1.11352385  *   0.09940122  *
     2       C          1.94745078  *   0.10875295  *  -0.31777499  *
     3       C          0.49531249  *   0.13675858  *  -0.08540565  *
     4       C         -1.71202556  *  -0.57523612  *   0.29956852  *
     5       C         -0.31490259  *   1.22179401  *  -0.00121584  *
     6       C         -1.68679265  *   0.77571070  *   0.23815455  *
     7       H         -0.26440723  *  -1.77539544  *  -0.78362960  *
     8       H          0.01741442  *  -1.70085210  *   0.97089146  *
     9       H          2.48323150  *   0.66368800  *   0.46403402  *
    10       H          2.33563067  *  -0.91782963  *  -0.32498185  *
    11       H          2.20160359  *   0.56932655  *  -1.28193872  *
    12       H         -2.57162986  *  -1.22021819  *   0.46528088  *
    13       H         -0.02876818  *   2.26773739  *  -0.09145294  *
    14       H         -2.52701055  *   1.45890431  *   0.34424183  *
 


          CARTESIAN COORDINATES 

    NO.       ATOM           X           Y           Z

     1         C         -0.3246     -1.1135      0.0994
     2         C          1.9475      0.1088     -0.3178
     3         C          0.4953      0.1368     -0.0854
     4         C         -1.7120     -0.5752      0.2996
     5         C         -0.3149      1.2218     -0.0012
     6         C         -1.6868      0.7757      0.2382
     7         H         -0.2644     -1.7754     -0.7836
     8         H          0.0174     -1.7009      0.9709
     9         H          2.4832      0.6637      0.4640
    10         H          2.3356     -0.9178     -0.3250
    11         H          2.2016      0.5693     -1.2819
    12         H         -2.5716     -1.2202      0.4653
    13         H         -0.0288      2.2677     -0.0915
    14         H         -2.5270      1.4589      0.3442

  H: (PM3): J. J. P. STEWART, J. COMP. CHEM. 10, 209 (1989).
  C: (PM3): J. J. P. STEWART, J. COMP. CHEM. 10, 209 (1989).

           Empirical Formula: C6 H8  =    14 atoms



      MOLECULAR POINT GROUP   :   C1  


      RHF CALCULATION, NO. OF DOUBLY OCCUPIED LEVELS = 16



          HEAT OF FORMATION =      21.852030 KCALS/MOLE


          CARTESIAN COORDINATE DERIVATIVES

   NUMBER  ATOM         X            Y            Z

     1       C     -0.006436     0.009023    -0.002287
     2       C     -0.008130     0.001392    -0.001978
     3       C      0.002341    -0.008402    -0.001062
     4       C      0.006138    -0.010626     0.008134
     5       C     -0.005212     0.006920     0.002003
     6       C      0.010998     0.006955    -0.010282
     7       H      0.004878    -0.007012     0.002221
     8       H     -0.006148     0.005383    -0.005259
     9       H     -0.009776    -0.004923     0.000936
    10       H      0.000030     0.001868    -0.001731
    11       H      0.003736     0.004047     0.003127
    12       H      0.011072    -0.004423     0.006282
    13       H      0.000475     0.000428    -0.001880
    14       H     -0.003967    -0.000631     0.001776
 


          GRADIENT NORM =   0.03732


          TIME FOR SCF CALCULATION =    0.01

          TIME FOR DERIVATIVES     =    0.02

          MOLECULAR WEIGHT =   80.13



          ROTATIONAL CONSTANTS IN CM(-1)

          A =    0.26449824   B =    0.11003756   C =    0.08005199



           PRINCIPAL MOMENTS OF INERTIA IN UNITS OF 10**(-40)*GRAM-CM**2

          A =      105.8335   B =      254.3929   C =      349.6824


          ORIENTATION OF MOLECULE IN FORCE CALCULATION

    NO.       ATOM         X         Y         Z

     1          C      -0.6588   -0.9970    0.0001
     2          C       1.9546   -0.9970    0.0001
     3          C       0.6682   -0.2838    0.0001
     4          C      -1.6452    0.1352   -0.0001
     5          C       0.4579    1.0565   -0.0001
     6          C      -0.9817    1.3138   -0.0003
     7          H      -0.7751   -1.6430   -0.8890
     8          H      -0.7753   -1.6426    0.8895
     9          H       2.5552   -0.7281    0.8795
    10          H       1.8132   -2.0853    0.0117
    11          H       2.5449   -0.7458   -0.8914
    12          H      -2.7206   -0.0257    0.0001
    13          H       1.2102    1.8427    0.0000
    14          H      -1.4095    2.3143   -0.0004


    FIRST DERIVATIVES WILL BE USED IN THE CALCULATION OF SECOND DERIVATIVES

          ESTIMATED TIME TO COMPLETE CALCULATION =        3.94 SECONDS

    FOR POINT-GROUP C1   THERE ARE   1 UNIQUE SYMMETRY FUNCTIONS.

 STEP:   1 TIME =     0.03 SECS, INTEGRAL =      0.03 TIME LEFT: 172799.95
 STEP:   2 TIME =     0.03 SECS, INTEGRAL =      0.05 TIME LEFT: 172799.92
 STEP:   3 TIME =     0.03 SECS, INTEGRAL =      0.08 TIME LEFT: 172799.89
 STEP:   4 TIME =     0.04 SECS, INTEGRAL =      0.12 TIME LEFT: 172799.86
 STEP:   5 TIME =     0.03 SECS, INTEGRAL =      0.14 TIME LEFT: 172799.83
 STEP:   6 TIME =     0.03 SECS, INTEGRAL =      0.17 TIME LEFT: 172799.80
 STEP:   7 TIME =     0.03 SECS, INTEGRAL =      0.20 TIME LEFT: 172799.78
 STEP:   8 TIME =     0.02 SECS, INTEGRAL =      0.22 TIME LEFT: 172799.75
 STEP:   9 TIME =     0.02 SECS, INTEGRAL =      0.25 TIME LEFT: 172799.73
 STEP:  10 TIME =     0.02 SECS, INTEGRAL =      0.27 TIME LEFT: 172799.71
 STEP:  11 TIME =     0.02 SECS, INTEGRAL =      0.29 TIME LEFT: 172799.68
 STEP:  12 TIME =     0.02 SECS, INTEGRAL =      0.32 TIME LEFT: 172799.66
 STEP:  13 TIME =     0.03 SECS, INTEGRAL =      0.34 TIME LEFT: 172799.63
 STEP:  14 TIME =     0.03 SECS, INTEGRAL =      0.37 TIME LEFT: 172799.61
 STEP:  15 TIME =     0.03 SECS, INTEGRAL =      0.40 TIME LEFT: 172799.58
 STEP:  16 TIME =     0.02 SECS, INTEGRAL =      0.42 TIME LEFT: 172799.55
 STEP:  17 TIME =     0.02 SECS, INTEGRAL =      0.45 TIME LEFT: 172799.53
 STEP:  18 TIME =     0.04 SECS, INTEGRAL =      0.48 TIME LEFT: 172799.50
 STEP:  19 TIME =     0.03 SECS, INTEGRAL =      0.51 TIME LEFT: 172799.46
 STEP:  20 TIME =     0.03 SECS, INTEGRAL =      0.54 TIME LEFT: 172799.44
 STEP:  21 TIME =     0.02 SECS, INTEGRAL =      0.56 TIME LEFT: 172799.41
 STEP:  22 TIME =     0.02 SECS, INTEGRAL =      0.58 TIME LEFT: 172799.39
 STEP:  23 TIME =     0.02 SECS, INTEGRAL =      0.61 TIME LEFT: 172799.37
 STEP:  24 TIME =     0.02 SECS, INTEGRAL =      0.63 TIME LEFT: 172799.35
 STEP:  25 TIME =     0.02 SECS, INTEGRAL =      0.65 TIME LEFT: 172799.33
 STEP:  26 TIME =     0.02 SECS, INTEGRAL =      0.67 TIME LEFT: 172799.31
 STEP:  27 TIME =     0.02 SECS, INTEGRAL =      0.69 TIME LEFT: 172799.29
 STEP:  28 TIME =     0.02 SECS, INTEGRAL =      0.71 TIME LEFT: 172799.26
 STEP:  29 TIME =     0.02 SECS, INTEGRAL =      0.74 TIME LEFT: 172799.24
 STEP:  30 TIME =     0.03 SECS, INTEGRAL =      0.77 TIME LEFT: 172799.21
 STEP:  31 TIME =     0.03 SECS, INTEGRAL =      0.79 TIME LEFT: 172799.18
 STEP:  32 TIME =     0.03 SECS, INTEGRAL =      0.82 TIME LEFT: 172799.16
 STEP:  33 TIME =     0.03 SECS, INTEGRAL =      0.85 TIME LEFT: 172799.13
 STEP:  34 TIME =     0.03 SECS, INTEGRAL =      0.88 TIME LEFT: 172799.10
 STEP:  35 TIME =     0.03 SECS, INTEGRAL =      0.90 TIME LEFT: 172799.07
 STEP:  36 TIME =     0.03 SECS, INTEGRAL =      0.93 TIME LEFT: 172799.05
 STEP:  37 TIME =     0.02 SECS, INTEGRAL =      0.95 TIME LEFT: 172799.03
 STEP:  38 TIME =     0.02 SECS, INTEGRAL =      0.97 TIME LEFT: 172799.00
 STEP:  39 TIME =     0.02 SECS, INTEGRAL =      0.99 TIME LEFT: 172798.98
 STEP:  40 TIME =     0.02 SECS, INTEGRAL =      1.02 TIME LEFT: 172798.96
 STEP:  41 TIME =     0.02 SECS, INTEGRAL =      1.04 TIME LEFT: 172798.94
 STEP:  42 TIME =     0.03 SECS, INTEGRAL =      1.07 TIME LEFT: 172798.91

(To convert to Hartree/Bohr^2, multiply by (10^(-21) x N x a0^2)/(4.184 x 627.51) =  0.0642)


           FORCE MATRIX IN MILLIDYNES/ANGSTROM


                  C  1       C  2       C  3       C  4       C  5       C  6
 ------------------------------------------------------------------------------
     C    1  14.846543
     C    2   0.481037  14.837433
     C    3   4.215300   5.501254  18.427120
     C    4   4.429556   0.049594   1.101085  17.898871
     C    5   1.207409   0.677881   9.342199   1.604524  18.221133
     C    6   1.255943   0.105123   1.606203   9.661948   5.215336  18.285310
     H    7   4.515058   0.012290   0.425369   0.415894   0.044612   0.045343
     H    8   4.514969   0.012486   0.425434   0.415763   0.044764   0.045307
     H    9   0.023992   4.706059   0.444706   0.005089   0.020956   0.009891
     H   10   0.026482   4.746318   0.467109   0.003298   0.046695   0.008066
     H   11   0.023415   4.704389   0.443750   0.004928   0.020988   0.010140
     H   12   0.402972   0.013141   0.044048   5.087490   0.100760   0.444566
     H   13   0.106409   0.048460   0.457188   0.049034   5.070607   0.419976
     H   14   0.113814   0.007220   0.050087   0.446169   0.419075   5.070362


                  H  7       H  8       H  9       H 10       H 11       H 12
 ------------------------------------------------------------------------------
     H    7   5.121781
     H    8   0.546184   5.121726
     H    9   0.002687   0.002029   5.419869
     H   10   0.005871   0.005999   0.563355   5.450637
     H   11   0.002059   0.002699   0.574433   0.564003   5.418287
     H   12   0.011112   0.011115   0.002231   0.000470   0.002228   5.489001
     H   13   0.014588   0.014584   0.006083   0.001578   0.006146   0.005397
     H   14   0.015336   0.015328   0.000647   0.001536   0.000629   0.041769


                  H 13       H 14
 ------------------------------
     H   13   5.465544
     H   14   0.009276   5.461838


          HEAT OF FORMATION =      21.852030 KCALS/MOLE

          ZERO POINT ENERGY      75.576 KCAL/MOL


           NORMAL COORDINATE ANALYSIS (Total motion = 1 Angstrom)


   Root No.       1         2         3         4         5         6         7         8

                 1 A       2 A       3 A       4 A       5 A       6 A       7 A       8 A   

                  29.7     214.5     337.8     408.7     498.8     650.2     743.0     822.0
  
           1    0.0001   -0.0000   -0.0438   -0.0000   -0.0000   -0.0056   -0.0000    0.0437
           2    0.0000   -0.0000   -0.0137   -0.0000   -0.0000    0.0525    0.0000   -0.0509
           3   -0.0152   -0.0448    0.0000   -0.0168    0.0003    0.0000   -0.0273    0.0001
           4   -0.0001    0.0000    0.0353   -0.0000   -0.0000    0.0880    0.0000    0.0013
           5   -0.0001    0.0000    0.0554    0.0000    0.0000   -0.0451   -0.0000   -0.0178
           6   -0.0008    0.0491   -0.0001   -0.0103   -0.0004   -0.0001    0.0054   -0.0000
           7    0.0001   -0.0000   -0.0226   -0.0000   -0.0000    0.0524    0.0000   -0.0186
           8    0.0001   -0.0000   -0.0476   -0.0000   -0.0000   -0.0161   -0.0000   -0.0367
           9    0.0034   -0.0406   -0.0000    0.0568    0.0679    0.0001    0.0203   -0.0000
          10    0.0000   -0.0000   -0.0109    0.0000    0.0000   -0.0558   -0.0000    0.0972
          11   -0.0001    0.0000    0.0225    0.0000    0.0000    0.0252    0.0000    0.0323
          12   -0.0105    0.0461   -0.0001    0.0428   -0.0303   -0.0000   -0.0192   -0.0000
          13   -0.0000    0.0000    0.0095    0.0000    0.0000   -0.0384   -0.0000   -0.0808
          14    0.0001   -0.0000   -0.0430   -0.0000   -0.0000   -0.0258   -0.0000   -0.0307
          15    0.0179   -0.0469    0.0001    0.0127   -0.0502    0.0000   -0.0051    0.0000
          16   -0.0001    0.0000    0.0232    0.0000    0.0000   -0.0478   -0.0000   -0.0498
          17    0.0000    0.0000    0.0033   -0.0000    0.0000    0.0112   -0.0000    0.1168
          18    0.0080    0.0232   -0.0000   -0.0540    0.0402   -0.0000   -0.0256   -0.0001
          19    0.0067   -0.0227   -0.0692    0.0223    0.0831   -0.0261    0.0273    0.0174
          20    0.0092    0.0641   -0.0087    0.1307    0.0408    0.0623   -0.1051   -0.0571
          21   -0.0226   -0.0893    0.0002   -0.1183   -0.0421   -0.0028    0.0496    0.0057
          22   -0.0064    0.0226   -0.0692   -0.0223   -0.0831   -0.0262   -0.0273    0.0171
          23   -0.0092   -0.0642   -0.0086   -0.1308   -0.0409    0.0620    0.1052   -0.0573
          24   -0.0226   -0.0893   -0.0001   -0.1183   -0.0421    0.0026    0.0496   -0.0058
          25    0.1213   -0.0513    0.0085    0.0482    0.0538    0.1050    0.0345   -0.0107
          26    0.2016    0.0386    0.1235   -0.0298   -0.0297   -0.0680   -0.0198    0.0100
          27   -0.1459    0.0729   -0.0016   -0.0350   -0.0289   -0.0036   -0.0129   -0.0003
          28    0.0010   -0.0005    0.1501    0.0006    0.0007    0.0755    0.0004    0.0579
          29    0.0025    0.0005    0.0426   -0.0004   -0.0003   -0.0447   -0.0003   -0.0256
          30    0.2668    0.0904    0.0007   -0.0416   -0.0300   -0.0000   -0.0168   -0.0000
          31   -0.1230    0.0521    0.0098   -0.0490   -0.0546    0.1051   -0.0349   -0.0094
          32   -0.2052   -0.0389    0.1212    0.0304    0.0302   -0.0679    0.0201    0.0093
          33   -0.1404    0.0731    0.0007   -0.0350   -0.0289    0.0038   -0.0129    0.0005
          34    0.0001   -0.0000   -0.0163    0.0000    0.0000   -0.0521   -0.0000    0.1116
          35   -0.0002    0.0001    0.0585    0.0001    0.0000   -0.0048    0.0000   -0.0530
          36   -0.0207    0.1103   -0.0002    0.1150   -0.0680   -0.0002    0.2943    0.0002
          37   -0.0001    0.0000    0.0396    0.0000    0.0001   -0.0803   -0.0000   -0.0227
          38    0.0002   -0.0000   -0.0714   -0.0000   -0.0001    0.0146   -0.0000   -0.0882
          39    0.0364   -0.0653    0.0003    0.0115   -0.2296   -0.0003    0.0797    0.0002
          40   -0.0002    0.0000    0.0571    0.0000    0.0000   -0.0154    0.0000   -0.0772
          41   -0.0000    0.0000    0.0178   -0.0000    0.0000    0.0257    0.0000    0.1072
          42    0.0155    0.0638   -0.0000   -0.1489    0.1431   -0.0001    0.1836    0.0002


   Root No.       9        10        11        12        13        14        15        16

                 9 A      10 A      11 A      12 A      13 A      14 A      15 A      16 A   

                 871.3     892.1     936.6     960.3     992.9    1004.2    1035.0    1052.2
  
           1    0.0000    0.0000    0.0363    0.0001   -0.0221    0.0001    0.0035    0.0000
           2    0.0001    0.0000    0.0451    0.0001   -0.0053   -0.0000   -0.0346    0.0000
           3    0.0523   -0.0323   -0.0000   -0.0028   -0.0003   -0.0319   -0.0000   -0.0093
           4   -0.0000    0.0000   -0.0324   -0.0001    0.0028   -0.0000    0.0006   -0.0000
           5   -0.0000    0.0000   -0.0190   -0.0000   -0.0412    0.0003   -0.0143    0.0001
           6   -0.0020    0.0271   -0.0000    0.0107   -0.0002   -0.0280   -0.0000   -0.0280
           7    0.0000    0.0001   -0.0042    0.0000    0.0006   -0.0001    0.0004   -0.0001
           8    0.0000   -0.0001   -0.0145   -0.0000    0.0093   -0.0000    0.0075    0.0000
           9   -0.0078    0.0117    0.0000   -0.0049    0.0004    0.0306    0.0001    0.0521
          10   -0.0000   -0.0000   -0.0184   -0.0000    0.0228   -0.0002   -0.0205   -0.0000
          11   -0.0000    0.0000    0.0008    0.0000   -0.0092    0.0001    0.0152   -0.0000
          12   -0.0065    0.0270   -0.0000    0.0104    0.0003    0.0526   -0.0001   -0.0233
          13    0.0000   -0.0001    0.0025   -0.0000    0.0133   -0.0001   -0.0140    0.0000
          14    0.0000   -0.0001   -0.0201   -0.0001    0.0365   -0.0002    0.0077   -0.0000
          15   -0.0387   -0.0357   -0.0000    0.0359   -0.0001   -0.0021   -0.0000   -0.0264
          16   -0.0000   -0.0000   -0.0047   -0.0000    0.0004    0.0000    0.0089   -0.0000
          17   -0.0000    0.0001   -0.0044   -0.0000   -0.0018   -0.0000   -0.0006    0.0000
          18   -0.0237    0.0115    0.0001   -0.0433   -0.0001   -0.0302    0.0000    0.0202
          19    0.0156   -0.0666    0.1041   -0.1724   -0.0969    0.0836    0.1256   -0.1946
          20    0.1343   -0.0687    0.0491    0.0250    0.0027   -0.0877   -0.0728    0.0126
          21   -0.0524    0.0296   -0.0104    0.0019    0.0031    0.0239    0.0109    0.0082
          22   -0.0155    0.0665    0.1036    0.1727   -0.0967   -0.0820    0.1265    0.1951
          23   -0.1343    0.0689    0.0493   -0.0248    0.0040    0.0875   -0.0729   -0.0126
          24   -0.0524    0.0296    0.0104    0.0020   -0.0027    0.0239   -0.0108    0.0083
          25   -0.0019    0.1257   -0.0900    0.0417   -0.0351   -0.1099   -0.0097   -0.1063
          26    0.0006   -0.0696    0.1036   -0.0229    0.0701    0.0595    0.0178    0.0567
          27   -0.0009   -0.0402    0.0020   -0.0116   -0.0057    0.0311   -0.0020    0.0297
          28    0.0001    0.0012    0.1467    0.0006    0.2163   -0.0027    0.0689   -0.0018
          29   -0.0000   -0.0009   -0.0388   -0.0003   -0.0667    0.0013   -0.0232    0.0010
          30   -0.0024   -0.0496    0.0002   -0.0133    0.0003    0.0377    0.0000    0.0369
          31    0.0018   -0.1274   -0.0867   -0.0426   -0.0303    0.1120   -0.0088    0.1083
          32   -0.0005    0.0705    0.1016    0.0236    0.0675   -0.0615    0.0173   -0.0583
          33   -0.0009   -0.0402   -0.0021   -0.0116    0.0060    0.0310    0.0020    0.0296
          34   -0.0001    0.0000   -0.0053    0.0000    0.0186   -0.0002   -0.0493    0.0000
          35   -0.0000   -0.0001   -0.0851   -0.0003    0.0173    0.0001    0.2157   -0.0004
          36   -0.0752   -0.1238    0.0001   -0.0756   -0.0011   -0.1604    0.0001    0.0426
          37   -0.0000   -0.0001    0.0327    0.0000   -0.0544    0.0004   -0.1108    0.0007
          38    0.0001   -0.0001   -0.0505   -0.0001    0.1036   -0.0007    0.1012   -0.0007
          39    0.2741    0.1323    0.0001   -0.1593    0.0003    0.0179    0.0001    0.0702
          40    0.0000    0.0001    0.0428    0.0002   -0.1333    0.0009    0.1085   -0.0000
          41   -0.0000    0.0001    0.0153    0.0001   -0.0591    0.0004    0.0436    0.0000
          42    0.2231   -0.0483   -0.0004    0.1960    0.0006    0.1022   -0.0001   -0.0497


   Root No.      17        18        19        20        21        22        23        24

                17 A      18 A      19 A      20 A      21 A      22 A      23 A      24 A   

                1078.2    1128.9    1203.0    1273.5    1350.3    1364.9    1390.0    1391.1
  
           1    0.0047    0.0209    0.0319   -0.0359    0.0632   -0.0109   -0.0111    0.0004
           2    0.0042    0.0294   -0.0080    0.0226   -0.0086    0.0720   -0.0055    0.0001
           3   -0.0000   -0.0000    0.0000   -0.0000    0.0000   -0.0000   -0.0000   -0.0002
           4   -0.0110   -0.0147   -0.0055    0.0045   -0.0373   -0.0099   -0.0222   -0.0001
           5    0.0052    0.0153   -0.0085   -0.0010    0.0188    0.0007   -0.0330   -0.0000
           6   -0.0001   -0.0001   -0.0000    0.0001    0.0002    0.0001    0.0000   -0.0435
           7    0.0099    0.0130    0.0175   -0.0394   -0.0365    0.0010    0.0156   -0.0005
           8   -0.0035   -0.0213    0.0226    0.0039   -0.0114    0.0042    0.0013   -0.0000
           9    0.0001    0.0001   -0.0000   -0.0000   -0.0000   -0.0000    0.0000   -0.0010
          10    0.0149    0.0267   -0.0012    0.0404   -0.0279    0.0221    0.0035   -0.0001
          11   -0.0044   -0.0029   -0.0205   -0.0335    0.0208   -0.0123   -0.0036    0.0001
          12   -0.0000   -0.0000   -0.0000    0.0000   -0.0000    0.0000   -0.0000    0.0001
          13   -0.0159   -0.0207   -0.0224   -0.0323    0.0103   -0.0364    0.0094   -0.0002
          14   -0.0106   -0.0348    0.0126    0.0142   -0.0019   -0.0047   -0.0048    0.0001
          15   -0.0000   -0.0000   -0.0000   -0.0000    0.0000    0.0000    0.0000   -0.0001
          16    0.0138    0.0130   -0.0173    0.0141    0.0109    0.0241   -0.0132    0.0003
          17   -0.0074   -0.0179   -0.0114   -0.0133   -0.0024   -0.0160    0.0046   -0.0001
          18    0.0000    0.0000    0.0000    0.0000   -0.0000    0.0000    0.0000   -0.0002
          19   -0.1004   -0.0254   -0.1308    0.0815   -0.0701   -0.0164    0.0118    0.0008
          20    0.0276    0.0760    0.0233    0.1052    0.0042   -0.2230    0.0127   -0.0008
          21   -0.0031   -0.0237   -0.0007   -0.0670    0.0072    0.1905   -0.0145    0.0006
          22   -0.1000   -0.0251   -0.1308    0.0814   -0.0702   -0.0164    0.0119   -0.0016
          23    0.0276    0.0760    0.0233    0.1052    0.0042   -0.2231    0.0127    0.0001
          24    0.0030    0.0237    0.0006    0.0669   -0.0072   -0.1905    0.0145   -0.0002
          25   -0.0235   -0.0347   -0.0233    0.0911    0.1509    0.0431    0.1715    0.0137
          26    0.0158    0.0164    0.0225   -0.0626   -0.0926   -0.0035    0.2093   -0.2566
          27    0.0040    0.0102    0.0023   -0.0320   -0.0766   -0.0296   -0.1904    0.0561
          28   -0.0224   -0.0834    0.0317    0.0930    0.1454    0.0293   -0.1644    0.0049
          29    0.0077    0.0259   -0.0123   -0.0183   -0.0153   -0.0051    0.0111    0.0040
          30    0.0002    0.0002    0.0000   -0.0006   -0.0020   -0.0006    0.0048    0.4286
          31   -0.0228   -0.0349   -0.0225    0.0908    0.1513    0.0434    0.1736   -0.0156
          32    0.0153    0.0162    0.0221   -0.0618   -0.0921   -0.0035    0.2176    0.2522
          33   -0.0039   -0.0101   -0.0023    0.0320    0.0762    0.0290    0.1852    0.0477
          34    0.0354   -0.0022   -0.0278    0.0324   -0.0246    0.0219    0.0013   -0.0001
          35   -0.1375    0.2099    0.1593    0.0386   -0.0042    0.0082    0.0083   -0.0002
          36    0.0001    0.0000    0.0000    0.0000    0.0000   -0.0000   -0.0000   -0.0000
          37   -0.1906   -0.1126    0.1313    0.0193   -0.0330    0.0043    0.0015   -0.0002
          38    0.1562    0.0489   -0.1347   -0.0375    0.0393   -0.0485    0.0033   -0.0000
          39    0.0001    0.0000    0.0000    0.0000   -0.0000   -0.0000   -0.0000    0.0019
          40    0.2292   -0.1377    0.1375    0.0900   -0.0434    0.0107    0.0065   -0.0002
          41    0.0843   -0.0849    0.0547    0.0167   -0.0258   -0.0255    0.0139   -0.0004
          42   -0.0001   -0.0000   -0.0000   -0.0000    0.0000   -0.0000   -0.0000   -0.0001


   Root No.      25        26        27        28        29        30        31        32

                25 A      26 A      27 A      28 A      29 A      30 A      31 A      32 A   

                1413.0    1471.2    1746.7    1825.9    2984.6    3052.6    3068.4    3077.2
  
           1    0.0097   -0.0605    0.0037    0.0081    0.0000   -0.0073   -0.0000    0.0004
           2   -0.0355   -0.0262   -0.0112   -0.0023   -0.0000   -0.0411   -0.0000    0.0002
           3    0.0000   -0.0000   -0.0000    0.0000   -0.0608   -0.0000   -0.0003   -0.0000
           4    0.0123   -0.0852    0.0231    0.0416    0.0000   -0.0002    0.0002   -0.0250
           5   -0.0206    0.0400   -0.0157   -0.0322    0.0000   -0.0004    0.0004   -0.0448
           6    0.0001   -0.0001    0.0000    0.0000    0.0002    0.0000   -0.0575   -0.0004
           7    0.0109    0.1220   -0.0502   -0.0815   -0.0000   -0.0005    0.0000   -0.0003
           8    0.0264    0.0408    0.0658    0.2020    0.0000   -0.0007   -0.0000    0.0000
           9   -0.0000   -0.0000   -0.0000   -0.0000   -0.0003   -0.0000   -0.0001   -0.0000
          10   -0.0297    0.0101    0.0877   -0.0149   -0.0000    0.0012    0.0000   -0.0000
          11    0.0479    0.0145    0.1800   -0.0548    0.0000   -0.0005   -0.0000    0.0000
          12   -0.0000    0.0000   -0.0000    0.0000   -0.0003   -0.0000    0.0000   -0.0000
          13   -0.0959   -0.0066    0.0158    0.0359    0.0000   -0.0005   -0.0000   -0.0001
          14    0.0192   -0.0486   -0.0349   -0.1692    0.0000    0.0001   -0.0000    0.0003
          15   -0.0000    0.0000    0.0000    0.0000   -0.0002   -0.0000   -0.0001    0.0000
          16    0.1044   -0.0091   -0.1048    0.0361    0.0000    0.0004    0.0000    0.0000
          17   -0.0220    0.0022   -0.1660    0.0560   -0.0000   -0.0001   -0.0000   -0.0000
          18    0.0000    0.0000    0.0000   -0.0000   -0.0002    0.0000   -0.0001    0.0000
          19   -0.0079    0.0369    0.0169   -0.0399    0.0506    0.0444    0.0002    0.0002
          20    0.0351    0.0090   -0.0139    0.0032    0.2797    0.2451    0.0012   -0.0017
          21   -0.0422   -0.0316    0.0060    0.0048    0.3691    0.3817    0.0015   -0.0023
          22   -0.0078    0.0369    0.0169   -0.0399   -0.0507    0.0445   -0.0002    0.0002
          23    0.0351    0.0091   -0.0139    0.0032   -0.2796    0.2448   -0.0008   -0.0017
          24    0.0422    0.0317   -0.0059   -0.0048    0.3694   -0.3817    0.0011    0.0024
          25   -0.0163    0.0391   -0.0017   -0.0055   -0.0010    0.0005    0.2480    0.1243
          26    0.0557   -0.0859    0.0123    0.0251   -0.0005    0.0001    0.1240    0.0462
          27   -0.0063   -0.0308    0.0053    0.0094   -0.0015    0.0009    0.3520    0.2121
          28   -0.0345    0.2037    0.0015    0.0295    0.0000   -0.0002   -0.0013    0.0616
          29   -0.0088   -0.0114   -0.0105   -0.0257   -0.0000    0.0042   -0.0092    0.4485
          30   -0.0000   -0.0005   -0.0000   -0.0001   -0.0002   -0.0000   -0.0292   -0.0052
          31   -0.0158    0.0403   -0.0016   -0.0051    0.0010    0.0008   -0.2494    0.1136
          32    0.0552   -0.0852    0.0120    0.0242    0.0004    0.0002   -0.1189    0.0379
          33    0.0054    0.0323   -0.0055   -0.0097   -0.0015   -0.0013    0.3671   -0.2024
          34   -0.0005    0.0171    0.1543   -0.0323    0.0000   -0.0121   -0.0000    0.0007
          35   -0.1431   -0.0360   -0.0332    0.0088   -0.0000   -0.0032   -0.0000    0.0001
          36   -0.0000   -0.0000    0.0000    0.0000   -0.0009    0.0000   -0.0001   -0.0000
          37    0.0277    0.0039    0.0117   -0.1366    0.0000    0.0081    0.0001   -0.0020
          38   -0.1045   -0.0638   -0.0485   -0.0488    0.0000    0.0088    0.0001   -0.0017
          39    0.0000   -0.0000    0.0000    0.0000   -0.0007   -0.0000    0.0002    0.0000
          40   -0.0831   -0.0288    0.0950   -0.0708   -0.0000   -0.0045   -0.0000   -0.0002
          41   -0.1074   -0.0062   -0.1189    0.0164    0.0000    0.0111    0.0000    0.0004
          42    0.0000    0.0000    0.0000   -0.0000   -0.0007   -0.0000    0.0000    0.0000


   Root No.      33        34        35        36

                33 A      34 A      35 A      36 A   

                3133.8    3140.5    3154.4    3168.8
  
           1   -0.0002    0.0003   -0.0003   -0.0001
           2    0.0002    0.0009   -0.0020    0.0000
           3    0.0000    0.0000   -0.0000   -0.0000
           4    0.0000    0.0001   -0.0003    0.0210
           5    0.0002   -0.0004    0.0003   -0.0131
           6   -0.0000    0.0000   -0.0000    0.0001
           7    0.0001   -0.0009    0.0014    0.0002
           8   -0.0007    0.0039   -0.0017   -0.0002
           9    0.0000   -0.0000    0.0000    0.0000
          10   -0.0217   -0.0227   -0.0384   -0.0003
          11   -0.0021   -0.0041   -0.0094   -0.0001
          12    0.0000    0.0000    0.0000   -0.0000
          13    0.0103   -0.0335    0.0110    0.0000
          14    0.0121   -0.0384    0.0115    0.0005
          15    0.0000   -0.0000    0.0000    0.0000
          16    0.0154    0.0036   -0.0086   -0.0000
          17   -0.0381   -0.0044    0.0280    0.0002
          18    0.0000    0.0000   -0.0000    0.0000
          19   -0.0007   -0.0009    0.0002    0.0001
          20    0.0003   -0.0020    0.0065   -0.0003
          21    0.0000   -0.0033    0.0094   -0.0004
          22   -0.0007   -0.0009    0.0002    0.0001
          23    0.0003   -0.0020    0.0065   -0.0004
          24   -0.0001    0.0033   -0.0094    0.0004
          25    0.0001   -0.0001    0.0011   -0.1580
          26    0.0001   -0.0003    0.0006   -0.0889
          27    0.0001   -0.0003    0.0018   -0.2585
          28   -0.0004    0.0009   -0.0008    0.0617
          29   -0.0019    0.0027   -0.0032    0.3289
          30    0.0000   -0.0000    0.0000   -0.0036
          31    0.0001   -0.0001    0.0010   -0.1543
          32    0.0001   -0.0002    0.0006   -0.0835
          33   -0.0001    0.0002   -0.0018    0.2611
          34    0.2624    0.2684    0.4147    0.0031
          35    0.0371    0.0393    0.0614    0.0005
          36   -0.0000   -0.0000   -0.0000   -0.0000
          37   -0.1230    0.3922   -0.1149   -0.0021
          38   -0.1306    0.4091   -0.1184   -0.0024
          39   -0.0000    0.0000   -0.0000    0.0000
          40   -0.1862   -0.0281    0.1162    0.0006
          41    0.4335    0.0591   -0.2721   -0.0014
          42   -0.0001   -0.0000    0.0000    0.0000


           MASS-WEIGHTED COORDINATE ANALYSIS (NORMAL COORDINATES)


   Root No.       1         2         3         4         5         6         7         8

                 1 A       2 A       3 A       4 A       5 A       6 A       7 A       8 A   

                  29.7     214.5     337.8     408.7     498.8     650.2     743.0     822.0
  
           1    0.0010   -0.0003   -0.3185   -0.0001   -0.0001   -0.0329   -0.0000    0.2062
           2    0.0002   -0.0001   -0.0996   -0.0002   -0.0002    0.3092    0.0003   -0.2401
           3   -0.1075   -0.3432    0.0001   -0.1264    0.0019    0.0002   -0.2187    0.0004
           4   -0.0006    0.0003    0.2568   -0.0001   -0.0000    0.5188    0.0003    0.0059
           5   -0.0010    0.0003    0.4036    0.0002    0.0003   -0.2660   -0.0000   -0.0839
           6   -0.0058    0.3763   -0.0004   -0.0777   -0.0031   -0.0004    0.0431   -0.0002
           7    0.0005   -0.0001   -0.1644   -0.0001   -0.0002    0.3090    0.0003   -0.0877
           8    0.0010   -0.0003   -0.3468   -0.0000   -0.0001   -0.0952   -0.0001   -0.1732
           9    0.0243   -0.3114   -0.0000    0.4270    0.4952    0.0005    0.1624   -0.0000
          10    0.0003   -0.0001   -0.0794    0.0001    0.0001   -0.3291   -0.0004    0.4579
          11   -0.0004    0.0002    0.1640    0.0001    0.0000    0.1486    0.0000    0.1524
          12   -0.0745    0.3527   -0.0005    0.3214   -0.2213   -0.0001   -0.1540   -0.0002
          13   -0.0003    0.0000    0.0693    0.0000    0.0001   -0.2264   -0.0001   -0.3810
          14    0.0009   -0.0003   -0.3133   -0.0001   -0.0002   -0.1523   -0.0002   -0.1447
          15    0.1270   -0.3590    0.0008    0.0951   -0.3661    0.0002   -0.0409    0.0000
          16   -0.0005    0.0001    0.1686    0.0002    0.0002   -0.2816   -0.0000   -0.2345
          17    0.0000    0.0001    0.0241   -0.0001    0.0001    0.0660   -0.0001    0.5506
          18    0.0565    0.1774   -0.0000   -0.4057    0.2932   -0.0000   -0.2048   -0.0003
          19    0.0139   -0.0503   -0.1460    0.0485    0.1756   -0.0446    0.0634    0.0238
          20    0.0190    0.1423   -0.0184    0.2846    0.0863    0.1063   -0.2439   -0.0780
          21   -0.0464   -0.1982    0.0004   -0.2576   -0.0890   -0.0048    0.1152    0.0078
          22   -0.0132    0.0501   -0.1459   -0.0485   -0.1757   -0.0448   -0.0635    0.0233
          23   -0.0189   -0.1424   -0.0181   -0.2848   -0.0865    0.1059    0.2441   -0.0783
          24   -0.0464   -0.1981   -0.0002   -0.2575   -0.0890    0.0045    0.1151   -0.0079
          25    0.2493   -0.1138    0.0180    0.1050    0.1138    0.1793    0.0801   -0.0146
          26    0.4143    0.0856    0.2604   -0.0650   -0.0627   -0.1161   -0.0460    0.0137
          27   -0.2998    0.1618   -0.0033   -0.0761   -0.0611   -0.0062   -0.0299   -0.0004
          28    0.0021   -0.0011    0.3165    0.0014    0.0015    0.1289    0.0009    0.0790
          29    0.0051    0.0012    0.0898   -0.0008   -0.0007   -0.0764   -0.0006   -0.0350
          30    0.5482    0.2007    0.0015   -0.0906   -0.0634   -0.0000   -0.0389   -0.0000
          31   -0.2528    0.1155    0.0207   -0.1067   -0.1154    0.1794   -0.0811   -0.0128
          32   -0.4216   -0.0864    0.2556    0.0661    0.0639   -0.1159    0.0467    0.0127
          33   -0.2886    0.1622    0.0014   -0.0762   -0.0610    0.0065   -0.0299    0.0007
          34    0.0001   -0.0000   -0.0343    0.0000    0.0000   -0.0890   -0.0000    0.1524
          35   -0.0004    0.0001    0.1233    0.0001    0.0000   -0.0083    0.0000   -0.0723
          36   -0.0426    0.2447   -0.0004    0.2503   -0.1437   -0.0003    0.6831    0.0003
          37   -0.0002    0.0000    0.0834    0.0000    0.0001   -0.1371   -0.0001   -0.0309
          38    0.0004   -0.0001   -0.1506   -0.0000   -0.0002    0.0249   -0.0000   -0.1203
          39    0.0747   -0.1449    0.0006    0.0251   -0.4852   -0.0005    0.1849    0.0002
          40   -0.0004    0.0001    0.1205    0.0000    0.0001   -0.0264    0.0001   -0.1054
          41   -0.0001    0.0001    0.0375   -0.0000    0.0001    0.0440    0.0001    0.1463
          42    0.0319    0.1417   -0.0001   -0.3242    0.3025   -0.0002    0.4261    0.0003


   Root No.       9        10        11        12        13        14        15        16

                 9 A      10 A      11 A      12 A      13 A      14 A      15 A      16 A   

                 871.3     892.1     936.6     960.3     992.9    1004.2    1035.0    1052.2
  
           1    0.0000    0.0004    0.3056    0.0007   -0.1852    0.0011    0.0299    0.0002
           2    0.0004    0.0002    0.3798    0.0007   -0.0444   -0.0001   -0.2955    0.0003
           3    0.3758   -0.2871   -0.0003   -0.0233   -0.0024   -0.2603   -0.0001   -0.0758
           4   -0.0001    0.0004   -0.2723   -0.0004    0.0234   -0.0003    0.0054   -0.0002
           5   -0.0002    0.0004   -0.1602   -0.0001   -0.3448    0.0023   -0.1220    0.0010
           6   -0.0140    0.2403   -0.0002    0.0880   -0.0017   -0.2289   -0.0000   -0.2275
           7    0.0001    0.0005   -0.0352    0.0000    0.0048   -0.0005    0.0038   -0.0007
           8    0.0001   -0.0005   -0.1221   -0.0003    0.0780   -0.0002    0.0639    0.0001
           9   -0.0560    0.1041    0.0002   -0.0402    0.0029    0.2502    0.0005    0.4229
          10   -0.0003   -0.0000   -0.1548   -0.0001    0.1912   -0.0013   -0.1753   -0.0004
          11   -0.0001    0.0004    0.0071    0.0000   -0.0773    0.0005    0.1303   -0.0001
          12   -0.0468    0.2400   -0.0000    0.0854    0.0026    0.4297   -0.0005   -0.1891
          13    0.0002   -0.0005    0.0214   -0.0001    0.1113   -0.0007   -0.1201    0.0003
          14    0.0001   -0.0009   -0.1694   -0.0005    0.3056   -0.0016    0.0661   -0.0003
          15   -0.2777   -0.3168   -0.0003    0.2955   -0.0009   -0.0173   -0.0003   -0.2142
          16   -0.0000   -0.0004   -0.0399   -0.0001    0.0033    0.0002    0.0764   -0.0002
          17   -0.0003    0.0004   -0.0372   -0.0000   -0.0150   -0.0000   -0.0054    0.0002
          18   -0.1699    0.1022    0.0007   -0.3561   -0.0012   -0.2470    0.0004    0.1639
          19    0.0325   -0.1715    0.2538   -0.4108   -0.2350    0.1978    0.3110   -0.4578
          20    0.2795   -0.1769    0.1196    0.0595    0.0065   -0.2075   -0.1803    0.0296
          21   -0.1091    0.0761   -0.0253    0.0046    0.0075    0.0567    0.0271    0.0193
          22   -0.0322    0.1712    0.2526    0.4114   -0.2345   -0.1941    0.3131    0.4590
          23   -0.2794    0.1772    0.1202   -0.0590    0.0097    0.2070   -0.1804   -0.0297
          24   -0.1090    0.0761    0.0253    0.0049   -0.0065    0.0566   -0.0268    0.0194
          25   -0.0039    0.3234   -0.2195    0.0994   -0.0851   -0.2601   -0.0241   -0.2502
          26    0.0013   -0.1790    0.2526   -0.0547    0.1699    0.1409    0.0442    0.1334
          27   -0.0019   -0.1036    0.0049   -0.0276   -0.0139    0.0737   -0.0050    0.0699
          28    0.0002    0.0031    0.3577    0.0015    0.5244   -0.0064    0.1705   -0.0042
          29   -0.0001   -0.0022   -0.0945   -0.0008   -0.1616    0.0030   -0.0574    0.0023
          30   -0.0050   -0.1277    0.0004   -0.0316    0.0006    0.0893    0.0000    0.0868
          31    0.0038   -0.3278   -0.2115   -0.1015   -0.0735    0.2651   -0.0217    0.2548
          32   -0.0010    0.1815    0.2477    0.0561    0.1637   -0.1455    0.0428   -0.1371
          33   -0.0019   -0.1035   -0.0051   -0.0277    0.0146    0.0734    0.0049    0.0697
          34   -0.0001    0.0000   -0.0128    0.0000    0.0450   -0.0004   -0.1220    0.0000
          35   -0.0001   -0.0003   -0.2074   -0.0006    0.0419    0.0001    0.5340   -0.0008
          36   -0.1565   -0.3186    0.0002   -0.1801   -0.0026   -0.3796    0.0001    0.1002
          37   -0.0001   -0.0002    0.0797    0.0001   -0.1319    0.0010   -0.2744    0.0017
          38    0.0001   -0.0003   -0.1232   -0.0003    0.2512   -0.0017    0.2506   -0.0017
          39    0.5703    0.3404    0.0004   -0.3796    0.0008    0.0424    0.0002    0.1651
          40    0.0000    0.0002    0.1042    0.0004   -0.3233    0.0022    0.2687   -0.0001
          41   -0.0000    0.0003    0.0372    0.0003   -0.1433    0.0010    0.1080    0.0000
          42    0.4642   -0.1244   -0.0010    0.4670    0.0014    0.2418   -0.0003   -0.1169


   Root No.      17        18        19        20        21        22        23        24

                17 A      18 A      19 A      20 A      21 A      22 A      23 A      24 A   

                1078.2    1128.9    1203.0    1273.5    1350.3    1364.9    1390.0    1391.1
  
           1    0.0386    0.1742    0.2719   -0.2879    0.4699   -0.0712   -0.0731    0.0024
           2    0.0344    0.2443   -0.0684    0.1816   -0.0643    0.4691   -0.0362    0.0008
           3   -0.0001   -0.0000    0.0001   -0.0000    0.0001   -0.0001   -0.0000   -0.0009
           4   -0.0903   -0.1223   -0.0466    0.0360   -0.2772   -0.0644   -0.1452   -0.0005
           5    0.0424    0.1268   -0.0729   -0.0082    0.1396    0.0044   -0.2161   -0.0002
           6   -0.0006   -0.0005   -0.0000    0.0007    0.0016    0.0007    0.0002   -0.2569
           7    0.0813    0.1082    0.1492   -0.3164   -0.2714    0.0065    0.1023   -0.0028
           8   -0.0290   -0.1773    0.1925    0.0309   -0.0847    0.0274    0.0086   -0.0002
           9    0.0007    0.0004   -0.0000   -0.0003   -0.0002   -0.0001    0.0000   -0.0062
          10    0.1218    0.2218   -0.0105    0.3244   -0.2074    0.1437    0.0232   -0.0007
          11   -0.0361   -0.0239   -0.1749   -0.2690    0.1550   -0.0800   -0.0235    0.0007
          12   -0.0002   -0.0001   -0.0000    0.0001   -0.0000    0.0000   -0.0000    0.0005
          13   -0.1303   -0.1719   -0.1912   -0.2595    0.0764   -0.2373    0.0613   -0.0011
          14   -0.0865   -0.2895    0.1076    0.1139   -0.0140   -0.0304   -0.0317    0.0003
          15   -0.0003   -0.0001   -0.0000   -0.0000    0.0001    0.0000    0.0000   -0.0006
          16    0.1128    0.1082   -0.1480    0.1129    0.0808    0.1571   -0.0862    0.0019
          17   -0.0605   -0.1487   -0.0971   -0.1068   -0.0180   -0.1040    0.0300   -0.0007
          18    0.0003    0.0001    0.0000    0.0000   -0.0000    0.0000    0.0000   -0.0010
          19   -0.2379   -0.0611   -0.3231    0.1896   -0.1511   -0.0309    0.0225    0.0013
          20    0.0655    0.1832    0.0576    0.2446    0.0091   -0.4207    0.0240   -0.0013
          21   -0.0072   -0.0572   -0.0017   -0.1558    0.0154    0.3594   -0.0276    0.0011
          22   -0.2370   -0.0605   -0.3231    0.1894   -0.1512   -0.0309    0.0226   -0.0028
          23    0.0655    0.1832    0.0576    0.2446    0.0091   -0.4209    0.0240    0.0002
          24    0.0072    0.0571    0.0016    0.1557   -0.0155   -0.3593    0.0276   -0.0003
          25   -0.0557   -0.0836   -0.0575    0.2118    0.3252    0.0814    0.3257    0.0234
          26    0.0374    0.0395    0.0556   -0.1455   -0.1995   -0.0066    0.3974   -0.4390
          27    0.0096    0.0246    0.0057   -0.0744   -0.1652   -0.0559   -0.3617    0.0960
          28   -0.0532   -0.2011    0.0783    0.2163    0.3132    0.0553   -0.3122    0.0085
          29    0.0183    0.0623   -0.0303   -0.0426   -0.0329   -0.0096    0.0211    0.0069
          30    0.0004    0.0005    0.0001   -0.0014   -0.0042   -0.0011    0.0091    0.7333
          31   -0.0541   -0.0840   -0.0556    0.2112    0.3260    0.0819    0.3297   -0.0267
          32    0.0363    0.0391    0.0545   -0.1437   -0.1985   -0.0065    0.4133    0.4315
          33   -0.0092   -0.0244   -0.0057    0.0743    0.1643    0.0548    0.3517    0.0816
          34    0.0840   -0.0052   -0.0686    0.0753   -0.0530    0.0413    0.0025   -0.0001
          35   -0.3258    0.5057    0.3936    0.0897   -0.0090    0.0155    0.0157   -0.0003
          36    0.0002    0.0000    0.0000    0.0000    0.0000   -0.0000   -0.0000   -0.0001
          37   -0.4517   -0.2713    0.3244    0.0450   -0.0711    0.0081    0.0029   -0.0003
          38    0.3703    0.1177   -0.3330   -0.0873    0.0848   -0.0916    0.0063   -0.0000
          39    0.0002    0.0001    0.0000    0.0000   -0.0000   -0.0000   -0.0000    0.0032
          40    0.5432   -0.3318    0.3397    0.2093   -0.0934    0.0202    0.0123   -0.0004
          41    0.1998   -0.2045    0.1353    0.0389   -0.0555   -0.0482    0.0264   -0.0006
          42   -0.0003   -0.0000   -0.0000   -0.0001    0.0000   -0.0000   -0.0000   -0.0002


   Root No.      25        26        27        28        29        30        31        32

                25 A      26 A      27 A      28 A      29 A      30 A      31 A      32 A   

                1413.0    1471.2    1746.7    1825.9    2984.6    3052.6    3068.4    3077.2
  
           1    0.0541   -0.3076    0.0122    0.0268    0.0000   -0.0383   -0.0000    0.0022
           2   -0.1977   -0.1332   -0.0369   -0.0077   -0.0000   -0.2149   -0.0001    0.0010
           3    0.0001   -0.0000   -0.0000    0.0000   -0.3034   -0.0000   -0.0017   -0.0001
           4    0.0684   -0.4334    0.0762    0.1383    0.0000   -0.0012    0.0012   -0.1449
           5   -0.1147    0.2033   -0.0516   -0.1070    0.0000   -0.0022    0.0018   -0.2598
           6    0.0004   -0.0004    0.0001    0.0001    0.0010    0.0002   -0.2954   -0.0022
           7    0.0604    0.6203   -0.1652   -0.2707   -0.0000   -0.0024    0.0001   -0.0018
           8    0.1470    0.2075    0.2166    0.6707    0.0000   -0.0038   -0.0000    0.0002
           9   -0.0000   -0.0001   -0.0000   -0.0001   -0.0015   -0.0000   -0.0005   -0.0000
          10   -0.1652    0.0515    0.2887   -0.0496   -0.0000    0.0063    0.0000   -0.0003
          11    0.2662    0.0737    0.5928   -0.1820    0.0000   -0.0028   -0.0000    0.0002
          12   -0.0000    0.0000   -0.0001    0.0000   -0.0013   -0.0000    0.0001   -0.0000
          13   -0.5337   -0.0336    0.0522    0.1193    0.0000   -0.0026   -0.0001   -0.0005
          14    0.1070   -0.2472   -0.1151   -0.5618    0.0000    0.0003   -0.0000    0.0016
          15   -0.0000    0.0000    0.0000    0.0001   -0.0009   -0.0000   -0.0004    0.0000
          16    0.5806   -0.0462   -0.3450    0.1197    0.0000    0.0023    0.0000    0.0001
          17   -0.1225    0.0112   -0.5465    0.1860   -0.0000   -0.0007   -0.0000   -0.0002
          18    0.0000    0.0000    0.0001   -0.0000   -0.0010    0.0000   -0.0003    0.0000
          19   -0.0127    0.0544    0.0161   -0.0383    0.0732    0.0673    0.0003    0.0003
          20    0.0566    0.0133   -0.0133    0.0031    0.4044    0.3709    0.0017   -0.0028
          21   -0.0680   -0.0466    0.0057    0.0046    0.5337    0.5776    0.0023   -0.0039
          22   -0.0126    0.0543    0.0161   -0.0384   -0.0733    0.0674   -0.0003    0.0003
          23    0.0566    0.0134   -0.0132    0.0031   -0.4043    0.3705   -0.0013   -0.0029
          24    0.0680    0.0466   -0.0057   -0.0046    0.5341   -0.5776    0.0016    0.0040
          25   -0.0263    0.0577   -0.0016   -0.0053   -0.0014    0.0008    0.3688    0.2089
          26    0.0898   -0.1265    0.0118    0.0241   -0.0007    0.0002    0.1844    0.0776
          27   -0.0102   -0.0453    0.0051    0.0091   -0.0021    0.0014    0.5234    0.3563
          28   -0.0556    0.3000    0.0014    0.0284    0.0000   -0.0003   -0.0020    0.1035
          29   -0.0143   -0.0168   -0.0100   -0.0247   -0.0001    0.0063   -0.0137    0.7536
          30   -0.0000   -0.0007   -0.0000   -0.0001   -0.0003   -0.0000   -0.0435   -0.0088
          31   -0.0254    0.0594   -0.0015   -0.0049    0.0014    0.0011   -0.3709    0.1909
          32    0.0890   -0.1255    0.0114    0.0233    0.0006    0.0004   -0.1768    0.0637
          33    0.0087    0.0475   -0.0052   -0.0093   -0.0022   -0.0019    0.5458   -0.3400
          34   -0.0007    0.0251    0.1472   -0.0310    0.0000   -0.0183   -0.0000    0.0011
          35   -0.2307   -0.0529   -0.0317    0.0084   -0.0000   -0.0049   -0.0000    0.0002
          36   -0.0000   -0.0000    0.0000    0.0000   -0.0013    0.0000   -0.0001   -0.0000
          37    0.0446    0.0057    0.0112   -0.1314    0.0000    0.0123    0.0002   -0.0033
          38   -0.1684   -0.0940   -0.0463   -0.0469    0.0000    0.0133    0.0002   -0.0029
          39    0.0000   -0.0000    0.0000    0.0000   -0.0009   -0.0000    0.0003    0.0000
          40   -0.1339   -0.0424    0.0906   -0.0681   -0.0000   -0.0067   -0.0000   -0.0003
          41   -0.1731   -0.0092   -0.1134    0.0158    0.0000    0.0168    0.0000    0.0007
          42    0.0001    0.0000    0.0000   -0.0000   -0.0010   -0.0000    0.0000    0.0000


   Root No.      33        34        35        36

                33 A      34 A      35 A      36 A   

                3133.8    3140.5    3154.4    3168.8
  
           1   -0.0009    0.0017   -0.0018   -0.0004
           2    0.0013    0.0050   -0.0123    0.0003
           3    0.0000    0.0000   -0.0000   -0.0000
           4    0.0001    0.0006   -0.0016    0.1286
           5    0.0013   -0.0023    0.0018   -0.0804
           6   -0.0000    0.0001   -0.0000    0.0005
           7    0.0006   -0.0046    0.0087    0.0011
           8   -0.0043    0.0205   -0.0102   -0.0015
           9    0.0000   -0.0000    0.0000    0.0000
          10   -0.1258   -0.1183   -0.2331   -0.0019
          11   -0.0123   -0.0216   -0.0574   -0.0005
          12    0.0000    0.0000    0.0000   -0.0000
          13    0.0600   -0.1747    0.0671    0.0002
          14    0.0700   -0.2004    0.0700    0.0029
          15    0.0000   -0.0000    0.0000    0.0000
          16    0.0895    0.0186   -0.0524   -0.0000
          17   -0.2210   -0.0228    0.1703    0.0010
          18    0.0000    0.0000   -0.0000    0.0000
          19   -0.0012   -0.0014    0.0004    0.0003
          20    0.0005   -0.0030    0.0114   -0.0006
          21    0.0001   -0.0050    0.0165   -0.0007
          22   -0.0012   -0.0014    0.0004    0.0003
          23    0.0005   -0.0030    0.0114   -0.0007
          24   -0.0001    0.0050   -0.0165    0.0007
          25    0.0002   -0.0002    0.0019   -0.2801
          26    0.0002   -0.0004    0.0011   -0.1577
          27    0.0002   -0.0005    0.0032   -0.4584
          28   -0.0007    0.0013   -0.0013    0.1094
          29   -0.0031    0.0041   -0.0057    0.5833
          30    0.0000   -0.0000    0.0001   -0.0063
          31    0.0001   -0.0001    0.0018   -0.2737
          32    0.0002   -0.0003    0.0010   -0.1481
          33   -0.0001    0.0003   -0.0031    0.4630
          34    0.4412    0.4061    0.7299    0.0055
          35    0.0623    0.0595    0.1081    0.0008
          36   -0.0001   -0.0000   -0.0001   -0.0000
          37   -0.2068    0.5934   -0.2022   -0.0038
          38   -0.2195    0.6189   -0.2085   -0.0043
          39   -0.0000    0.0000   -0.0000    0.0000
          40   -0.3130   -0.0425    0.2046    0.0011
          41    0.7288    0.0894   -0.4789   -0.0025
          42   -0.0001   -0.0000    0.0001    0.0000


          DESCRIPTION OF VIBRATIONS


 VIBRATION    1    1A         ATOM PAIR      ENERGY CONTRIBUTION    RADIAL
 FREQ.        29.74         C  2 -- H 11         +31.9% (999.0%)      0.0%
 T-DIPOLE    0.0342         C  2 -- H  9         +31.8% (999.0%)      0.0%
 TRAVEL      0.1438         C  2 -- H 10         +30.1% (999.0%)      0.0%
 RED. MASS   0.3083         C  1 -- C  3          +1.3% (395.1%)      0.0%
 EFF. MASS 109.6578

 VIBRATION    2    2A         ATOM PAIR      ENERGY CONTRIBUTION    RADIAL
 FREQ.       214.53         C  2 -- C  3         +14.8% (224.1%)      0.0%
 T-DIPOLE    0.0232         C  1 -- C  4         +13.4% (213.0%)      0.0%
 TRAVEL      0.0744         C  2 -- H 10         +10.0% (184.1%)      0.0%
 RED. MASS   0.9361         C  2 -- H  9          +8.6% (170.9%)     68.6%
 EFF. MASS  56.7579

 VIBRATION    3    3A         ATOM PAIR      ENERGY CONTRIBUTION    RADIAL
 FREQ.       337.75         C  2 -- C  3         +17.7% (223.3%)      0.0%
 T-DIPOLE    0.0593         C  3 -- C  6          +8.2% (151.9%)      0.1%
 TRAVEL      0.0783         C  1 -- C  3          +8.0% (149.9%)      0.4%
 RED. MASS   1.2122         C  2 -- H  9          +7.9% (149.4%)     36.4%
 EFF. MASS  32.6007

 VIBRATION    4    4A         ATOM PAIR      ENERGY CONTRIBUTION    RADIAL
 FREQ.       408.68         C  1 -- H  8         +14.2% ( 96.3%)      4.3%
 T-DIPOLE    0.3542         C  1 -- H  7         +14.2% ( 96.3%)      4.3%
 TRAVEL      0.1132         C  4 -- C  6         +11.7% ( 87.4%)      0.0%
 RED. MASS   0.9187         C  3 -- C  6         +10.2% ( 81.6%)      0.0%
 EFF. MASS  12.8672

 VIBRATION    5    5A         ATOM PAIR      ENERGY CONTRIBUTION    RADIAL
 FREQ.       498.78         C  3 -- C  5         +19.4% ( 88.9%)      0.0%
 T-DIPOLE    0.2438         C  3 -- C  6         +12.8% ( 72.2%)      0.0%
 TRAVEL      0.1111         C  5 -- C  6         +10.0% ( 63.9%)      0.0%
 RED. MASS   1.1255         C  2 -- C  3          +9.4% ( 61.7%)      0.0%
 EFF. MASS  10.9575

 VIBRATION    6    6A         ATOM PAIR      ENERGY CONTRIBUTION    RADIAL
 FREQ.       650.22         C  2 -- H  9          +9.9% ( 97.7%)     17.1%
 T-DIPOLE    0.0649         C  2 -- H 11          +9.9% ( 97.7%)     17.1%
 TRAVEL      0.0808         C  2 -- H 10          +9.9% ( 97.7%)     10.1%
 RED. MASS   1.9912         C  2 -- C  3          +8.9% ( 92.6%)     96.9%
 EFF. MASS  15.8738

 VIBRATION    7    7A         ATOM PAIR      ENERGY CONTRIBUTION    RADIAL
 FREQ.       742.97         C  4 -- H 12         +32.6% ( 77.4%)      0.0%
 T-DIPOLE    0.5763         C  6 -- H 14         +17.2% ( 56.2%)      0.0%
 TRAVEL      0.1895         C  1 -- H  7         +12.6% ( 48.1%)     10.0%
 RED. MASS   0.3297         C  1 -- H  8         +12.6% ( 48.1%)     10.1%
 EFF. MASS   2.5266

 VIBRATION    8    8A         ATOM PAIR      ENERGY CONTRIBUTION    RADIAL
 FREQ.       822.05         C  4 -- C  6         +15.3% (112.9%)      0.0%
 T-DIPOLE    0.1960         C  5 -- C  6         +14.9% (111.4%)      0.1%
 TRAVEL      0.0716         C  4 -- C  5         +14.8% (111.0%)     99.5%
 RED. MASS   2.6635         C  3 -- C  6         +13.8% (107.2%)     68.0%
 EFF. MASS  16.0135

 VIBRATION    9    9A         ATOM PAIR      ENERGY CONTRIBUTION    RADIAL
 FREQ.       871.26         C  5 -- H 13         +22.9% ( 64.0%)      0.0%
 T-DIPOLE    0.3692         C  1 -- H  8         +16.3% ( 54.1%)     15.9%
 TRAVEL      0.1455         C  1 -- H  7         +16.3% ( 54.0%)     15.9%
 RED. MASS   0.4920         C  6 -- H 14         +13.6% ( 49.4%)      0.0%
 EFF. MASS   3.6572         C  1 -- C  3         +12.0% ( 46.4%)      0.0%
                            C  1 -- C  4         +11.9% ( 46.2%)      0.0%

 VIBRATION   10   10A         ATOM PAIR      ENERGY CONTRIBUTION    RADIAL
 FREQ.       892.13         C  2 -- H 11         +14.1% ( 53.2%)      8.0%
 T-DIPOLE    0.0517         C  2 -- H  9         +13.9% ( 52.8%)      8.0%
 TRAVEL      0.1303         C  5 -- H 13         +10.3% ( 45.5%)      0.0%
 RED. MASS   0.3635         C  1 -- H  7          +8.9% ( 42.3%)     15.1%
 EFF. MASS   4.4539

 VIBRATION   11   11A         ATOM PAIR      ENERGY CONTRIBUTION    RADIAL
 FREQ.       936.64         C  1 -- C  3         +14.6% ( 66.8%)     78.6%
 T-DIPOLE    0.1345         C  1 -- C  4         +13.6% ( 64.4%)      0.1%
 TRAVEL      0.1008         C  2 -- H 10         +11.8% ( 60.0%)      5.3%
 RED. MASS   0.8765         C  1 -- H  7         +11.2% ( 58.5%)     44.4%
 EFF. MASS   7.0904         C  1 -- H  8         +11.2% ( 58.4%)     44.6%

 VIBRATION   12   12A         ATOM PAIR      ENERGY CONTRIBUTION    RADIAL
 FREQ.       960.33         C  6 -- H 14         +23.3% ( 54.2%)      0.0%
 T-DIPOLE    0.0647         C  5 -- H 13         +15.5% ( 44.2%)      0.0%
 TRAVEL      0.1530         C  1 -- H  8         +15.3% ( 43.9%)      0.1%
 RED. MASS   0.4165         C  1 -- H  7         +15.3% ( 43.9%)      0.1%
 EFF. MASS   2.9984

 VIBRATION   13   13A         ATOM PAIR      ENERGY CONTRIBUTION    RADIAL
 FREQ.       992.90         C  2 -- H 10         +16.3% ( 64.6%)     21.3%
 T-DIPOLE    0.0281         C  4 -- C  5         +10.7% ( 52.4%)      4.2%
 TRAVEL      0.1112         C  5 -- H 13          +9.0% ( 48.2%)     69.3%
 RED. MASS   0.4660         C  5 -- C  6          +8.8% ( 47.6%)      2.2%
 EFF. MASS   5.4960

 VIBRATION   14   14A         ATOM PAIR      ENERGY CONTRIBUTION    RADIAL
 FREQ.      1004.18         C  4 -- H 12         +14.2% ( 48.3%)      0.0%
 T-DIPOLE    0.0882         C  1 -- C  4         +10.3% ( 41.1%)      0.0%
 TRAVEL      0.1133         C  2 -- H 11          +9.5% ( 39.4%)     10.1%
 RED. MASS   0.6464         C  2 -- H  9          +9.2% ( 38.9%)     10.1%
 EFF. MASS   5.2292

 VIBRATION   15   15A         ATOM PAIR      ENERGY CONTRIBUTION    RADIAL
 FREQ.      1035.04         C  4 -- H 12         +19.3% ( 56.9%)      7.6%
 T-DIPOLE    0.1422         C  1 -- C  4         +13.8% ( 48.0%)     93.0%
 TRAVEL      0.1314         C  1 -- H  8         +11.8% ( 44.3%)     14.9%
 RED. MASS   0.2808         C  1 -- H  7         +11.7% ( 44.2%)     15.2%
 EFF. MASS   3.7722

 VIBRATION   16   16A         ATOM PAIR      ENERGY CONTRIBUTION    RADIAL
 FREQ.      1052.24         C  1 -- H  8         +15.2% ( 44.9%)      1.0%
 T-DIPOLE    0.0831         C  1 -- H  7         +15.2% ( 44.7%)      0.9%
 TRAVEL      0.1246         C  2 -- C  3         +10.6% ( 37.5%)      0.0%
 RED. MASS   0.5724         C  2 -- H 11         +10.0% ( 36.4%)     10.7%
 EFF. MASS   4.1277

 VIBRATION   17   17A         ATOM PAIR      ENERGY CONTRIBUTION    RADIAL
 FREQ.      1078.22         C  5 -- H 13         +27.7% ( 59.6%)      3.7%
 T-DIPOLE    0.0448         C  6 -- H 14         +25.7% ( 57.5%)      1.9%
 TRAVEL      0.1706         C  4 -- H 12          +9.1% ( 34.3%)      7.5%
 RED. MASS   0.2663         C  5 -- C  6          +6.0% ( 27.8%)     92.2%
 EFF. MASS   2.1477

 VIBRATION   18   18A         ATOM PAIR      ENERGY CONTRIBUTION    RADIAL
 FREQ.      1128.94         C  4 -- H 12         +12.2% ( 53.9%)      6.4%
 T-DIPOLE    0.1147         C  4 -- C  5         +11.2% ( 51.8%)     96.8%
 TRAVEL      0.1017         C  5 -- C  6         +10.2% ( 49.3%)     64.1%
 RED. MASS   0.4315         C  5 -- H 13          +8.8% ( 45.9%)     28.9%
 EFF. MASS   5.7695

 VIBRATION   19   19A         ATOM PAIR      ENERGY CONTRIBUTION    RADIAL
 FREQ.      1202.98         C  5 -- H 13         +16.7% ( 51.5%)      0.3%
 T-DIPOLE    0.0215         C  4 -- H 12         +12.2% ( 44.1%)      0.2%
 TRAVEL      0.1401         C  6 -- H 14         +10.9% ( 41.6%)      0.2%
 RED. MASS   0.2824         C  1 -- H  8         +10.8% ( 41.4%)      0.0%
 EFF. MASS   2.8538         C  1 -- H  7         +10.8% ( 41.4%)      0.0%

 VIBRATION   20   20A         ATOM PAIR      ENERGY CONTRIBUTION    RADIAL
 FREQ.      1273.50         C  1 -- C  4         +15.8% ( 57.5%)     95.3%
 T-DIPOLE    0.1148         C  4 -- C  5         +10.6% ( 47.0%)     29.8%
 TRAVEL      0.0895         C  1 -- H  7          +7.8% ( 40.3%)      0.6%
 RED. MASS   0.7913         C  1 -- H  8          +7.8% ( 40.3%)      0.6%
 EFF. MASS   6.6166

 VIBRATION   21   21A         ATOM PAIR      ENERGY CONTRIBUTION    RADIAL
 FREQ.      1350.27         C  1 -- C  3         +14.4% ( 51.5%)     79.8%
 T-DIPOLE    0.0884         C  1 -- C  4         +13.4% ( 49.7%)     73.5%
 TRAVEL      0.0921         C  2 -- H  9         +11.4% ( 45.9%)      2.5%
 RED. MASS   0.9242         C  2 -- H 11         +11.4% ( 45.8%)      2.6%
 EFF. MASS   5.8905

 VIBRATION   22   22A         ATOM PAIR      ENERGY CONTRIBUTION    RADIAL
 FREQ.      1364.91         C  1 -- H  8         +24.2% ( 61.6%)      5.6%
 T-DIPOLE    0.3282         C  1 -- H  7         +24.2% ( 61.6%)      5.6%
 TRAVEL      0.1008         C  1 -- C  4         +14.4% ( 47.5%)     88.6%
 RED. MASS   0.8627         C  1 -- C  3         +10.6% ( 40.8%)      9.8%
 EFF. MASS   4.8648

 VIBRATION   23   23A         ATOM PAIR      ENERGY CONTRIBUTION    RADIAL
 FREQ.      1389.99         C  2 -- H 11         +36.7% ( 55.4%)      1.7%
 T-DIPOLE    0.1078         C  2 -- H  9         +35.9% ( 54.8%)      1.9%
 TRAVEL      0.1574         C  2 -- H 10          +9.5% ( 28.2%)     54.2%
 RED. MASS   0.3888         C  2 -- C  3          +6.4% ( 23.2%)     10.4%
 EFF. MASS   1.9592

 VIBRATION   24   24A         ATOM PAIR      ENERGY CONTRIBUTION    RADIAL
 FREQ.      1391.06         C  2 -- H 10         +54.1% ( 63.5%)      0.0%
 T-DIPOLE    0.0542         C  2 -- H  9         +20.8% ( 39.4%)     11.2%
 TRAVEL      0.1760         C  2 -- H 11         +20.0% ( 38.6%)     12.0%
 RED. MASS   0.4230         C  2 -- C  3          +5.1% ( 19.5%)      0.0%
 EFF. MASS   1.5643

 VIBRATION   25   25A         ATOM PAIR      ENERGY CONTRIBUTION    RADIAL
 FREQ.      1412.96         C  5 -- C  6         +25.2% ( 83.2%)     99.9%
 T-DIPOLE    0.3454         C  4 -- C  6         +11.7% ( 56.8%)      0.1%
 TRAVEL      0.0679         C  4 -- C  5         +10.5% ( 53.6%)    100.0%
 RED. MASS   2.6990         C  3 -- C  6         +10.4% ( 53.5%)     91.8%
 EFF. MASS  10.3406

 VIBRATION   26   26A         ATOM PAIR      ENERGY CONTRIBUTION    RADIAL
 FREQ.      1471.19         C  2 -- C  3         +21.7% ( 75.2%)     76.2%
 T-DIPOLE    0.2066         C  1 -- C  3         +17.3% ( 67.1%)     98.0%
 TRAVEL      0.0669         C  3 -- C  5         +14.4% ( 61.4%)     19.1%
 RED. MASS   3.0380         C  3 -- C  6         +10.8% ( 53.0%)     24.3%
 EFF. MASS  10.2459

 VIBRATION   27   27A         ATOM PAIR      ENERGY CONTRIBUTION    RADIAL
 FREQ.      1746.67         C  4 -- C  6         +32.4% ( 96.2%)    100.0%
 T-DIPOLE    0.4044         C  3 -- C  6         +11.4% ( 57.0%)     26.3%
 TRAVEL      0.0568         C  4 -- C  5         +10.1% ( 53.8%)     45.0%
 RED. MASS   4.4370         C  1 -- C  4         +10.1% ( 53.7%)     18.2%
 EFF. MASS  11.9513

 VIBRATION   28   28A         ATOM PAIR      ENERGY CONTRIBUTION    RADIAL
 FREQ.      1825.95         C  3 -- C  5         +30.5% ( 92.0%)     97.7%
 T-DIPOLE    0.4550         C  2 -- C  3         +14.3% ( 62.9%)     69.9%
 TRAVEL      0.0559         C  3 -- C  6         +13.4% ( 60.8%)     98.5%
 RED. MASS   4.6493         C  1 -- C  3         +12.3% ( 58.3%)      0.6%
 EFF. MASS  11.8162

 VIBRATION   29   29A         ATOM PAIR      ENERGY CONTRIBUTION    RADIAL
 FREQ.      2984.63         C  1 -- H  8         +49.0% ( 72.4%)     96.8%
 T-DIPOLE    0.1540         C  1 -- H  7         +48.9% ( 72.4%)     96.8%
 TRAVEL      0.1214         C  1 -- C  4          +1.1% ( 10.7%)      0.0%
 RED. MASS   0.5172         C  1 -- C  3          +1.1% ( 10.7%)      0.0%
 EFF. MASS   1.5318

 VIBRATION   30   30A         ATOM PAIR      ENERGY CONTRIBUTION    RADIAL
 FREQ.      3052.62         C  1 -- H  7         +49.2% ( 69.4%)     97.3%
 T-DIPOLE    0.2704         C  1 -- H  8         +49.2% ( 69.3%)     97.3%
 TRAVEL      0.1310         C  1 -- C  3          +0.7% (  8.5%)     37.7%
 RED. MASS   0.4832         C  1 -- C  4          +0.7% (  8.5%)     36.3%
 EFF. MASS   1.2869

 VIBRATION   31   31A         ATOM PAIR      ENERGY CONTRIBUTION    RADIAL
 FREQ.      3068.44         C  2 -- H 11         +50.2% ( 73.1%)     97.2%
 T-DIPOLE    0.0401         C  2 -- H  9         +47.9% ( 71.4%)     96.8%
 TRAVEL      0.1210         C  2 -- C  3          +1.0% ( 10.2%)      0.0%
 RED. MASS   0.5096         C  2 -- H 10          +0.9% ( 10.0%)      0.5%
 EFF. MASS   1.5022

 VIBRATION   32   32A         ATOM PAIR      ENERGY CONTRIBUTION    RADIAL
 FREQ.      3077.23         C  2 -- H 10         +62.4% ( 81.5%)     98.8%
 T-DIPOLE    0.0440         C  2 -- H  9         +19.4% ( 45.4%)     86.3%
 TRAVEL      0.1204         C  2 -- H 11         +17.2% ( 42.8%)     84.3%
 RED. MASS   0.4876         C  2 -- C  3          +1.0% ( 10.5%)      0.0%
 EFF. MASS   1.5127

 VIBRATION   33   33A         ATOM PAIR      ENERGY CONTRIBUTION    RADIAL
 FREQ.      3133.76         C  6 -- H 14         +65.5% ( 83.0%)    100.0%
 T-DIPOLE    0.2381         C  4 -- H 12         +20.6% ( 46.5%)    100.0%
 TRAVEL      0.1200         C  5 -- H 13          +9.5% ( 31.6%)    100.0%
 RED. MASS   0.4898         C  5 -- C  6          +1.2% ( 11.3%)      7.5%
 EFF. MASS   1.4940

 VIBRATION   34   34A         ATOM PAIR      ENERGY CONTRIBUTION    RADIAL
 FREQ.      3140.51         C  5 -- H 13         +76.6% ( 89.8%)    100.0%
 T-DIPOLE    0.4953         C  4 -- H 12         +17.4% ( 42.8%)    100.0%
 TRAVEL      0.1180         C  4 -- C  5          +1.5% ( 12.6%)     43.3%
 RED. MASS   0.6360         C  3 -- C  5          +1.5% ( 12.4%)     47.3%
 EFF. MASS   1.5411

 VIBRATION   35   35A         ATOM PAIR      ENERGY CONTRIBUTION    RADIAL
 FREQ.      3154.39         C  4 -- H 12         +56.6% ( 77.4%)    100.0%
 T-DIPOLE    0.3922         C  6 -- H 14         +28.3% ( 54.7%)     99.9%
 TRAVEL      0.1135         C  5 -- H 13          +8.8% ( 30.5%)    100.0%
 RED. MASS   0.4332         C  4 -- C  6          +2.2% ( 15.1%)     97.5%
 EFF. MASS   1.6580

 VIBRATION   36   36A         ATOM PAIR      ENERGY CONTRIBUTION    RADIAL
 FREQ.      3168.85         C  2 -- H 10         +36.2% ( 58.0%)     97.5%
 T-DIPOLE    0.0635         C  2 -- H  9         +31.9% ( 54.4%)     96.9%
 TRAVEL      0.1366         C  2 -- H 11         +31.6% ( 54.1%)     96.9%
 RED. MASS   0.3281         C  2 -- C  3          +0.3% (  5.5%)     99.8%
 EFF. MASS   1.1399

      SYMMETRY NUMBER FOR POINT-GROUP C1  =  1


          SYSTEM IS A GROUND STATE



 InChI=1S/C6H8/c1-6-4-2-3-5-6/h2-4H,5H2,1H3


          MOLECULE IS NOT LINEAR

          THERE ARE 36 GENUINE VIBRATIONS IN THIS SYSTEM
          THIS THERMODYNAMICS CALCULATION IS LIMITED TO
          MOLECULES WHICH HAVE NO INTERNAL ROTATIONS




                    CALCULATED THERMODYNAMIC PROPERTIES
                                          *
   TEMP. (K)   PARTITION FUNCTION   H.O.F.    ENTHALPY  HEAT CAPACITY ENTROPY
                                   KCAL/MOL   CAL/MOLE    CAL/K/MOL  CAL/K/MOL


 298.00  VIB.     0.2230D+02                  1936.5832    15.3564    12.6677
         ROT.     0.1095D+06                   888.2813     2.9808    26.0389
         INT.     0.2440D+07                  2824.8645    18.3372    38.7066
         TRA.     0.6934D+27                  1480.4688     4.9680    39.0554
         TOT.                       21.852    4305.3333    23.3052    77.7621

 200.00  VIB.     0.8073D+01                   782.9486     8.4451     8.0650
         ROT.     0.6018D+05                   596.1620     2.9808    24.8503
         INT.     0.4858D+06                  1379.1106    11.4259    32.9152
         TRA.     0.3813D+27                   993.6033     4.9680    37.0743
         TOT.                       19.919    2372.7138    16.3939    69.9895

 210.00  VIB.     0.8912D+01                   870.4845     9.0663     8.4919
         ROT.     0.6475D+05                   625.9700     2.9808    24.9957
         INT.     0.5770D+06                  1496.4546    12.0471    33.4876
         TRA.     0.4102D+27                  1043.2834     4.9680    37.3167
         TOT.                       20.086    2539.7380    17.0152    70.8043

 220.00  VIB.     0.9847D+01                   964.3572     9.7122     8.9285
         ROT.     0.6943D+05                   655.7781     2.9808    25.1344
         INT.     0.6837D+06                  1620.1353    12.6930    34.0629
         TRA.     0.4399D+27                  1092.9636     4.9680    37.5478
         TOT.                       20.260    2713.0989    17.6610    71.6107

 230.00  VIB.     0.1089D+02                  1064.8039    10.3808     9.3749
         ROT.     0.7422D+05                   685.5862     2.9808    25.2669
         INT.     0.8083D+06                  1750.3901    13.3616    34.6418
         TRA.     0.4702D+27                  1142.6437     4.9680    37.7686
         TOT.                       20.440    2893.0338    18.3297    72.4104

 240.00  VIB.     0.1206D+02                  1172.0434    11.0704     9.8312
         ROT.     0.7911D+05                   715.3943     2.9808    25.3937
         INT.     0.9540D+06                  1887.4377    14.0512    35.2249
         TRA.     0.5012D+27                  1192.3239     4.9680    37.9801
         TOT.                       20.626    3079.7616    19.0192    73.2050

 250.00  VIB.     0.1337D+02                  1286.2727    11.7784    10.2974
         ROT.     0.8411D+05                   745.2024     2.9808    25.5154
         INT.     0.1124D+07                  2031.4751    14.7592    35.8128
         TRA.     0.5328D+27                  1242.0041     4.9680    38.1829
         TOT.                       20.820    3273.4792    19.7272    73.9957

 260.00  VIB.     0.1483D+02                  1407.6650    12.5025    10.7734
         ROT.     0.8920D+05                   775.0105     2.9808    25.6323
         INT.     0.1323D+07                  2182.6755    15.4833    36.4057
         TRA.     0.5651D+27                  1291.6842     4.9680    38.3777
         TOT.                       21.021    3474.3598    20.4514    74.7835

 270.00  VIB.     0.1648D+02                  1536.3685    13.2402    11.2591
         ROT.     0.9440D+05                   804.8186     2.9808    25.7448
         INT.     0.1556D+07                  2341.1872    16.2210    37.0039
         TRA.     0.5980D+27                  1341.3644     4.9680    38.5652
         TOT.                       21.229    3682.5515    21.1890    75.5691

 280.00  VIB.     0.1834D+02                  1672.5060    13.9889    11.7541
         ROT.     0.9969D+05                   834.6267     2.9808    25.8532
         INT.     0.1828D+07                  2507.1328    16.9697    37.6073
         TRA.     0.6316D+27                  1391.0445     4.9680    38.7459
         TOT.                       21.445    3898.1773    21.9377    76.3532

 290.00  VIB.     0.2043D+02                  1816.1752    14.7461    12.2582
         ROT.     0.1051D+06                   864.4348     2.9808    25.9578
         INT.     0.2147D+07                  2680.6100    17.7269    38.2160
         TRA.     0.6657D+27                  1440.7247     4.9680    38.9202
         TOT.                       21.668    4121.3347    22.6950    77.1362

 300.00  VIB.     0.2279D+02                  1967.4491    15.5095    12.7709
         ROT.     0.1106D+06                   894.2429     2.9808    26.0589
         INT.     0.2520D+07                  2861.6920    18.4903    38.8298
         TRA.     0.7004D+27                  1490.4049     4.9680    39.0887
         TOT.                       21.899    4352.0969    23.4583    77.9185

 310.00  VIB.     0.2546D+02                  2126.3774    16.2767    13.2920
         ROT.     0.1161D+06                   924.0510     2.9808    26.1566
         INT.     0.2957D+07                  3050.4284    19.2575    39.4486
         TRA.     0.7357D+27                  1540.0850     4.9680    39.2516
         TOT.                       22.137    4590.5134    24.2255    78.7002

 320.00  VIB.     0.2848D+02                  2292.9879    17.0456    13.8209
         ROT.     0.1218D+06                   953.8591     2.9808    26.2512
         INT.     0.3468D+07                  3246.8470    20.0264    40.0721
         TRA.     0.7716D+27                  1589.7652     4.9680    39.4093
         TOT.                       22.383    4836.6122    24.9944    79.4814

 330.00  VIB.     0.3189D+02                  2467.2879    17.8142    14.3572
         ROT.     0.1276D+06                   983.6672     2.9808    26.3430
         INT.     0.4068D+07                  3450.9552    20.7951    40.7002
         TRA.     0.8081D+27                  1639.4454     4.9680    39.5622
         TOT.                       22.637    5090.4005    25.7631    80.2623

 340.00  VIB.     0.3577D+02                  2649.2660    18.5809    14.9004
         ROT.     0.1334D+06                  1013.4753     2.9808    26.4320
         INT.     0.4771D+07                  3662.7413    21.5617    41.3323
         TRA.     0.8451D+27                  1689.1255     4.9680    39.7105
         TOT.                       22.899    5351.8668    26.5297    81.0428

 350.00  VIB.     0.4017D+02                  2838.8936    19.3439    15.4500
         ROT.     0.1393D+06                  1043.2834     2.9808    26.5184
         INT.     0.5596D+07                  3882.1770    22.3247    41.9684
         TRA.     0.8827D+27                  1738.8057     4.9680    39.8545
         TOT.                       23.168    5620.9827    27.2927    81.8229

 360.00  VIB.     0.4517D+02                  3036.1271    20.1018    16.0056
         ROT.     0.1453D+06                  1073.0915     2.9808    26.6023
         INT.     0.6564D+07                  4109.2186    23.0826    42.6079
         TRA.     0.9207D+27                  1788.4859     4.9680    39.9944
         TOT.                       23.444    5897.7044    28.0507    82.6024

 370.00  VIB.     0.5085D+02                  3240.9092    20.8534    16.5666
         ROT.     0.1514D+06                  1102.8996     2.9808    26.6840
         INT.     0.7700D+07                  4343.8088    23.8342    43.2506
         TRA.     0.9594D+27                  1838.1660     4.9680    40.1306
         TOT.                       23.729    6181.9748    28.8023    83.3812

 380.00  VIB.     0.5732D+02                  3453.1709    21.5976    17.1326
         ROT.     0.1576D+06                  1132.7077     2.9808    26.7635
         INT.     0.9034D+07                  4585.8786    24.5784    43.8961
         TRA.     0.9985D+27                  1887.8462     4.9680    40.2630
         TOT.                       24.020    6473.7248    29.5464    84.1592

 390.00  VIB.     0.6468D+02                  3672.8328    22.3333    17.7032
         ROT.     0.1639D+06                  1162.5158     2.9808    26.8409
         INT.     0.1060D+08                  4835.3486    25.3141    44.5441
         TRA.     0.1038D+28                  1937.5263     4.9680    40.3921
         TOT.                       24.320    6772.8750    30.2822    84.9362

 400.00  VIB.     0.7308D+02                  3899.8070    23.0599    18.2778
         ROT.     0.1702D+06                  1192.3239     2.9808    26.9164
         INT.     0.1244D+08                  5092.1309    26.0407    45.1942
         TRA.     0.1078D+28                  1987.2065     4.9680    40.5179
         TOT.                       24.626    7079.3374    31.0087    85.7121

   *: NOTE: HEATS OF FORMATION ARE RELATIVE TO THE
            ELEMENTS IN THEIR STANDARD STATE AT 298K
              (=  Standard Enthalpy of Formation).

            Hvib:  Zero-point energy is not included.
                   frequencies of less than zero cm-1 are not included.
            Hrot = (3/2)RT
            Htra = (3/2)RT + pV = (5/2)RT

            Heat capacity is Cp, not Cv

          For more information, see: HTTP://OpenMOPAC.net/Manual/thermochemistry.html


           FORCE CONSTANT IN CARTESIAN COORDINATES (Millidynes/A)

    ATOM   CHEMICAL       X               Y               Z
   NUMBER   SYMBOL  FORCE CONSTANT  FORCE CONSTANT  FORCE CONSTANT

      1       C        7.705910        9.999857        7.802349
      2       C        8.998514        8.713136        7.928791
      3       C       11.256394       13.850306        2.720534
      4       C       12.767064       11.661788        2.326473
      5       C       10.610612       14.544497        2.207288
      6       C       10.146441       15.039072        2.207273
      7       H        0.657097        2.058225        3.557924
      8       H        0.657401        2.056312        3.559582
      9       H        1.956407        0.976716        3.715711
     10       H        0.816589        5.257652        0.650510
     11       H        1.908863        0.937650        3.799702
     12       H        5.334954        0.797491        0.333448
     13       H        2.952612        3.152614        0.346131
     14       H        1.433928        4.673215        0.352056

 **********************
 *                    *
 * JOB ENDED NORMALLY *
 *                    *
 **********************



 TOTAL JOB TIME:             3.14 SECONDS

 == MOPAC DONE ==
