 *******************************************************************************
 ** Site#: 14399        For non-commercial use only    Version 18.184L 64BITS **
 *******************************************************************************
 ** Cite this program as: MOPAC2016, Version: 18.184L, James J. P. Stewart,   **
 ** Stewart Computational Chemistry, web: HTTP://OpenMOPAC.net. Days left:  20**
 *******************************************************************************
 **                                                                           **
 **                                MOPAC2016                                  **
 **                                                                           **
 *******************************************************************************

                              PM3 CALCULATION RESULTS

 *******************************************************************************
 *  CALCULATION DONE:                                Thu Jun 13 15:39:15 2019  *
 *  PM3        - The PM3 Hamiltonian to be used
 *  PRECISE    - CRITERIA TO BE INCREASED BY 100 TIMES
 *  NOSYM      - POINT-GROUP SYMMETRY SET TO C1
 *  THREADS=1  - MULTI-THREADING NOT USED
 *  T=         - A TIME OF 172800.0 SECONDS REQUESTED
 *  DUMP=N     - RESTART FILE WRITTEN EVERY  7200.000 SECONDS
 *******************************************************************************
pm3  precise nosym THREADS=1
 InChI=1S/C12H18/c1-2-3-7-11-10-12(11)8-5-4-6-9-12/h5-6,8-9,11H,2-4,7,10H2,1H3

   ATOM   CHEMICAL          X               Y               Z
  NUMBER   SYMBOL      (ANGSTROMS)     (ANGSTROMS)     (ANGSTROMS)
 
     1       C         -1.55950000  *  -0.95680000  *   0.22080000  *
     2       C         -0.29480000  *  -1.62190000  *  -0.33230000  *
     3       C         -1.21310000  *  -2.38650000  *   0.62210000  *
     4       C          1.07380000  *  -1.24600000  *   0.26020000  *
     5       C          1.63910000  *  -0.01440000  *  -0.45380000  *
     6       C          3.00990000  *   0.37070000  *   0.11320000  *
     7       C         -2.60310000  *   1.69680000  *  -0.28080000  *
     8       C          3.57400000  *   1.59830000  *  -0.59610000  *
     9       C         -1.39630000  *   0.12890000  *   1.25200000  *
    10       C         -2.63080000  *  -0.74970000  *  -0.81140000  *
    11       C         -3.08900000  *   0.48680000  *  -1.05250000  *
    12       C         -1.86490000  *   1.35860000  *   0.99810000  *
    13       H         -0.33550000  *  -1.99380000  *  -1.37970000  *
    14       H          2.91740000  *   0.59420000  *   1.19850000  *
    15       H          3.71940000  *  -0.47600000  *  -0.01330000  *
    16       H          0.93760000  *   0.83950000  *  -0.32970000  *
    17       H          1.73700000  *  -0.23310000  *  -1.54020000  *
    18       H          1.76100000  *  -2.10520000  *   0.10450000  *
    19       H          1.02460000  *  -1.05810000  *   1.35390000  *
    20       H         -0.84030000  *  -2.50730000  *   1.66210000  *
    21       H         -1.82280000  *  -3.17410000  *   0.13030000  *
    22       H         -3.49150000  *   2.30460000  *  -0.00880000  *
    23       H         -1.94980000  *   2.31360000  *  -0.93250000  *
    24       H          4.56530000  *   1.85340000  *  -0.16580000  *
    25       H          3.69960000  *   1.39360000  *  -1.68080000  *
    26       H          2.89460000  *   2.46710000  *  -0.46270000  *
    27       H         -0.90770000  *  -0.07070000  *   2.20080000  *
    28       H         -3.01520000  *  -1.58820000  *  -1.38530000  *
    29       H         -3.82780000  *   0.63210000  *  -1.83470000  *
    30       H         -1.71120000  *   2.14360000  *   1.73220000  *
 


          CARTESIAN COORDINATES 

    NO.       ATOM           X           Y           Z

     1         C         -1.5595     -0.9568      0.2208
     2         C         -0.2948     -1.6219     -0.3323
     3         C         -1.2131     -2.3865      0.6221
     4         C          1.0738     -1.2460      0.2602
     5         C          1.6391     -0.0144     -0.4538
     6         C          3.0099      0.3707      0.1132
     7         C         -2.6031      1.6968     -0.2808
     8         C          3.5740      1.5983     -0.5961
     9         C         -1.3963      0.1289      1.2520
    10         C         -2.6308     -0.7497     -0.8114
    11         C         -3.0890      0.4868     -1.0525
    12         C         -1.8649      1.3586      0.9981
    13         H         -0.3355     -1.9938     -1.3797
    14         H          2.9174      0.5942      1.1985
    15         H          3.7194     -0.4760     -0.0133
    16         H          0.9376      0.8395     -0.3297
    17         H          1.7370     -0.2331     -1.5402
    18         H          1.7610     -2.1052      0.1045
    19         H          1.0246     -1.0581      1.3539
    20         H         -0.8403     -2.5073      1.6621
    21         H         -1.8228     -3.1741      0.1303
    22         H         -3.4915      2.3046     -0.0088
    23         H         -1.9498      2.3136     -0.9325
    24         H          4.5653      1.8534     -0.1658
    25         H          3.6996      1.3936     -1.6808
    26         H          2.8946      2.4671     -0.4627
    27         H         -0.9077     -0.0707      2.2008
    28         H         -3.0152     -1.5882     -1.3853
    29         H         -3.8278      0.6321     -1.8347
    30         H         -1.7112      2.1436      1.7322

  H: (PM3): J. J. P. STEWART, J. COMP. CHEM. 10, 209 (1989).
  C: (PM3): J. J. P. STEWART, J. COMP. CHEM. 10, 209 (1989).

           Empirical Formula: C12 H18  =    30 atoms



      MOLECULAR POINT GROUP   :   C1  


      RHF CALCULATION, NO. OF DOUBLY OCCUPIED LEVELS = 33


          Geometry optimization using EF

          DIAGONAL MATRIX USED AS START HESSIAN

 CYCLE:     1 TIME:   0.047 TIME LEFT:  2.00D  GRAD.:   101.230 HEAT:  31.26606
 CYCLE:     2 TIME:   0.066 TIME LEFT:  2.00D  GRAD.:    97.053 HEAT:  28.59234
 CYCLE:     3 TIME:   0.035 TIME LEFT:  2.00D  GRAD.:    89.808 HEAT:  26.67225
 CYCLE:     4 TIME:   0.047 TIME LEFT:  2.00D  GRAD.:    46.032 HEAT:  25.20936
 CYCLE:     5 TIME:   0.051 TIME LEFT:  2.00D  GRAD.:    34.241 HEAT:  24.62025
 CYCLE:     6 TIME:   0.035 TIME LEFT:  2.00D  GRAD.:    49.870 HEAT:  24.55572
 CYCLE:     7 TIME:   0.035 TIME LEFT:  2.00D  GRAD.:    32.856 HEAT:  23.93391
 CYCLE:     8 TIME:   0.055 TIME LEFT:  2.00D  GRAD.:    37.910 HEAT:  23.91767
 CYCLE:     9 TIME:   0.035 TIME LEFT:  2.00D  GRAD.:    32.918 HEAT:  23.81327
 CYCLE:    10 TIME:   0.031 TIME LEFT:  2.00D  GRAD.:    32.487 HEAT:  23.71831
 CYCLE:    11 TIME:   0.051 TIME LEFT:  2.00D  GRAD.:    14.792 HEAT:  23.49644
 CYCLE:    12 TIME:   0.047 TIME LEFT:  2.00D  GRAD.:    10.023 HEAT:  23.44224
 CYCLE:    13 TIME:   0.035 TIME LEFT:  2.00D  GRAD.:    13.230 HEAT:  23.43487
 CYCLE:    14 TIME:   0.035 TIME LEFT:  2.00D  GRAD.:    10.619 HEAT:  23.39058
 CYCLE:    15 TIME:   0.055 TIME LEFT:  2.00D  GRAD.:     9.303 HEAT:  23.37151
 CYCLE:    16 TIME:   0.027 TIME LEFT:  2.00D  GRAD.:     8.124 HEAT:  23.34807
 CYCLE:    17 TIME:   0.039 TIME LEFT:  2.00D  GRAD.:     9.980 HEAT:  23.33264
 CYCLE:    18 TIME:   0.047 TIME LEFT:  2.00D  GRAD.:     7.770 HEAT:  23.30280
 CYCLE:    19 TIME:   0.043 TIME LEFT:  2.00D  GRAD.:     9.598 HEAT:  23.28506
 CYCLE:    20 TIME:   0.039 TIME LEFT:  2.00D  GRAD.:    12.217 HEAT:  23.27909
 CYCLE:    21 TIME:   0.035 TIME LEFT:  2.00D  GRAD.:    11.599 HEAT:  23.25718
 CYCLE:    22 TIME:   0.047 TIME LEFT:  2.00D  GRAD.:     7.387 HEAT:  23.23262
 CYCLE:    23 TIME:   0.059 TIME LEFT:  2.00D  GRAD.:     3.557 HEAT:  23.21892
 CYCLE:    24 TIME:   0.035 TIME LEFT:  2.00D  GRAD.:     5.614 HEAT:  23.21615
 CYCLE:    25 TIME:   0.035 TIME LEFT:  2.00D  GRAD.:     3.909 HEAT:  23.20612
 CYCLE:    26 TIME:   0.051 TIME LEFT:  2.00D  GRAD.:     3.973 HEAT:  23.20243
 CYCLE:    27 TIME:   0.031 TIME LEFT:  2.00D  GRAD.:     1.861 HEAT:  23.19453
 CYCLE:    28 TIME:   0.035 TIME LEFT:  2.00D  GRAD.:     7.183 HEAT:  23.18221
 CYCLE:    29 TIME:   0.043 TIME LEFT:  2.00D  GRAD.:     7.800 HEAT:  23.17700
 CYCLE:    30 TIME:   0.027 TIME LEFT:  2.00D  GRAD.:     5.597 HEAT:  23.16553
 CYCLE:    31 TIME:   0.031 TIME LEFT:  2.00D  GRAD.:     5.546 HEAT:  23.16076
 CYCLE:    32 TIME:   0.031 TIME LEFT:  2.00D  GRAD.:     4.054 HEAT:  23.15250
 CYCLE:    33 TIME:   0.039 TIME LEFT:  2.00D  GRAD.:     5.605 HEAT:  23.15050
 CYCLE:    34 TIME:   0.031 TIME LEFT:  2.00D  GRAD.:     2.499 HEAT:  23.13944
 CYCLE:    35 TIME:   0.039 TIME LEFT:  2.00D  GRAD.:     4.272 HEAT:  23.13500
 CYCLE:    36 TIME:   0.031 TIME LEFT:  2.00D  GRAD.:     2.609 HEAT:  23.12344
 CYCLE:    37 TIME:   0.035 TIME LEFT:  2.00D  GRAD.:     2.548 HEAT:  23.11265
 CYCLE:    38 TIME:   0.035 TIME LEFT:  2.00D  GRAD.:     2.411 HEAT:  23.10740
 CYCLE:    39 TIME:   0.039 TIME LEFT:  2.00D  GRAD.:     1.616 HEAT:  23.10299
 CYCLE:    40 TIME:   0.031 TIME LEFT:  2.00D  GRAD.:     2.331 HEAT:  23.09882
 CYCLE:    41 TIME:   0.035 TIME LEFT:  2.00D  GRAD.:     3.269 HEAT:  23.09592
 CYCLE:    42 TIME:   0.031 TIME LEFT:  2.00D  GRAD.:     1.982 HEAT:  23.09116
 CYCLE:    43 TIME:   0.039 TIME LEFT:  2.00D  GRAD.:     2.283 HEAT:  23.08443
 CYCLE:    44 TIME:   0.039 TIME LEFT:  2.00D  GRAD.:     2.819 HEAT:  23.07760
 CYCLE:    45 TIME:   0.039 TIME LEFT:  2.00D  GRAD.:     2.736 HEAT:  23.06946
 CYCLE:    46 TIME:   0.090 TIME LEFT:  2.00D  GRAD.:     2.111 HEAT:  23.06318
 CYCLE:    47 TIME:   0.043 TIME LEFT:  2.00D  GRAD.:     2.154 HEAT:  23.05609
 CYCLE:    48 TIME:   0.039 TIME LEFT:  2.00D  GRAD.:     2.611 HEAT:  23.04555
 CYCLE:    49 TIME:   0.035 TIME LEFT:  2.00D  GRAD.:     1.874 HEAT:  23.04019
 CYCLE:    50 TIME:   0.031 TIME LEFT:  2.00D  GRAD.:     1.502 HEAT:  23.03568
 CYCLE:    51 TIME:   0.031 TIME LEFT:  2.00D  GRAD.:     1.947 HEAT:  23.03162
 CYCLE:    52 TIME:   0.027 TIME LEFT:  2.00D  GRAD.:     2.265 HEAT:  23.02575
 CYCLE:    53 TIME:   0.027 TIME LEFT:  2.00D  GRAD.:     1.905 HEAT:  23.02025
 CYCLE:    54 TIME:   0.031 TIME LEFT:  2.00D  GRAD.:     1.493 HEAT:  23.01586
 CYCLE:    55 TIME:   0.027 TIME LEFT:  2.00D  GRAD.:     1.634 HEAT:  23.01174
 CYCLE:    56 TIME:   0.043 TIME LEFT:  2.00D  GRAD.:     1.724 HEAT:  23.00732
 CYCLE:    57 TIME:   0.027 TIME LEFT:  2.00D  GRAD.:     1.425 HEAT:  23.00382
 CYCLE:    58 TIME:   0.031 TIME LEFT:  2.00D  GRAD.:     1.155 HEAT:  23.00116
 CYCLE:    59 TIME:   0.031 TIME LEFT:  2.00D  GRAD.:     1.227 HEAT:  22.99875
 CYCLE:    60 TIME:   0.027 TIME LEFT:  2.00D  GRAD.:     1.182 HEAT:  22.99618
 CYCLE:    61 TIME:   0.031 TIME LEFT:  2.00D  GRAD.:     0.966 HEAT:  22.99425
 CYCLE:    62 TIME:   0.027 TIME LEFT:  2.00D  GRAD.:     0.801 HEAT:  22.99267
 CYCLE:    63 TIME:   0.031 TIME LEFT:  2.00D  GRAD.:     0.852 HEAT:  22.99132
 CYCLE:    64 TIME:   0.031 TIME LEFT:  2.00D  GRAD.:     0.854 HEAT:  22.99004
 CYCLE:    65 TIME:   0.027 TIME LEFT:  2.00D  GRAD.:     0.829 HEAT:  22.98862
 CYCLE:    66 TIME:   0.031 TIME LEFT:  2.00D  GRAD.:     0.946 HEAT:  22.98710
 CYCLE:    67 TIME:   0.039 TIME LEFT:  2.00D  GRAD.:     1.088 HEAT:  22.98515
 CYCLE:    68 TIME:   0.035 TIME LEFT:  2.00D  GRAD.:     1.164 HEAT:  22.98271
 CYCLE:    69 TIME:   0.039 TIME LEFT:  2.00D  GRAD.:     1.176 HEAT:  22.97979
 CYCLE:    70 TIME:   0.031 TIME LEFT:  2.00D  GRAD.:     1.212 HEAT:  22.97670
 CYCLE:    71 TIME:   0.035 TIME LEFT:  2.00D  GRAD.:     1.405 HEAT:  22.97358
 CYCLE:    72 TIME:   0.039 TIME LEFT:  2.00D  GRAD.:     1.498 HEAT:  22.97024
 CYCLE:    73 TIME:   0.039 TIME LEFT:  2.00D  GRAD.:     1.482 HEAT:  22.96619
 CYCLE:    74 TIME:   0.043 TIME LEFT:  2.00D  GRAD.:     1.460 HEAT:  22.96121
 CYCLE:    75 TIME:   0.035 TIME LEFT:  2.00D  GRAD.:     1.578 HEAT:  22.95634
 CYCLE:    76 TIME:   0.035 TIME LEFT:  2.00D  GRAD.:     1.568 HEAT:  22.95160
 CYCLE:    77 TIME:   0.039 TIME LEFT:  2.00D  GRAD.:     1.656 HEAT:  22.94566
 CYCLE:    78 TIME:   0.035 TIME LEFT:  2.00D  GRAD.:     1.861 HEAT:  22.93944
 CYCLE:    79 TIME:   0.031 TIME LEFT:  2.00D  GRAD.:     2.056 HEAT:  22.93129
 CYCLE:    80 TIME:   0.035 TIME LEFT:  2.00D  GRAD.:     2.184 HEAT:  22.92267
 CYCLE:    81 TIME:   0.031 TIME LEFT:  2.00D  GRAD.:     2.242 HEAT:  22.91330
 CYCLE:    82 TIME:   0.035 TIME LEFT:  2.00D  GRAD.:     2.043 HEAT:  22.90409
 CYCLE:    83 TIME:   0.035 TIME LEFT:  2.00D  GRAD.:     3.626 HEAT:  22.90012
 CYCLE:    84 TIME:   0.039 TIME LEFT:  2.00D  GRAD.:     4.193 HEAT:  22.89437
 CYCLE:    85 TIME:   0.031 TIME LEFT:  2.00D  GRAD.:     1.657 HEAT:  22.88533
 CYCLE:    86 TIME:   0.039 TIME LEFT:  2.00D  GRAD.:     1.366 HEAT:  22.88016
 CYCLE:    87 TIME:   0.047 TIME LEFT:  2.00D  GRAD.:     1.942 HEAT:  22.87330
 CYCLE:    88 TIME:   0.039 TIME LEFT:  2.00D  GRAD.:     2.037 HEAT:  22.86614
 CYCLE:    89 TIME:   0.039 TIME LEFT:  2.00D  GRAD.:     1.962 HEAT:  22.85473
 CYCLE:    90 TIME:   0.039 TIME LEFT:  2.00D  GRAD.:     1.544 HEAT:  22.84940
 CYCLE:    91 TIME:   0.039 TIME LEFT:  2.00D  GRAD.:     1.844 HEAT:  22.84449
 CYCLE:    92 TIME:   0.039 TIME LEFT:  2.00D  GRAD.:     2.139 HEAT:  22.84149
 CYCLE:    93 TIME:   0.031 TIME LEFT:  2.00D  GRAD.:     1.275 HEAT:  22.83801
 CYCLE:    94 TIME:   0.035 TIME LEFT:  2.00D  GRAD.:     1.150 HEAT:  22.83418
 CYCLE:    95 TIME:   0.031 TIME LEFT:  2.00D  GRAD.:     1.364 HEAT:  22.83155
 CYCLE:    96 TIME:   0.031 TIME LEFT:  2.00D  GRAD.:     1.583 HEAT:  22.82655
 CYCLE:    97 TIME:   0.035 TIME LEFT:  2.00D  GRAD.:     1.308 HEAT:  22.82353
 CYCLE:    98 TIME:   0.039 TIME LEFT:  2.00D  GRAD.:     1.448 HEAT:  22.81826
 CYCLE:    99 TIME:   0.035 TIME LEFT:  2.00D  GRAD.:     1.080 HEAT:  22.81634
 CYCLE:   100 TIME:   0.035 TIME LEFT:  2.00D  GRAD.:     1.137 HEAT:  22.81276
 CYCLE:   101 TIME:   0.031 TIME LEFT:  2.00D  GRAD.:     0.940 HEAT:  22.80989
 CYCLE:   102 TIME:   0.035 TIME LEFT:  2.00D  GRAD.:     1.160 HEAT:  22.80804
 CYCLE:   103 TIME:   0.035 TIME LEFT:  2.00D  GRAD.:     0.952 HEAT:  22.80617
 CYCLE:   104 TIME:   0.035 TIME LEFT:  2.00D  GRAD.:     0.972 HEAT:  22.80326
 CYCLE:   105 TIME:   0.039 TIME LEFT:  2.00D  GRAD.:     1.093 HEAT:  22.80061
 CYCLE:   106 TIME:   0.035 TIME LEFT:  2.00D  GRAD.:     1.184 HEAT:  22.79698
 CYCLE:   107 TIME:   0.031 TIME LEFT:  2.00D  GRAD.:     1.537 HEAT:  22.79197
 CYCLE:   108 TIME:   0.035 TIME LEFT:  2.00D  GRAD.:     1.169 HEAT:  22.78848
 CYCLE:   109 TIME:   0.027 TIME LEFT:  2.00D  GRAD.:     2.689 HEAT:  22.78466
 CYCLE:   110 TIME:   0.031 TIME LEFT:  2.00D  GRAD.:     1.714 HEAT:  22.77849
 CYCLE:   111 TIME:   0.035 TIME LEFT:  2.00D  GRAD.:     1.518 HEAT:  22.77337
 CYCLE:   112 TIME:   0.039 TIME LEFT:  2.00D  GRAD.:     4.048 HEAT:  22.75853
 CYCLE:   113 TIME:   0.035 TIME LEFT:  2.00D  GRAD.:     1.996 HEAT:  22.75536
 CYCLE:   114 TIME:   0.031 TIME LEFT:  2.00D  GRAD.:     1.801 HEAT:  22.74614
 CYCLE:   115 TIME:   0.066 TIME LEFT:  2.00D  GRAD.:     2.236 HEAT:  22.73714
 CYCLE:   116 TIME:   0.035 TIME LEFT:  2.00D  GRAD.:     2.067 HEAT:  22.72820
 CYCLE:   117 TIME:   0.035 TIME LEFT:  2.00D  GRAD.:     2.133 HEAT:  22.71533
 CYCLE:   118 TIME:   0.039 TIME LEFT:  2.00D  GRAD.:     2.597 HEAT:  22.70896
 CYCLE:   119 TIME:   0.031 TIME LEFT:  2.00D  GRAD.:     3.514 HEAT:  22.69369
 CYCLE:   120 TIME:   0.035 TIME LEFT:  2.00D  GRAD.:     2.651 HEAT:  22.68022
 CYCLE:   121 TIME:   0.035 TIME LEFT:  2.00D  GRAD.:     2.573 HEAT:  22.66443
 CYCLE:   122 TIME:   0.031 TIME LEFT:  2.00D  GRAD.:     4.015 HEAT:  22.64731
 CYCLE:   123 TIME:   0.031 TIME LEFT:  2.00D  GRAD.:     2.755 HEAT:  22.62567
 CYCLE:   124 TIME:   0.035 TIME LEFT:  2.00D  GRAD.:     4.224 HEAT:  22.59740
 CYCLE:   125 TIME:   0.055 TIME LEFT:  2.00D  GRAD.:     4.581 HEAT:  22.58731
 CYCLE:   126 TIME:   0.039 TIME LEFT:  2.00D  GRAD.:     7.300 HEAT:  22.58373
 CYCLE:   127 TIME:   0.039 TIME LEFT:  2.00D  GRAD.:     3.303 HEAT:  22.54076
 CYCLE:   128 TIME:   0.043 TIME LEFT:  2.00D  GRAD.:     2.942 HEAT:  22.51622
 CYCLE:   129 TIME:   0.039 TIME LEFT:  2.00D  GRAD.:     3.730 HEAT:  22.48903
 CYCLE:   130 TIME:   0.039 TIME LEFT:  2.00D  GRAD.:     5.168 HEAT:  22.46655
 CYCLE:   131 TIME:   0.031 TIME LEFT:  2.00D  GRAD.:     3.989 HEAT:  22.44848
 CYCLE:   132 TIME:   0.043 TIME LEFT:  2.00D  GRAD.:     2.284 HEAT:  22.43847
 CYCLE:   133 TIME:   0.039 TIME LEFT:  2.00D  GRAD.:     1.771 HEAT:  22.43105
 CYCLE:   134 TIME:   0.031 TIME LEFT:  2.00D  GRAD.:     1.552 HEAT:  22.42735
 CYCLE:   135 TIME:   0.031 TIME LEFT:  2.00D  GRAD.:     1.608 HEAT:  22.42391
 CYCLE:   136 TIME:   0.039 TIME LEFT:  2.00D  GRAD.:     1.478 HEAT:  22.42090
 CYCLE:   137 TIME:   0.039 TIME LEFT:  2.00D  GRAD.:     1.940 HEAT:  22.41644
 CYCLE:   138 TIME:   0.035 TIME LEFT:  2.00D  GRAD.:     1.835 HEAT:  22.41133
 CYCLE:   139 TIME:   0.035 TIME LEFT:  2.00D  GRAD.:     2.274 HEAT:  22.40478
 CYCLE:   140 TIME:   0.031 TIME LEFT:  2.00D  GRAD.:     2.129 HEAT:  22.39700
 CYCLE:   141 TIME:   0.031 TIME LEFT:  2.00D  GRAD.:     3.134 HEAT:  22.38800
 CYCLE:   142 TIME:   0.027 TIME LEFT:  2.00D  GRAD.:     2.925 HEAT:  22.38018
 CYCLE:   143 TIME:   0.027 TIME LEFT:  2.00D  GRAD.:     2.731 HEAT:  22.37070
 CYCLE:   144 TIME:   0.035 TIME LEFT:  2.00D  GRAD.:     2.894 HEAT:  22.36025
 CYCLE:   145 TIME:   0.035 TIME LEFT:  2.00D  GRAD.:     2.506 HEAT:  22.35256
 CYCLE:   146 TIME:   0.035 TIME LEFT:  2.00D  GRAD.:     2.383 HEAT:  22.34635
 CYCLE:   147 TIME:   0.035 TIME LEFT:  2.00D  GRAD.:     3.107 HEAT:  22.34127
 CYCLE:   148 TIME:   0.039 TIME LEFT:  2.00D  GRAD.:     2.626 HEAT:  22.33495
 CYCLE:   149 TIME:   0.031 TIME LEFT:  2.00D  GRAD.:     2.395 HEAT:  22.32879
 CYCLE:   150 TIME:   0.035 TIME LEFT:  2.00D  GRAD.:     2.222 HEAT:  22.32122
 CYCLE:   151 TIME:   0.035 TIME LEFT:  2.00D  GRAD.:     2.546 HEAT:  22.31348
 CYCLE:   152 TIME:   0.039 TIME LEFT:  2.00D  GRAD.:     2.549 HEAT:  22.30541
 CYCLE:   153 TIME:   0.035 TIME LEFT:  2.00D  GRAD.:     2.330 HEAT:  22.29746
 CYCLE:   154 TIME:   0.035 TIME LEFT:  2.00D  GRAD.:     3.068 HEAT:  22.29250
 CYCLE:   155 TIME:   0.031 TIME LEFT:  2.00D  GRAD.:     2.968 HEAT:  22.28744
 CYCLE:   156 TIME:   0.039 TIME LEFT:  2.00D  GRAD.:     2.067 HEAT:  22.28077
 CYCLE:   157 TIME:   0.043 TIME LEFT:  2.00D  GRAD.:     1.810 HEAT:  22.27439
 CYCLE:   158 TIME:   0.039 TIME LEFT:  2.00D  GRAD.:     2.127 HEAT:  22.26722
 CYCLE:   159 TIME:   0.039 TIME LEFT:  2.00D  GRAD.:     2.208 HEAT:  22.26248
 CYCLE:   160 TIME:   0.039 TIME LEFT:  2.00D  GRAD.:     1.692 HEAT:  22.25838
 CYCLE:   161 TIME:   0.039 TIME LEFT:  2.00D  GRAD.:     1.160 HEAT:  22.25574
 CYCLE:   162 TIME:   0.031 TIME LEFT:  2.00D  GRAD.:     1.291 HEAT:  22.25376
 CYCLE:   163 TIME:   0.035 TIME LEFT:  2.00D  GRAD.:     1.150 HEAT:  22.25156
 CYCLE:   164 TIME:   0.031 TIME LEFT:  2.00D  GRAD.:     1.404 HEAT:  22.24922
 CYCLE:   165 TIME:   0.039 TIME LEFT:  2.00D  GRAD.:     1.137 HEAT:  22.24711
 CYCLE:   166 TIME:   0.035 TIME LEFT:  2.00D  GRAD.:     1.191 HEAT:  22.24491
 CYCLE:   167 TIME:   0.039 TIME LEFT:  2.00D  GRAD.:     1.065 HEAT:  22.24281
 CYCLE:   168 TIME:   0.031 TIME LEFT:  2.00D  GRAD.:     0.986 HEAT:  22.24125
 CYCLE:   169 TIME:   0.035 TIME LEFT:  2.00D  GRAD.:     0.832 HEAT:  22.24039
 CYCLE:   170 TIME:   0.039 TIME LEFT:  2.00D  GRAD.:     0.698 HEAT:  22.23979
 CYCLE:   171 TIME:   0.039 TIME LEFT:  2.00D  GRAD.:     0.614 HEAT:  22.23932
 CYCLE:   172 TIME:   0.031 TIME LEFT:  2.00D  GRAD.:     0.690 HEAT:  22.23870
 CYCLE:   173 TIME:   0.035 TIME LEFT:  2.00D  GRAD.:     0.693 HEAT:  22.23794
 CYCLE:   174 TIME:   0.031 TIME LEFT:  2.00D  GRAD.:     0.676 HEAT:  22.23712
 CYCLE:   175 TIME:   0.031 TIME LEFT:  2.00D  GRAD.:     0.474 HEAT:  22.23655
 CYCLE:   176 TIME:   0.031 TIME LEFT:  2.00D  GRAD.:     0.330 HEAT:  22.23623
 CYCLE:   177 TIME:   0.039 TIME LEFT:  2.00D  GRAD.:     0.334 HEAT:  22.23604
 CYCLE:   178 TIME:   0.039 TIME LEFT:  2.00D  GRAD.:     0.307 HEAT:  22.23582
 CYCLE:   179 TIME:   0.031 TIME LEFT:  2.00D  GRAD.:     0.269 HEAT:  22.23559
 CYCLE:   180 TIME:   0.035 TIME LEFT:  2.00D  GRAD.:     0.197 HEAT:  22.23549
 CYCLE:   181 TIME:   0.031 TIME LEFT:  2.00D  GRAD.:     0.152 HEAT:  22.23545
 CYCLE:   182 TIME:   0.039 TIME LEFT:  2.00D  GRAD.:     0.166 HEAT:  22.23542
 CYCLE:   183 TIME:   0.035 TIME LEFT:  2.00D  GRAD.:     0.112 HEAT:  22.23540
 CYCLE:   184 TIME:   0.039 TIME LEFT:  2.00D  GRAD.:     0.092 HEAT:  22.23537
 CYCLE:   185 TIME:   0.035 TIME LEFT:  2.00D  GRAD.:     0.108 HEAT:  22.23533
 CYCLE:   186 TIME:   0.031 TIME LEFT:  2.00D  GRAD.:     0.124 HEAT:  22.23530
 CYCLE:   187 TIME:   0.035 TIME LEFT:  2.00D  GRAD.:     0.156 HEAT:  22.23525
 CYCLE:   188 TIME:   0.031 TIME LEFT:  2.00D  GRAD.:     0.155 HEAT:  22.23522
 CYCLE:   189 TIME:   0.039 TIME LEFT:  2.00D  GRAD.:     0.228 HEAT:  22.23507
 CYCLE:   190 TIME:   0.035 TIME LEFT:  2.00D  GRAD.:     0.209 HEAT:  22.23499
 CYCLE:   191 TIME:   0.039 TIME LEFT:  2.00D  GRAD.:     0.138 HEAT:  22.23490
 CYCLE:   192 TIME:   0.031 TIME LEFT:  2.00D  GRAD.:     0.123 HEAT:  22.23486
 CYCLE:   193 TIME:   0.035 TIME LEFT:  2.00D  GRAD.:     0.141 HEAT:  22.23481
 CYCLE:   194 TIME:   0.031 TIME LEFT:  2.00D  GRAD.:     0.145 HEAT:  22.23478
 CYCLE:   195 TIME:   0.039 TIME LEFT:  2.00D  GRAD.:     0.102 HEAT:  22.23475
 CYCLE:   196 TIME:   0.039 TIME LEFT:  2.00D  GRAD.:     0.062 HEAT:  22.23472
 CYCLE:   197 TIME:   0.035 TIME LEFT:  2.00D  GRAD.:     0.066 HEAT:  22.23471
 CYCLE:   198 TIME:   0.035 TIME LEFT:  2.00D  GRAD.:     0.054 HEAT:  22.23471
 CYCLE:   199 TIME:   0.035 TIME LEFT:  2.00D  GRAD.:     0.061 HEAT:  22.23471
 CYCLE:   200 TIME:   0.035 TIME LEFT:  2.00D  GRAD.:     0.025 HEAT:  22.23470

     GRADIENT =  0.02518  IS LESS THAN CUTOFF =  0.05000



 -------------------------------------------------------------------------------
 pm3  precise nosym THREADS=1
 InChI=1S/C12H18/c1-2-3-7-11-10-12(11)8-5-4-6-9-12/h5-6,8-9,11H,2-4,7,10H2,1H3



     GEOMETRY OPTIMISED USING EIGENVECTOR FOLLOWING (EF).     
     SCF FIELD WAS ACHIEVED                                   


                              PM3 CALCULATION
                                                       MOPAC2016 (Version: 18.184L)
                                                       Thu Jun 13 15:39:23 2019
                                                       No. of days remaining =  20




          FINAL HEAT OF FORMATION =         22.23470 KCAL/MOL =      93.02999 KJ/MOL


          TOTAL ENERGY            =      -1698.70902 EV
          ELECTRONIC ENERGY       =     -10495.82716 EV  POINT GROUP:     C1  
          CORE-CORE REPULSION     =       8797.11814 EV
          COSMO AREA              =        223.37 SQUARE ANGSTROMS
          COSMO VOLUME            =        232.40 CUBIC ANGSTROMS

          GRADIENT NORM           =          0.02518 = 0.00460 PER ATOM
          IONIZATION POTENTIAL    =          9.053434 EV
          HOMO LUMO ENERGIES (EV) =         -9.053  0.828
          NO. OF FILLED LEVELS    =         33
          MOLECULAR WEIGHT        =        162.2742

          MOLECULAR DIMENSIONS (Angstroms)

            Atom       Atom       Distance
            H    24    H    22     9.54058
            H    21    H    23     5.46071
            H    30    H    28     4.04699


          SCF CALCULATIONS        =        214
 
          WALL-CLOCK TIME         =          7.395 SECONDS
          COMPUTATION TIME        =          4.283 SECONDS




   ATOM   CHEMICAL          X               Y               Z
  NUMBER   SYMBOL      (ANGSTROMS)     (ANGSTROMS)     (ANGSTROMS)
 
     1       C         -1.46540811  *  -0.72045254  *   0.04917502  *
     2       C         -0.16053281  *  -1.42667266  *  -0.29598221  *
     3       C         -1.20997468  *  -2.14190028  *   0.50118085  *
     4       C          1.12973874  *  -1.03492767  *   0.37157550  *
     5       C          1.96615730  *  -0.13096650  *  -0.51947368  *
     6       C          3.27102970  *   0.25723852  *   0.15760496  *
     7       C         -3.48089902  *   1.41183875  *   0.13147678  *
     8       C          4.10660067  *   1.15584160  *  -0.72577957  *
     9       C         -1.45702986  *   0.34025916  *   1.07791162  *
    10       C         -2.44654340  *  -0.51582178  *  -1.03758503  *
    11       C         -3.36633898  *   0.44986093  *  -0.99501149  *
    12       C         -2.37726839  *   1.30460014  *   1.12033738  *
    13       H         -0.01333755  *  -1.72755155  *  -1.35134832  *
    14       H          3.05976961  *   0.76388219  *   1.12040468  *
    15       H          3.84435785  *  -0.65380832  *   0.42143152  *
    16       H          1.38885156  *   0.77848679  *  -0.78022537  *
    17       H          2.17761880  *  -0.63556787  *  -1.48383585  *
    18       H          1.69437475  *  -1.95302096  *   0.62822925  *
    19       H          0.91701632  *  -0.52478513  *   1.33951604  *
    20       H         -1.04251483  *  -2.34438975  *   1.56547961  *
    21       H         -1.77452678  *  -2.96380355  *   0.04747411  *
    22       H         -4.45074562  *   1.25532962  *   0.64728321  *
    23       H         -3.51153403  *   2.44491062  *  -0.27106295  *
    24       H          5.04731315  *   1.43503498  *  -0.23438959  *
    25       H          4.36447866  *   0.66541809  *  -1.67396280  *
    26       H          3.57714096  *   2.08545144  *  -0.97386753  *
    27       H         -0.62852105  *   0.29066913  *   1.80226724  *
    28       H         -2.38815404  *  -1.20757032  *  -1.88621673  *
    29       H         -4.08891001  *   0.57242547  *  -1.80949105  *
    30       H         -2.34929283  *   2.07336119  *   1.90037201  *

                             CARTESIAN COORDINATES

   1    C       -1.465408106    -0.720452536     0.049175024
   2    C       -0.160532808    -1.426672663    -0.295982208
   3    C       -1.209974683    -2.141900284     0.501180852
   4    C        1.129738743    -1.034927667     0.371575504
   5    C        1.966157301    -0.130966495    -0.519473676
   6    C        3.271029695     0.257238521     0.157604958
   7    C       -3.480899024     1.411838754     0.131476779
   8    C        4.106600673     1.155841603    -0.725779567
   9    C       -1.457029862     0.340259158     1.077911615
  10    C       -2.446543402    -0.515821781    -1.037585033
  11    C       -3.366338981     0.449860927    -0.995011488
  12    C       -2.377268388     1.304600138     1.120337382
  13    H       -0.013337549    -1.727551546    -1.351348322
  14    H        3.059769614     0.763882191     1.120404676
  15    H        3.844357847    -0.653808324     0.421431524
  16    H        1.388851558     0.778486790    -0.780225369
  17    H        2.177618796    -0.635567869    -1.483835845
  18    H        1.694374745    -1.953020961     0.628229248
  19    H        0.917016321    -0.524785133     1.339516039
  20    H       -1.042514829    -2.344389749     1.565479609
  21    H       -1.774526776    -2.963803554     0.047474110
  22    H       -4.450745621     1.255329621     0.647283214
  23    H       -3.511534034     2.444910619    -0.271062947
  24    H        5.047313147     1.435034983    -0.234389594
  25    H        4.364478662     0.665418089    -1.673962796
  26    H        3.577140960     2.085451440    -0.973867530
  27    H       -0.628521054     0.290669135     1.802267243
  28    H       -2.388154036    -1.207570321    -1.886216730
  29    H       -4.088910010     0.572425468    -1.809491054
  30    H       -2.349292834     2.073361188     1.900372008


           Empirical Formula: C12 H18  =    30 atoms



      MOLECULAR POINT GROUP   :   C1  


                  EIGENVALUES  
 -42.04759 -37.79394 -35.13867 -30.28658 -29.55699 -26.50232 -23.50415 -21.73905
 -21.13661 -20.71812 -19.54440 -17.87246 -16.76699 -16.35361 -16.24886 -15.21337
 -14.87824 -14.71612 -14.52184 -14.43685 -13.97804 -13.57809 -13.08533 -12.91928
 -12.56369 -12.49270 -12.08753 -11.88216 -11.49850 -11.37750 -11.11721 -10.31693
  -9.05343   0.82780   1.18761   2.99905   3.05904   3.31584   3.42411   3.49015
   3.54131   3.70007   3.76071   3.77072   3.90106   4.01909   4.05471   4.10043
   4.12171   4.17383   4.27005   4.47549   4.48245   4.52173   4.71284   4.75779
   4.86382   4.89074   4.96912   5.13580   5.23358   5.25442   5.37508   5.44342
   6.03904   6.24519


              NET ATOMIC CHARGES AND DIPOLE CONTRIBUTIONS

  ATOM NO.   TYPE          CHARGE      No. of ELECS.   s-Pop       p-Pop       
    1          C          -0.037799        4.0378     1.15453     2.88327
    2          C          -0.121833        4.1218     1.18079     2.94105
    3          C          -0.141639        4.1416     1.16601     2.97563
    4          C          -0.078779        4.0788     1.15593     2.92285
    5          C          -0.102507        4.1025     1.16249     2.94002
    6          C          -0.097634        4.0976     1.15862     2.93902
    7          C          -0.021623        4.0216     1.13136     2.89026
    8          C          -0.109356        4.1094     1.13830     2.97105
    9          C          -0.114951        4.1150     1.18527     2.92968
   10          C          -0.108264        4.1083     1.18449     2.92378
   11          C          -0.142468        4.1425     1.19348     2.94898
   12          C          -0.139506        4.1395     1.19266     2.94684
   13          H           0.097307        0.9027     0.90269
   14          H           0.047564        0.9524     0.95244
   15          H           0.047612        0.9524     0.95239
   16          H           0.057288        0.9427     0.94271
   17          H           0.051129        0.9489     0.94887
   18          H           0.054121        0.9459     0.94588
   19          H           0.058467        0.9415     0.94153
   20          H           0.082513        0.9175     0.91749
   21          H           0.079955        0.9200     0.92005
   22          H           0.062811        0.9372     0.93719
   23          H           0.059584        0.9404     0.94042
   24          H           0.036627        0.9634     0.96337
   25          H           0.037721        0.9623     0.96228
   26          H           0.038513        0.9615     0.96149
   27          H           0.108746        0.8913     0.89125
   28          H           0.100615        0.8994     0.89938
   29          H           0.097841        0.9022     0.90216
   30          H           0.097943        0.9021     0.90206
 DIPOLE           X         Y         Z       TOTAL
 POINT-CHG.     0.007     0.106     0.093     0.141
 HYBRID        -0.041    -0.022    -0.026     0.053
 SUM           -0.034     0.084     0.067     0.113


          ATOMIC ORBITAL ELECTRON POPULATIONS

     Atom    s        px        py        pz   
    1  C   1.15453   0.97430   0.93612   0.97284
    2  C   1.18079   0.90768   1.03209   1.00128
    3  C   1.16601   1.02492   0.94424   1.00647
    4  C   1.15593   0.94573   0.99417   0.98295
    5  C   1.16249   0.95945   0.99940   0.98116
    6  C   1.15862   0.96228   0.99448   0.98226
    7  C   1.13136   0.96929   0.97712   0.94384
    8  C   1.13830   0.98985   0.99012   0.99109
    9  C   1.18527   0.98868   0.96040   0.98060
   10  C   1.18449   0.96528   0.98644   0.97206
   11  C   1.19348   0.98853   0.97516   0.98529
   12  C   1.19266   0.97342   0.98361   0.98981
   13  H   0.90269
   14  H   0.95244
   15  H   0.95239
   16  H   0.94271
   17  H   0.94887
   18  H   0.94588
   19  H   0.94153
   20  H   0.91749
   21  H   0.92005
   22  H   0.93719
   23  H   0.94042
   24  H   0.96337
   25  H   0.96228
   26  H   0.96149
   27  H   0.89125
   28  H   0.89938
   29  H   0.90216
   30  H   0.90206
 *******************************************************************************
 ** Site#: 14399        For non-commercial use only    Version 18.184L 64BITS **
 *******************************************************************************
 ** Cite this program as: MOPAC2016, Version: 18.184L, James J. P. Stewart,   **
 ** Stewart Computational Chemistry, web: HTTP://OpenMOPAC.net. Days left:  20**
 *******************************************************************************
 **                                                                           **
 **                                MOPAC2016                                  **
 **                                                                           **
 *******************************************************************************

                              PM3 CALCULATION RESULTS

 *******************************************************************************
 *  CALCULATION DONE:                                Thu Jun 13 15:39:23 2019  *
 *  PM3        - The PM3 Hamiltonian to be used
 *  OLDGEO     - PREVIOUS GEOMETRY TO BE USED
 *  PRECISE    - CRITERIA TO BE INCREASED BY 100 TIMES
 *  NOSYM      - POINT-GROUP SYMMETRY SET TO C1
 *  THREADS=1  - MULTI-THREADING NOT USED
 *  T=         - A TIME OF 172800.0 SECONDS REQUESTED
 *  DUMP=N     - RESTART FILE WRITTEN EVERY  7200.000 SECONDS
 *  THERMO     - THERMODYNAMIC QUANTITIES TO BE CALCULATED
 *******************************************************************************
oldgeo thermo nosym precise THREADS=1  pm3
 InChI=1S/C12H18/c1-2-3-7-11-10-12(11)8-5-4-6-9-12/h5-6,8-9,11H,2-4,7,10H2,1H3

   ATOM   CHEMICAL          X               Y               Z
  NUMBER   SYMBOL      (ANGSTROMS)     (ANGSTROMS)     (ANGSTROMS)
 
     1       C         -1.46540811  *  -0.72045254  *   0.04917502  *
     2       C         -0.16053281  *  -1.42667266  *  -0.29598221  *
     3       C         -1.20997468  *  -2.14190028  *   0.50118085  *
     4       C          1.12973874  *  -1.03492767  *   0.37157550  *
     5       C          1.96615730  *  -0.13096650  *  -0.51947368  *
     6       C          3.27102970  *   0.25723852  *   0.15760496  *
     7       C         -3.48089902  *   1.41183875  *   0.13147678  *
     8       C          4.10660067  *   1.15584160  *  -0.72577957  *
     9       C         -1.45702986  *   0.34025916  *   1.07791162  *
    10       C         -2.44654340  *  -0.51582178  *  -1.03758503  *
    11       C         -3.36633898  *   0.44986093  *  -0.99501149  *
    12       C         -2.37726839  *   1.30460014  *   1.12033738  *
    13       H         -0.01333755  *  -1.72755155  *  -1.35134832  *
    14       H          3.05976961  *   0.76388219  *   1.12040468  *
    15       H          3.84435785  *  -0.65380832  *   0.42143152  *
    16       H          1.38885156  *   0.77848679  *  -0.78022537  *
    17       H          2.17761880  *  -0.63556787  *  -1.48383585  *
    18       H          1.69437475  *  -1.95302096  *   0.62822925  *
    19       H          0.91701632  *  -0.52478513  *   1.33951604  *
    20       H         -1.04251483  *  -2.34438975  *   1.56547961  *
    21       H         -1.77452678  *  -2.96380355  *   0.04747411  *
    22       H         -4.45074562  *   1.25532962  *   0.64728321  *
    23       H         -3.51153403  *   2.44491062  *  -0.27106295  *
    24       H          5.04731315  *   1.43503498  *  -0.23438959  *
    25       H          4.36447866  *   0.66541809  *  -1.67396280  *
    26       H          3.57714096  *   2.08545144  *  -0.97386753  *
    27       H         -0.62852105  *   0.29066913  *   1.80226724  *
    28       H         -2.38815404  *  -1.20757032  *  -1.88621673  *
    29       H         -4.08891001  *   0.57242547  *  -1.80949105  *
    30       H         -2.34929283  *   2.07336119  *   1.90037201  *
 


          CARTESIAN COORDINATES 

    NO.       ATOM           X           Y           Z

     1         C         -1.4654     -0.7205      0.0492
     2         C         -0.1605     -1.4267     -0.2960
     3         C         -1.2100     -2.1419      0.5012
     4         C          1.1297     -1.0349      0.3716
     5         C          1.9662     -0.1310     -0.5195
     6         C          3.2710      0.2572      0.1576
     7         C         -3.4809      1.4118      0.1315
     8         C          4.1066      1.1558     -0.7258
     9         C         -1.4570      0.3403      1.0779
    10         C         -2.4465     -0.5158     -1.0376
    11         C         -3.3663      0.4499     -0.9950
    12         C         -2.3773      1.3046      1.1203
    13         H         -0.0133     -1.7276     -1.3513
    14         H          3.0598      0.7639      1.1204
    15         H          3.8444     -0.6538      0.4214
    16         H          1.3889      0.7785     -0.7802
    17         H          2.1776     -0.6356     -1.4838
    18         H          1.6944     -1.9530      0.6282
    19         H          0.9170     -0.5248      1.3395
    20         H         -1.0425     -2.3444      1.5655
    21         H         -1.7745     -2.9638      0.0475
    22         H         -4.4507      1.2553      0.6473
    23         H         -3.5115      2.4449     -0.2711
    24         H          5.0473      1.4350     -0.2344
    25         H          4.3645      0.6654     -1.6740
    26         H          3.5771      2.0855     -0.9739
    27         H         -0.6285      0.2907      1.8023
    28         H         -2.3882     -1.2076     -1.8862
    29         H         -4.0889      0.5724     -1.8095
    30         H         -2.3493      2.0734      1.9004

  H: (PM3): J. J. P. STEWART, J. COMP. CHEM. 10, 209 (1989).
  C: (PM3): J. J. P. STEWART, J. COMP. CHEM. 10, 209 (1989).

           Empirical Formula: C12 H18  =    30 atoms



      MOLECULAR POINT GROUP   :   C1  


      RHF CALCULATION, NO. OF DOUBLY OCCUPIED LEVELS = 33



          HEAT OF FORMATION =      22.234701 KCALS/MOLE


          CARTESIAN COORDINATE DERIVATIVES

   NUMBER  ATOM         X            Y            Z

     1       C     -0.002038     0.000171     0.000291
     2       C     -0.000339    -0.000503    -0.000601
     3       C     -0.003562     0.000840     0.000501
     4       C     -0.000119     0.000747     0.001424
     5       C     -0.000099    -0.001416     0.002088
     6       C      0.001192     0.002796     0.001974
     7       C      0.003217     0.001400     0.000443
     8       C     -0.001237     0.001972    -0.009139
     9       C      0.001452     0.001649    -0.002039
    10       C      0.003901     0.003809     0.001440
    11       C     -0.003223    -0.001787    -0.000881
    12       C      0.000764    -0.000292    -0.003057
    13       H     -0.000226    -0.001506    -0.001503
    14       H      0.003796    -0.001040    -0.002456
    15       H     -0.002137     0.002871     0.000346
    16       H     -0.001134     0.000767     0.000508
    17       H      0.002973     0.000789    -0.004894
    18       H      0.003840     0.000099    -0.000828
    19       H     -0.000489     0.001883     0.000279
    20       H     -0.002758     0.000612    -0.000898
    21       H      0.000179    -0.000641    -0.000072
    22       H     -0.002119     0.004373     0.002630
    23       H      0.001103    -0.003380     0.001041
    24       H      0.001478     0.000574    -0.002942
    25       H      0.004946    -0.004744     0.011550
    26       H     -0.004756    -0.007565     0.000495
    27       H     -0.000976    -0.002322     0.001336
    28       H     -0.002450     0.000468     0.000313
    29       H     -0.001447    -0.002046     0.000344
    30       H      0.000266     0.001422     0.002305
 


          GRADIENT NORM =   0.02559


          TIME FOR SCF CALCULATION =    0.03

          TIME FOR DERIVATIVES     =    0.02

          MOLECULAR WEIGHT =  162.27



          ROTATIONAL CONSTANTS IN CM(-1)

          A =    0.05484778   B =    0.01508350   C =    0.01369378



           PRINCIPAL MOMENTS OF INERTIA IN UNITS OF 10**(-40)*GRAM-CM**2

          A =      510.3721   B =     1855.8540   C =     2044.1964


          ORIENTATION OF MOLECULE IN FORCE CALCULATION

    NO.       ATOM         X         Y         Z

     1          C      -0.6545    0.9040    0.6117
     2          C       0.8689    0.9040    0.6117
     3          C       0.1209    2.2036    0.6117
     4          C       1.6412    0.5005   -0.6148
     5          C       2.1405   -0.9316   -0.5129
     6          C       2.9249   -1.3322   -1.7523
     7          C      -3.3881   -0.1648    0.6364
     8          C       3.4242   -2.7560   -1.6547
     9          C      -1.3721    0.5315   -0.6250
    10          C      -1.3435    0.5205    1.8622
    11          C      -2.5887    0.0412    1.8717
    12          C      -2.6171    0.0533   -0.6147
    13          H       1.3736    0.5939    1.5472
    14          H       2.2909   -1.2148   -2.6538
    15          H       3.7786   -0.6406   -1.8980
    16          H       1.2835   -1.6192   -0.3677
    17          H       2.7741   -1.0516    0.3890
    18          H       2.4924    1.1972   -0.7485
    19          H       1.0032    0.6181   -1.5212
    20          H       0.1171    2.8305   -0.2876
    21          H       0.1211    2.8337    1.5079
    22          H      -4.2632    0.5173    0.6505
    23          H      -3.8020   -1.1938    0.6356
    24          H       3.9892   -3.0427   -2.5508
    25          H       4.0873   -2.8943   -0.7903
    26          H       2.5959   -3.4690   -1.5467
    27          H      -0.8036    0.6613   -1.5596
    28          H      -0.7805    0.6575    2.7930
    29          H      -3.0800   -0.2251    2.8142
    30          H      -3.1262   -0.2069   -1.5492


    FIRST DERIVATIVES WILL BE USED IN THE CALCULATION OF SECOND DERIVATIVES

          ESTIMATED TIME TO COMPLETE CALCULATION =       16.88 SECONDS

    FOR POINT-GROUP C1   THERE ARE   1 UNIQUE SYMMETRY FUNCTIONS.

 STEP:   1 TIME =     0.08 SECS, INTEGRAL =      0.08 TIME LEFT: 172799.88
 STEP:   2 TIME =     0.07 SECS, INTEGRAL =      0.15 TIME LEFT: 172799.80
 STEP:   3 TIME =     0.07 SECS, INTEGRAL =      0.22 TIME LEFT: 172799.73
 STEP:   4 TIME =     0.07 SECS, INTEGRAL =      0.30 TIME LEFT: 172799.66
 STEP:   5 TIME =     0.07 SECS, INTEGRAL =      0.37 TIME LEFT: 172799.58
 STEP:   6 TIME =     0.07 SECS, INTEGRAL =      0.45 TIME LEFT: 172799.51
 STEP:   7 TIME =     0.07 SECS, INTEGRAL =      0.52 TIME LEFT: 172799.43
 STEP:   8 TIME =     0.07 SECS, INTEGRAL =      0.59 TIME LEFT: 172799.36
 STEP:   9 TIME =     0.07 SECS, INTEGRAL =      0.66 TIME LEFT: 172799.29
 STEP:  10 TIME =     0.07 SECS, INTEGRAL =      0.73 TIME LEFT: 172799.22
 STEP:  11 TIME =     0.07 SECS, INTEGRAL =      0.80 TIME LEFT: 172799.15
 STEP:  12 TIME =     0.07 SECS, INTEGRAL =      0.88 TIME LEFT: 172799.07
 STEP:  13 TIME =     0.07 SECS, INTEGRAL =      0.95 TIME LEFT: 172799.00
 STEP:  14 TIME =     0.07 SECS, INTEGRAL =      1.02 TIME LEFT: 172798.93
 STEP:  15 TIME =     0.07 SECS, INTEGRAL =      1.09 TIME LEFT: 172798.87
 STEP:  16 TIME =     0.07 SECS, INTEGRAL =      1.16 TIME LEFT: 172798.80
 STEP:  17 TIME =     0.07 SECS, INTEGRAL =      1.22 TIME LEFT: 172798.73
 STEP:  18 TIME =     0.07 SECS, INTEGRAL =      1.29 TIME LEFT: 172798.66
 STEP:  19 TIME =     0.07 SECS, INTEGRAL =      1.36 TIME LEFT: 172798.59
 STEP:  20 TIME =     0.07 SECS, INTEGRAL =      1.44 TIME LEFT: 172798.52
 STEP:  21 TIME =     0.07 SECS, INTEGRAL =      1.51 TIME LEFT: 172798.45
 STEP:  22 TIME =     0.07 SECS, INTEGRAL =      1.58 TIME LEFT: 172798.38
 STEP:  23 TIME =     0.07 SECS, INTEGRAL =      1.64 TIME LEFT: 172798.31
 STEP:  24 TIME =     0.07 SECS, INTEGRAL =      1.71 TIME LEFT: 172798.24
 STEP:  25 TIME =     0.07 SECS, INTEGRAL =      1.78 TIME LEFT: 172798.17
 STEP:  26 TIME =     0.07 SECS, INTEGRAL =      1.86 TIME LEFT: 172798.10
 STEP:  27 TIME =     0.07 SECS, INTEGRAL =      1.93 TIME LEFT: 172798.02
 STEP:  28 TIME =     0.07 SECS, INTEGRAL =      2.00 TIME LEFT: 172797.95
 STEP:  29 TIME =     0.07 SECS, INTEGRAL =      2.07 TIME LEFT: 172797.88
 STEP:  30 TIME =     0.07 SECS, INTEGRAL =      2.14 TIME LEFT: 172797.81
 STEP:  31 TIME =     0.07 SECS, INTEGRAL =      2.21 TIME LEFT: 172797.74
 STEP:  32 TIME =     0.07 SECS, INTEGRAL =      2.28 TIME LEFT: 172797.67
 STEP:  33 TIME =     0.07 SECS, INTEGRAL =      2.36 TIME LEFT: 172797.60
 STEP:  34 TIME =     0.07 SECS, INTEGRAL =      2.43 TIME LEFT: 172797.53
 STEP:  35 TIME =     0.07 SECS, INTEGRAL =      2.50 TIME LEFT: 172797.45
 STEP:  36 TIME =     0.07 SECS, INTEGRAL =      2.57 TIME LEFT: 172797.38
 STEP:  37 TIME =     0.12 SECS, INTEGRAL =      2.69 TIME LEFT: 172797.27
 STEP:  38 TIME =     0.08 SECS, INTEGRAL =      2.77 TIME LEFT: 172797.19
 STEP:  39 TIME =     0.07 SECS, INTEGRAL =      2.84 TIME LEFT: 172797.12
 STEP:  40 TIME =     0.07 SECS, INTEGRAL =      2.91 TIME LEFT: 172797.05
 STEP:  41 TIME =     0.07 SECS, INTEGRAL =      2.98 TIME LEFT: 172796.97
 STEP:  42 TIME =     0.07 SECS, INTEGRAL =      3.05 TIME LEFT: 172796.90
 STEP:  43 TIME =     0.07 SECS, INTEGRAL =      3.12 TIME LEFT: 172796.84
 STEP:  44 TIME =     0.07 SECS, INTEGRAL =      3.19 TIME LEFT: 172796.77
 STEP:  45 TIME =     0.07 SECS, INTEGRAL =      3.26 TIME LEFT: 172796.70
 STEP:  46 TIME =     0.07 SECS, INTEGRAL =      3.33 TIME LEFT: 172796.62
 STEP:  47 TIME =     0.10 SECS, INTEGRAL =      3.43 TIME LEFT: 172796.53
 STEP:  48 TIME =     0.07 SECS, INTEGRAL =      3.50 TIME LEFT: 172796.45
 STEP:  49 TIME =     0.07 SECS, INTEGRAL =      3.57 TIME LEFT: 172796.38
 STEP:  50 TIME =     0.07 SECS, INTEGRAL =      3.64 TIME LEFT: 172796.31
 STEP:  51 TIME =     0.07 SECS, INTEGRAL =      3.71 TIME LEFT: 172796.24
 STEP:  52 TIME =     0.07 SECS, INTEGRAL =      3.79 TIME LEFT: 172796.17
 STEP:  53 TIME =     0.07 SECS, INTEGRAL =      3.86 TIME LEFT: 172796.10
 STEP:  54 TIME =     0.07 SECS, INTEGRAL =      3.93 TIME LEFT: 172796.03
 STEP:  55 TIME =     0.11 SECS, INTEGRAL =      4.04 TIME LEFT: 172795.92
 STEP:  56 TIME =     0.08 SECS, INTEGRAL =      4.12 TIME LEFT: 172795.84
 STEP:  57 TIME =     0.07 SECS, INTEGRAL =      4.19 TIME LEFT: 172795.77
 STEP:  58 TIME =     0.07 SECS, INTEGRAL =      4.26 TIME LEFT: 172795.69
 STEP:  59 TIME =     0.07 SECS, INTEGRAL =      4.34 TIME LEFT: 172795.62
 STEP:  60 TIME =     0.07 SECS, INTEGRAL =      4.41 TIME LEFT: 172795.55
 STEP:  61 TIME =     0.07 SECS, INTEGRAL =      4.48 TIME LEFT: 172795.47
 STEP:  62 TIME =     0.07 SECS, INTEGRAL =      4.55 TIME LEFT: 172795.40
 STEP:  63 TIME =     0.07 SECS, INTEGRAL =      4.62 TIME LEFT: 172795.33
 STEP:  64 TIME =     0.07 SECS, INTEGRAL =      4.69 TIME LEFT: 172795.26
 STEP:  65 TIME =     0.07 SECS, INTEGRAL =      4.77 TIME LEFT: 172795.19
 STEP:  66 TIME =     0.07 SECS, INTEGRAL =      4.84 TIME LEFT: 172795.12
 STEP:  67 TIME =     0.07 SECS, INTEGRAL =      4.91 TIME LEFT: 172795.04
 STEP:  68 TIME =     0.07 SECS, INTEGRAL =      4.98 TIME LEFT: 172794.97
 STEP:  69 TIME =     0.07 SECS, INTEGRAL =      5.05 TIME LEFT: 172794.90
 STEP:  70 TIME =     0.07 SECS, INTEGRAL =      5.12 TIME LEFT: 172794.83
 STEP:  71 TIME =     0.12 SECS, INTEGRAL =      5.25 TIME LEFT: 172794.71
 STEP:  72 TIME =     0.07 SECS, INTEGRAL =      5.32 TIME LEFT: 172794.63
 STEP:  73 TIME =     0.07 SECS, INTEGRAL =      5.39 TIME LEFT: 172794.56
 STEP:  74 TIME =     0.07 SECS, INTEGRAL =      5.46 TIME LEFT: 172794.49
 STEP:  75 TIME =     0.07 SECS, INTEGRAL =      5.54 TIME LEFT: 172794.42
 STEP:  76 TIME =     0.07 SECS, INTEGRAL =      5.61 TIME LEFT: 172794.35
 STEP:  77 TIME =     0.07 SECS, INTEGRAL =      5.68 TIME LEFT: 172794.28
 STEP:  78 TIME =     0.07 SECS, INTEGRAL =      5.75 TIME LEFT: 172794.21
 STEP:  79 TIME =     0.07 SECS, INTEGRAL =      5.82 TIME LEFT: 172794.14
 STEP:  80 TIME =     0.07 SECS, INTEGRAL =      5.89 TIME LEFT: 172794.07
 STEP:  81 TIME =     0.07 SECS, INTEGRAL =      5.96 TIME LEFT: 172794.00
 STEP:  82 TIME =     0.07 SECS, INTEGRAL =      6.03 TIME LEFT: 172793.93
 STEP:  83 TIME =     0.07 SECS, INTEGRAL =      6.10 TIME LEFT: 172793.86
 STEP:  84 TIME =     0.07 SECS, INTEGRAL =      6.17 TIME LEFT: 172793.78
 STEP:  85 TIME =     0.07 SECS, INTEGRAL =      6.25 TIME LEFT: 172793.71
 STEP:  86 TIME =     0.07 SECS, INTEGRAL =      6.32 TIME LEFT: 172793.63
 STEP:  87 TIME =     0.07 SECS, INTEGRAL =      6.39 TIME LEFT: 172793.56
 STEP:  88 TIME =     0.07 SECS, INTEGRAL =      6.46 TIME LEFT: 172793.49
 STEP:  89 TIME =     0.07 SECS, INTEGRAL =      6.53 TIME LEFT: 172793.42
 STEP:  90 TIME =     0.07 SECS, INTEGRAL =      6.60 TIME LEFT: 172793.35

(To convert to Hartree/Bohr^2, multiply by (10^(-21) x N x a0^2)/(4.184 x 627.51) =  0.0642)


           FORCE MATRIX IN MILLIDYNES/ANGSTROM


                  C  1       C  2       C  3       C  4       C  5       C  6
 ------------------------------------------------------------------------------
     C    1  16.347472
     C    2   4.013599  15.288424
     C    3   4.386570   5.017255  15.170449
     C    4   0.508407   4.538908   0.552134  14.506976
     C    5   0.015003   0.663614   0.051286   4.189069  14.362655
     C    6   0.001963   0.053796   0.008980   0.647103   4.178502  14.383467
     C    7   0.204135   0.007966   0.012790   0.001895   0.000780   0.000942
     C    8   0.001146   0.011064   0.002701   0.053230   0.663749   4.476984
     C    9   5.091528   0.564877   0.607974   0.073184   0.006090   0.001383
     C   10   5.078686   0.586921   0.610685   0.043377   0.002746   0.001008
     C   11   0.903122   0.040870   0.037899   0.007617   0.000721   0.000707
     C   12   0.903467   0.043719   0.037557   0.008265   0.001924   0.000877
     H   13   0.446008   4.510134   0.442217   0.424535   0.040538   0.001993
     H   14   0.000477   0.001388   0.000587   0.029496   0.443302   4.447930
     H   15   0.000592   0.001476   0.000475   0.029612   0.444305   4.447600
     H   16   0.003394   0.023309   0.002238   0.442432   4.457423   0.442341
     H   17   0.002022   0.030955   0.001546   0.445162   4.434131   0.442256
     H   18   0.046280   0.429080   0.016740   4.450776   0.446912   0.027782
     H   19   0.027945   0.452115   0.021728   4.238082   0.443319   0.029352
     H   20   0.463115   0.467655   4.812974   0.022781   0.003653   0.000957
     H   21   0.461525   0.457247   4.837463   0.043381   0.007439   0.001554
     H   22   0.014310   0.002833   0.003135   0.000565   0.000209   0.000245
     H   23   0.015087   0.002516   0.003088   0.000562   0.000381   0.000241
     H   24   0.000433   0.002201   0.000524   0.009189   0.051270   0.450137
     H   25   0.000302   0.000605   0.000238   0.001623   0.023775   0.463470
     H   26   0.000260   0.000756   0.000286   0.001683   0.023693   0.463011
     H   27   0.440293   0.024566   0.018509   0.086322   0.003192   0.001286
     H   28   0.437765   0.028806   0.017747   0.002148   0.000413   0.000403
     H   29   0.121901   0.014958   0.018695   0.002856   0.000309   0.000219
     H   30   0.122798   0.015674   0.018094   0.001902   0.000346   0.000181


                  C  7       C  8       C  9       C 10       C 11       C 12
 ------------------------------------------------------------------------------
     C    7  15.132511
     C    8   0.000547  14.373201
     C    9   0.852644   0.000749  18.562973
     C   10   0.845849   0.000718   0.702843  18.545480
     C   11   5.024666   0.000785   0.062095  10.654585  18.249332
     C   12   5.024943   0.000915  10.677979   0.061328   0.740791  18.268943
     H   13   0.001466   0.000734   0.038633   0.028926   0.004010   0.006007
     H   14   0.000378   0.437831   0.000498   0.000461   0.000235   0.000282
     H   15   0.000150   0.437147   0.000449   0.000441   0.000270   0.000323
     H   16   0.000392   0.027292   0.003082   0.000735   0.000422   0.000788
     H   17   0.000212   0.027913   0.000671   0.000772   0.000238   0.000575
     H   18   0.000422   0.001391   0.007564   0.008558   0.001687   0.000913
     H   19   0.001204   0.001465   0.109622   0.002179   0.000529   0.002251
     H   20   0.001120   0.000388   0.026400   0.039935   0.004750   0.004083
     H   21   0.001143   0.000400   0.039254   0.025395   0.004103   0.004591
     H   22   4.377490   0.000211   0.035313   0.034782   0.418894   0.419154
     H   23   4.401409   0.000189   0.040599   0.040514   0.422434   0.422254
     H   24   0.000293   4.751095   0.000281   0.000244   0.000208   0.000210
     H   25   0.000233   4.723008   0.000187   0.000267   0.000256   0.000345
     H   26   0.000395   4.723947   0.000238   0.000278   0.000200   0.000249
     H   27   0.122562   0.000551   4.623516   0.040175   0.003064   0.441288
     H   28   0.123546   0.000199   0.039571   4.799341   0.443022   0.003135
     H   29   0.423889   0.000221   0.004041   0.441037   4.826955   0.045782
     H   30   0.424215   0.000202   0.440778   0.004090   0.045670   4.829532


                  H 13       H 14       H 15       H 16       H 17       H 18
 ------------------------------------------------------------------------------
     H   13   5.043181
     H   14   0.000577   5.068179
     H   15   0.000504   0.573515   5.068011
     H   16   0.003007   0.024548   0.045615   5.071952
     H   17   0.028207   0.044948   0.024457   0.571014   5.058155
     H   18   0.016889   0.001549   0.022010   0.045628   0.023641   5.044007
     H   19   0.038218   0.022963   0.001615   0.024559   0.044822   0.545823
     H   20   0.038970   0.000220   0.000144   0.000435   0.000494   0.004495
     H   21   0.021008   0.000161   0.000098   0.000457   0.000435   0.002679
     H   22   0.000655   0.000113   0.000131   0.000193   0.000135   0.000190
     H   23   0.000251   0.000082   0.000063   0.000218   0.000155   0.000140
     H   24   0.000207   0.029930   0.029828   0.001784   0.001743   0.000412
     H   25   0.000196   0.048108   0.024387   0.001565   0.019223   0.000318
     H   26   0.000214   0.024512   0.047739   0.018806   0.001583   0.000484
     H   27   0.001432   0.000535   0.000319   0.000979   0.000995   0.002963
     H   28   0.024224   0.000122   0.000136   0.000285   0.000257   0.000453
     H   29   0.001161   0.000094   0.000093   0.000186   0.000125   0.000627
     H   30   0.002505   0.000137   0.000124   0.000212   0.000148   0.000196


                  H 19       H 20       H 21       H 22       H 23       H 24
 ------------------------------------------------------------------------------
     H   19   4.914867
     H   20   0.008533   5.418057
     H   21   0.000853   0.483860   5.439263
     H   22   0.000401   0.000309   0.000370   4.965872
     H   23   0.000522   0.000630   0.000570   0.563907   4.984528
     H   24   0.000459   0.000089   0.000184   0.000081   0.000069   5.489883
     H   25   0.000450   0.000098   0.000110   0.000077   0.000053   0.571816
     H   26   0.000350   0.000092   0.000066   0.000053   0.000060   0.573970
     H   27   0.122961   0.009626   0.001331   0.016535   0.015057   0.000223
     H   28   0.000721   0.001123   0.009479   0.016542   0.015186   0.000074
     H   29   0.000234   0.002585   0.001689   0.022531   0.032259   0.000081
     H   30   0.000853   0.001699   0.002550   0.021973   0.032265   0.000095


                  H 25       H 26       H 27       H 28       H 29       H 30
 ------------------------------------------------------------------------------
     H   25   5.467047
     H   26   0.578052   5.467154
     H   27   0.000169   0.000179   5.055462
     H   28   0.000086   0.000129   0.005781   5.176790
     H   29   0.000056   0.000063   0.000833   0.069080   5.202793
     H   30   0.000089   0.000093   0.068290   0.000863   0.006369   5.205756


          HEAT OF FORMATION =      22.234701 KCALS/MOLE

          ZERO POINT ENERGY     167.865 KCAL/MOL


           NORMAL COORDINATE ANALYSIS (Total motion = 1 Angstrom)


   Root No.       1         2         3         4         5         6         7         8

                 1 A       2 A       3 A       4 A       5 A       6 A       7 A       8 A   

                  37.1      69.5      76.6      96.5     105.8     206.0     210.8     260.4
  
           1   -0.0065    0.0014    0.0045   -0.0035   -0.0069    0.0015   -0.0028    0.0076
           2   -0.0089   -0.0133   -0.0146    0.0032    0.0049   -0.0079    0.0061   -0.0292
           3   -0.0005   -0.0017   -0.0004    0.0040   -0.0040    0.0047   -0.0059   -0.0063
           4   -0.0064    0.0012    0.0043   -0.0029   -0.0064    0.0023   -0.0035    0.0076
           5   -0.0224    0.0029    0.0061   -0.0137   -0.0058   -0.0111    0.0077   -0.0009
           6   -0.0085    0.0002    0.0028    0.0161   -0.0085   -0.0030    0.0026    0.0043
           7    0.0050   -0.0127   -0.0131    0.0107    0.0025    0.0056   -0.0054   -0.0160
           8   -0.0158   -0.0049   -0.0040   -0.0055   -0.0008   -0.0101    0.0074   -0.0147
           9    0.0001   -0.0125   -0.0006   -0.0018   -0.0004    0.0208   -0.0212   -0.0185
          10   -0.0135    0.0078    0.0114    0.0035   -0.0085   -0.0005    0.0031    0.0320
          11   -0.0211    0.0042    0.0116   -0.0136   -0.0068    0.0133   -0.0122    0.0137
          12   -0.0134    0.0040    0.0055    0.0198   -0.0097   -0.0154    0.0157    0.0155
          13    0.0112    0.0015    0.0249    0.0194    0.0506    0.0019   -0.0098    0.0047
          14   -0.0121    0.0017    0.0169   -0.0083    0.0158    0.0146   -0.0175    0.0033
          15   -0.0089   -0.0013    0.0137    0.0121    0.0219   -0.0267    0.0176   -0.0037
          16    0.0222    0.0327   -0.0264   -0.0096    0.0238    0.0220    0.0057   -0.0011
          17   -0.0004    0.0177   -0.0055    0.0038    0.0015    0.0048    0.0052   -0.0016
          18   -0.0059    0.0131   -0.0113   -0.0110    0.0096   -0.0100    0.0192   -0.0058
          19   -0.0224   -0.0112   -0.0096   -0.0008   -0.0024   -0.0029    0.0012    0.0007
          20    0.0335    0.0256    0.0285   -0.0113   -0.0119   -0.0046    0.0020   -0.0192
          21    0.0125    0.0065   -0.0043   -0.0050    0.0035   -0.0021    0.0036    0.0077
          22    0.0576   -0.0182   -0.0064    0.0076   -0.0231   -0.0117    0.0049    0.0001
          23    0.0126   -0.0023    0.0025    0.0085   -0.0164   -0.0063    0.0032   -0.0009
          24    0.0031   -0.0188    0.0034   -0.0354   -0.0091    0.0189   -0.0202    0.0039
          25   -0.0178    0.0051    0.0091    0.0055   -0.0166    0.0015   -0.0045   -0.0055
          26    0.0025   -0.0317   -0.0220   -0.0121    0.0198   -0.0046    0.0044   -0.0082
          27    0.0027    0.0016   -0.0011    0.0036   -0.0028    0.0040   -0.0046   -0.0045
          28   -0.0034    0.0017    0.0054   -0.0219   -0.0020   -0.0079    0.0057    0.0029
          29   -0.0055   -0.0050   -0.0218    0.0367   -0.0007    0.0032   -0.0012   -0.0058
          30    0.0023    0.0012   -0.0020    0.0044   -0.0030    0.0036   -0.0039   -0.0019
          31   -0.0108   -0.0056   -0.0023   -0.0210    0.0015   -0.0136    0.0111   -0.0064
          32    0.0139    0.0139   -0.0019    0.0344   -0.0099    0.0176   -0.0147    0.0192
          33    0.0083    0.0050   -0.0037    0.0003    0.0005    0.0011   -0.0000    0.0056
          34   -0.0252   -0.0016    0.0014    0.0092   -0.0146    0.0030   -0.0067   -0.0249
          35    0.0216   -0.0143   -0.0019   -0.0219    0.0145   -0.0085    0.0098    0.0414
          36    0.0087    0.0053   -0.0030   -0.0006    0.0006    0.0010   -0.0002    0.0016
          37   -0.0050    0.0036    0.0069   -0.0123   -0.0077    0.0060   -0.0089    0.0043
          38   -0.0302    0.0156    0.0146   -0.0157   -0.0121   -0.0279    0.0226    0.0169
          39   -0.0117    0.0031    0.0042    0.0200   -0.0097   -0.0106    0.0106    0.0120
          40    0.0200    0.0686   -0.0680   -0.0350    0.0175    0.0428    0.0130   -0.0053
          41   -0.0213    0.0690   -0.0360    0.0027    0.0283    0.0110    0.0294   -0.0079
          42   -0.0070   -0.0056    0.0139    0.0065    0.0174   -0.0235    0.0168   -0.0035
          43    0.0054    0.0603   -0.0409   -0.0203    0.0434    0.0379    0.0083   -0.0023
          44    0.0196   -0.0051    0.0005    0.0131   -0.0238   -0.0126    0.0072   -0.0021
          45   -0.0093    0.0671   -0.0673   -0.0302    0.0058    0.0037    0.0431   -0.0140
          46    0.0234   -0.0047    0.0352    0.0308    0.0807   -0.0030   -0.0162   -0.0100
          47   -0.0273    0.0026    0.0147   -0.0177   -0.0109    0.0166   -0.0142    0.0191
          48   -0.0095   -0.0334    0.0643    0.0340    0.0738   -0.0423   -0.0052   -0.0145
          49    0.0114   -0.0223    0.0633    0.0436    0.0853   -0.0120   -0.0248   -0.0007
          50    0.0010   -0.0132    0.0402   -0.0006    0.0691    0.0077   -0.0329   -0.0203
          51   -0.0071    0.0133   -0.0102   -0.0042    0.0046   -0.0175    0.0254   -0.0030
          52   -0.0255    0.0112    0.0045   -0.0023   -0.0374   -0.0039    0.0118    0.0460
          53   -0.0087    0.0017    0.0195   -0.0057    0.0224    0.0185   -0.0217    0.0030
          54   -0.0268    0.0128    0.0033    0.0220   -0.0415   -0.0088    0.0198    0.0505
          55   -0.0239    0.0137    0.0117    0.0047   -0.0270   -0.0029    0.0099    0.0471
          56   -0.0370    0.0102    0.0008   -0.0175   -0.0539    0.0215   -0.0087    0.0436
          57   -0.0081    0.0006    0.0040    0.0182   -0.0029   -0.0122    0.0109    0.0083
          58    0.0063   -0.0181   -0.0202    0.0272    0.0041    0.0049   -0.0031   -0.0224
          59   -0.0127   -0.0132   -0.0054   -0.0137    0.0030    0.0054   -0.0080   -0.0296
          60    0.0023   -0.0182   -0.0015   -0.0077    0.0023    0.0318   -0.0322   -0.0293
          61    0.0151   -0.0210   -0.0234    0.0085    0.0102    0.0098   -0.0098   -0.0357
          62   -0.0188    0.0032   -0.0028    0.0029   -0.0046   -0.0254    0.0227    0.0004
          63    0.0023   -0.0182   -0.0014   -0.0077    0.0023    0.0318   -0.0322   -0.0294
          64   -0.0087    0.0116    0.0174   -0.0169   -0.0152   -0.0124    0.0059   -0.0559
          65    0.0509    0.0551    0.0633   -0.0315   -0.0286   -0.0166    0.0077   -0.0933
          66    0.0197   -0.0029   -0.0058   -0.0317    0.0164   -0.0168    0.0185    0.0235
          67   -0.0430   -0.0457   -0.0504    0.0233    0.0170    0.0113   -0.0056    0.0870
          68    0.0418    0.0396    0.0450   -0.0211   -0.0198   -0.0105    0.0048   -0.0548
          69    0.0119    0.0182   -0.0043    0.0136   -0.0046    0.0072   -0.0050   -0.0016
          70    0.0642    0.0062   -0.0402   -0.0070   -0.0315   -0.1104   -0.1159    0.0129
          71    0.0209    0.0112   -0.0137    0.0238   -0.0229   -0.0762   -0.0175   -0.0023
          72    0.0046   -0.0078   -0.0127   -0.0495   -0.0122   -0.0207   -0.0898    0.0125
          73    0.0615   -0.0555    0.0308    0.0261   -0.0291    0.0699    0.1176   -0.0115
          74    0.0346   -0.0551    0.0316    0.0069   -0.0501    0.0227    0.0136    0.0021
          75    0.0036    0.0013   -0.0204   -0.0499   -0.0099   -0.0390   -0.1052    0.0134
          76    0.0753   -0.0458    0.0060    0.0174   -0.0468   -0.0233    0.0133   -0.0003
          77   -0.0072    0.0212   -0.0039   -0.0015    0.0093    0.0256    0.0120   -0.0018
          78    0.0081   -0.0759    0.0557   -0.0262   -0.0201    0.1430    0.1020   -0.0056
          79   -0.0204    0.0122    0.0168    0.0098   -0.0246    0.0013   -0.0039   -0.0031
          80   -0.0063   -0.0577   -0.0417   -0.0177    0.0336   -0.0021    0.0024   -0.0066
          81   -0.0000    0.0023    0.0009    0.0055   -0.0057    0.0042   -0.0045   -0.0032
          82    0.0052    0.0072    0.0118   -0.0367   -0.0005   -0.0132    0.0104    0.0022
          83   -0.0194   -0.0138   -0.0438    0.0671    0.0017    0.0092   -0.0039    0.0056
          84   -0.0009   -0.0009   -0.0027    0.0090   -0.0042    0.0059   -0.0064   -0.0031
          85   -0.0087   -0.0073   -0.0035   -0.0351    0.0073   -0.0251    0.0220   -0.0166
          86    0.0166    0.0219   -0.0065    0.0643   -0.0160    0.0412   -0.0340    0.0582
          87    0.0102    0.0063   -0.0057    0.0015    0.0018    0.0018    0.0002    0.0113
          88   -0.0338   -0.0005    0.0029    0.0192   -0.0216    0.0075   -0.0132   -0.0554
          89    0.0298   -0.0276   -0.0058   -0.0374    0.0275   -0.0126    0.0167    0.1047
          90    0.0112    0.0084   -0.0027   -0.0017    0.0008   -0.0004    0.0014    0.0004


   Root No.       9        10        11        12        13        14        15        16

                 9 A      10 A      11 A      12 A      13 A      14 A      15 A      16 A   

                 306.2     328.7     351.7     434.1     437.9     482.2     523.3     554.1
  
           1   -0.0122    0.0084   -0.0056   -0.0062    0.0192    0.0108    0.0011    0.0264
           2    0.0144   -0.0159    0.0054    0.0017    0.0088    0.0175    0.0050   -0.0350
           3   -0.0256   -0.0240   -0.0144    0.0059    0.0080   -0.0105   -0.0035   -0.0061
           4   -0.0104    0.0024   -0.0045   -0.0079    0.0292    0.0125   -0.0031    0.0370
           5   -0.0217   -0.0193    0.0192   -0.0018    0.0046    0.0284   -0.0077    0.0129
           6    0.0085   -0.0035   -0.0136    0.0035   -0.0159    0.0193    0.0440    0.0248
           7    0.0205    0.0132   -0.0204   -0.0083    0.0461    0.0023    0.0163   -0.0132
           8   -0.0052   -0.0168    0.0129    0.0007    0.0031    0.0269    0.0007   -0.0171
           9    0.0014    0.0144    0.0360   -0.0209   -0.0150    0.0166   -0.0129    0.0034
          10    0.0266   -0.0165    0.0168    0.0035    0.0239   -0.0111   -0.0341   -0.0006
          11    0.0112   -0.0083    0.0150   -0.0135    0.0123   -0.0231    0.0253    0.0012
          12    0.0232   -0.0091   -0.0017    0.0170   -0.0190    0.0194    0.0127    0.0038
          13    0.0082   -0.0157   -0.0002    0.0084   -0.0072    0.0079   -0.0104   -0.0021
          14    0.0050   -0.0006    0.0003   -0.0108    0.0058   -0.0192    0.0311    0.0002
          15   -0.0071    0.0240    0.0068   -0.0050    0.0140   -0.0088   -0.0127   -0.0020
          16    0.0009   -0.0182    0.0022    0.0043   -0.0107    0.0089    0.0022    0.0002
          17    0.0044    0.0234   -0.0252    0.0086    0.0027    0.0066   -0.0172   -0.0009
          18   -0.0109    0.0213    0.0136   -0.0158    0.0189   -0.0234    0.0084   -0.0010
          19   -0.0087    0.0129   -0.0020    0.0064   -0.0419   -0.0188    0.0009   -0.0089
          20    0.0030    0.0005   -0.0025    0.0018   -0.0149   -0.0068    0.0008   -0.0066
          21    0.0149    0.0047    0.0074   -0.0005   -0.0007    0.0019   -0.0010    0.0011
          22   -0.0062   -0.0148    0.0206   -0.0072   -0.0012   -0.0049    0.0135    0.0008
          23    0.0029    0.0282   -0.0237    0.0067    0.0079    0.0031   -0.0220   -0.0013
          24    0.0111    0.0075   -0.0221    0.0089   -0.0031    0.0075   -0.0098   -0.0003
          25   -0.0221   -0.0009   -0.0135   -0.0112   -0.0139   -0.0007    0.0001   -0.0173
          26    0.0038   -0.0074    0.0115    0.0413    0.0057   -0.0202   -0.0058    0.0233
          27   -0.0170   -0.0222   -0.0120   -0.0020    0.0271    0.0037   -0.0023   -0.0033
          28    0.0004    0.0246    0.0089    0.0128   -0.0113    0.0068    0.0114   -0.0029
          29    0.0153   -0.0098   -0.0115   -0.0352   -0.0218   -0.0074   -0.0132    0.0182
          30   -0.0180   -0.0165   -0.0119    0.0053   -0.0146   -0.0240   -0.0067   -0.0111
          31    0.0136    0.0131   -0.0025   -0.0093   -0.0240    0.0014    0.0038    0.0067
          32   -0.0159    0.0256    0.0208    0.0227   -0.0007    0.0060    0.0091   -0.0067
          33    0.0026   -0.0004    0.0031    0.0066   -0.0153   -0.0150   -0.0048   -0.0105
          34   -0.0165   -0.0024   -0.0040    0.0136   -0.0105   -0.0124   -0.0019   -0.0047
          35   -0.0156   -0.0038   -0.0164   -0.0210   -0.0116    0.0032   -0.0013   -0.0160
          36    0.0048   -0.0062    0.0021   -0.0006    0.0204    0.0082   -0.0022    0.0025
          37   -0.0456   -0.0027   -0.0110   -0.0136    0.0373    0.0109   -0.0143    0.0550
          38   -0.0555   -0.0430    0.0034    0.0138    0.0053    0.0408   -0.0185    0.0488
          39    0.0165   -0.0081   -0.0142    0.0120   -0.0197    0.0239    0.0448    0.0257
          40   -0.0024   -0.0199   -0.0015    0.0036   -0.0151    0.0123    0.0108    0.0023
          41   -0.0026    0.0328   -0.0239    0.0068    0.0073    0.0056   -0.0232   -0.0003
          42   -0.0093    0.0233    0.0160   -0.0151    0.0221   -0.0252    0.0018   -0.0022
          43    0.0015   -0.0222    0.0006    0.0045   -0.0134    0.0100    0.0080    0.0013
          44    0.0013    0.0308   -0.0231    0.0074    0.0072    0.0048   -0.0243   -0.0018
          45   -0.0200    0.0302    0.0116   -0.0181    0.0201   -0.0219    0.0084    0.0008
          46   -0.0028   -0.0094   -0.0122    0.0132   -0.0219    0.0211   -0.0093   -0.0049
          47    0.0159   -0.0070    0.0156   -0.0185    0.0243   -0.0374    0.0312    0.0025
          48   -0.0182    0.0312    0.0060   -0.0123    0.0144   -0.0173   -0.0050   -0.0069
          49    0.0061   -0.0132   -0.0081    0.0133   -0.0167    0.0167   -0.0121   -0.0050
          50   -0.0199    0.0128   -0.0036   -0.0224    0.0033   -0.0283    0.0464   -0.0053
          51   -0.0086    0.0242    0.0114   -0.0100    0.0203   -0.0164   -0.0094   -0.0009
          52    0.0374   -0.0237    0.0287    0.0066    0.0330   -0.0162   -0.0590   -0.0107
          53    0.0080   -0.0041    0.0030   -0.0144    0.0002   -0.0260    0.0503    0.0001
          54    0.0756   -0.0325    0.0151    0.0298   -0.0244   -0.0268   -0.0118   -0.0606
          55    0.0472   -0.0274    0.0284    0.0078    0.0186   -0.0367   -0.0640   -0.0513
          56    0.0483   -0.0278    0.0245   -0.0045    0.0144   -0.0459    0.0227   -0.0182
          57    0.0130   -0.0045   -0.0083    0.0146   -0.0154    0.0337    0.0330    0.0354
          58    0.0656    0.0332   -0.0310   -0.0188    0.0399    0.0168    0.0756   -0.0194
          59    0.0001    0.0057    0.0578   -0.0284   -0.0100    0.0448   -0.0432   -0.0212
          60    0.0049    0.0307    0.0688   -0.0425   -0.0250    0.0302   -0.0456    0.0003
          61    0.0112    0.0010   -0.0280    0.0009    0.0784   -0.0238   -0.0179   -0.0697
          62   -0.0105   -0.0407   -0.0318    0.0300    0.0170    0.0095    0.0438   -0.0115
          63    0.0051    0.0316    0.0688   -0.0428   -0.0255    0.0300   -0.0451   -0.0002
          64    0.0155   -0.0025   -0.0091    0.0056   -0.0494   -0.0416   -0.0120    0.0402
          65    0.0344   -0.0196   -0.0116    0.0015   -0.0245   -0.0372   -0.0165    0.0595
          66    0.0284   -0.0004   -0.0076   -0.0361   -0.0134    0.0084   -0.0050    0.0017
          67   -0.0458    0.0372    0.0088    0.0078   -0.0342    0.0145    0.0211   -0.0865
          68    0.0183   -0.0096   -0.0070    0.0013   -0.0184   -0.0211   -0.0078    0.0263
          69    0.0200    0.0231    0.0292    0.0269    0.0050    0.0051    0.0081    0.0116
          70    0.0037   -0.0186    0.0141   -0.0019   -0.0046    0.0011    0.0084    0.0011
          71   -0.0125    0.0368    0.0108   -0.0190    0.0296   -0.0312    0.0045   -0.0015
          72    0.0225    0.0024   -0.0380    0.0210   -0.0125    0.0230   -0.0226   -0.0001
          73   -0.0180   -0.0103    0.0339   -0.0172    0.0061   -0.0172    0.0247    0.0010
          74    0.0108    0.0244   -0.0385    0.0179   -0.0008    0.0182   -0.0343   -0.0005
          75    0.0216    0.0035   -0.0351    0.0187   -0.0102    0.0197   -0.0210   -0.0002
          76   -0.0116   -0.0127    0.0332   -0.0162    0.0059   -0.0163    0.0242    0.0013
          77    0.0089    0.0255   -0.0394    0.0179   -0.0011    0.0175   -0.0350   -0.0018
          78    0.0104    0.0066   -0.0331    0.0169   -0.0103    0.0193   -0.0188    0.0001
          79   -0.0195   -0.0122   -0.0153   -0.0208   -0.0210   -0.0050   -0.0117   -0.0623
          80   -0.0053   -0.0052    0.0196    0.0978    0.0031   -0.0637   -0.0066    0.1206
          81   -0.0169   -0.0283   -0.0120   -0.0002    0.0216   -0.0044   -0.0089   -0.0169
          82    0.0086    0.0397    0.0238    0.0365   -0.0172    0.0139    0.0268   -0.0399
          83    0.0276   -0.0176   -0.0303   -0.0959   -0.0629   -0.0409   -0.0554    0.1055
          84   -0.0243   -0.0242   -0.0179   -0.0003   -0.0051   -0.0230   -0.0098   -0.0014
          85    0.0406    0.0092   -0.0043   -0.0271   -0.0163    0.0190    0.0070    0.0056
          86   -0.0423    0.0614    0.0492    0.0542    0.0080    0.0059    0.0103    0.0252
          87    0.0091    0.0075    0.0101    0.0062   -0.0084   -0.0058   -0.0028   -0.0021
          88   -0.0211   -0.0175   -0.0025    0.0286    0.0146   -0.0107   -0.0041   -0.0140
          89   -0.0430   -0.0028   -0.0436   -0.0592   -0.0240    0.0062    0.0000    0.0062
          90    0.0149    0.0017    0.0088    0.0020    0.0098    0.0061   -0.0014    0.0013


   Root No.      17        18        19        20        21        22        23        24

                17 A      18 A      19 A      20 A      21 A      22 A      23 A      24 A   

                 600.8     743.0     745.9     777.4     788.8     844.4     866.2     901.0
  
           1    0.0049   -0.0099    0.0064    0.0006   -0.0004    0.0063    0.0024    0.0020
           2   -0.0028    0.0060    0.0013   -0.0027    0.0014   -0.0095   -0.0101   -0.0090
           3   -0.0359   -0.0000    0.0002   -0.0002   -0.0002    0.0006    0.0021   -0.0022
           4    0.0037    0.0063   -0.0215    0.0100   -0.0047    0.0041   -0.0066   -0.0109
           5    0.0031    0.0207   -0.0066    0.0068   -0.0027    0.0056   -0.0010    0.0073
           6    0.0054    0.0002   -0.0078    0.0037   -0.0041    0.0018   -0.0037   -0.0079
           7   -0.0008    0.0282   -0.0009    0.0050   -0.0017    0.0084    0.0088    0.0084
           8    0.0010    0.0157    0.0129   -0.0016    0.0015   -0.0001   -0.0026    0.0137
           9   -0.0084    0.0008   -0.0017    0.0006   -0.0012   -0.0008   -0.0024   -0.0048
          10   -0.0079    0.0053   -0.0132   -0.0012    0.0007   -0.0195   -0.0067   -0.0008
          11   -0.0016    0.0014   -0.0026   -0.0008   -0.0008   -0.0053    0.0013    0.0007
          12   -0.0046    0.0037    0.0038   -0.0021   -0.0020    0.0003    0.0212   -0.0000
          13   -0.0025    0.0029   -0.0046   -0.0139    0.0030   -0.0095    0.0051    0.0036
          14    0.0013   -0.0006   -0.0003   -0.0061   -0.0005   -0.0006    0.0105   -0.0011
          15   -0.0017    0.0020   -0.0028   -0.0069    0.0018   -0.0053    0.0008    0.0046
          16   -0.0001    0.0022   -0.0012   -0.0132    0.0034    0.0153   -0.0065   -0.0006
          17   -0.0004    0.0006   -0.0009   -0.0051    0.0014    0.0060   -0.0022   -0.0003
          18    0.0001   -0.0021   -0.0013   -0.0073    0.0021    0.0075   -0.0035   -0.0029
          19    0.0001    0.0289   -0.0091    0.0048   -0.0017    0.0002   -0.0039   -0.0138
          20   -0.0006   -0.0091   -0.0187    0.0043   -0.0065    0.0060    0.0064    0.0371
          21    0.0376   -0.0001    0.0001    0.0006    0.0003    0.0014    0.0024   -0.0007
          22    0.0004    0.0002    0.0010   -0.0001    0.0000    0.0052   -0.0020   -0.0007
          23   -0.0005   -0.0005   -0.0015    0.0000    0.0006    0.0003   -0.0045   -0.0014
          24   -0.0003   -0.0005    0.0000   -0.0001    0.0003    0.0024   -0.0012   -0.0023
          25    0.0630   -0.0114    0.0113   -0.0050    0.0089   -0.0030    0.0031    0.0055
          26    0.0183   -0.0191   -0.0062   -0.0020   -0.0201    0.0001   -0.0035   -0.0175
          27   -0.0574   -0.0141    0.0124   -0.0054    0.0044   -0.0063   -0.0123   -0.0015
          28   -0.0611   -0.0105    0.0133   -0.0064   -0.0059   -0.0025    0.0005    0.0082
          29   -0.0195   -0.0207   -0.0116    0.0043    0.0214   -0.0001    0.0005   -0.0218
          30   -0.0600    0.0122   -0.0108    0.0033    0.0007   -0.0022   -0.0069    0.0126
          31   -0.0588   -0.0166    0.0102   -0.0059   -0.0050   -0.0020    0.0018    0.0011
          32   -0.0269   -0.0109   -0.0022    0.0016    0.0192   -0.0009    0.0022   -0.0095
          33    0.0630    0.0338   -0.0179    0.0093   -0.0021    0.0039   -0.0040   -0.0000
          34    0.0630   -0.0178    0.0092   -0.0055    0.0086   -0.0044    0.0014    0.0038
          35    0.0262   -0.0100    0.0012   -0.0045   -0.0195   -0.0010   -0.0027   -0.0128
          36    0.0660   -0.0336    0.0176   -0.0097    0.0041   -0.0056    0.0019    0.0023
          37   -0.0047    0.0106   -0.0327    0.0240   -0.0024    0.0372    0.0099   -0.0218
          38    0.0013    0.0348   -0.0251    0.0240   -0.0052    0.0526    0.0575   -0.0088
          39    0.0081    0.0026   -0.0069    0.0016   -0.0061    0.0002    0.0087   -0.0074
          40    0.0027   -0.0083    0.0177    0.0759   -0.0172   -0.0342    0.0116   -0.0015
          41   -0.0001   -0.0071    0.0117    0.0721   -0.0162   -0.0711    0.0305    0.0147
          42   -0.0018    0.0039   -0.0121   -0.0559    0.0134    0.0297   -0.0109    0.0001
          43    0.0007   -0.0019    0.0065    0.0311   -0.0075   -0.0304    0.0176    0.0072
          44   -0.0008    0.0020   -0.0046   -0.0300    0.0083    0.0435   -0.0260   -0.0093
          45    0.0027   -0.0162    0.0222    0.1098   -0.0240   -0.0652    0.0197    0.0001
          46    0.0014   -0.0089    0.0206    0.0332   -0.0024    0.0322   -0.0142   -0.0025
          47   -0.0026    0.0083   -0.0214   -0.0341    0.0014   -0.0458    0.0270    0.0026
          48    0.0027   -0.0215    0.0372    0.1131   -0.0175    0.0192   -0.0281   -0.0117
          49   -0.0006   -0.0129    0.0265    0.0771   -0.0122    0.0049   -0.0102   -0.0081
          50    0.0093   -0.0228    0.0373    0.0757   -0.0102    0.0602   -0.0259   -0.0144
          51   -0.0020    0.0092   -0.0182   -0.0559    0.0106   -0.0061    0.0057    0.0106
          52   -0.0137   -0.0011    0.0058    0.0341    0.0018    0.0264   -0.0382   -0.0019
          53    0.0016    0.0014   -0.0105   -0.0353    0.0000   -0.0425    0.0373    0.0032
          54   -0.0251   -0.0344    0.0765    0.0317    0.0094    0.0827    0.0135    0.0080
          55   -0.0122   -0.0164    0.0283    0.0170    0.0031    0.0246   -0.0230    0.0017
          56   -0.0135   -0.0225    0.0426    0.0517    0.0050    0.0788   -0.0239   -0.0027
          57   -0.0033    0.0149   -0.0178   -0.0062   -0.0030   -0.0168    0.0282   -0.0026
          58    0.0333    0.0508   -0.0111    0.0113    0.0104   -0.0216   -0.1502    0.0948
          59    0.0085    0.0232    0.0135    0.0022    0.0177    0.0109    0.0163    0.0326
          60   -0.0035    0.0060   -0.0009    0.0034    0.0109    0.0078    0.0128    0.0088
          61   -0.0426    0.0617    0.0203   -0.0021   -0.0118    0.0440    0.1946   -0.0413
          62   -0.0066    0.0131    0.0096   -0.0039   -0.0151   -0.0111   -0.0225   -0.0031
          63   -0.0032    0.0033    0.0002    0.0027    0.0112    0.0074    0.0123    0.0078
          64    0.0027    0.0781    0.0345   -0.0023    0.0115   -0.0119   -0.0191   -0.0902
          65    0.0037    0.0563    0.0401   -0.0053    0.0123   -0.0103   -0.0137   -0.0640
          66   -0.0013    0.0007    0.0042   -0.0051   -0.0468    0.0050    0.0015   -0.0097
          67   -0.0052   -0.0396   -0.0800    0.0173   -0.0236    0.0193    0.0183    0.1002
[...]
 EFF. MASS  11.5947

 VIBRATION   65   65A         ATOM PAIR      ENERGY CONTRIBUTION    RADIAL
 FREQ.      1876.24         C 10 -- C 11         +26.1% ( 75.8%)    100.0%
 T-DIPOLE    0.1642         C  9 -- C 12         +17.8% ( 62.7%)    100.0%
 TRAVEL      0.0549         C  1 -- C 10          +8.9% ( 44.3%)     65.6%
 RED. MASS   2.8096         C  7 -- C 11          +8.3% ( 42.7%)     62.8%
 EFF. MASS  11.9084

 VIBRATION   66   66A         ATOM PAIR      ENERGY CONTRIBUTION    RADIAL
 FREQ.      1893.85         C  9 -- C 12         +26.0% ( 75.1%)    100.0%
 T-DIPOLE    0.1716         C 10 -- C 11         +17.6% ( 61.9%)    100.0%
 TRAVEL      0.0548         C  1 -- C  9          +9.1% ( 44.4%)     42.5%
 RED. MASS   2.7601         C  7 -- C 12          +8.2% ( 42.2%)     42.6%
 EFF. MASS  11.8533

 VIBRATION   67   67A         ATOM PAIR      ENERGY CONTRIBUTION    RADIAL
 FREQ.      2914.78         C  4 -- H 19         +72.3% ( 88.0%)     98.6%
 T-DIPOLE    0.0419         C  4 -- H 18         +20.9% ( 47.3%)     90.5%
 TRAVEL      0.1234         C  5 -- H 17          +1.7% ( 13.7%)     96.1%
 RED. MASS   0.6028         C  5 -- H 16          +1.4% ( 12.4%)     95.2%
 EFF. MASS   1.5187

 VIBRATION   68   68A         ATOM PAIR      ENERGY CONTRIBUTION    RADIAL
 FREQ.      2932.05         C  7 -- H 22         +51.8% ( 74.6%)     96.8%
 T-DIPOLE    0.0384         C  7 -- H 23         +46.0% ( 70.4%)     96.2%
 TRAVEL      0.1224         C  7 -- C 12          +1.1% ( 10.8%)      0.0%
 RED. MASS   0.5192         C  7 -- C 11          +1.1% ( 10.8%)      0.0%
 EFF. MASS   1.5349

 VIBRATION   69   69A         ATOM PAIR      ENERGY CONTRIBUTION    RADIAL
 FREQ.      2946.15         C  6 -- H 15         +25.5% ( 52.6%)     96.4%
 T-DIPOLE    0.0226         C  6 -- H 14         +25.5% ( 52.6%)     96.4%
 TRAVEL      0.1216         C  5 -- H 17         +23.2% ( 50.1%)     96.7%
 RED. MASS   0.2467         C  5 -- H 16         +20.7% ( 47.3%)     96.0%
 EFF. MASS   1.5477

 VIBRATION   70   70A         ATOM PAIR      ENERGY CONTRIBUTION    RADIAL
 FREQ.      2958.84         C  5 -- H 17         +27.1% ( 53.9%)     97.0%
 T-DIPOLE    0.0067         C  5 -- H 16         +23.6% ( 50.2%)     96.2%
 TRAVEL      0.1221         C  6 -- H 14         +23.1% ( 49.8%)     96.6%
 RED. MASS   0.2547         C  6 -- H 15         +23.1% ( 49.7%)     96.6%
 EFF. MASS   1.5277

 VIBRATION   71   71A         ATOM PAIR      ENERGY CONTRIBUTION    RADIAL
 FREQ.      2989.84         C  2 -- H 13         +95.9% ( 99.6%)    100.0%
 T-DIPOLE    0.2179         C  2 -- C  3          +1.1% ( 10.8%)     22.3%
 TRAVEL      0.1247         C  1 -- C  2          +1.1% ( 10.7%)     22.6%
 RED. MASS   0.9161         C  2 -- C  4          +1.1% ( 10.7%)     14.0%
 EFF. MASS   1.4508

 VIBRATION   72   72A         ATOM PAIR      ENERGY CONTRIBUTION    RADIAL
 FREQ.      3001.23         C  9 -- H 27         +73.1% ( 86.5%)    100.0%
 T-DIPOLE    0.2907         C  4 -- H 18         +19.7% ( 44.9%)     99.9%
 TRAVEL      0.1239         C 12 -- H 30          +2.3% ( 15.2%)     98.6%
 RED. MASS   0.5598         C  4 -- H 19          +1.9% ( 14.0%)     72.3%
 EFF. MASS   1.4638

 VIBRATION   73   73A         ATOM PAIR      ENERGY CONTRIBUTION    RADIAL
 FREQ.      3009.26         C  4 -- H 18         +56.7% ( 74.9%)     99.5%
 T-DIPOLE    0.1448         C  9 -- H 27         +20.5% ( 45.0%)    100.0%
 TRAVEL      0.1295         C  4 -- H 19         +17.5% ( 41.6%)     91.1%
 RED. MASS   0.3850         C  7 -- H 23          +1.3% ( 11.2%)     98.2%
 EFF. MASS   1.3364

 VIBRATION   74   74A         ATOM PAIR      ENERGY CONTRIBUTION    RADIAL
 FREQ.      3010.15         C  7 -- H 23         +50.2% ( 69.9%)     98.0%
 T-DIPOLE    0.0737         C  7 -- H 22         +44.4% ( 65.7%)     97.3%
 TRAVEL      0.1319         C  4 -- H 18          +1.1% ( 10.3%)     99.4%
 RED. MASS   0.4483         C 12 -- H 30          +1.1% ( 10.1%)    100.0%
 EFF. MASS   1.2871

 VIBRATION   75   75A         ATOM PAIR      ENERGY CONTRIBUTION    RADIAL
 FREQ.      3031.33         C  5 -- H 16         +35.3% ( 58.5%)     98.2%
 T-DIPOLE    0.0189         C  5 -- H 17         +30.2% ( 54.1%)     97.3%
 TRAVEL      0.1321         C  6 -- H 14         +16.4% ( 39.9%)     97.8%
 RED. MASS   0.2667         C  6 -- H 15         +16.1% ( 39.6%)     97.8%
 EFF. MASS   1.2754

 VIBRATION   76   76A         ATOM PAIR      ENERGY CONTRIBUTION    RADIAL
 FREQ.      3034.07         C  6 -- H 15         +32.9% ( 56.4%)     97.7%
 T-DIPOLE    0.0184         C  6 -- H 14         +32.6% ( 56.2%)     97.7%
 TRAVEL      0.1323         C  5 -- H 16         +17.6% ( 41.3%)     98.1%
 RED. MASS   0.2665         C  5 -- H 17         +15.2% ( 38.4%)     97.2%
 EFF. MASS   1.2692

 VIBRATION   77   77A         ATOM PAIR      ENERGY CONTRIBUTION    RADIAL
 FREQ.      3041.91         C 10 -- H 28         +67.7% ( 83.5%)    100.0%
 T-DIPOLE    0.2760         C 11 -- H 29         +29.6% ( 55.3%)    100.0%
 TRAVEL      0.1230         C 10 -- C 11          +1.1% ( 10.8%)      2.7%
 RED. MASS   0.5342         C  1 -- C 10          +0.9% (  9.9%)     18.6%
 EFF. MASS   1.4652

 VIBRATION   78   78A         ATOM PAIR      ENERGY CONTRIBUTION    RADIAL
 FREQ.      3059.42         C 12 -- H 30         +85.4% ( 93.8%)    100.0%
 T-DIPOLE    0.3333         C 11 -- H 29          +5.5% ( 23.8%)     99.9%
 TRAVEL      0.1195         C 10 -- H 28          +2.9% ( 17.3%)     99.9%
 RED. MASS   0.7269         C  9 -- H 27          +2.6% ( 16.5%)     98.6%
 EFF. MASS   1.5426

 VIBRATION   79   79A         ATOM PAIR      ENERGY CONTRIBUTION    RADIAL
 FREQ.      3064.03         C 11 -- H 29         +61.2% ( 79.4%)     99.9%
 T-DIPOLE    0.2352         C 10 -- H 28         +26.4% ( 52.1%)     99.8%
 TRAVEL      0.1177         C 12 -- H 30          +7.7% ( 28.1%)    100.0%
 RED. MASS   0.4501         C 10 -- C 11          +1.8% ( 13.8%)     93.5%
 EFF. MASS   1.5893

 VIBRATION   80   80A         ATOM PAIR      ENERGY CONTRIBUTION    RADIAL
 FREQ.      3078.33         C  8 -- H 25         +49.3% ( 72.5%)     97.1%
 T-DIPOLE    0.0091         C  8 -- H 26         +48.5% ( 71.8%)     97.0%
 TRAVEL      0.1208         C  6 -- C  8          +1.0% ( 10.2%)      0.0%
 RED. MASS   0.5063         C  8 -- H 24          +0.9% ( 10.0%)      0.1%
 EFF. MASS   1.5010

 VIBRATION   81   81A         ATOM PAIR      ENERGY CONTRIBUTION    RADIAL
 FREQ.      3084.42         C  8 -- H 24         +61.9% ( 81.1%)     98.8%
 T-DIPOLE    0.0047         C  8 -- H 26         +18.7% ( 44.5%)     86.1%
 TRAVEL      0.1206         C  8 -- H 25         +17.9% ( 43.6%)     85.3%
 RED. MASS   0.4780         C  6 -- C  8          +1.0% ( 10.3%)      0.0%
 EFF. MASS   1.5029

 VIBRATION   82   82A         ATOM PAIR      ENERGY CONTRIBUTION    RADIAL
 FREQ.      3089.79         C  3 -- H 20         +56.6% ( 77.7%)     98.0%
 T-DIPOLE    0.1934         C  3 -- H 21         +40.8% ( 66.0%)     96.2%
 TRAVEL      0.1186         C  1 -- C  3          +1.2% ( 11.2%)      0.2%
 RED. MASS   0.5308         C  2 -- C  3          +1.2% ( 11.1%)      0.1%
 EFF. MASS   1.5525

 VIBRATION   83   83A         ATOM PAIR      ENERGY CONTRIBUTION    RADIAL
 FREQ.      3128.05         C  3 -- H 21         +57.7% ( 75.5%)     97.4%
 T-DIPOLE    0.2304         C  3 -- H 20         +40.7% ( 63.4%)     94.7%
 TRAVEL      0.1289         C  2 -- C  3          +0.8% (  9.0%)     76.7%
 RED. MASS   0.4969         C  1 -- C  3          +0.8% (  9.0%)     73.9%
 EFF. MASS   1.2982

 VIBRATION   84   84A         ATOM PAIR      ENERGY CONTRIBUTION    RADIAL
 FREQ.      3181.28         C  8 -- H 24         +36.4% ( 58.0%)     97.6%
 T-DIPOLE    0.0121         C  8 -- H 26         +31.7% ( 54.2%)     96.9%
 TRAVEL      0.1366         C  8 -- H 25         +31.6% ( 54.1%)     96.8%
 RED. MASS   0.3282         C  6 -- C  8          +0.3% (  5.1%)     99.6%
 EFF. MASS   1.1367

      SYMMETRY NUMBER FOR POINT-GROUP C1  =  1


          SYSTEM IS A GROUND STATE



 InChI=1S/C12H18/c1-2-3-7-11-10-12(11)8-5-4-6-9-12/h5-6,8-9,11H,2-4,7,10H2,1H3


          MOLECULE IS NOT LINEAR

          THERE ARE 84 GENUINE VIBRATIONS IN THIS SYSTEM
          THIS THERMODYNAMICS CALCULATION IS LIMITED TO
          MOLECULES WHICH HAVE NO INTERNAL ROTATIONS




                    CALCULATED THERMODYNAMIC PROPERTIES
                                          *
   TEMP. (K)   PARTITION FUNCTION   H.O.F.    ENTHALPY  HEAT CAPACITY ENTROPY
                                   KCAL/MOL   CAL/MOLE    CAL/K/MOL  CAL/K/MOL


 298.00  VIB.     0.7784D+04                  5842.7510    41.0699    37.4117
         ROT.     0.1570D+07                   888.2813     2.9808    31.3311
         INT.     0.1222D+11                  6731.0323    44.0507    68.7428
         TRA.     0.1998D+28                  1480.4688     4.9680    41.1588
         TOT.                       22.235    8211.5011    49.0187   109.9016

 200.00  VIB.     0.3134D+03                  2598.6273    25.6701    24.4146
         ROT.     0.8631D+06                   596.1620     2.9808    30.1424
         INT.     0.2705D+09                  3194.7893    28.6509    54.5571
         TRA.     0.1099D+28                   993.6033     4.9680    39.1777
         TOT.                       18.212    4188.3925    33.6189    93.7348

 210.00  VIB.     0.4345D+03                  2862.3174    27.0754    25.7009
         ROT.     0.9286D+06                   625.9700     2.9808    30.2878
         INT.     0.4035D+09                  3488.2874    30.0562    55.9888
         TRA.     0.1182D+28                  1043.2834     4.9680    39.4201
         TOT.                       18.555    4531.5708    35.0242    95.4089

 220.00  VIB.     0.6023D+03                  3140.2838    28.5253    26.9938
         ROT.     0.9957D+06                   655.7781     2.9808    30.4265
         INT.     0.5997D+09                  3796.0620    31.5061    57.4203
         TRA.     0.1268D+28                  1092.9636     4.9680    39.6512
         TOT.                       18.912    4889.0255    36.4741    97.0715

 230.00  VIB.     0.8349D+03                  3432.9686    30.0188    28.2945
         ROT.     0.1064D+07                   685.5862     2.9808    30.5590
         INT.     0.8886D+09                  4118.5548    32.9996    58.8536
         TRA.     0.1355D+28                  1142.6437     4.9680    39.8720
         TOT.                       19.284    5261.1986    37.9676    98.7256

 240.00  VIB.     0.1157D+04                  3740.7967    31.5535    29.6044
         ROT.     0.1135D+07                   715.3943     2.9808    30.6859
         INT.     0.1313D+10                  4456.1910    34.5343    60.2903
         TRA.     0.1444D+28                  1192.3239     4.9680    40.0835
         TOT.                       19.672    5648.5149    39.5023   100.3738

 250.00  VIB.     0.1605D+04                  4064.1652    33.1263    30.9243
         ROT.     0.1206D+07                   745.2024     2.9808    30.8076
         INT.     0.1936D+10                  4809.3677    36.1071    61.7318
         TRA.     0.1536D+28                  1242.0041     4.9680    40.2863
         TOT.                       20.075    6051.3717    41.0751   102.0181

 260.00  VIB.     0.2227D+04                  4403.4358    34.7332    32.2547
         ROT.     0.1279D+07                   775.0105     2.9808    30.9245
         INT.     0.2849D+10                  5178.4464    37.7140    63.1792
         TRA.     0.1629D+28                  1291.6842     4.9680    40.4811
         TOT.                       20.493    6470.1306    42.6820   103.6603

 270.00  VIB.     0.3092D+04                  4758.9280    36.3698    33.5961
         ROT.     0.1354D+07                   804.8186     2.9808    31.0370
         INT.     0.4186D+10                  5563.7466    39.3506    64.6331
         TRA.     0.1724D+28                  1341.3644     4.9680    40.6686
         TOT.                       20.928    6905.1110    44.3186   105.3017

 280.00  VIB.     0.4296D+04                  5130.9156    38.0315    34.9488
         ROT.     0.1430D+07                   834.6267     2.9808    31.1454
         INT.     0.6142D+10                  5965.5423    41.0123    66.0942
         TRA.     0.1820D+28                  1391.0445     4.9680    40.8493
         TOT.                       21.380    7356.5869    45.9803   106.9435

 290.00  VIB.     0.5975D+04                  5519.6243    39.7132    36.3126
         ROT.     0.1507D+07                   864.4348     2.9808    31.2500
         INT.     0.9004D+10                  6384.0591    42.6940    67.5626
         TRA.     0.1919D+28                  1440.7247     4.9680    41.0236
         TOT.                       21.848    7824.7838    47.6621   108.5863

 300.00  VIB.     0.8318D+04                  5925.2311    41.4103    37.6875
         ROT.     0.1586D+07                   894.2429     2.9808    31.3510
         INT.     0.1319D+11                  6819.4740    44.3911    69.0386
         TRA.     0.2019D+28                  1490.4049     4.9680    41.1921
         TOT.                       22.333    8309.8789    49.3591   110.2306

 310.00  VIB.     0.1159D+05                  6347.8647    43.1178    39.0732
         ROT.     0.1665D+07                   924.0510     2.9808    31.4488
         INT.     0.1930D+11                  7271.9158    46.0986    70.5220
         TRA.     0.2120D+28                  1540.0850     4.9680    41.3550
         TOT.                       22.835    8812.0008    51.0666   111.8769

 320.00  VIB.     0.1617D+05                  6787.6073    44.8313    40.4692
         ROT.     0.1747D+07                   953.8591     2.9808    31.5434
         INT.     0.2825D+11                  7741.4665    47.8121    72.0126
         TRA.     0.2224D+28                  1589.7652     4.9680    41.5127
         TOT.                       23.354    9331.2317    52.7801   113.5253

 330.00  VIB.     0.2259D+05                  7244.4966    46.5465    41.8750
         ROT.     0.1829D+07                   983.6672     2.9808    31.6351
         INT.     0.4132D+11                  8228.1638    49.5273    73.5101
         TRA.     0.2329D+28                  1639.4454     4.9680    41.6656
         TOT.                       23.891    9867.6092    54.4953   115.1757

 340.00  VIB.     0.3159D+05                  7718.5287    48.2592    43.2900
         ROT.     0.1913D+07                  1013.4753     2.9808    31.7241
         INT.     0.6042D+11                  8732.0040    51.2401    75.0141
         TRA.     0.2436D+28                  1689.1255     4.9680    41.8139
         TOT.                       24.444   10421.1295    56.2081   116.8280

 350.00  VIB.     0.4423D+05                  8209.6613    49.9660    44.7135
         ROT.     0.1998D+07                  1043.2834     2.9808    31.8105
         INT.     0.8837D+11                  9252.9447    52.9468    76.5240
         TRA.     0.2544D+28                  1738.8057     4.9680    41.9579
         TOT.                       25.015   10991.7504    57.9148   118.4819

 360.00  VIB.     0.6201D+05                  8717.8175    51.6634    46.1449
         ROT.     0.2084D+07                  1073.0915     2.9808    31.8945
         INT.     0.1292D+12                  9790.9090    54.6442    78.0394
         TRA.     0.2654D+28                  1788.4859     4.9680    42.0979
         TOT.                       25.603   11579.3948    59.6122   120.1373

 370.00  VIB.     0.8704D+05                  9242.8885    53.3485    47.5835
         ROT.     0.2172D+07                  1102.8996     2.9808    31.9762
         INT.     0.1890D+12                 10345.7881    56.3293    79.5596
         TRA.     0.2765D+28                  1838.1660     4.9680    42.2340
         TOT.                       26.207   12183.9541    61.2973   121.7936

 380.00  VIB.     0.1223D+06                  9784.7380    55.0187    49.0284
         ROT.     0.2260D+07                  1132.7077     2.9808    32.0557
         INT.     0.2765D+12                 10917.4457    57.9995    81.0840
         TRA.     0.2878D+28                  1887.8462     4.9680    42.3665
         TOT.                       26.828   12805.2919    62.9675   123.4505

 390.00  VIB.     0.1721D+06                 10343.2052    56.6717    50.4789
         ROT.     0.2350D+07                  1162.5158     2.9808    32.1331
         INT.     0.4046D+12                 11505.7210    59.6525    82.6120
         TRA.     0.2992D+28                  1937.5263     4.9680    42.4955
         TOT.                       27.466   13443.2473    64.6205   125.1075

 400.00  VIB.     0.2425D+06                 10918.1078    58.3055    51.9344
         ROT.     0.2441D+07                  1192.3239     2.9808    32.2085
         INT.     0.5920D+12                 12110.4317    61.2863    84.1429
         TRA.     0.3108D+28                  1987.2065     4.9680    42.6213
         TOT.                       28.121   14097.6382    66.2543   126.7642

   *: NOTE: HEATS OF FORMATION ARE RELATIVE TO THE
            ELEMENTS IN THEIR STANDARD STATE AT 298K
              (=  Standard Enthalpy of Formation).

            Hvib:  Zero-point energy is not included.
                   frequencies of less than zero cm-1 are not included.
            Hrot = (3/2)RT
            Htra = (3/2)RT + pV = (5/2)RT

            Heat capacity is Cp, not Cv

          For more information, see: HTTP://OpenMOPAC.net/Manual/thermochemistry.html


           FORCE CONSTANT IN CARTESIAN COORDINATES (Millidynes/A)

    ATOM   CHEMICAL       X               Y               Z
   NUMBER   SYMBOL  FORCE CONSTANT  FORCE CONSTANT  FORCE CONSTANT

      1       C       10.091535        6.190469       10.382760
      2       C        9.343303        6.831404        8.987779
      3       C        4.530144       11.428564        8.884714
      4       C        8.427284        8.272613        8.416506
      5       C        8.231878        8.345256        8.298226
      6       C        8.192932        8.508739        8.205348
      7       C        8.885279        7.835938        9.392805
      8       C        8.274539        8.291016        8.326883
      9       C       14.030142        4.126567        9.538166
     10       C       13.856912        4.175300        9.707850
     11       C       13.663247        4.094792        9.578313
     12       C       13.689129        4.080557        9.587852
     13       H        1.660103        0.946570        3.716872
     14       H        2.178941        0.755826        3.475269
     15       H        3.307118        2.339635        0.761627
     16       H        3.321163        2.320716        0.759186
     17       H        2.180728        0.765239        3.464768
     18       H        3.250989        2.371221        0.711085
     19       H        2.245425        0.764711        3.372757
     20       H        0.525177        2.276500        3.821630
     21       H        0.528385        2.293584        3.825006
     22       H        3.164894        2.342979        0.650072
     23       H        1.144612        4.376522        0.687317
     24       H        1.907613        0.994074        3.895884
     25       H        2.379042        0.776958        3.623948
     26       H        3.468490        2.594583        0.714720
     27       H        1.918963        0.475825        3.836503
     28       H        1.847029        0.467025        3.923863
     29       H        1.571277        0.663385        4.019294
     30       H        1.634625        0.652428        3.968845

 **********************
 *                    *
 * JOB ENDED NORMALLY *
 *                    *
 **********************



 TOTAL JOB TIME:            22.53 SECONDS

 == MOPAC DONE ==
