 *******************************************************************************
 ** Site#: 14399        For non-commercial use only    Version 18.184L 64BITS **
 *******************************************************************************
 ** Cite this program as: MOPAC2016, Version: 18.184L, James J. P. Stewart,   **
 ** Stewart Computational Chemistry, web: HTTP://OpenMOPAC.net. Days left:  20**
 *******************************************************************************
 **                                                                           **
 **                                MOPAC2016                                  **
 **                                                                           **
 *******************************************************************************

                              PM3 CALCULATION RESULTS

 *******************************************************************************
 *  CALCULATION DONE:                                Thu Jun 13 18:50:26 2019  *
 *  PM3        - The PM3 Hamiltonian to be used
 *  PRECISE    - CRITERIA TO BE INCREASED BY 100 TIMES
 *  NOSYM      - POINT-GROUP SYMMETRY SET TO C1
 *  THREADS=1  - MULTI-THREADING NOT USED
 *  T=         - A TIME OF 172800.0 SECONDS REQUESTED
 *  DUMP=N     - RESTART FILE WRITTEN EVERY  7200.000 SECONDS
 *******************************************************************************
pm3  precise nosym THREADS=1
 InChI=1S/C7H10/c1-2-7-4-3-6(7)5-7/h2,6H,1,3-5H2

   ATOM   CHEMICAL          X               Y               Z
  NUMBER   SYMBOL      (ANGSTROMS)     (ANGSTROMS)     (ANGSTROMS)
 
     1       C          0.12030000  *  -0.05830000  *   0.20630000  *
     2       C         -0.68490000  *  -0.64800000  *  -0.97270000  *
     3       C          0.09640000  *  -1.55310000  *  -0.04690000  *
     4       C         -1.14050000  *   0.62530000  *   0.71190000  *
     5       C         -1.93760000  *   0.01890000  *  -0.42510000  *
     6       C          1.27030000  *   0.77930000  *  -0.29140000  *
     7       C          2.50200000  *   0.60610000  *   0.19100000  *
     8       H         -0.26230000  *  -0.32880000  *  -1.95200000  *
     9       H         -1.45220000  *   0.24010000  *   1.70680000  *
    10       H         -1.08680000  *   1.73470000  *   0.65520000  *
    11       H         -2.68980000  *  -0.72240000  *  -0.07780000  *
    12       H         -2.34300000  *   0.78320000  *  -1.12260000  *
    13       H         -0.52660000  *  -2.13660000  *   0.66390000  *
    14       H          1.02030000  *  -1.97080000  *  -0.49970000  *
    15       H          1.09170000  *   1.55510000  *  -1.03090000  *
    16       H          2.70500000  *  -0.15110000  *   0.94240000  *
    17       H          3.31760000  *   1.22620000  *  -0.16640000  *
 


          CARTESIAN COORDINATES 

    NO.       ATOM           X           Y           Z

     1         C          0.1203     -0.0583      0.2063
     2         C         -0.6849     -0.6480     -0.9727
     3         C          0.0964     -1.5531     -0.0469
     4         C         -1.1405      0.6253      0.7119
     5         C         -1.9376      0.0189     -0.4251
     6         C          1.2703      0.7793     -0.2914
     7         C          2.5020      0.6061      0.1910
     8         H         -0.2623     -0.3288     -1.9520
     9         H         -1.4522      0.2401      1.7068
    10         H         -1.0868      1.7347      0.6552
    11         H         -2.6898     -0.7224     -0.0778
    12         H         -2.3430      0.7832     -1.1226
    13         H         -0.5266     -2.1366      0.6639
    14         H          1.0203     -1.9708     -0.4997
    15         H          1.0917      1.5551     -1.0309
    16         H          2.7050     -0.1511      0.9424
    17         H          3.3176      1.2262     -0.1664

  H: (PM3): J. J. P. STEWART, J. COMP. CHEM. 10, 209 (1989).
  C: (PM3): J. J. P. STEWART, J. COMP. CHEM. 10, 209 (1989).

           Empirical Formula: C7 H10  =    17 atoms



      MOLECULAR POINT GROUP   :   C1  


      RHF CALCULATION, NO. OF DOUBLY OCCUPIED LEVELS = 19


          Geometry optimization using EF

          DIAGONAL MATRIX USED AS START HESSIAN

 CYCLE:     1 TIME:   0.016 TIME LEFT:  2.00D  GRAD.:   124.576 HEAT:  75.51629
 CYCLE:     2 TIME:   0.039 TIME LEFT:  2.00D  GRAD.:    97.949 HEAT:  71.04612
 CYCLE:     3 TIME:   0.023 TIME LEFT:  2.00D  GRAD.:    94.204 HEAT:  67.63278
 CYCLE:     4 TIME:   0.023 TIME LEFT:  2.00D  GRAD.:   101.150 HEAT:  65.50947
 CYCLE:     5 TIME:   0.023 TIME LEFT:  2.00D  GRAD.:    70.241 HEAT:  63.45347
 CYCLE:     6 TIME:   0.031 TIME LEFT:  2.00D  GRAD.:    59.202 HEAT:  62.52648
 CYCLE:     7 TIME:   0.023 TIME LEFT:  2.00D  GRAD.:    45.387 HEAT:  61.65780
 CYCLE:     8 TIME:   0.023 TIME LEFT:  2.00D  GRAD.:    63.348 HEAT:  61.36311
 CYCLE:     9 TIME:   0.023 TIME LEFT:  2.00D  GRAD.:    47.934 HEAT:  60.28861
 CYCLE:    10 TIME:   0.023 TIME LEFT:  2.00D  GRAD.:    56.784 HEAT:  59.73565
 CYCLE:    11 TIME:   0.023 TIME LEFT:  2.00D  GRAD.:    52.664 HEAT:  58.74493
 CYCLE:    12 TIME:   0.023 TIME LEFT:  2.00D  GRAD.:    63.027 HEAT:  58.62978
 CYCLE:    13 TIME:   0.023 TIME LEFT:  2.00D  GRAD.:    49.191 HEAT:  57.79676
 CYCLE:    14 TIME:   0.023 TIME LEFT:  2.00D  GRAD.:    44.594 HEAT:  57.46626
 CYCLE:    15 TIME:   0.023 TIME LEFT:  2.00D  GRAD.:    43.470 HEAT:  57.25918
 CYCLE:    16 TIME:   0.023 TIME LEFT:  2.00D  GRAD.:    32.688 HEAT:  56.87932
 CYCLE:    17 TIME:   0.023 TIME LEFT:  2.00D  GRAD.:    24.375 HEAT:  56.61811
 CYCLE:    18 TIME:   0.023 TIME LEFT:  2.00D  GRAD.:    18.657 HEAT:  56.37461
 CYCLE:    19 TIME:   0.023 TIME LEFT:  2.00D  GRAD.:    13.836 HEAT:  56.20179
 CYCLE:    20 TIME:   0.023 TIME LEFT:  2.00D  GRAD.:    13.668 HEAT:  55.99955
 CYCLE:    21 TIME:   0.016 TIME LEFT:  2.00D  GRAD.:    16.986 HEAT:  55.88020
 CYCLE:    22 TIME:   0.023 TIME LEFT:  2.00D  GRAD.:     8.920 HEAT:  55.76383
 CYCLE:    23 TIME:   0.023 TIME LEFT:  2.00D  GRAD.:     7.984 HEAT:  55.71323
 CYCLE:    24 TIME:   0.023 TIME LEFT:  2.00D  GRAD.:     9.092 HEAT:  55.67245
 CYCLE:    25 TIME:   0.023 TIME LEFT:  2.00D  GRAD.:     5.655 HEAT:  55.61908
 CYCLE:    26 TIME:   0.023 TIME LEFT:  2.00D  GRAD.:     5.403 HEAT:  55.57193
 CYCLE:    27 TIME:   0.023 TIME LEFT:  2.00D  GRAD.:     6.820 HEAT:  55.50188
 CYCLE:    28 TIME:   0.023 TIME LEFT:  2.00D  GRAD.:     5.470 HEAT:  55.42281
 CYCLE:    29 TIME:   0.023 TIME LEFT:  2.00D  GRAD.:     3.551 HEAT:  55.38276
 CYCLE:    30 TIME:   0.023 TIME LEFT:  2.00D  GRAD.:     3.325 HEAT:  55.35597
 CYCLE:    31 TIME:   0.023 TIME LEFT:  2.00D  GRAD.:     4.040 HEAT:  55.33313
 CYCLE:    32 TIME:   0.023 TIME LEFT:  2.00D  GRAD.:     3.297 HEAT:  55.31221
 CYCLE:    33 TIME:   0.023 TIME LEFT:  2.00D  GRAD.:     2.899 HEAT:  55.29371
 CYCLE:    34 TIME:   0.016 TIME LEFT:  2.00D  GRAD.:     3.238 HEAT:  55.27859
 CYCLE:    35 TIME:   0.023 TIME LEFT:  2.00D  GRAD.:     3.016 HEAT:  55.26368
 CYCLE:    36 TIME:   0.023 TIME LEFT:  2.00D  GRAD.:     2.819 HEAT:  55.24449
 CYCLE:    37 TIME:   0.023 TIME LEFT:  2.00D  GRAD.:     2.417 HEAT:  55.23200
 CYCLE:    38 TIME:   0.023 TIME LEFT:  2.00D  GRAD.:     2.197 HEAT:  55.22273
 CYCLE:    39 TIME:   0.023 TIME LEFT:  2.00D  GRAD.:     1.913 HEAT:  55.21568
 CYCLE:    40 TIME:   0.023 TIME LEFT:  2.00D  GRAD.:     1.587 HEAT:  55.20903
 CYCLE:    41 TIME:   0.023 TIME LEFT:  2.00D  GRAD.:     1.459 HEAT:  55.20254
 CYCLE:    42 TIME:   0.023 TIME LEFT:  2.00D  GRAD.:     1.157 HEAT:  55.19839
 CYCLE:    43 TIME:   0.023 TIME LEFT:  2.00D  GRAD.:     0.880 HEAT:  55.19606
 CYCLE:    44 TIME:   0.023 TIME LEFT:  2.00D  GRAD.:     0.881 HEAT:  55.19434
 CYCLE:    45 TIME:   0.023 TIME LEFT:  2.00D  GRAD.:     1.107 HEAT:  55.19179
 CYCLE:    46 TIME:   0.023 TIME LEFT:  2.00D  GRAD.:     1.446 HEAT:  55.18783
 CYCLE:    47 TIME:   0.023 TIME LEFT:  2.00D  GRAD.:     1.496 HEAT:  55.18289
 CYCLE:    48 TIME:   0.016 TIME LEFT:  2.00D  GRAD.:     1.718 HEAT:  55.17572
 CYCLE:    49 TIME:   0.023 TIME LEFT:  2.00D  GRAD.:     1.856 HEAT:  55.16951
 CYCLE:    50 TIME:   0.023 TIME LEFT:  2.00D  GRAD.:     5.533 HEAT:  55.14430
 CYCLE:    51 TIME:   0.023 TIME LEFT:  2.00D  GRAD.:     3.713 HEAT:  55.12832
 CYCLE:    52 TIME:   0.023 TIME LEFT:  2.00D  GRAD.:     2.709 HEAT:  55.10223
 CYCLE:    53 TIME:   0.023 TIME LEFT:  2.00D  GRAD.:     7.923 HEAT:  55.09566
 CYCLE:    54 TIME:   0.023 TIME LEFT:  2.00D  GRAD.:     3.175 HEAT:  55.07797
 CYCLE:    55 TIME:   0.023 TIME LEFT:  2.00D  GRAD.:     1.869 HEAT:  55.06776
 CYCLE:    56 TIME:   0.023 TIME LEFT:  2.00D  GRAD.:     4.178 HEAT:  55.05426
 CYCLE:    57 TIME:   0.023 TIME LEFT:  2.00D  GRAD.:     4.261 HEAT:  55.04308
 CYCLE:    58 TIME:   0.023 TIME LEFT:  2.00D  GRAD.:     4.456 HEAT:  55.02750
 CYCLE:    59 TIME:   0.023 TIME LEFT:  2.00D  GRAD.:     3.586 HEAT:  55.01677
 CYCLE:    60 TIME:   0.023 TIME LEFT:  2.00D  GRAD.:     2.937 HEAT:  55.01322
 CYCLE:    61 TIME:   0.023 TIME LEFT:  2.00D  GRAD.:     1.003 HEAT:  55.00577
 CYCLE:    62 TIME:   0.023 TIME LEFT:  2.00D  GRAD.:     1.926 HEAT:  54.99849
 CYCLE:    63 TIME:   0.023 TIME LEFT:  2.00D  GRAD.:     2.042 HEAT:  54.99417
 CYCLE:    64 TIME:   0.023 TIME LEFT:  2.00D  GRAD.:     1.614 HEAT:  54.98893
 CYCLE:    65 TIME:   0.023 TIME LEFT:  2.00D  GRAD.:     1.695 HEAT:  54.98328
 CYCLE:    66 TIME:   0.016 TIME LEFT:  2.00D  GRAD.:     1.014 HEAT:  54.97951
 CYCLE:    67 TIME:   0.023 TIME LEFT:  2.00D  GRAD.:     2.971 HEAT:  54.97857
 CYCLE:    68 TIME:   0.023 TIME LEFT:  2.00D  GRAD.:     1.535 HEAT:  54.97534
 CYCLE:    69 TIME:   0.023 TIME LEFT:  2.00D  GRAD.:     1.477 HEAT:  54.97227
 CYCLE:    70 TIME:   0.023 TIME LEFT:  2.00D  GRAD.:     1.089 HEAT:  54.96580
 CYCLE:    71 TIME:   0.023 TIME LEFT:  2.00D  GRAD.:     1.688 HEAT:  54.96090
 CYCLE:    72 TIME:   0.023 TIME LEFT:  2.00D  GRAD.:     2.139 HEAT:  54.95782
 CYCLE:    73 TIME:   0.023 TIME LEFT:  2.00D  GRAD.:     1.772 HEAT:  54.95212
 CYCLE:    74 TIME:   0.023 TIME LEFT:  2.00D  GRAD.:     2.242 HEAT:  54.94763
 CYCLE:    75 TIME:   0.023 TIME LEFT:  2.00D  GRAD.:     1.329 HEAT:  54.94290
 CYCLE:    76 TIME:   0.023 TIME LEFT:  2.00D  GRAD.:     1.790 HEAT:  54.94018
 CYCLE:    77 TIME:   0.023 TIME LEFT:  2.00D  GRAD.:     3.135 HEAT:  54.93433
 CYCLE:    78 TIME:   0.023 TIME LEFT:  2.00D  GRAD.:     1.986 HEAT:  54.92968
 CYCLE:    79 TIME:   0.016 TIME LEFT:  2.00D  GRAD.:     2.637 HEAT:  54.91923
 CYCLE:    80 TIME:   0.023 TIME LEFT:  2.00D  GRAD.:     5.514 HEAT:  54.91087
 CYCLE:    81 TIME:   0.023 TIME LEFT:  2.00D  GRAD.:     2.637 HEAT:  54.90606
 CYCLE:    82 TIME:   0.023 TIME LEFT:  2.00D  GRAD.:     2.239 HEAT:  54.89759
 CYCLE:    83 TIME:   0.023 TIME LEFT:  2.00D  GRAD.:     4.033 HEAT:  54.88965
 CYCLE:    84 TIME:   0.023 TIME LEFT:  2.00D  GRAD.:     3.175 HEAT:  54.88171
 CYCLE:    85 TIME:   0.023 TIME LEFT:  2.00D  GRAD.:     2.217 HEAT:  54.87050
 CYCLE:    86 TIME:   0.023 TIME LEFT:  2.00D  GRAD.:     1.241 HEAT:  54.86769
 CYCLE:    87 TIME:   0.023 TIME LEFT:  2.00D  GRAD.:     4.551 HEAT:  54.86690
 CYCLE:    88 TIME:   0.023 TIME LEFT:  2.00D  GRAD.:     1.570 HEAT:  54.85889
 CYCLE:    89 TIME:   0.023 TIME LEFT:  2.00D  GRAD.:     1.985 HEAT:  54.85452
 CYCLE:    90 TIME:   0.016 TIME LEFT:  2.00D  GRAD.:     1.950 HEAT:  54.84909
 CYCLE:    91 TIME:   0.023 TIME LEFT:  2.00D  GRAD.:     3.490 HEAT:  54.84054
 CYCLE:    92 TIME:   0.023 TIME LEFT:  2.00D  GRAD.:     2.698 HEAT:  54.83241
 CYCLE:    93 TIME:   0.023 TIME LEFT:  2.00D  GRAD.:     2.616 HEAT:  54.82231
 CYCLE:    94 TIME:   0.023 TIME LEFT:  2.00D  GRAD.:     3.511 HEAT:  54.80645
 CYCLE:    95 TIME:   0.023 TIME LEFT:  2.00D  GRAD.:     3.361 HEAT:  54.80858
 CYCLE:    96 TIME:   0.023 TIME LEFT:  2.00D  GRAD.:     2.728 HEAT:  54.79480
 CYCLE:    97 TIME:   0.023 TIME LEFT:  2.00D  GRAD.:     3.404 HEAT:  54.78866
 CYCLE:    98 TIME:   0.023 TIME LEFT:  2.00D  GRAD.:     2.452 HEAT:  54.78114
 CYCLE:    99 TIME:   0.023 TIME LEFT:  2.00D  GRAD.:     3.006 HEAT:  54.76572
 CYCLE:   100 TIME:   0.023 TIME LEFT:  2.00D  GRAD.:     2.756 HEAT:  54.76336
 CYCLE:   101 TIME:   0.023 TIME LEFT:  2.00D  GRAD.:     3.238 HEAT:  54.75440
 CYCLE:   102 TIME:   0.023 TIME LEFT:  2.00D  GRAD.:     1.423 HEAT:  54.75295
 CYCLE:   103 TIME:   0.023 TIME LEFT:  2.00D  GRAD.:     1.194 HEAT:  54.75102
 CYCLE:   104 TIME:   0.023 TIME LEFT:  2.00D  GRAD.:     1.480 HEAT:  54.74932
 CYCLE:   105 TIME:   0.023 TIME LEFT:  2.00D  GRAD.:     1.052 HEAT:  54.74801
 CYCLE:   106 TIME:   0.023 TIME LEFT:  2.00D  GRAD.:     0.846 HEAT:  54.74734
 CYCLE:   107 TIME:   0.023 TIME LEFT:  2.00D  GRAD.:     0.558 HEAT:  54.74676
 CYCLE:   108 TIME:   0.023 TIME LEFT:  2.00D  GRAD.:     0.771 HEAT:  54.74642
 CYCLE:   109 TIME:   0.023 TIME LEFT:  2.00D  GRAD.:     0.554 HEAT:  54.74576
 CYCLE:   110 TIME:   0.125 TIME LEFT:  2.00D  GRAD.:     0.440 HEAT:  54.74541
 CYCLE:   111 TIME:   0.023 TIME LEFT:  2.00D  GRAD.:     0.303 HEAT:  54.74522
 CYCLE:   112 TIME:   0.023 TIME LEFT:  2.00D  GRAD.:     0.178 HEAT:  54.74518
 CYCLE:   113 TIME:   0.023 TIME LEFT:  2.00D  GRAD.:     0.168 HEAT:  54.74517
 CYCLE:   114 TIME:   0.062 TIME LEFT:  2.00D  GRAD.:     0.107 HEAT:  54.74514
 CYCLE:   115 TIME:   0.023 TIME LEFT:  2.00D  GRAD.:     0.082 HEAT:  54.74513
 CYCLE:   116 TIME:   0.023 TIME LEFT:  2.00D  GRAD.:     0.069 HEAT:  54.74512
 CYCLE:   117 TIME:   0.023 TIME LEFT:  2.00D  GRAD.:     0.035 HEAT:  54.74512

     GRADIENT =  0.03510  IS LESS THAN CUTOFF =  0.05000



 -------------------------------------------------------------------------------
 pm3  precise nosym THREADS=1
 InChI=1S/C7H10/c1-2-7-4-3-6(7)5-7/h2,6H,1,3-5H2



     GEOMETRY OPTIMISED USING EIGENVECTOR FOLLOWING (EF).     
     SCF FIELD WAS ACHIEVED                                   


                              PM3 CALCULATION
                                                       MOPAC2016 (Version: 18.184L)
                                                       Thu Jun 13 18:50:29 2019
                                                       No. of days remaining =  20




          FINAL HEAT OF FORMATION =         54.74512 KCAL/MOL =     229.05357 KJ/MOL


          TOTAL ENERGY            =       -981.43572 EV
          ELECTRONIC ENERGY       =      -4597.71574 EV  POINT GROUP:     C1  
          CORE-CORE REPULSION     =       3616.28002 EV
          COSMO AREA              =        145.47 SQUARE ANGSTROMS
          COSMO VOLUME            =        140.68 CUBIC ANGSTROMS

          GRADIENT NORM           =          0.03510 = 0.00851 PER ATOM
          IONIZATION POTENTIAL    =          9.664018 EV
          HOMO LUMO ENERGIES (EV) =         -9.664  0.967
          NO. OF FILLED LEVELS    =         19
          MOLECULAR WEIGHT        =         94.1560

          MOLECULAR DIMENSIONS (Angstroms)

            Atom       Atom       Distance
            H    17    H    11     6.35988
            H    10    H    14     4.30411
            H     8    H     9     3.40054


          SCF CALCULATIONS        =        121
 
          WALL-CLOCK TIME         =          2.906 SECONDS
          COMPUTATION TIME        =          1.070 SECONDS




   ATOM   CHEMICAL          X               Y               Z
  NUMBER   SYMBOL      (ANGSTROMS)     (ANGSTROMS)     (ANGSTROMS)
 
     1       C          0.11623712  *   0.08823115  *   0.19636347  *
     2       C         -0.53476656  *  -0.70803933  *  -0.94075139  *
     3       C          0.04319568  *  -1.41964549  *   0.24917453  *
     4       C         -1.24917879  *   0.70523213  *   0.55629006  *
     5       C         -1.90351221  *  -0.10184031  *  -0.60340580  *
     6       C          1.34553201  *   0.86903265  *   0.25398992  *
     7       C          2.48417303  *   0.50098744  *  -0.32522774  *
     8       H         -0.20528541  *  -0.87033765  *  -1.96837311  *
     9       H         -1.61663364  *   0.46610932  *   1.56495383  *
    10       H         -1.28742057  *   1.79736798  *   0.43232530  *
    11       H         -2.67349412  *  -0.82571780  *  -0.29850373  *
    12       H         -2.32352783  *   0.51837242  *  -1.40803652  *
    13       H         -0.60401960  *  -1.91995720  *   0.97916000  *
    14       H          0.97105507  *  -1.98867266  *   0.11501686  *
    15       H          1.27164301  *   1.80676630  *   0.81844644  *
    16       H          2.59234760  *  -0.41893786  *  -0.89371694  *
    17       H          3.38798105  *   1.09930060  *  -0.26839885  *

                             CARTESIAN COORDINATES

   1    C        0.116237123     0.088231149     0.196363473
   2    C       -0.534766555    -0.708039334    -0.940751390
   3    C        0.043195675    -1.419645489     0.249174526
   4    C       -1.249178788     0.705232131     0.556290062
   5    C       -1.903512207    -0.101840305    -0.603405800
   6    C        1.345532013     0.869032647     0.253989916
   7    C        2.484173035     0.500987438    -0.325227740
   8    H       -0.205285415    -0.870337647    -1.968373114
   9    H       -1.616633641     0.466109324     1.564953832
  10    H       -1.287420568     1.797367976     0.432325295
  11    H       -2.673494117    -0.825717802    -0.298503733
  12    H       -2.323527826     0.518372422    -1.408036525
  13    H       -0.604019604    -1.919957202     0.979159996
  14    H        0.971055069    -1.988672656     0.115016858
  15    H        1.271643009     1.806766301     0.818446439
  16    H        2.592347600    -0.418937859    -0.893716944
  17    H        3.387981048     1.099300599    -0.268398848


           Empirical Formula: C7 H10  =    17 atoms



      MOLECULAR POINT GROUP   :   C1  


                  EIGENVALUES  
 -42.10957 -32.55194 -28.57090 -24.99030 -21.88269 -20.12385 -18.17408 -17.45784
 -16.15745 -15.37724 -15.03497 -13.61873 -13.32702 -12.50344 -12.30732 -12.12389
 -11.54368 -11.05632  -9.66402   0.96734   2.80912   2.94819   3.10848   3.47654
   3.50494   3.64956   3.82801   3.98430   4.15183   4.26291   4.34810   4.46007
   4.83464   4.86420   5.05568   5.30608   5.77452   5.95260


              NET ATOMIC CHARGES AND DIPOLE CONTRIBUTIONS

  ATOM NO.   TYPE          CHARGE      No. of ELECS.   s-Pop       p-Pop       
    1          C          -0.121373        4.1214     1.18962     2.93175
    2          C          -0.149350        4.1493     1.19893     2.95042
    3          C          -0.106480        4.1065     1.16302     2.94346
    4          C          -0.070965        4.0710     1.17060     2.90036
    5          C          -0.081507        4.0815     1.16881     2.91270
    6          C          -0.070316        4.0703     1.17293     2.89738
    7          C          -0.171695        4.1717     1.18148     2.99021
    8          H           0.114655        0.8853     0.88535
    9          H           0.057242        0.9428     0.94276
   10          H           0.060876        0.9391     0.93912
   11          H           0.058056        0.9419     0.94194
   12          H           0.059715        0.9403     0.94028
   13          H           0.077756        0.9222     0.92224
   14          H           0.080429        0.9196     0.91957
   15          H           0.099173        0.9008     0.90083
   16          H           0.082330        0.9177     0.91767
   17          H           0.081456        0.9185     0.91854
 DIPOLE           X         Y         Z       TOTAL
 POINT-CHG.    -0.278     0.008    -0.011     0.279
 HYBRID         0.092    -0.012    -0.048     0.104
 SUM           -0.187    -0.004    -0.059     0.196


          ATOMIC ORBITAL ELECTRON POPULATIONS

     Atom    s        px        py        pz   
    1  C   1.18962   0.95301   0.93521   1.04353
    2  C   1.19893   0.96244   1.03820   0.94978
    3  C   1.16302   1.02194   0.92468   0.99683
    4  C   1.17060   0.93266   0.98866   0.97904
    5  C   1.16881   0.94535   0.98729   0.98005
    6  C   1.17293   0.92972   0.97858   0.98909
    7  C   1.18148   0.97012   1.01157   1.00852
    8  H   0.88535
    9  H   0.94276
   10  H   0.93912
   11  H   0.94194
   12  H   0.94028
   13  H   0.92224
   14  H   0.91957
   15  H   0.90083
   16  H   0.91767
   17  H   0.91854
 *******************************************************************************
 ** Site#: 14399        For non-commercial use only    Version 18.184L 64BITS **
 *******************************************************************************
 ** Cite this program as: MOPAC2016, Version: 18.184L, James J. P. Stewart,   **
 ** Stewart Computational Chemistry, web: HTTP://OpenMOPAC.net. Days left:  20**
 *******************************************************************************
 **                                                                           **
 **                                MOPAC2016                                  **
 **                                                                           **
 *******************************************************************************

                              PM3 CALCULATION RESULTS

 *******************************************************************************
 *  CALCULATION DONE:                                Thu Jun 13 18:50:29 2019  *
 *  PM3        - The PM3 Hamiltonian to be used
 *  OLDGEO     - PREVIOUS GEOMETRY TO BE USED
 *  PRECISE    - CRITERIA TO BE INCREASED BY 100 TIMES
 *  NOSYM      - POINT-GROUP SYMMETRY SET TO C1
 *  THREADS=1  - MULTI-THREADING NOT USED
 *  T=         - A TIME OF 172800.0 SECONDS REQUESTED
 *  DUMP=N     - RESTART FILE WRITTEN EVERY  7200.000 SECONDS
 *  THERMO     - THERMODYNAMIC QUANTITIES TO BE CALCULATED
 *******************************************************************************
oldgeo thermo nosym precise THREADS=1  pm3
 InChI=1S/C7H10/c1-2-7-4-3-6(7)5-7/h2,6H,1,3-5H2

   ATOM   CHEMICAL          X               Y               Z
  NUMBER   SYMBOL      (ANGSTROMS)     (ANGSTROMS)     (ANGSTROMS)
 
     1       C          0.11623712  *   0.08823115  *   0.19636347  *
     2       C         -0.53476656  *  -0.70803933  *  -0.94075139  *
     3       C          0.04319568  *  -1.41964549  *   0.24917453  *
     4       C         -1.24917879  *   0.70523213  *   0.55629006  *
     5       C         -1.90351221  *  -0.10184031  *  -0.60340580  *
     6       C          1.34553201  *   0.86903265  *   0.25398992  *
     7       C          2.48417303  *   0.50098744  *  -0.32522774  *
     8       H         -0.20528541  *  -0.87033765  *  -1.96837311  *
     9       H         -1.61663364  *   0.46610932  *   1.56495383  *
    10       H         -1.28742057  *   1.79736798  *   0.43232530  *
    11       H         -2.67349412  *  -0.82571780  *  -0.29850373  *
    12       H         -2.32352783  *   0.51837242  *  -1.40803652  *
    13       H         -0.60401960  *  -1.91995720  *   0.97916000  *
    14       H          0.97105507  *  -1.98867266  *   0.11501686  *
    15       H          1.27164301  *   1.80676630  *   0.81844644  *
    16       H          2.59234760  *  -0.41893786  *  -0.89371694  *
    17       H          3.38798105  *   1.09930060  *  -0.26839885  *
 


          CARTESIAN COORDINATES 

    NO.       ATOM           X           Y           Z

     1         C          0.1162      0.0882      0.1964
     2         C         -0.5348     -0.7080     -0.9408
     3         C          0.0432     -1.4196      0.2492
     4         C         -1.2492      0.7052      0.5563
     5         C         -1.9035     -0.1018     -0.6034
     6         C          1.3455      0.8690      0.2540
     7         C          2.4842      0.5010     -0.3252
     8         H         -0.2053     -0.8703     -1.9684
     9         H         -1.6166      0.4661      1.5650
    10         H         -1.2874      1.7974      0.4323
    11         H         -2.6735     -0.8257     -0.2985
    12         H         -2.3235      0.5184     -1.4080
    13         H         -0.6040     -1.9200      0.9792
    14         H          0.9711     -1.9887      0.1150
    15         H          1.2716      1.8068      0.8184
    16         H          2.5923     -0.4189     -0.8937
    17         H          3.3880      1.0993     -0.2684

  H: (PM3): J. J. P. STEWART, J. COMP. CHEM. 10, 209 (1989).
  C: (PM3): J. J. P. STEWART, J. COMP. CHEM. 10, 209 (1989).

           Empirical Formula: C7 H10  =    17 atoms



      MOLECULAR POINT GROUP   :   C1  


      RHF CALCULATION, NO. OF DOUBLY OCCUPIED LEVELS = 19



          HEAT OF FORMATION =      54.745117 KCALS/MOLE


          CARTESIAN COORDINATE DERIVATIVES

   NUMBER  ATOM         X            Y            Z

     1       C     -0.002200     0.000024    -0.001980
     2       C      0.004172     0.000015    -0.000631
     3       C     -0.001480     0.002120    -0.000783
     4       C      0.002113    -0.003739    -0.005330
     5       C     -0.001725     0.002021     0.002312
     6       C      0.003625     0.023168     0.000626
     7       C      0.005382    -0.004689    -0.003556
     8       H     -0.001912     0.000214    -0.001328
     9       H     -0.000258     0.004653     0.006622
    10       H     -0.000703     0.000283     0.001993
    11       H     -0.001332    -0.002579     0.000107
    12       H      0.000786    -0.002043    -0.000612
    13       H     -0.001732    -0.001484    -0.001644
    14       H      0.002172     0.002220    -0.001149
    15       H     -0.007465    -0.022633     0.004761
    16       H      0.004089    -0.003568    -0.000405
    17       H     -0.003533     0.006017     0.000994
 


          GRADIENT NORM =   0.03854


          TIME FOR SCF CALCULATION =    0.02

          TIME FOR DERIVATIVES     =    0.02

          MOLECULAR WEIGHT =   94.16



          ROTATIONAL CONSTANTS IN CM(-1)

          A =    0.18140722   B =    0.07207476   C =    0.06242736



           PRINCIPAL MOMENTS OF INERTIA IN UNITS OF 10**(-40)*GRAM-CM**2

          A =      154.3090   B =      388.3852   C =      448.4056


          ORIENTATION OF MOLECULE IN FORCE CALCULATION

    NO.       ATOM         X         Y         Z

     1          C      -0.2983    0.0686    0.0648
     2          C       1.2349    0.0686    0.0648
     3          C       0.4766    1.3653    0.0648
     4          C      -0.3060   -0.5528    1.4749
     5          C       1.2511   -0.5551    1.4667
     6          C      -1.2685   -0.3264   -0.9485
     7          C      -1.1313   -0.0682   -2.2454
     8          H       1.9414   -0.2253   -0.7133
     9          H      -0.7738    0.0667    2.2540
    10          H      -0.7650   -1.5514    1.5156
    11          H       1.7278    0.0575    2.2459
    12          H       1.7041   -1.5562    1.5007
    13          H       0.4699    2.0173    0.9462
    14          H       0.4777    1.9686   -0.8510
    15          H      -2.1427   -0.8673   -0.5657
    16          H      -0.2778    0.4623   -2.6594
    17          H      -1.8679   -0.3723   -2.9823


    FIRST DERIVATIVES WILL BE USED IN THE CALCULATION OF SECOND DERIVATIVES

          ESTIMATED TIME TO COMPLETE CALCULATION =        7.97 SECONDS

    FOR POINT-GROUP C1   THERE ARE   1 UNIQUE SYMMETRY FUNCTIONS.

 STEP:   1 TIME =     0.04 SECS, INTEGRAL =      0.04 TIME LEFT: 172799.92
 STEP:   2 TIME =     0.03 SECS, INTEGRAL =      0.07 TIME LEFT: 172799.89
 STEP:   3 TIME =     0.03 SECS, INTEGRAL =      0.10 TIME LEFT: 172799.86
 STEP:   4 TIME =     0.03 SECS, INTEGRAL =      0.13 TIME LEFT: 172799.83
 STEP:   5 TIME =     0.02 SECS, INTEGRAL =      0.16 TIME LEFT: 172799.80
 STEP:   6 TIME =     0.03 SECS, INTEGRAL =      0.19 TIME LEFT: 172799.77
 STEP:   7 TIME =     0.02 SECS, INTEGRAL =      0.21 TIME LEFT: 172799.75
 STEP:   8 TIME =     0.02 SECS, INTEGRAL =      0.23 TIME LEFT: 172799.73
 STEP:   9 TIME =     0.03 SECS, INTEGRAL =      0.27 TIME LEFT: 172799.70
 STEP:  10 TIME =     0.02 SECS, INTEGRAL =      0.29 TIME LEFT: 172799.67
 STEP:  11 TIME =     0.03 SECS, INTEGRAL =      0.32 TIME LEFT: 172799.64
 STEP:  12 TIME =     0.03 SECS, INTEGRAL =      0.35 TIME LEFT: 172799.61
 STEP:  13 TIME =     0.02 SECS, INTEGRAL =      0.38 TIME LEFT: 172799.59
 STEP:  14 TIME =     0.03 SECS, INTEGRAL =      0.41 TIME LEFT: 172799.55
 STEP:  15 TIME =     0.02 SECS, INTEGRAL =      0.43 TIME LEFT: 172799.53
 STEP:  16 TIME =     0.03 SECS, INTEGRAL =      0.46 TIME LEFT: 172799.50
 STEP:  17 TIME =     0.03 SECS, INTEGRAL =      0.49 TIME LEFT: 172799.47
 STEP:  18 TIME =     0.02 SECS, INTEGRAL =      0.52 TIME LEFT: 172799.45
 STEP:  19 TIME =     0.02 SECS, INTEGRAL =      0.54 TIME LEFT: 172799.42
 STEP:  20 TIME =     0.03 SECS, INTEGRAL =      0.57 TIME LEFT: 172799.39
 STEP:  21 TIME =     0.03 SECS, INTEGRAL =      0.60 TIME LEFT: 172799.36
 STEP:  22 TIME =     0.02 SECS, INTEGRAL =      0.62 TIME LEFT: 172799.34
 STEP:  23 TIME =     0.03 SECS, INTEGRAL =      0.66 TIME LEFT: 172799.30
 STEP:  24 TIME =     0.03 SECS, INTEGRAL =      0.69 TIME LEFT: 172799.27
 STEP:  25 TIME =     0.02 SECS, INTEGRAL =      0.71 TIME LEFT: 172799.25
 STEP:  26 TIME =     0.02 SECS, INTEGRAL =      0.73 TIME LEFT: 172799.23
 STEP:  27 TIME =     0.03 SECS, INTEGRAL =      0.77 TIME LEFT: 172799.20
 STEP:  28 TIME =     0.02 SECS, INTEGRAL =      0.79 TIME LEFT: 172799.17
 STEP:  29 TIME =     0.03 SECS, INTEGRAL =      0.82 TIME LEFT: 172799.14
 STEP:  30 TIME =     0.03 SECS, INTEGRAL =      0.85 TIME LEFT: 172799.11
 STEP:  31 TIME =     0.02 SECS, INTEGRAL =      0.88 TIME LEFT: 172799.09
 STEP:  32 TIME =     0.03 SECS, INTEGRAL =      0.91 TIME LEFT: 172799.05
 STEP:  33 TIME =     0.02 SECS, INTEGRAL =      0.93 TIME LEFT: 172799.03
 STEP:  34 TIME =     0.03 SECS, INTEGRAL =      0.96 TIME LEFT: 172799.00
 STEP:  35 TIME =     0.03 SECS, INTEGRAL =      0.99 TIME LEFT: 172798.97
 STEP:  36 TIME =     0.02 SECS, INTEGRAL =      1.02 TIME LEFT: 172798.95
 STEP:  37 TIME =     0.03 SECS, INTEGRAL =      1.05 TIME LEFT: 172798.91
 STEP:  38 TIME =     0.04 SECS, INTEGRAL =      1.09 TIME LEFT: 172798.88
 STEP:  39 TIME =     0.03 SECS, INTEGRAL =      1.12 TIME LEFT: 172798.84
 STEP:  40 TIME =     0.03 SECS, INTEGRAL =      1.15 TIME LEFT: 172798.81
 STEP:  41 TIME =     0.03 SECS, INTEGRAL =      1.18 TIME LEFT: 172798.78
 STEP:  42 TIME =     0.03 SECS, INTEGRAL =      1.21 TIME LEFT: 172798.75
 STEP:  43 TIME =     0.03 SECS, INTEGRAL =      1.24 TIME LEFT: 172798.72
 STEP:  44 TIME =     0.04 SECS, INTEGRAL =      1.28 TIME LEFT: 172798.68
 STEP:  45 TIME =     0.04 SECS, INTEGRAL =      1.32 TIME LEFT: 172798.64
 STEP:  46 TIME =     0.04 SECS, INTEGRAL =      1.36 TIME LEFT: 172798.60
 STEP:  47 TIME =     0.03 SECS, INTEGRAL =      1.39 TIME LEFT: 172798.57
 STEP:  48 TIME =     0.04 SECS, INTEGRAL =      1.43 TIME LEFT: 172798.53
 STEP:  49 TIME =     0.05 SECS, INTEGRAL =      1.48 TIME LEFT: 172798.48
 STEP:  50 TIME =     0.04 SECS, INTEGRAL =      1.52 TIME LEFT: 172798.45
 STEP:  51 TIME =     0.03 SECS, INTEGRAL =      1.55 TIME LEFT: 172798.41

(To convert to Hartree/Bohr^2, multiply by (10^(-21) x N x a0^2)/(4.184 x 627.51) =  0.0642)


           FORCE MATRIX IN MILLIDYNES/ANGSTROM


                  C  1       C  2       C  3       C  4       C  5       C  6
 ------------------------------------------------------------------------------
     C    1  16.128951
     C    2   3.798979  15.244220
     C    3   4.515113   4.929178  15.255090
     C    4   3.543150   1.867012   0.624303  14.358938
     C    5   1.871044   3.771430   0.654746   3.293981  14.464155
     C    6   5.658617   0.449815   0.516307   0.474464   0.046138  18.589768
     C    7   0.931062   0.042209   0.057429   0.043792   0.008392  10.938151
     H    8   0.365253   4.982926   0.415936   0.038749   0.387090   0.028092
     H    9   0.444577   0.041495   0.020813   4.699831   0.429287   0.019571
     H   10   0.456426   0.028620   0.046676   4.712381   0.445344   0.014456
     H   11   0.042653   0.444656   0.021517   0.429723   4.694740   0.006950
     H   12   0.026759   0.450137   0.049461   0.446123   4.727726   0.003043
     H   13   0.464272   0.460679   4.795196   0.028572   0.028521   0.035298
     H   14   0.458515   0.457667   4.801536   0.048137   0.050770   0.019911
     H   15   0.433045   0.030108   0.027455   0.023147   0.002621   4.784282
     H   16   0.100560   0.010806   0.018374   0.002304   0.001630   0.491758
     H   17   0.139355   0.012977   0.011922   0.005899   0.002501   0.459517


                  C  7       H  8       H  9       H 10       H 11       H 12
 ------------------------------------------------------------------------------
     C    7  17.974846
     H    8   0.004115   5.512466
     H    9   0.003755   0.005087   5.321504
     H   10   0.002828   0.002117   0.535008   5.319536
     H   11   0.000632   0.016577   0.020451   0.030957   5.319156
     H   12   0.000624   0.014561   0.031645   0.023400   0.538055   5.333058
     H   13   0.005092   0.031040   0.012220   0.004166   0.011840   0.004344
     H   14   0.008971   0.015943   0.003964   0.007753   0.004207   0.008051
     H   15   0.454457   0.003397   0.001242   0.015661   0.000822   0.000608
     H   16   5.067347   0.003609   0.000445   0.000550   0.000279   0.000339
     H   17   5.116195   0.002166   0.000615   0.000539   0.000412   0.000216


                  H 13       H 14       H 15       H 16       H 17
 ------------------------------------------------------------------
     H   13   5.409492
     H   14   0.475354   5.389896
     H   15   0.001632   0.002868   5.134411
     H   16   0.002146   0.020080   0.117106   5.461511
     H   17   0.001669   0.001821   0.079115   0.418855   5.502515


          HEAT OF FORMATION =      54.745117 KCALS/MOLE

          ZERO POINT ENERGY      93.561 KCAL/MOL


           NORMAL COORDINATE ANALYSIS (Total motion = 1 Angstrom)


   Root No.       1         2         3         4         5         6         7         8

                 1 A       2 A       3 A       4 A       5 A       6 A       7 A       8 A   

                 104.2     225.1     240.2     377.3     426.1     504.1     636.3     696.2
  
           1    0.0139   -0.0238   -0.0112   -0.0143   -0.0120    0.0182    0.0120   -0.0295
           2   -0.0218    0.0020   -0.0281    0.0383   -0.0008   -0.0160    0.0004    0.0245
           3   -0.0115    0.0177    0.0088    0.0143   -0.0001   -0.0348    0.0181   -0.0098
           4    0.0145   -0.0256   -0.0112   -0.0149   -0.0174    0.0190   -0.0149   -0.0181
           5   -0.0144   -0.0080   -0.0205   -0.0090   -0.0310   -0.0006    0.0012    0.0057
           6    0.0144   -0.0204   -0.0123   -0.0150   -0.0235   -0.0222   -0.0236    0.0302
           7    0.0085   -0.0179   -0.0148    0.0316    0.0149    0.0086    0.0010    0.0271
           8   -0.0182   -0.0019   -0.0244    0.0148   -0.0120   -0.0064    0.0148    0.0178
           9   -0.0253   -0.0067   -0.0260   -0.0097    0.0568    0.0253    0.0007    0.0035
          10   -0.0050    0.0027    0.0118   -0.0117    0.0064   -0.0150   -0.0222    0.0228
          11    0.0086    0.0307   -0.0216   -0.0270    0.0134    0.0214   -0.0056    0.0023
          12    0.0023    0.0306    0.0104   -0.0184    0.0137   -0.0373    0.0075    0.0045
          13   -0.0052    0.0043    0.0133   -0.0126    0.0116   -0.0136   -0.0194    0.0195
          14    0.0208   -0.0172    0.0361    0.0113    0.0285    0.0149    0.0058   -0.0030
          15    0.0305   -0.0266    0.0129   -0.0053    0.0005   -0.0121   -0.0140    0.0120
          16    0.0230    0.0091   -0.0233    0.0033    0.0051   -0.0305    0.0610   -0.0311
          17   -0.0412   -0.0290    0.0206   -0.0079    0.0065   -0.0330   -0.0286   -0.0447
          18   -0.0128   -0.0013    0.0010    0.0187   -0.0261    0.0245    0.0052   -0.0226
          19   -0.0436    0.0412    0.0297    0.0107   -0.0128    0.0120    0.0015   -0.0116
          20    0.0579    0.0217    0.0277   -0.0053   -0.0089    0.0028    0.0041   -0.0036
          21   -0.0002    0.0112    0.0070    0.0212   -0.0329    0.0396    0.0078   -0.0167
          22    0.0302   -0.0525   -0.0211   -0.0471   -0.0448    0.0473   -0.0544   -0.0296
          23   -0.0282   -0.0140   -0.0416   -0.0522   -0.0419    0.0313   -0.0303   -0.0114
          24    0.0342   -0.0430   -0.0130   -0.0279   -0.0429   -0.0072   -0.0477    0.0248
          25   -0.0244    0.0552   -0.0147   -0.0462    0.0085   -0.0307   -0.0303    0.0303
          26    0.0215    0.0689   -0.0410   -0.1011    0.0235    0.0542   -0.0175   -0.0366
          27   -0.0196    0.0324    0.0094    0.0176    0.0073   -0.0715    0.0117    0.0379
          28    0.0028   -0.0306    0.0531    0.0236    0.0208   -0.0256   -0.0221    0.0436
          29    0.0054    0.0485   -0.0406   -0.0484    0.0088    0.0276   -0.0070   -0.0088
          30    0.0160    0.0759    0.0085   -0.0977    0.0389   -0.0120   -0.0071   -0.0292
          31   -0.0245    0.0559   -0.0150   -0.0440    0.0073   -0.0300   -0.0219    0.0383
          32    0.0452   -0.0432    0.0954    0.0485    0.0932    0.0327    0.0202   -0.0260
          33    0.0233   -0.0383   -0.0155   -0.0144   -0.0455   -0.0155   -0.0245    0.0189
          34    0.0027   -0.0295    0.0562    0.0206    0.0317   -0.0208   -0.0151    0.0225
          35    0.0256   -0.0338    0.0579    0.0283    0.0415    0.0138    0.0090   -0.0043
          36    0.0651   -0.0566    0.0641    0.0273    0.0677    0.0212   -0.0094   -0.0157
          37   -0.0094    0.0054   -0.0000    0.0813    0.0536   -0.0111    0.0507    0.0024
          38   -0.0005   -0.0006   -0.0067    0.0207   -0.0808   -0.0667    0.0031    0.0262
          39   -0.0385   -0.0075   -0.0392   -0.0140    0.1109    0.0726    0.0095   -0.0027
          40    0.0212   -0.0333   -0.0367    0.0320    0.0089    0.0189   -0.0523    0.1426
          41   -0.0349   -0.0018   -0.0417    0.0087    0.0599    0.0594    0.0214    0.0126
          42   -0.0364   -0.0067   -0.0377   -0.0140    0.1071    0.0711    0.0057    0.0001
          43    0.0791    0.0334   -0.0657    0.0423    0.0154   -0.0347    0.0266   -0.0433
          44   -0.1401   -0.0945    0.0780   -0.0778   -0.0163   -0.0135    0.0389   -0.0320
          45   -0.0233   -0.0406   -0.0175    0.0090   -0.0330    0.0391    0.0237   -0.0336
          46   -0.1032    0.0263    0.0808   -0.0252   -0.0394    0.0615    0.0558    0.0707
          47    0.1556    0.0857   -0.0290    0.0682    0.0152   -0.0125   -0.1473   -0.0751
          48    0.0021    0.0611    0.0386    0.0407   -0.0555    0.1189   -0.0714    0.0572
          49   -0.0463    0.0882    0.0308    0.0573   -0.0124    0.0391   -0.1646   -0.0270
          50    0.0474    0.0041    0.0911   -0.0764   -0.0511    0.0750    0.2051    0.1666
          51    0.0067   -0.0281   -0.0199    0.0045   -0.0170   -0.0145    0.0902   -0.0707


   Root No.       9        10        11        12        13        14        15        16

                 9 A      10 A      11 A      12 A      13 A      14 A      15 A      16 A   

                 810.1     841.1     873.7     895.9     930.2     941.2     969.0     984.9
  
           1   -0.0080   -0.0024   -0.0027    0.0206    0.0131   -0.0200    0.0193   -0.0040
           2   -0.0248    0.0008   -0.0082   -0.0199    0.0084    0.0016   -0.0091   -0.0039
           3    0.0158    0.0034   -0.0032   -0.0147   -0.0029    0.0141    0.0007   -0.0160
           4    0.0196    0.0099   -0.0064   -0.0253    0.0074    0.0002   -0.0133   -0.0306
           5    0.0332   -0.0081   -0.0044    0.0071   -0.0050    0.0014   -0.0062   -0.0074
           6   -0.0091   -0.0008    0.0015   -0.0020   -0.0139    0.0170    0.0008   -0.0081
           7    0.0402   -0.0096    0.0080    0.0089   -0.0065    0.0022    0.0010    0.0008
           8   -0.0073   -0.0179   -0.0106    0.0271    0.0103   -0.0152    0.0167    0.0203
           9    0.0022   -0.0004    0.0019   -0.0131   -0.0100    0.0220    0.0219   -0.0047
          10   -0.0189   -0.0013   -0.0160    0.0029    0.0085   -0.0138   -0.0133    0.0249
          11   -0.0219    0.0330   -0.0025   -0.0168    0.0059    0.0117   -0.0037   -0.0045
          12    0.0335   -0.0013    0.0208    0.0064    0.0274   -0.0283    0.0009   -0.0053
          13   -0.0247    0.0082   -0.0080   -0.0025   -0.0182    0.0248    0.0105   -0.0101
          14    0.0276    0.0233    0.0162    0.0072   -0.0162    0.0041   -0.0068   -0.0122
          15   -0.0201    0.0116   -0.0312    0.0162    0.0006   -0.0092   -0.0025    0.0166
          16   -0.0163    0.0003    0.0107    0.0082    0.0087    0.0086    0.0063   -0.0115
          17   -0.0060    0.0006    0.0034   -0.0087   -0.0164   -0.0286    0.0069   -0.0065
          18   -0.0095   -0.0002    0.0059   -0.0003   -0.0064   -0.0030   -0.0014    0.0021
          19   -0.0073    0.0010    0.0089   -0.0012   -0.0087    0.0129   -0.0182    0.0218
          20   -0.0021    0.0006    0.0035   -0.0015   -0.0092   -0.0058   -0.0027    0.0078
          21   -0.0119   -0.0004    0.0083    0.0012   -0.0093    0.0027   -0.0068    0.0106
          22    0.0918   -0.0054    0.0384   -0.1059    0.0623   -0.0120   -0.0261    0.0788
          23    0.0807   -0.0456    0.0681   -0.1028    0.0517    0.0254    0.0422    0.1062
          24    0.0382   -0.0002    0.0132   -0.0357    0.0161   -0.0035   -0.0299    0.0514
          25   -0.0232   -0.1436   -0.0363   -0.0291    0.0289   -0.0113   -0.0914   -0.0200
          26   -0.0078   -0.1005   -0.0418    0.0348   -0.0784    0.0318    0.0234    0.0248
          27    0.0216    0.0110    0.0375   -0.0532    0.1044   -0.0427   -0.0696   -0.0566
          28    0.0163    0.1318    0.0323    0.0232    0.0042   -0.0369    0.0298    0.0797
          29   -0.0355   -0.0391   -0.0264   -0.0223    0.0015    0.0234   -0.0225   -0.0276
          30    0.1056   -0.1245    0.0102    0.0759   -0.0608   -0.0408    0.0334    0.0491
          31   -0.0089    0.1437    0.0435    0.0107   -0.0068    0.0166    0.0837    0.0418
          32   -0.0357   -0.1060    0.0342   -0.0598    0.0444    0.0117    0.0381    0.0034
          33    0.0173    0.0220   -0.0777    0.0569   -0.0512   -0.0098   -0.0839   -0.0274
          34   -0.0277   -0.1404   -0.0181   -0.0051   -0.0409    0.0447   -0.0353   -0.0653
          35    0.0215   -0.0530    0.0113    0.0008   -0.0221    0.0139   -0.0252   -0.0367
          36   -0.1214   -0.0825   -0.0413   -0.0737    0.0970   -0.0178    0.0533    0.0763
          37    0.1754    0.0123   -0.1792   -0.0219   -0.0036    0.0664    0.0132    0.0881
          38    0.0060   -0.0461   -0.0046   -0.0214   -0.0157    0.0588    0.1104    0.0169
          39   -0.0068    0.0222   -0.0048    0.0240    0.0105   -0.0356   -0.0533   -0.0024
          40   -0.0369   -0.0625    0.2324    0.0442   -0.0394   -0.0098   -0.0098    0.0088
          41   -0.0184    0.0089   -0.0219    0.0789    0.0452   -0.0977   -0.0825    0.0270
          42   -0.0060    0.0189   -0.0051    0.0236    0.0136   -0.0354   -0.0482   -0.0005
          43   -0.0271   -0.0016   -0.0047   -0.0485   -0.0571   -0.1164    0.0389   -0.0277
          44   -0.0048   -0.0005    0.0283    0.1147    0.1246    0.1661   -0.0123   -0.0117
          45   -0.0322   -0.0061    0.0058    0.0431    0.0409   -0.0118    0.0445   -0.0413
          46    0.0011   -0.0020   -0.0217   -0.0355   -0.0293   -0.0839    0.0360   -0.0286
          47    0.0087   -0.0018    0.0147    0.0765    0.0854    0.1249   -0.0228    0.0042
          48    0.0176   -0.0090   -0.0372    0.0293    0.0650   -0.0268    0.0736   -0.0913
          49    0.0228   -0.0049   -0.0207    0.0280    0.0303   -0.0345    0.0533   -0.0519
          50    0.0006   -0.0012   -0.0305   -0.0322    0.0282    0.0088    0.0088   -0.0310
          51   -0.0436    0.0059    0.0515   -0.0144   -0.0627    0.0427   -0.0812    0.0983


   Root No.      17        18        19        20        21        22        23        24

                17 A      18 A      19 A      20 A      21 A      22 A      23 A      24 A   

                1023.4    1032.9    1054.4    1069.0    1082.6    1099.3    1143.9    1174.6
  
           1   -0.0053    0.0061   -0.0128    0.0049    0.0306    0.0160    0.0087   -0.0089
           2    0.0111    0.0013    0.0258   -0.0108   -0.0275   -0.0016   -0.0220    0.0054
           3    0.0018   -0.0060   -0.0069    0.0046   -0.0232   -0.0145   -0.0148   -0.0265
           4    0.0130   -0.0271   -0.0170   -0.0189   -0.0258   -0.0002    0.0083   -0.0026
           5   -0.0003   -0.0189   -0.0269   -0.0086   -0.0115   -0.0096    0.0254    0.0041
           6   -0.0064    0.0126    0.0035   -0.0289   -0.0076    0.0070    0.0271    0.0213
           7   -0.0027   -0.0076   -0.0164   -0.0043    0.0036    0.0087   -0.0455    0.0262
           8   -0.0071    0.0043   -0.0145   -0.0099    0.0148    0.0167   -0.0078   -0.0126
           9    0.0079   -0.0218    0.0119    0.0020    0.0298    0.0113   -0.0022   -0.0036
          10    0.0161   -0.0265    0.0273    0.0065    0.0116   -0.0031    0.0023   -0.0158
          11   -0.0063   -0.0051    0.0002    0.0237    0.0000    0.0273    0.0174    0.0009
          12   -0.0038    0.0039   -0.0163    0.0083    0.0010    0.0227    0.0030   -0.0009
          13   -0.0176    0.0285   -0.0235    0.0053   -0.0157   -0.0045   -0.0094    0.0029
          14    0.0034    0.0011    0.0156   -0.0091    0.0257   -0.0254   -0.0131   -0.0007
          15   -0.0034    0.0033   -0.0107    0.0211    0.0076   -0.0202   -0.0196    0.0042
          16   -0.0080    0.0043    0.0289    0.0073   -0.0147   -0.0163   -0.0034   -0.0186
          17    0.0279    0.0174   -0.0047    0.0081    0.0062   -0.0061    0.0087   -0.0092
          18    0.0039    0.0032    0.0002    0.0011    0.0008   -0.0016   -0.0006   -0.0089
          19    0.0203    0.0036   -0.0136   -0.0038    0.0104    0.0081    0.0060    0.0195
          20   -0.0466   -0.0177    0.0094   -0.0051   -0.0041    0.0027   -0.0002    0.0116
          21   -0.0081   -0.0017    0.0016   -0.0028    0.0018    0.0010   -0.0007   -0.0065
          22   -0.0111    0.0934    0.0940   -0.0252    0.0017    0.0253   -0.0721   -0.0761
          23   -0.0357    0.0468   -0.0253    0.2023   -0.0409   -0.0815   -0.0781    0.0901
          24   -0.0149    0.0989    0.1070   -0.1154    0.0284    0.0569   -0.0065   -0.0797
          25   -0.0018   -0.0299    0.0527   -0.0585    0.1297   -0.1060    0.0028    0.0481
          26    0.0251    0.0095    0.0291   -0.0181   -0.0480   -0.0291   -0.0306   -0.0350
          27   -0.0377   -0.0114   -0.0232    0.0014    0.1085    0.0027    0.0391    0.0655
          28    0.0686   -0.0715    0.0803    0.0273   -0.0992    0.1072    0.0512    0.0362
          29   -0.0269    0.0155   -0.0193    0.0101    0.0459   -0.0251   -0.0070   -0.0211
          30    0.0794   -0.0316    0.0545   -0.0628   -0.1145   -0.0012   -0.0221    0.0510
          31   -0.0307    0.0754   -0.0470   -0.1324    0.0312   -0.0954   -0.0288    0.0279
          32   -0.0120    0.0087   -0.0262   -0.0666   -0.0217    0.0275    0.0450    0.0053
          33    0.0166   -0.0324    0.0360    0.1505    0.0136   -0.0047   -0.0512   -0.0142
          34   -0.0499    0.0981    0.0033    0.0740   -0.0356    0.1464    0.0121    0.0126
          35   -0.0116    0.0297    0.0232    0.0207    0.0133    0.0425   -0.0003    0.0038
          36    0.0139   -0.0749   -0.0841   -0.0361   -0.0789   -0.0528    0.0289    0.0053
          37   -0.0502    0.0568    0.0204    0.0337    0.0111   -0.0450    0.2300   -0.0321
          38    0.0205   -0.0625    0.0097    0.0049    0.0998    0.0492   -0.0211   -0.0258
          39   -0.0138    0.0309   -0.0069   -0.0116   -0.0389   -0.0145    0.0104    0.0051
          40   -0.0005   -0.0118    0.0011    0.0844   -0.0157   -0.0885    0.1619   -0.1100
          41   -0.0335    0.0738   -0.0502   -0.0326   -0.0815   -0.0122   -0.0026   -0.0133
          42   -0.0110    0.0272   -0.0122   -0.0139   -0.0369   -0.0092    0.0029   -0.0043
          43    0.0522    0.0486    0.0384    0.0240    0.0118   -0.0235    0.0443    0.0792
          44   -0.0591   -0.0278    0.0644   -0.0049   -0.0413   -0.0159   -0.0123    0.0072
          45    0.0177    0.0398    0.1170    0.0199   -0.0049   -0.0313    0.0789    0.2420
          46   -0.0794   -0.0163    0.0384    0.0022   -0.0173   -0.0117   -0.0012   -0.0028
          47    0.1562    0.0480   -0.0365    0.0081    0.0219    0.0037    0.0102    0.0067
          48    0.0441    0.0398    0.0469    0.0246   -0.0212   -0.0372   -0.0021   -0.0600
          49   -0.0865   -0.0213    0.0412    0.0064   -0.0178   -0.0120   -0.0073   -0.0154
          50    0.1901    0.0672   -0.0263    0.0159    0.0088   -0.0071   -0.0029   -0.0118
          51    0.0017   -0.0103   -0.0358   -0.0211    0.0242    0.0237    0.0146    0.0383


   Root No.      25        26        27        28        29        30        31        32

                25 A      26 A      27 A      28 A      29 A      30 A      31 A      32 A   

                1206.9    1218.0    1234.7    1289.7    1311.5    1360.7    1400.4    1415.4
  
           1    0.0123   -0.0074   -0.0183    0.0138   -0.0144   -0.0057    0.0003   -0.0128
           2    0.0428    0.0161   -0.0314    0.0144    0.0042   -0.0202    0.0003   -0.0050
           3   -0.0154    0.0020    0.0260   -0.0214   -0.0238    0.0378   -0.0059   -0.0187
           4    0.0376    0.0131   -0.0206   -0.0052   -0.0013    0.0229    0.0038   -0.0051
           5   -0.0275    0.0149    0.0244   -0.0317    0.0181   -0.0305   -0.0009    0.0042
           6   -0.0342   -0.0138   -0.0177    0.0550   -0.0132    0.0083    0.0031    0.0068
           7   -0.0417   -0.0020    0.0176   -0.0004    0.0058   -0.0053    0.0005    0.0044
           8    0.0150   -0.0154    0.0072    0.0008   -0.0103    0.0114   -0.0042   -0.0242
           9    0.0136    0.0034    0.0015   -0.0079    0.0068   -0.0046    0.0005    0.0026
          10   -0.0299    0.0436    0.0060    0.0250    0.0011    0.0006   -0.0207    0.0195
          11   -0.0242   -0.0159    0.0069   -0.0186   -0.0031    0.0041   -0.0126    0.0059
          12    0.0242    0.0314    0.0016    0.0329    0.0150   -0.0124    0.0266   -0.0074
          13    0.0316   -0.0341    0.0286    0.0147    0.0066   -0.0068   -0.0196   -0.0122
          14    0.0125   -0.0085   -0.0013    0.0274   -0.0043    0.0022    0.0124    0.0052
          15    0.0067    0.0221   -0.0212   -0.0528    0.0045    0.0025   -0.0247   -0.0128
          16   -0.0251   -0.0126   -0.0070   -0.0018    0.0085   -0.0128    0.0013    0.0135
          17   -0.0199   -0.0097   -0.0011    0.0001    0.0074   -0.0042    0.0007    0.0064
          18   -0.0069   -0.0040   -0.0036   -0.0005   -0.0274   -0.0106    0.0013    0.0068
          19    0.0126    0.0077    0.0061    0.0001   -0.0000    0.0039   -0.0002   -0.0032
          20    0.0103    0.0064    0.0040   -0.0006    0.0012    0.0042   -0.0005   -0.0033
          21   -0.0047   -0.0072   -0.0106    0.0031   -0.0086   -0.0163    0.0023    0.0117
          22    0.0588   -0.0068    0.0752   -0.0664    0.0107    0.0045   -0.0071   -0.0129
          23   -0.0519   -0.0151   -0.0866    0.0762   -0.0334    0.0269    0.0027    0.0020
          24   -0.0083   -0.0202    0.1130   -0.0421    0.0166   -0.0316   -0.0092    0.0012
          25   -0.0450   -0.1209   -0.0513   -0.0708   -0.0380    0.0382    0.1079   -0.0849
          26   -0.0250    0.0667    0.0064    0.0332   -0.0199    0.0379    0.1700   -0.1063
          27    0.0190   -0.1321   -0.0323   -0.0678    0.0062   -0.0193   -0.0573    0.0283
          28   -0.0636   -0.1205   -0.0455   -0.0805   -0.0344    0.0317    0.1066   -0.0871
          29   -0.0070    0.0527    0.0262    0.0275    0.0115   -0.0099   -0.0663    0.0505
          30    0.0922   -0.1193   -0.0670   -0.0580    0.0041   -0.0421   -0.1653    0.0833
          31   -0.0002    0.0672   -0.0858   -0.1334    0.0170   -0.0251    0.1031    0.0615
          32   -0.0711    0.0466   -0.0301    0.0140   -0.0262    0.0483   -0.1647   -0.0853
          33    0.0917   -0.0832    0.0711    0.0465    0.0179   -0.0276    0.0548    0.0222
          34   -0.0144    0.0589   -0.0733   -0.1432    0.0187   -0.0215    0.1046    0.0648
          35   -0.0102    0.0305   -0.0425   -0.0396    0.0006   -0.0042    0.0625    0.0363
          36    0.0269   -0.0825    0.1105    0.0131    0.0430   -0.0792    0.1567    0.0821
          37    0.0419   -0.0070   -0.0403    0.0255   -0.0017   -0.0068    0.0025    0.0076
          38    0.0721   -0.0144    0.0064   -0.0213    0.0143    0.1459    0.0249    0.1090
          39   -0.0291    0.0028    0.0021    0.0093   -0.0126   -0.0964   -0.0199   -0.0915
          40    0.0768    0.0161    0.0163   -0.0599   -0.0149    0.0172   -0.0050   -0.0129
          41   -0.0080   -0.0273    0.0065    0.0186   -0.0277    0.1761    0.0235    0.1031
          42   -0.0051   -0.0046    0.0017    0.0050   -0.0066    0.0986    0.0174    0.0807
          43   -0.0084    0.0185    0.0546   -0.0161    0.0147    0.0144    0.0000    0.0051
          44    0.0023    0.0042   -0.0000   -0.0041    0.0133   -0.0041   -0.0002    0.0058
          45    0.0662    0.0906    0.1433   -0.0401   -0.0101    0.0566   -0.0031   -0.0168
          46   -0.0095   -0.0071   -0.0066    0.0049    0.1129    0.0262   -0.0038   -0.0179
          47   -0.0057   -0.0019    0.0035    0.0013    0.0257    0.0082   -0.0015   -0.0078
          48   -0.0723   -0.0511   -0.0410    0.0174    0.2821    0.0394   -0.0070   -0.0268
          49   -0.0057    0.0035    0.0087   -0.0103   -0.1596   -0.0422    0.0056    0.0290
          50   -0.0049    0.0035    0.0060   -0.0075   -0.1166   -0.0308    0.0037    0.0199
          51    0.0175   -0.0036   -0.0154    0.0174    0.2164    0.0458   -0.0055   -0.0309


   Root No.      33        34        35        36        37        38        39        40

                33 A      34 A      35 A      36 A      37 A      38 A      39 A      40 A   

                1439.9    1607.7    1868.1    3036.2    3037.7    3051.4    3081.8    3102.4
  
           1    0.0081    0.1254   -0.0448    0.0001   -0.0001    0.0001    0.0002   -0.0003
           2   -0.0142    0.0605   -0.0153   -0.0000   -0.0000   -0.0003    0.0001   -0.0003
           3    0.0395    0.0662   -0.0532    0.0004   -0.0002   -0.0001   -0.0006    0.0007
           4    0.0136   -0.0676    0.0096    0.0003    0.0005   -0.0008   -0.0025   -0.0007
           5   -0.0285    0.0375   -0.0038   -0.0000   -0.0002    0.0000    0.0010    0.0009
           6    0.0146    0.0008    0.0004    0.0001   -0.0004    0.0006    0.0019    0.0008
           7   -0.0051   -0.0038    0.0009    0.0002    0.0001   -0.0000    0.0002    0.0001
           8    0.0424   -0.0849    0.0106    0.0001    0.0000   -0.0002    0.0008    0.0011
           9   -0.0066   -0.0062    0.0038   -0.0004    0.0002    0.0007   -0.0551   -0.0013
          10    0.0186   -0.0012   -0.0031   -0.0004    0.0001    0.0001    0.0007   -0.0271
          11    0.0086    0.0014   -0.0016   -0.0071   -0.0266   -0.0261   -0.0009   -0.0113
          12   -0.0229   -0.0207    0.0047   -0.0031   -0.0120   -0.0119   -0.0010    0.0240
          13   -0.0269   -0.0083    0.0044    0.0002    0.0008   -0.0011   -0.0008   -0.0029
          14    0.0122    0.0037   -0.0012    0.0054    0.0244   -0.0278   -0.0006    0.0011
          15   -0.0206   -0.0140    0.0038    0.0025    0.0117   -0.0136   -0.0008   -0.0016
          16   -0.0146   -0.0465    0.0248   -0.0439    0.0046    0.0004    0.0005    0.0003
          17   -0.0057   -0.0267   -0.0194   -0.0277    0.0028    0.0002    0.0004    0.0002
          18   -0.0062    0.0063    0.2302    0.0228   -0.0022   -0.0001   -0.0000   -0.0001
          19    0.0031    0.0088    0.0157    0.0036   -0.0004   -0.0001    0.0008   -0.0000
          20    0.0036    0.0118    0.0342    0.0021   -0.0002   -0.0000    0.0005   -0.0000
          21   -0.0166   -0.0494   -0.1834   -0.0009    0.0001    0.0000   -0.0005   -0.0000
          22   -0.0029   -0.0261    0.0034   -0.0010   -0.0054    0.0082    0.0257    0.0164
          23    0.0282    0.0093   -0.0044    0.0006    0.0030   -0.0042   -0.0083   -0.0066
          24   -0.0219    0.0611   -0.0089    0.0009    0.0048   -0.0077   -0.0293   -0.0180
          25   -0.0487    0.0065   -0.0004   -0.0232   -0.0956   -0.0973   -0.0083    0.1662
          26   -0.0674   -0.0081   -0.0025    0.0289    0.1212    0.1180    0.0105   -0.2495
          27    0.0057   -0.0067    0.0048    0.0380    0.1589    0.1547    0.0136   -0.2899
          28   -0.0540    0.0181   -0.0047    0.0251    0.0929    0.0950   -0.0017    0.1616
          29    0.0388   -0.0030   -0.0026    0.0558    0.1995    0.1949   -0.0051    0.3845
          30    0.0596    0.0602   -0.0083   -0.0040   -0.0121   -0.0118    0.0000   -0.0008
          31    0.0718    0.0052    0.0004   -0.0203   -0.0930    0.1115    0.0077    0.0126
          32   -0.0970   -0.0244    0.0040   -0.0252   -0.1154    0.1331    0.0096    0.0191
          33    0.0147   -0.0009    0.0034   -0.0333   -0.1523    0.1752    0.0124    0.0226
          34    0.0776   -0.0032    0.0006    0.0179    0.0823   -0.0970    0.0030    0.0132
          35    0.0544    0.0092   -0.0042   -0.0391   -0.1790    0.2004   -0.0083   -0.0329
          36    0.0652    0.0442   -0.0045    0.0021    0.0098   -0.0110    0.0003    0.0003
          37   -0.0058   -0.0187    0.0123    0.0002    0.0003    0.0000   -0.0022   -0.0003
          38   -0.0922   -0.0093    0.0134    0.0031   -0.0008   -0.0012    0.2422   -0.0009
          39    0.0891   -0.0597    0.0016    0.0039   -0.0011   -0.0025    0.3048   -0.0014
          40    0.0120    0.0148   -0.0079    0.0001    0.0003   -0.0000   -0.0012    0.0000
          41   -0.0645    0.0337   -0.0051   -0.0017    0.0008    0.0069   -0.2493   -0.0105
          42   -0.0706    0.0724   -0.0081    0.0026   -0.0012   -0.0096    0.3582    0.0161
          43   -0.0000   -0.0585   -0.1062    0.5172   -0.0539   -0.0045   -0.0039   -0.0038
          44   -0.0076   -0.0319   -0.0533    0.3187   -0.0335   -0.0031   -0.0025   -0.0028
          45    0.0299   -0.0093   -0.0205   -0.2241    0.0238    0.0023    0.0019    0.0024
          46    0.0186    0.0380    0.1289    0.0030   -0.0001    0.0005   -0.0103   -0.0004
          47    0.0099    0.0184    0.0695    0.0021   -0.0001    0.0003   -0.0062   -0.0002
          48    0.0252    0.0138    0.0200   -0.0033    0.0002   -0.0002    0.0053    0.0002
          49   -0.0297   -0.0561   -0.1158   -0.0418    0.0043    0.0003    0.0016    0.0004
          50   -0.0210   -0.0342   -0.0558   -0.0180    0.0019    0.0001    0.0006    0.0002
          51    0.0264    0.0278   -0.0544   -0.0367    0.0038    0.0003    0.0010    0.0003


   Root No.      41        42        43        44        45

                41 A      42 A      43 A      44 A      45 A   

                3105.2    3117.8    3134.4    3142.5    3148.9
  
           1   -0.0009    0.0008   -0.0001   -0.0013    0.0002
           2    0.0002   -0.0002   -0.0001   -0.0007    0.0000
           3   -0.0007    0.0001    0.0004   -0.0008    0.0006
           4   -0.0004   -0.0005   -0.0010    0.0424    0.0000
           5    0.0000   -0.0001    0.0005   -0.0172   -0.0001
           6    0.0013   -0.0004    0.0012   -0.0446   -0.0000
           7   -0.0001    0.0003    0.0001    0.0003   -0.0000
           8    0.0012   -0.0398    0.0032    0.0021   -0.0000
           9   -0.0017   -0.0021   -0.0012   -0.0048    0.0004
          10   -0.0014   -0.0007    0.0001   -0.0024   -0.0000
          11   -0.0014    0.0002    0.0001   -0.0014    0.0000
          12    0.0021    0.0008   -0.0001    0.0021   -0.0001
          13    0.0275    0.0006   -0.0001    0.0012    0.0000
          14   -0.0139    0.0002    0.0000   -0.0024    0.0000
          15    0.0233    0.0007   -0.0000   -0.0003   -0.0000
          16    0.0001    0.0001   -0.0004    0.0002   -0.0049
          17    0.0001    0.0001    0.0004    0.0001   -0.0038
          18    0.0000   -0.0003   -0.0043   -0.0000    0.0079
          19    0.0001   -0.0027   -0.0529   -0.0012   -0.0356
          20    0.0000   -0.0017   -0.0324   -0.0008   -0.0126
          21   -0.0000    0.0012    0.0222    0.0006   -0.0508
          22    0.0104   -0.0047    0.0129   -0.4911   -0.0007
          23   -0.0040    0.0024   -0.0053    0.2020    0.0004
          24   -0.0102    0.0043   -0.0135    0.5304    0.0009
          25    0.0124    0.0059   -0.0004    0.0073   -0.0000
          26   -0.0187   -0.0092    0.0007   -0.0116    0.0001
          27   -0.0210   -0.0101    0.0007   -0.0129    0.0000
          28    0.0149    0.0029   -0.0006    0.0098   -0.0000
          29    0.0335    0.0074   -0.0014    0.0229    0.0001
          30    0.0001    0.0001    0.0000   -0.0004   -0.0001
          31   -0.1640   -0.0055    0.0001    0.0040    0.0000
          32   -0.2411   -0.0086    0.0003    0.0023    0.0000
          33   -0.2813   -0.0094    0.0001    0.0070    0.0000
          34   -0.1694   -0.0027    0.0003   -0.0103   -0.0000
          35    0.4064    0.0072   -0.0009    0.0251    0.0001
          36    0.0019    0.0001    0.0001   -0.0034   -0.0000
          37    0.0004   -0.0027    0.0001   -0.0025    0.0001
          38    0.0003    0.2615   -0.0148    0.0192   -0.0010
          39    0.0000    0.3717   -0.0217    0.0197   -0.0014
          40   -0.0002    0.0011   -0.0001    0.0016    0.0001
          41   -0.0129    0.2115   -0.0227   -0.0264    0.0019
          42    0.0197   -0.3448    0.0370    0.0357   -0.0025
          43   -0.0004   -0.0008    0.0057   -0.0002    0.0480
          44   -0.0003   -0.0005    0.0040   -0.0001    0.0301
          45    0.0003    0.0002   -0.0063    0.0002   -0.0243
          46   -0.0007    0.0300    0.5819    0.0142   -0.0859
          47   -0.0004    0.0185    0.3610    0.0087   -0.0506
          48    0.0004   -0.0145   -0.2795   -0.0065    0.0224
          49    0.0001    0.0020    0.0458    0.0005    0.5173
          50    0.0000    0.0006    0.0160    0.0002    0.2151
          51    0.0000    0.0031    0.0662    0.0010    0.5064


           MASS-WEIGHTED COORDINATE ANALYSIS (NORMAL COORDINATES)


   Root No.       1         2         3         4         5         6         7         8

                 1 A       2 A       3 A       4 A       5 A       6 A       7 A       8 A   

                 104.2     225.1     240.2     377.3     426.1     504.1     636.3     696.2
  
           1    0.1022   -0.1994   -0.0963   -0.1297   -0.0976    0.1450    0.0901   -0.2337
           2   -0.1596    0.0164   -0.2411    0.3480   -0.0067   -0.1274    0.0032    0.1943
           3   -0.0844    0.1483    0.0755    0.1301   -0.0006   -0.2772    0.1356   -0.0775
           4    0.1063   -0.2148   -0.0963   -0.1357   -0.1418    0.1513   -0.1117   -0.1433
           5   -0.1054   -0.0671   -0.1761   -0.0815   -0.2524   -0.0046    0.0088    0.0455
           6    0.1057   -0.1715   -0.1052   -0.1362   -0.1913   -0.1767   -0.1765    0.2391
           7    0.0623   -0.1504   -0.1265    0.2871    0.1216    0.0689    0.0076    0.2143
           8   -0.1337   -0.0159   -0.2088    0.1344   -0.0976   -0.0507    0.1104    0.1411
           9   -0.1858   -0.0566   -0.2225   -0.0885    0.4624    0.2012    0.0049    0.0275
          10   -0.0370    0.0228    0.1014   -0.1066    0.0524   -0.1191   -0.1661    0.1802
          11    0.0631    0.2580   -0.1854   -0.2454    0.1089    0.1705   -0.0420    0.0185
          12    0.0170    0.2571    0.0891   -0.1674    0.1118   -0.2968    0.0558    0.0360
          13   -0.0383    0.0365    0.1143   -0.1148    0.0943   -0.1084   -0.1449    0.1546
          14    0.1528   -0.1444    0.3098    0.1025    0.2320    0.1185    0.0432   -0.0240
          15    0.2242   -0.2236    0.1105   -0.0480    0.0039   -0.0964   -0.1051    0.0948
          16    0.1685    0.0764   -0.1994    0.0301    0.0414   -0.2428    0.4563   -0.2466
          17   -0.3021   -0.2430    0.1766   -0.0717    0.0526   -0.2630   -0.2141   -0.3543
          18   -0.0936   -0.0112    0.0084    0.1698   -0.2128    0.1956    0.0391   -0.1790
          19   -0.3198    0.3456    0.2543    0.0975   -0.1041    0.0959    0.0115   -0.0921
          20    0.4251    0.1825    0.2374   -0.0479   -0.0723    0.0221    0.0306   -0.0286
          21   -0.0013    0.0937    0.0603    0.1927   -0.2677    0.3153    0.0583   -0.1323
          22    0.0643   -0.1276   -0.0525   -0.1240   -0.1056    0.1091   -0.1178   -0.0678
          23   -0.0599   -0.0341   -0.1034   -0.1373   -0.0989    0.0722   -0.0658   -0.0261
          24    0.0726   -0.1046   -0.0323   -0.0735   -0.1011   -0.0166   -0.1034    0.0570
          25   -0.0519    0.1343   -0.0365   -0.1216    0.0200   -0.0709   -0.0657    0.0696
          26    0.0457    0.1676   -0.1018   -0.2661    0.0553    0.1250   -0.0380   -0.0840
          27   -0.0417    0.0787    0.0234    0.0464    0.0172   -0.1649    0.0253    0.0869
          28    0.0060   -0.0745    0.1318    0.0621    0.0490   -0.0591   -0.0479    0.1001
          29    0.0115    0.1180   -0.1010   -0.1273    0.0208    0.0636   -0.0151   -0.0203
          30    0.0340    0.1845    0.0210   -0.2572    0.0918   -0.0278   -0.0153   -0.0669
          31   -0.0520    0.1359   -0.0372   -0.1158    0.0171   -0.0693   -0.0475    0.0879
          32    0.0961   -0.1050    0.2370    0.1276    0.2197    0.0754    0.0437   -0.0596
          33    0.0494   -0.0932   -0.0386   -0.0378   -0.1073   -0.0359   -0.0532    0.0435
          34    0.0057   -0.0717    0.1395    0.0543    0.0747   -0.0481   -0.0327    0.0516
          35    0.0545   -0.0823    0.1437    0.0744    0.0978    0.0319    0.0195   -0.0098
          36    0.1385   -0.1377    0.1593    0.0719    0.1596    0.0489   -0.0204   -0.0360
          37   -0.0199    0.0130   -0.0001    0.2140    0.1263   -0.0257    0.1099    0.0054
          38   -0.0010   -0.0014   -0.0166    0.0546   -0.1905   -0.1540    0.0068    0.0600
          39   -0.0818   -0.0182   -0.0973   -0.0369    0.2615    0.1676    0.0206   -0.0063
          40    0.0451   -0.0808   -0.0913    0.0842    0.0210    0.0435   -0.1134    0.3272
          41   -0.0743   -0.0044   -0.1036    0.0230    0.1413    0.1371    0.0464    0.0289
          42   -0.0774   -0.0163   -0.0937   -0.0368    0.2526    0.1640    0.0124    0.0003
          43    0.1682    0.0812   -0.1631    0.1113    0.0364   -0.0800    0.0578   -0.0993
          44   -0.2977   -0.2297    0.1937   -0.2048   -0.0384   -0.0311    0.0844   -0.0734
          45   -0.0495   -0.0987   -0.0435    0.0237   -0.0779    0.0903    0.0514   -0.0772
          46   -0.2195    0.0639    0.2006   -0.0665   -0.0929    0.1418    0.1208    0.1621
          47    0.3307    0.2083   -0.0720    0.1794    0.0358   -0.0289   -0.3192   -0.1724
          48    0.0045    0.1486    0.0958    0.1071   -0.1308    0.2743   -0.1547    0.1312
          49   -0.0985    0.2144    0.0765    0.1508   -0.0294    0.0903   -0.3568   -0.0620
          50    0.1008    0.0099    0.2263   -0.2011   -0.1205    0.1732    0.4444    0.3823
          51    0.0143   -0.0684   -0.0494    0.0118   -0.0401   -0.0335    0.1955   -0.1623


   Root No.       9        10        11        12        13        14        15        16

                 9 A      10 A      11 A      12 A      13 A      14 A      15 A      16 A   

                 810.1     841.1     873.7     895.9     930.2     941.2     969.0     984.9
  
           1   -0.0644   -0.0208   -0.0243    0.2001    0.1298   -0.1771    0.1995   -0.0392
           2   -0.1986    0.0071   -0.0730   -0.1932    0.0834    0.0142   -0.0937   -0.0376
           3    0.1261    0.0286   -0.0284   -0.1425   -0.0286    0.1243    0.0068   -0.1545
           4    0.1565    0.0842   -0.0572   -0.2450    0.0736    0.0015   -0.1374   -0.2960
           5    0.2653   -0.0684   -0.0392    0.0687   -0.0497    0.0121   -0.0642   -0.0719
           6   -0.0732   -0.0069    0.0130   -0.0195   -0.1383    0.1503    0.0080   -0.0783
           7    0.3213   -0.0817    0.0713    0.0864   -0.0647    0.0193    0.0100    0.0079
           8   -0.0582   -0.1523   -0.0952    0.2629    0.1018   -0.1346    0.1730    0.1966
           9    0.0177   -0.0031    0.0171   -0.1270   -0.0991    0.1943    0.2260   -0.0458
          10   -0.1511   -0.0111   -0.1435    0.0283    0.0842   -0.1218   -0.1376    0.2410
          11   -0.1750    0.2803   -0.0222   -0.1634    0.0582    0.1031   -0.0382   -0.0432
          12    0.2682   -0.0107    0.1865    0.0618    0.2712   -0.2503    0.0091   -0.0511
          13   -0.1973    0.0699   -0.0712   -0.0240   -0.1805    0.2196    0.1090   -0.0974
          14    0.2212    0.1978    0.1448    0.0699   -0.1606    0.0367   -0.0703   -0.1183
          15   -0.1611    0.0984   -0.2787    0.1572    0.0062   -0.0810   -0.0254    0.1610
          16   -0.1302    0.0029    0.0958    0.0795    0.0862    0.0756    0.0648   -0.1113
          17   -0.0477    0.0047    0.0304   -0.0847   -0.1626   -0.2527    0.0715   -0.0629
          18   -0.0764   -0.0017    0.0524   -0.0030   -0.0632   -0.0266   -0.0146    0.0203
          19   -0.0582    0.0082    0.0796   -0.0113   -0.0860    0.1142   -0.1885    0.2109
          20   -0.0172    0.0048    0.0311   -0.0148   -0.0909   -0.0511   -0.0281    0.0759
          21   -0.0948   -0.0033    0.0740    0.0112   -0.0920    0.0237   -0.0699    0.1030
          22    0.2128   -0.0133    0.0994   -0.2975    0.1788   -0.0306   -0.0780    0.2211
          23    0.1870   -0.1121    0.1763   -0.2890    0.1485    0.0650    0.1263    0.2980
          24    0.0885   -0.0005    0.0343   -0.1004    0.0463   -0.0090   -0.0896    0.1443
          25   -0.0537   -0.3530   -0.0940   -0.0817    0.0830   -0.0289   -0.2735   -0.0562
          26   -0.0181   -0.2471   -0.1084    0.0977   -0.2253    0.0814    0.0700    0.0695
          27    0.0501    0.0271    0.0971   -0.1494    0.2997   -0.1094   -0.2083   -0.1587
          28    0.0378    0.3241    0.0836    0.0651    0.0120   -0.0946    0.0891    0.2237
          29   -0.0823   -0.0961   -0.0685   -0.0626    0.0044    0.0599   -0.0675   -0.0775
          30    0.2447   -0.3061    0.0265    0.2132   -0.1746   -0.1045    0.0999    0.1377
          31   -0.0205    0.3533    0.1128    0.0299   -0.0195    0.0426    0.2505    0.1174
          32   -0.0828   -0.2607    0.0887   -0.1681    0.1275    0.0300    0.1140    0.0096
          33    0.0401    0.0542   -0.2013    0.1600   -0.1471   -0.0251   -0.2512   -0.0770
          34   -0.0642   -0.3452   -0.0469   -0.0144   -0.1175    0.1145   -0.1056   -0.1832
          35    0.0497   -0.1303    0.0293    0.0023   -0.0635    0.0357   -0.0755   -0.1030
          36   -0.2814   -0.2028   -0.1069   -0.2071    0.2785   -0.0455    0.1596    0.2141
          37    0.4066    0.0303   -0.4643   -0.0614   -0.0103    0.1699    0.0394    0.2472
          38    0.0138   -0.1135   -0.0120   -0.0600   -0.0450    0.1506    0.3306    0.0475
          39   -0.0158    0.0547   -0.0125    0.0676    0.0301   -0.0911   -0.1597   -0.0066
          40   -0.0854   -0.1537    0.6022    0.1241   -0.1131   -0.0251   -0.0292    0.0247
          41   -0.0426    0.0219   -0.0568    0.2218    0.1298   -0.2502   -0.2471    0.0758
          42   -0.0138    0.0466   -0.0132    0.0664    0.0392   -0.0906   -0.1442   -0.0015
          43   -0.0628   -0.0040   -0.0123   -0.1363   -0.1639   -0.2979    0.1166   -0.0778
          44   -0.0111   -0.0012    0.0732    0.3223    0.3580    0.4252   -0.0367   -0.0328
          45   -0.0747   -0.0149    0.0151    0.1211    0.1174   -0.0301    0.1333   -0.1158
          46    0.0025   -0.0049   -0.0562   -0.0999   -0.0841   -0.2149    0.1078   -0.0802
          47    0.0202   -0.0044    0.0380    0.2149    0.2452    0.3199   -0.0682    0.0119
          48    0.0409   -0.0221   -0.0964    0.0824    0.1866   -0.0687    0.2204   -0.2561
          49    0.0529   -0.0120   -0.0537    0.0787    0.0872   -0.0884    0.1596   -0.1456
          50    0.0015   -0.0030   -0.0790   -0.0905    0.0810    0.0224    0.0262   -0.0871
          51   -0.1010    0.0145    0.1334   -0.0406   -0.1800    0.1093   -0.2429    0.2758


   Root No.      17        18        19        20        21        22        23        24

                17 A      18 A      19 A      20 A      21 A      22 A      23 A      24 A   

                1023.4    1032.9    1054.4    1069.0    1082.6    1099.3    1143.9    1174.6
  
           1   -0.0451    0.0583   -0.1160    0.0421    0.2649    0.1515    0.0712   -0.0766
           2    0.0955    0.0125    0.2341   -0.0929   -0.2377   -0.0149   -0.1807    0.0471
           3    0.0152   -0.0579   -0.0623    0.0393   -0.2006   -0.1371   -0.1214   -0.2290
           4    0.1118   -0.2608   -0.1547   -0.1619   -0.2232   -0.0023    0.0678   -0.0224
           5   -0.0024   -0.1822   -0.2444   -0.0738   -0.0993   -0.0906    0.2085    0.0354
           6   -0.0548    0.1219    0.0318   -0.2476   -0.0659    0.0668    0.2226    0.1844
           7   -0.0227   -0.0729   -0.1491   -0.0371    0.0309    0.0825   -0.3734    0.2263
           8   -0.0610    0.0417   -0.1319   -0.0852    0.1279    0.1581   -0.0643   -0.1091
           9    0.0681   -0.2099    0.1080    0.0175    0.2573    0.1067   -0.0180   -0.0312
          10    0.1381   -0.2550    0.2481    0.0559    0.1004   -0.0289    0.0192   -0.1363
          11   -0.0542   -0.0489    0.0014    0.2029    0.0004    0.2582    0.1432    0.0077
          12   -0.0329    0.0374   -0.1479    0.0709    0.0085    0.2150    0.0245   -0.0079
          13   -0.1507    0.2751   -0.2133    0.0455   -0.1360   -0.0428   -0.0772    0.0247
          14    0.0287    0.0104    0.1415   -0.0778    0.2217   -0.2408   -0.1076   -0.0059
          15   -0.0288    0.0317   -0.0973    0.1811    0.0659   -0.1918   -0.1606    0.0365
          16   -0.0689    0.0411    0.2629    0.0626   -0.1273   -0.1542   -0.0277   -0.1605
          17    0.2394    0.1680   -0.0426    0.0696    0.0540   -0.0579    0.0717   -0.0796
          18    0.0332    0.0313    0.0016    0.0090    0.0065   -0.0152   -0.0053   -0.0768
          19    0.1737    0.0350   -0.1239   -0.0329    0.0903    0.0764    0.0493    0.1683
          20   -0.3993   -0.1703    0.0856   -0.0435   -0.0354    0.0260   -0.0020    0.1000
          21   -0.0692   -0.0160    0.0143   -0.0239    0.0158    0.0094   -0.0057   -0.0565
          22   -0.0275    0.2607    0.2474   -0.0625    0.0044    0.0693   -0.1715   -0.1904
          23   -0.0886    0.1306   -0.0666    0.5020   -0.1023   -0.2235   -0.1857    0.2254
          24   -0.0370    0.2762    0.2815   -0.2862    0.0712    0.1561   -0.0155   -0.1994
          25   -0.0044   -0.0834    0.1387   -0.1452    0.3248   -0.2907    0.0066    0.1204
          26    0.0623    0.0265    0.0766   -0.0448   -0.1201   -0.0798   -0.0728   -0.0875
          27   -0.0937   -0.0318   -0.0611    0.0035    0.2717    0.0073    0.0930    0.1639
          28    0.1705   -0.1995    0.2113    0.0677   -0.2483    0.2940    0.1218    0.0907
          29   -0.0667    0.0432   -0.0509    0.0251    0.1149   -0.0690   -0.0166   -0.0528
          30    0.1974   -0.0882    0.1434   -0.1557   -0.2867   -0.0033   -0.0525    0.1277
          31   -0.0764    0.2106   -0.1238   -0.3285    0.0782   -0.2617   -0.0684    0.0697
          32   -0.0299    0.0243   -0.0690   -0.1652   -0.0542    0.0754    0.1069    0.0133
          33    0.0411   -0.0904    0.0947    0.3732    0.0341   -0.0129   -0.1218   -0.0356
          34   -0.1239    0.2738    0.0088    0.1835   -0.0890    0.4016    0.0288    0.0316
          35   -0.0289    0.0830    0.0611    0.0514    0.0334    0.1167   -0.0008    0.0094
          36    0.0344   -0.2090   -0.2213   -0.0895   -0.1976   -0.1449    0.0688    0.0134
          37   -0.1247    0.1587    0.0536    0.0836    0.0278   -0.1233    0.5471   -0.0803
          38    0.0509   -0.1744    0.0256    0.0121    0.2498    0.1351   -0.0503   -0.0645
          39   -0.0343    0.0863   -0.0182   -0.0289   -0.0974   -0.0398    0.0247    0.0127
          40   -0.0013   -0.0328    0.0029    0.2094   -0.0393   -0.2428    0.3852   -0.2752
          41   -0.0832    0.2060   -0.1322   -0.0808   -0.2040   -0.0335   -0.0062   -0.0332
          42   -0.0273    0.0758   -0.0321   -0.0344   -0.0924   -0.0252    0.0069   -0.0109
          43    0.1298    0.1356    0.1012    0.0596    0.0295   -0.0645    0.1053    0.1982
          44   -0.1469   -0.0776    0.1696   -0.0120   -0.1034   -0.0435   -0.0293    0.0181
          45    0.0439    0.1110    0.3079    0.0493   -0.0123   -0.0858    0.1877    0.6057
          46   -0.1973   -0.0456    0.1010    0.0055   -0.0433   -0.0322   -0.0029   -0.0070
          47    0.3881    0.1340   -0.0961    0.0202    0.0549    0.0102    0.0244    0.0168
          48    0.1096    0.1111    0.1235    0.0611   -0.0530   -0.1020   -0.0050   -0.1503
          49   -0.2150   -0.0594    0.1084    0.0160   -0.0445   -0.0329   -0.0173   -0.0384
          50    0.4724    0.1874   -0.0693    0.0396    0.0221   -0.0195   -0.0070   -0.0296
          51    0.0042   -0.0288   -0.0943   -0.0523    0.0606    0.0651    0.0348    0.0959


   Root No.      25        26        27        28        29        30        31        32

                25 A      26 A      27 A      28 A      29 A      30 A      31 A      32 A   

                1206.9    1218.0    1234.7    1289.7    1311.5    1360.7    1400.4    1415.4
  
           1    0.0933   -0.0600   -0.1583    0.1038   -0.1054   -0.0507    0.0027   -0.1221
           2    0.3246    0.1296   -0.2708    0.1081    0.0306   -0.1784    0.0026   -0.0473
           3   -0.1171    0.0159    0.2242   -0.1605   -0.1747    0.3339   -0.0455   -0.1780
           4    0.2851    0.1055   -0.1778   -0.0393   -0.0097    0.2026    0.0291   -0.0487
           5   -0.2081    0.1202    0.2102   -0.2379    0.1329   -0.2694   -0.0066    0.0405
           6   -0.2594   -0.1115   -0.1531    0.4120   -0.0971    0.0734    0.0237    0.0648
           7   -0.3159   -0.0162    0.1520   -0.0033    0.0426   -0.0466    0.0036    0.0418
           8    0.1141   -0.1245    0.0619    0.0061   -0.0755    0.1008   -0.0322   -0.2310
           9    0.1029    0.0276    0.0125   -0.0592    0.0501   -0.0405    0.0040    0.0245
          10   -0.2269    0.3521    0.0514    0.1875    0.0079    0.0055   -0.1603    0.1860
          11   -0.1831   -0.1286    0.0593   -0.1394   -0.0224    0.0358   -0.0970    0.0565
          12    0.1837    0.2533    0.0142    0.2465    0.1102   -0.1099    0.2059   -0.0710
          13    0.2399   -0.2752    0.2470    0.1101    0.0482   -0.0597   -0.1518   -0.1167
          14    0.0946   -0.0686   -0.0108    0.2052   -0.0317    0.0192    0.0956    0.0499
          15    0.0510    0.1781   -0.1830   -0.3954    0.0330    0.0219   -0.1906   -0.1219
          16   -0.1904   -0.1017   -0.0601   -0.0136    0.0625   -0.1127    0.0097    0.1283
          17   -0.1505   -0.0787   -0.0091    0.0005    0.0544   -0.0369    0.0058    0.0614
          18   -0.0523   -0.0326   -0.0307   -0.0039   -0.2010   -0.0936    0.0099    0.0648
          19    0.0955    0.0619    0.0530    0.0008   -0.0001    0.0345   -0.0018   -0.0304
          20    0.0782    0.0520    0.0348   -0.0043    0.0091    0.0370   -0.0035   -0.0315
          21   -0.0353   -0.0578   -0.0913    0.0230   -0.0629   -0.1438    0.0176    0.1113
[...]
 EFF. MASS   4.3584

 VIBRATION   24   24A         ATOM PAIR      ENERGY CONTRIBUTION    RADIAL
 FREQ.      1174.63         C  6 -- H 15         +26.7% ( 66.3%)      1.5%
 T-DIPOLE    0.0639         C  2 -- H  8          +8.9% ( 38.4%)      6.1%
 TRAVEL      0.1265         C  3 -- H 14          +7.0% ( 33.9%)      0.2%
 RED. MASS   0.3437         C  1 -- C  3          +6.4% ( 32.6%)      0.3%
 EFF. MASS   3.5881

 VIBRATION   25   25A         ATOM PAIR      ENERGY CONTRIBUTION    RADIAL
 FREQ.      1206.95         C  2 -- C  3         +11.6% ( 61.2%)     56.7%
 T-DIPOLE    0.2520         C  2 -- C  4         +11.6% ( 61.2%)     89.7%
 TRAVEL      0.0761         C  1 -- C  2          +9.2% ( 54.4%)     10.8%
 RED. MASS   1.1096         C  2 -- C  5          +8.5% ( 52.4%)     13.5%
 EFF. MASS   9.6503

 VIBRATION   26   26A         ATOM PAIR      ENERGY CONTRIBUTION    RADIAL
 FREQ.      1217.97         C  4 -- H  9         +17.5% ( 58.5%)      0.1%
 T-DIPOLE    0.0507         C  4 -- H 10         +16.3% ( 56.5%)      0.0%
 TRAVEL      0.1033         C  4 -- C  5         +11.2% ( 46.7%)     97.6%
 RED. MASS   0.7673         C  5 -- H 11          +7.8% ( 39.1%)      0.1%
 EFF. MASS   5.1874

 VIBRATION   27   27A         ATOM PAIR      ENERGY CONTRIBUTION    RADIAL
 FREQ.      1234.65         C  2 -- H  8         +12.9% ( 50.1%)      0.3%
 T-DIPOLE    0.1131         C  5 -- H 12          +9.1% ( 42.0%)      1.4%
 TRAVEL      0.1089         C  1 -- C  2          +8.8% ( 41.5%)      0.1%
 RED. MASS   0.5754         C  1 -- C  5          +8.5% ( 40.6%)      0.6%
 EFF. MASS   4.6065

 VIBRATION   28   28A         ATOM PAIR      ENERGY CONTRIBUTION    RADIAL
 FREQ.      1289.74         C  2 -- C  5         +16.9% ( 64.6%)     96.4%
 T-DIPOLE    0.1407         C  5 -- H 12          +8.9% ( 46.8%)      2.5%
 TRAVEL      0.0845         C  2 -- C  4          +8.8% ( 46.7%)     98.7%
 RED. MASS   1.3732         C  5 -- H 11          +8.8% ( 46.5%)      1.5%
 EFF. MASS   7.3273

 VIBRATION   29   29A         ATOM PAIR      ENERGY CONTRIBUTION    RADIAL
 FREQ.      1311.50         C  7 -- H 16         +26.5% ( 55.3%)      0.3%
 T-DIPOLE    0.0859         C  7 -- H 17         +24.1% ( 52.8%)      0.6%
 TRAVEL      0.1430         C  1 -- C  6          +7.3% ( 29.1%)     33.9%
 RED. MASS   0.3895         C  1 -- C  4          +5.1% ( 24.4%)     81.9%
 EFF. MASS   2.5139

 VIBRATION   30   30A         ATOM PAIR      ENERGY CONTRIBUTION    RADIAL
 FREQ.      1360.66         C  1 -- C  2         +11.5% ( 43.4%)     45.7%
 T-DIPOLE    0.0608         C  3 -- H 14         +11.4% ( 43.2%)      1.3%
 TRAVEL      0.1030         C  3 -- H 13          +8.5% ( 37.3%)      0.0%
 RED. MASS   0.5612         C  1 -- C  6          +8.1% ( 36.5%)     43.6%
 EFF. MASS   4.6691

 VIBRATION   31   31A         ATOM PAIR      ENERGY CONTRIBUTION    RADIAL
 FREQ.      1400.41         C  4 -- H  9         +18.6% ( 46.4%)      3.8%
 T-DIPOLE    0.0084         C  4 -- H 10         +18.3% ( 46.0%)      4.0%
 TRAVEL      0.1412         C  5 -- H 11         +17.2% ( 44.6%)      3.6%
 RED. MASS   0.3059         C  5 -- H 12         +16.6% ( 43.7%)      4.1%
 EFF. MASS   2.4140

 VIBRATION   32   32A         ATOM PAIR      ENERGY CONTRIBUTION    RADIAL
 FREQ.      1415.42         C  3 -- H 13         +12.0% ( 40.1%)      2.4%
 T-DIPOLE    0.0902         C  3 -- H 14         +10.3% ( 37.2%)      4.5%
 TRAVEL      0.1197         C  4 -- H  9         +10.1% ( 36.8%)      2.4%
 RED. MASS   0.2075         C  4 -- H 10          +8.8% ( 34.4%)      4.6%
 EFF. MASS   3.3275

 VIBRATION   33   33A         ATOM PAIR      ENERGY CONTRIBUTION    RADIAL
 FREQ.      1439.89         C  2 -- C  3          +9.5% ( 46.3%)     85.7%
 T-DIPOLE    0.0998         C  1 -- C  3          +9.2% ( 45.5%)     31.7%
 TRAVEL      0.0809         C  3 -- H 13          +8.1% ( 42.7%)      3.9%
 RED. MASS   0.7143         C  1 -- C  5          +7.7% ( 41.8%)     91.3%
 EFF. MASS   7.1602

 VIBRATION   34   34A         ATOM PAIR      ENERGY CONTRIBUTION    RADIAL
 FREQ.      1607.74         C  1 -- C  3         +17.5% ( 75.2%)     84.8%
 T-DIPOLE    0.4253         C  1 -- C  2         +16.3% ( 72.5%)     88.6%
 TRAVEL      0.0599         C  1 -- C  6         +14.6% ( 68.7%)     79.3%
 RED. MASS   3.7822         C  1 -- C  4         +11.7% ( 61.5%)     11.2%
 EFF. MASS  11.6705         C  1 -- C  5         +11.7% ( 61.4%)     61.7%

 VIBRATION   35   35A         ATOM PAIR      ENERGY CONTRIBUTION    RADIAL
 FREQ.      1868.09         C  6 -- C  7         +41.7% ( 96.6%)     98.0%
 T-DIPOLE    0.4644         C  1 -- C  6         +18.9% ( 64.9%)     68.9%
 TRAVEL      0.0552         C  6 -- H 15         +15.4% ( 58.6%)      2.7%
 RED. MASS   5.0923         C  7 -- H 16          +9.5% ( 46.1%)     10.5%
 EFF. MASS  11.8366

 VIBRATION   36   36A         ATOM PAIR      ENERGY CONTRIBUTION    RADIAL
 FREQ.      3036.23         C  6 -- H 15         +93.8% ( 98.4%)    100.0%
 T-DIPOLE    0.2559         C  6 -- C  7          +1.4% ( 12.1%)     30.9%
 TRAVEL      0.1211         C  1 -- C  6          +1.4% ( 11.8%)     14.1%
 RED. MASS   0.8709         C  4 -- H 10          +0.9% (  9.6%)     97.4%
 EFF. MASS   1.5136

 VIBRATION   37   37A         ATOM PAIR      ENERGY CONTRIBUTION    RADIAL
 FREQ.      3037.72         C  4 -- H  9         +25.4% ( 52.6%)     96.8%
 T-DIPOLE    0.0278         C  4 -- H 10         +25.2% ( 52.4%)     96.7%
 TRAVEL      0.1194         C  5 -- H 11         +23.3% ( 50.4%)     97.1%
 RED. MASS   0.2497         C  5 -- H 12         +20.3% ( 47.1%)     96.3%
 EFF. MASS   1.5582

 VIBRATION   38   38A         ATOM PAIR      ENERGY CONTRIBUTION    RADIAL
 FREQ.      3051.43         C  5 -- H 11         +28.5% ( 55.4%)     97.5%
 T-DIPOLE    0.0962         C  5 -- H 12         +23.6% ( 50.5%)     96.5%
 TRAVEL      0.1200         C  4 -- H  9         +22.3% ( 49.0%)     97.0%
 RED. MASS   0.2618         C  4 -- H 10         +22.2% ( 48.9%)     97.0%
 EFF. MASS   1.5358

 VIBRATION   39   39A         ATOM PAIR      ENERGY CONTRIBUTION    RADIAL
 FREQ.      3081.79         C  3 -- H 14         +53.6% ( 75.7%)     97.7%
 T-DIPOLE    0.1715         C  3 -- H 13         +43.3% ( 68.1%)     96.6%
 TRAVEL      0.1185         C  2 -- C  3          +1.2% ( 11.3%)      0.1%
 RED. MASS   0.5197         C  1 -- C  3          +1.2% ( 11.2%)      0.0%
 EFF. MASS   1.5577

 VIBRATION   40   40A         ATOM PAIR      ENERGY CONTRIBUTION    RADIAL
 FREQ.      3102.40         C  4 -- H 10         +48.5% ( 69.2%)     97.1%
 T-DIPOLE    0.0840         C  4 -- H  9         +48.5% ( 69.1%)     97.0%
 TRAVEL      0.1303         C  2 -- C  4          +0.7% (  8.2%)     99.8%
 RED. MASS   0.4750         C  1 -- C  4          +0.7% (  8.2%)     48.5%
 EFF. MASS   1.2807

 VIBRATION   41   41A         ATOM PAIR      ENERGY CONTRIBUTION    RADIAL
 FREQ.      3105.18         C  5 -- H 12         +52.8% ( 72.1%)     97.6%
 T-DIPOLE    0.0768         C  5 -- H 11         +44.2% ( 66.1%)     96.4%
 TRAVEL      0.1300         C  4 -- C  5          +0.7% (  8.4%)     57.5%
 RED. MASS   0.4791         C  1 -- C  5          +0.7% (  8.4%)     99.4%
 EFF. MASS   1.2851

 VIBRATION   42   42A         ATOM PAIR      ENERGY CONTRIBUTION    RADIAL
 FREQ.      3117.79         C  3 -- H 13         +54.8% ( 73.6%)     97.0%
 T-DIPOLE    0.1843         C  3 -- H 14         +43.0% ( 65.2%)     95.3%
 TRAVEL      0.1291         C  1 -- C  3          +0.8% (  9.0%)     74.6%
 RED. MASS   0.4851         C  2 -- C  3          +0.8% (  9.0%)     76.1%
 EFF. MASS   1.2986

 VIBRATION   43   43A         ATOM PAIR      ENERGY CONTRIBUTION    RADIAL
 FREQ.      3134.41         C  7 -- H 16         +95.3% ( 99.1%)    100.0%
 T-DIPOLE    0.1930         C  7 -- H 17          +2.9% ( 17.1%)     49.2%
 TRAVEL      0.1192         C  6 -- C  7          +1.3% ( 11.7%)     31.3%
 RED. MASS   0.9002         C  3 -- H 14          +0.3% (  5.6%)     98.9%
 EFF. MASS   1.5148

 VIBRATION   44   44A         ATOM PAIR      ENERGY CONTRIBUTION    RADIAL
 FREQ.      3142.50         C  2 -- H  8         +93.9% ( 99.5%)    100.0%
 T-DIPOLE    0.3288         C  2 -- C  4          +1.3% ( 11.8%)     74.2%
 TRAVEL      0.1201         C  1 -- C  2          +1.3% ( 11.7%)     46.5%
 RED. MASS   0.9136         C  2 -- C  3          +1.3% ( 11.7%)     38.5%
 EFF. MASS   1.4883

 VIBRATION   45   45A         ATOM PAIR      ENERGY CONTRIBUTION    RADIAL
 FREQ.      3148.94         C  7 -- H 17         +95.5% ( 98.6%)     99.9%
 T-DIPOLE    0.2768         C  7 -- H 16          +2.3% ( 15.3%)      6.1%
 TRAVEL      0.1201         C  6 -- C  7          +1.5% ( 12.5%)     61.5%
 RED. MASS   0.8854         C  6 -- H 15          +0.7% (  8.3%)     94.8%
 EFF. MASS   1.4841

      SYMMETRY NUMBER FOR POINT-GROUP C1  =  1


          SYSTEM IS A GROUND STATE



 InChI=1S/C7H10/c1-2-7-4-3-6(7)5-7/h2,6H,1,3-5H2


          MOLECULE IS NOT LINEAR

          THERE ARE 45 GENUINE VIBRATIONS IN THIS SYSTEM
          THIS THERMODYNAMICS CALCULATION IS LIMITED TO
          MOLECULES WHICH HAVE NO INTERNAL ROTATIONS




                    CALCULATED THERMODYNAMIC PROPERTIES
                                          *
   TEMP. (K)   PARTITION FUNCTION   H.O.F.    ENTHALPY  HEAT CAPACITY ENTROPY
                                   KCAL/MOL   CAL/MOLE    CAL/K/MOL  CAL/K/MOL


 298.00  VIB.     0.1070D+02                  2251.6579    19.1835    12.2661
         ROT.     0.1849D+06                   888.2813     2.9808    27.0811
         INT.     0.1979D+07                  3139.9392    22.1643    39.3472
         TRA.     0.8833D+27                  1480.4688     4.9680    39.5363
         TOT.                       54.745    4620.4081    27.1323    78.8834

 200.00  VIB.     0.3434D+01                   828.2603    10.2255     6.5927
         ROT.     0.1017D+06                   596.1620     2.9808    25.8924
         INT.     0.3491D+06                  1424.4222    13.2063    32.4852
         TRA.     0.4856D+27                   993.6033     4.9680    37.5551
         TOT.                       52.543    2418.0255    18.1743    70.0403

 210.00  VIB.     0.3815D+01                   934.4731    11.0228     7.1108
         ROT.     0.1094D+06                   625.9700     2.9808    26.0379
         INT.     0.4174D+06                  1560.4431    14.0036    33.1487
         TRA.     0.5225D+27                  1043.2834     4.9680    37.7975
         TOT.                       52.728    2603.7265    18.9716    70.9462

 220.00  VIB.     0.4250D+01                  1048.8292    11.8539     7.6426
         ROT.     0.1173D+06                   655.7781     2.9808    26.1765
         INT.     0.4985D+06                  1704.6074    14.8347    33.8192
         TRA.     0.5603D+27                  1092.9636     4.9680    38.0286
         TOT.                       52.922    2797.5710    19.8027    71.8478

 230.00  VIB.     0.4745D+01                  1171.6566    12.7167     8.1885
         ROT.     0.1254D+06                   685.5862     2.9808    26.3090
         INT.     0.5950D+06                  1857.2429    15.6975    34.4975
         TRA.     0.5989D+27                  1142.6437     4.9680    38.2495
         TOT.                       53.125    2999.8866    20.6655    72.7470

 240.00  VIB.     0.5311D+01                  1303.2597    13.6085     8.7484
         ROT.     0.1337D+06                   715.3943     2.9808    26.4359
         INT.     0.7099D+06                  2018.6540    16.5893    35.1843
         TRA.     0.6384D+27                  1192.3239     4.9680    38.4609
         TOT.                       53.336    3210.9779    21.5574    73.6452

 250.00  VIB.     0.5959D+01                  1443.9140    14.5264     9.3225
         ROT.     0.1421D+06                   745.2024     2.9808    26.5576
         INT.     0.8467D+06                  2189.1164    17.5072    35.8801
         TRA.     0.6787D+27                  1242.0041     4.9680    38.6637
         TOT.                       53.556    3431.1205    22.4752    74.5438

 260.00  VIB.     0.6701D+01                  1593.8625    15.4668     9.9105
         ROT.     0.1507D+06                   775.0105     2.9808    26.6745
         INT.     0.1010D+07                  2368.8731    18.4476    36.5850
         TRA.     0.7198D+27                  1291.6842     4.9680    38.8586
         TOT.                       53.785    3660.5573    23.4156    75.4435

 270.00  VIB.     0.7554D+01                  1753.3135    16.4263    10.5121
         ROT.     0.1595D+06                   804.8186     2.9808    26.7870
         INT.     0.1205D+07                  2558.1321    19.4071    37.2991
         TRA.     0.7618D+27                  1341.3644     4.9680    39.0461
         TOT.                       54.024    3899.4965    24.3751    76.3452

 280.00  VIB.     0.8536D+01                  1922.4391    17.4011    11.1271
         ROT.     0.1684D+06                   834.6267     2.9808    26.8954
         INT.     0.1438D+07                  2757.0658    20.3819    38.0225
         TRA.     0.8045D+27                  1391.0445     4.9680    39.2267
         TOT.                       54.273    4148.1104    25.3500    77.2492

 290.00  VIB.     0.9669D+01                  2101.3756    18.3879    11.7549
         ROT.     0.1775D+06                   864.4348     2.9808    27.0000
         INT.     0.1717D+07                  2965.8104    21.3687    38.7549
         TRA.     0.8479D+27                  1440.7247     4.9680    39.4011
         TOT.                       54.531    4406.5352    26.3367    78.1560

 300.00  VIB.     0.1098D+02                  2290.2244    19.3830    12.3950
         ROT.     0.1868D+06                   894.2429     2.9808    27.1010
         INT.     0.2050D+07                  3184.4673    22.3638    39.4961
         TRA.     0.8922D+27                  1490.4049     4.9680    39.5695
         TOT.                       54.800    4674.8722    27.3318    79.0656

 310.00  VIB.     0.1249D+02                  2489.0531    20.3833    13.0469
         ROT.     0.1962D+06                   924.0510     2.9808    27.1988
         INT.     0.2451D+07                  3413.1042    23.3641    40.2457
         TRA.     0.9372D+27                  1540.0850     4.9680    39.7324
         TOT.                       55.078    4953.1892    28.3322    79.9781

 320.00  VIB.     0.1425D+02                  2697.8982    21.3858    13.7099
         ROT.     0.2058D+06                   953.8591     2.9808    27.2934
         INT.     0.2932D+07                  3651.7573    24.3666    41.0033
         TRA.     0.9829D+27                  1589.7652     4.9680    39.8901
         TOT.                       55.366    5241.5225    29.3346    80.8934

 330.00  VIB.     0.1628D+02                  2916.7664    22.3875    14.3833
         ROT.     0.2155D+06                   983.6672     2.9808    27.3851
         INT.     0.3509D+07                  3900.4337    25.3684    41.7684
         TRA.     0.1029D+28                  1639.4454     4.9680    40.0430
         TOT.                       55.665    5539.8790    30.3364    81.8114

 340.00  VIB.     0.1865D+02                  3145.6382    23.3861    15.0665
         ROT.     0.2254D+06                  1013.4753     2.9808    27.4741
         INT.     0.4204D+07                  4159.1135    26.3669    42.5406
         TRA.     0.1076D+28                  1689.1255     4.9680    40.1913
         TOT.                       55.973    5848.2390    31.3349    82.7319

 350.00  VIB.     0.2141D+02                  3384.4696    24.3791    15.7587
         ROT.     0.2354D+06                  1043.2834     2.9808    27.5605
         INT.     0.5040D+07                  4427.7530    27.3599    43.3192
         TRA.     0.1124D+28                  1738.8057     4.9680    40.3353
         TOT.                       56.291    6166.5587    32.3279    83.6546

 360.00  VIB.     0.2463D+02                  3633.1951    25.3646    16.4593
         ROT.     0.2455D+06                  1073.0915     2.9808    27.6445
         INT.     0.6048D+07                  4706.2867    28.3454    44.1038
         TRA.     0.1173D+28                  1788.4859     4.9680    40.4753
         TOT.                       56.619    6494.7725    33.3134    84.5791

 370.00  VIB.     0.2839D+02                  3891.7305    26.3408    17.1676
         ROT.     0.2558D+06                  1102.8996     2.9808    27.7262
         INT.     0.7264D+07                  4994.6301    29.3216    44.8938
         TRA.     0.1222D+28                  1838.1660     4.9680    40.6114
         TOT.                       56.958    6832.7961    34.2896    85.5052

 380.00  VIB.     0.3279D+02                  4159.9748    27.3061    17.8829
         ROT.     0.2663D+06                  1132.7077     2.9808    27.8057
         INT.     0.8732D+07                  5292.6825    30.2870    45.6886
         TRA.     0.1272D+28                  1887.8462     4.9680    40.7439
         TOT.                       57.305    7180.5286    35.2550    86.4325

 390.00  VIB.     0.3794D+02                  4437.8129    28.2594    18.6046
         ROT.     0.2769D+06                  1162.5158     2.9808    27.8831
         INT.     0.1050D+08                  5600.3287    31.2402    46.4877
         TRA.     0.1322D+28                  1937.5263     4.9680    40.8729
         TOT.                       57.663    7537.8550    36.2082    87.3606

 400.00  VIB.     0.4398D+02                  4725.1179    29.1994    19.3319
         ROT.     0.2876D+06                  1192.3239     2.9808    27.9586
         INT.     0.1265D+08                  5917.4418    32.1802    47.2905
         TRA.     0.1374D+28                  1987.2065     4.9680    40.9987
         TOT.                       58.029    7904.6483    37.1482    88.2892

   *: NOTE: HEATS OF FORMATION ARE RELATIVE TO THE
            ELEMENTS IN THEIR STANDARD STATE AT 298K
              (=  Standard Enthalpy of Formation).

            Hvib:  Zero-point energy is not included.
                   frequencies of less than zero cm-1 are not included.
            Hrot = (3/2)RT
            Htra = (3/2)RT + pV = (5/2)RT

            Heat capacity is Cp, not Cv

          For more information, see: HTTP://OpenMOPAC.net/Manual/thermochemistry.html


           FORCE CONSTANT IN CARTESIAN COORDINATES (Millidynes/A)

    ATOM   CHEMICAL       X               Y               Z
   NUMBER   SYMBOL  FORCE CONSTANT  FORCE CONSTANT  FORCE CONSTANT

      1       C        9.881678        6.583950        9.310023
      2       C        9.320370        6.657184        8.513969
      3       C        4.370171       11.539681        8.964637
      4       C        7.662442        8.574935        8.052529
      5       C        7.643512        8.633870        8.180795
      6       C        8.002192        4.393813       15.370199
      7       C        7.458234        3.924213       15.057457
      8       H        2.647150        0.941691        3.043221
      9       H        1.490009        2.178340        2.933880
     10       H        1.457914        4.464354        0.688100
     11       H        1.519881        2.146765        2.930517
     12       H        1.444366        4.493444        0.679668
     13       H        0.528121        2.411531        3.690690
     14       H        0.529539        2.151199        3.917367
     15       H        3.413024        1.496150        1.263440
     16       H        3.528700        1.556345        1.367980
     17       H        2.825504        0.804869        2.850178

 **********************
 *                    *
 * JOB ENDED NORMALLY *
 *                    *
 **********************



 TOTAL JOB TIME:             7.91 SECONDS

 == MOPAC DONE ==
