 *******************************************************************************
 ** Site#: 14399        For non-commercial use only    Version 18.184L 64BITS **
 *******************************************************************************
 ** Cite this program as: MOPAC2016, Version: 18.184L, James J. P. Stewart,   **
 ** Stewart Computational Chemistry, web: HTTP://OpenMOPAC.net. Days left:  20**
 *******************************************************************************
 **                                                                           **
 **                                MOPAC2016                                  **
 **                                                                           **
 *******************************************************************************

                              PM3 CALCULATION RESULTS

 *******************************************************************************
 *  CALCULATION DONE:                                Thu Jun 13 15:50:25 2019  *
 *  PM3        - The PM3 Hamiltonian to be used
 *  PRECISE    - CRITERIA TO BE INCREASED BY 100 TIMES
 *  NOSYM      - POINT-GROUP SYMMETRY SET TO C1
 *  THREADS=1  - MULTI-THREADING NOT USED
 *  T=         - A TIME OF 172800.0 SECONDS REQUESTED
 *  DUMP=N     - RESTART FILE WRITTEN EVERY  7200.000 SECONDS
 *******************************************************************************
pm3  precise nosym THREADS=1
 InChI=1S/C10H12/c1-2-6-10-8-4-3-7-9(10)5-1/h1-3,7-9H,4-6H2

   ATOM   CHEMICAL          X               Y               Z
  NUMBER   SYMBOL      (ANGSTROMS)     (ANGSTROMS)     (ANGSTROMS)
 
     1       C          0.03230000  *   0.85720000  *  -0.17880000  *
     2       C         -1.16090000  *   1.22850000  *   0.71080000  *
     3       C         -1.26960000  *  -1.31060000  *  -0.81370000  *
     4       C          2.46310000  *  -0.82130000  *   0.17050000  *
     5       C          0.02500000  *  -0.64410000  *  -0.39600000  *
     6       C          1.31250000  *   1.38140000  *   0.42610000  *
     7       C          1.13770000  *  -1.38890000  *  -0.26200000  *
     8       C         -2.44580000  *   0.69780000  *   0.13140000  *
     9       C         -2.49220000  *  -0.46190000  *  -0.54570000  *
    10       C          2.40750000  *   0.62620000  *   0.57480000  *
    11       H         -0.10010000  *   1.35110000  *  -1.16650000  *
    12       H         -1.23670000  *   2.33390000  *   0.80180000  *
    13       H         -1.02580000  *   0.80250000  *   1.72940000  *
    14       H         -1.21900000  *  -1.53830000  *  -1.89940000  *
    15       H         -1.39580000  *  -2.26680000  *  -0.26150000  *
    16       H          2.82360000  *  -1.40930000  *   1.04050000  *
    17       H          3.19480000  *  -0.93910000  *  -0.65580000  *
    18       H         -3.36160000  *   1.26140000  *   0.28200000  *
    19       H         -3.45030000  *  -0.81240000  *  -0.91740000  *
    20       H          1.36160000  *   2.42920000  *   0.70900000  *
    21       H          1.09460000  *  -2.45570000  *  -0.46470000  *
    22       H          3.30510000  *   1.07910000  *   0.98510000  *
 


          CARTESIAN COORDINATES 

    NO.       ATOM           X           Y           Z

     1         C          0.0323      0.8572     -0.1788
     2         C         -1.1609      1.2285      0.7108
     3         C         -1.2696     -1.3106     -0.8137
     4         C          2.4631     -0.8213      0.1705
     5         C          0.0250     -0.6441     -0.3960
     6         C          1.3125      1.3814      0.4261
     7         C          1.1377     -1.3889     -0.2620
     8         C         -2.4458      0.6978      0.1314
     9         C         -2.4922     -0.4619     -0.5457
    10         C          2.4075      0.6262      0.5748
    11         H         -0.1001      1.3511     -1.1665
    12         H         -1.2367      2.3339      0.8018
    13         H         -1.0258      0.8025      1.7294
    14         H         -1.2190     -1.5383     -1.8994
    15         H         -1.3958     -2.2668     -0.2615
    16         H          2.8236     -1.4093      1.0405
    17         H          3.1948     -0.9391     -0.6558
    18         H         -3.3616      1.2614      0.2820
    19         H         -3.4503     -0.8124     -0.9174
    20         H          1.3616      2.4292      0.7090
    21         H          1.0946     -2.4557     -0.4647
    22         H          3.3051      1.0791      0.9851

  H: (PM3): J. J. P. STEWART, J. COMP. CHEM. 10, 209 (1989).
  C: (PM3): J. J. P. STEWART, J. COMP. CHEM. 10, 209 (1989).

           Empirical Formula: C10 H12  =    22 atoms



      MOLECULAR POINT GROUP   :   C1  


      RHF CALCULATION, NO. OF DOUBLY OCCUPIED LEVELS = 26


          Geometry optimization using EF

          DIAGONAL MATRIX USED AS START HESSIAN

 CYCLE:     1 TIME:   0.031 TIME LEFT:  2.00D  GRAD.:    72.059 HEAT:  32.48843
 CYCLE:     2 TIME:   0.055 TIME LEFT:  2.00D  GRAD.:    41.175 HEAT:  31.13521
 CYCLE:     3 TIME:   0.031 TIME LEFT:  2.00D  GRAD.:    44.188 HEAT:  30.85513
 CYCLE:     4 TIME:   0.023 TIME LEFT:  2.00D  GRAD.:    28.593 HEAT:  30.43693
 CYCLE:     5 TIME:   0.031 TIME LEFT:  2.00D  GRAD.:    32.051 HEAT:  30.34124
 CYCLE:     6 TIME:   0.027 TIME LEFT:  2.00D  GRAD.:    15.052 HEAT:  30.10783
 CYCLE:     7 TIME:   0.035 TIME LEFT:  2.00D  GRAD.:    18.735 HEAT:  30.03957
 CYCLE:     8 TIME:   0.023 TIME LEFT:  2.00D  GRAD.:    14.982 HEAT:  29.91702
 CYCLE:     9 TIME:   0.031 TIME LEFT:  2.00D  GRAD.:    12.757 HEAT:  29.86401
 CYCLE:    10 TIME:   0.023 TIME LEFT:  2.00D  GRAD.:     9.864 HEAT:  29.81499
 CYCLE:    11 TIME:   0.031 TIME LEFT:  2.00D  GRAD.:     9.146 HEAT:  29.78970
 CYCLE:    12 TIME:   0.027 TIME LEFT:  2.00D  GRAD.:     7.614 HEAT:  29.76792
 CYCLE:    13 TIME:   0.023 TIME LEFT:  2.00D  GRAD.:     6.352 HEAT:  29.74569
 CYCLE:    14 TIME:   0.031 TIME LEFT:  2.00D  GRAD.:     6.950 HEAT:  29.73702
 CYCLE:    15 TIME:   0.023 TIME LEFT:  2.00D  GRAD.:     6.112 HEAT:  29.72495
 CYCLE:    16 TIME:   0.023 TIME LEFT:  2.00D  GRAD.:     6.686 HEAT:  29.71661
 CYCLE:    17 TIME:   0.023 TIME LEFT:  2.00D  GRAD.:     7.991 HEAT:  29.70873
 CYCLE:    18 TIME:   0.023 TIME LEFT:  2.00D  GRAD.:     9.106 HEAT:  29.70620
 CYCLE:    19 TIME:   0.035 TIME LEFT:  2.00D  GRAD.:     3.595 HEAT:  29.68092
 CYCLE:    20 TIME:   0.023 TIME LEFT:  2.00D  GRAD.:     6.055 HEAT:  29.67616
 CYCLE:    21 TIME:   0.031 TIME LEFT:  2.00D  GRAD.:     6.391 HEAT:  29.67018
 CYCLE:    22 TIME:   0.023 TIME LEFT:  2.00D  GRAD.:     5.593 HEAT:  29.65838
 CYCLE:    23 TIME:   0.023 TIME LEFT:  2.00D  GRAD.:     5.571 HEAT:  29.65054
 CYCLE:    24 TIME:   0.023 TIME LEFT:  2.00D  GRAD.:     4.392 HEAT:  29.63776
 CYCLE:    25 TIME:   0.023 TIME LEFT:  2.00D  GRAD.:     3.312 HEAT:  29.62607
 CYCLE:    26 TIME:   0.023 TIME LEFT:  2.00D  GRAD.:     5.261 HEAT:  29.61389
 CYCLE:    27 TIME:   0.023 TIME LEFT:  2.00D  GRAD.:     3.903 HEAT:  29.59440
 CYCLE:    28 TIME:   0.020 TIME LEFT:  2.00D  GRAD.:     3.343 HEAT:  29.57637
 CYCLE:    29 TIME:   0.023 TIME LEFT:  2.00D  GRAD.:     4.842 HEAT:  29.56667
 CYCLE:    30 TIME:   0.023 TIME LEFT:  2.00D  GRAD.:     3.527 HEAT:  29.55220
 CYCLE:    31 TIME:   0.023 TIME LEFT:  2.00D  GRAD.:     4.591 HEAT:  29.53669
 CYCLE:    32 TIME:   0.023 TIME LEFT:  2.00D  GRAD.:     5.079 HEAT:  29.52240
 CYCLE:    33 TIME:   0.023 TIME LEFT:  2.00D  GRAD.:     2.764 HEAT:  29.50964
 CYCLE:    34 TIME:   0.020 TIME LEFT:  2.00D  GRAD.:     2.541 HEAT:  29.49924
 CYCLE:    35 TIME:   0.023 TIME LEFT:  2.00D  GRAD.:     2.824 HEAT:  29.48907
 CYCLE:    36 TIME:   0.023 TIME LEFT:  2.00D  GRAD.:     2.349 HEAT:  29.47886
 CYCLE:    37 TIME:   0.023 TIME LEFT:  2.00D  GRAD.:     1.727 HEAT:  29.47022
 CYCLE:    38 TIME:   0.023 TIME LEFT:  2.00D  GRAD.:     2.019 HEAT:  29.46317
 CYCLE:    39 TIME:   0.023 TIME LEFT:  2.00D  GRAD.:     1.980 HEAT:  29.45719
 CYCLE:    40 TIME:   0.023 TIME LEFT:  2.00D  GRAD.:     1.520 HEAT:  29.45204
 CYCLE:    41 TIME:   0.023 TIME LEFT:  2.00D  GRAD.:     1.484 HEAT:  29.44781
 CYCLE:    42 TIME:   0.020 TIME LEFT:  2.00D  GRAD.:     1.697 HEAT:  29.44391
 CYCLE:    43 TIME:   0.023 TIME LEFT:  2.00D  GRAD.:     1.950 HEAT:  29.43784
 CYCLE:    44 TIME:   0.023 TIME LEFT:  2.00D  GRAD.:     2.108 HEAT:  29.42985
 CYCLE:    45 TIME:   0.023 TIME LEFT:  2.00D  GRAD.:     1.999 HEAT:  29.42066
 CYCLE:    46 TIME:   0.023 TIME LEFT:  2.00D  GRAD.:     1.499 HEAT:  29.41388
 CYCLE:    47 TIME:   0.023 TIME LEFT:  2.00D  GRAD.:     1.249 HEAT:  29.40903
 CYCLE:    48 TIME:   0.020 TIME LEFT:  2.00D  GRAD.:     1.176 HEAT:  29.40507
 CYCLE:    49 TIME:   0.023 TIME LEFT:  2.00D  GRAD.:     1.064 HEAT:  29.40172
 CYCLE:    50 TIME:   0.023 TIME LEFT:  2.00D  GRAD.:     1.072 HEAT:  29.39887
 CYCLE:    51 TIME:   0.023 TIME LEFT:  2.00D  GRAD.:     0.973 HEAT:  29.39644
 CYCLE:    52 TIME:   0.023 TIME LEFT:  2.00D  GRAD.:     0.982 HEAT:  29.39412
 CYCLE:    53 TIME:   0.023 TIME LEFT:  2.00D  GRAD.:     1.149 HEAT:  29.39125
 CYCLE:    54 TIME:   0.023 TIME LEFT:  2.00D  GRAD.:     1.219 HEAT:  29.38821
 CYCLE:    55 TIME:   0.020 TIME LEFT:  2.00D  GRAD.:     1.306 HEAT:  29.38410
 CYCLE:    56 TIME:   0.023 TIME LEFT:  2.00D  GRAD.:     1.475 HEAT:  29.37869
 CYCLE:    57 TIME:   0.023 TIME LEFT:  2.00D  GRAD.:     1.598 HEAT:  29.37220
 CYCLE:    58 TIME:   0.023 TIME LEFT:  2.00D  GRAD.:     1.571 HEAT:  29.36530
 CYCLE:    59 TIME:   0.023 TIME LEFT:  2.00D  GRAD.:     1.339 HEAT:  29.35900
 CYCLE:    60 TIME:   0.023 TIME LEFT:  2.00D  GRAD.:     1.190 HEAT:  29.35416
 CYCLE:    61 TIME:   0.023 TIME LEFT:  2.00D  GRAD.:     1.061 HEAT:  29.35055
 CYCLE:    62 TIME:   0.020 TIME LEFT:  2.00D  GRAD.:     1.015 HEAT:  29.34803
 CYCLE:    63 TIME:   0.023 TIME LEFT:  2.00D  GRAD.:     0.958 HEAT:  29.34641
 CYCLE:    64 TIME:   0.023 TIME LEFT:  2.00D  GRAD.:     0.634 HEAT:  29.34510
 CYCLE:    65 TIME:   0.023 TIME LEFT:  2.00D  GRAD.:     0.555 HEAT:  29.34408
 CYCLE:    66 TIME:   0.023 TIME LEFT:  2.00D  GRAD.:     0.552 HEAT:  29.34338
 CYCLE:    67 TIME:   0.023 TIME LEFT:  2.00D  GRAD.:     0.349 HEAT:  29.34292
 CYCLE:    68 TIME:   0.020 TIME LEFT:  2.00D  GRAD.:     0.313 HEAT:  29.34266
 CYCLE:    69 TIME:   0.023 TIME LEFT:  2.00D  GRAD.:     0.221 HEAT:  29.34250
 CYCLE:    70 TIME:   0.023 TIME LEFT:  2.00D  GRAD.:     0.165 HEAT:  29.34241
 CYCLE:    71 TIME:   0.023 TIME LEFT:  2.00D  GRAD.:     0.117 HEAT:  29.34236
 CYCLE:    72 TIME:   0.023 TIME LEFT:  2.00D  GRAD.:     0.099 HEAT:  29.34233
 CYCLE:    73 TIME:   0.023 TIME LEFT:  2.00D  GRAD.:     0.097 HEAT:  29.34231
 CYCLE:    74 TIME:   0.027 TIME LEFT:  2.00D  GRAD.:     0.101 HEAT:  29.34229
 CYCLE:    75 TIME:   0.023 TIME LEFT:  2.00D  GRAD.:     0.057 HEAT:  29.34228
 CYCLE:    76 TIME:   0.023 TIME LEFT:  2.00D  GRAD.:     0.085 HEAT:  29.34227
 CYCLE:    77 TIME:   0.020 TIME LEFT:  2.00D  GRAD.:     0.048 HEAT:  29.34227

     GRADIENT =  0.04751  IS LESS THAN CUTOFF =  0.05000



 -------------------------------------------------------------------------------
 pm3  precise nosym THREADS=1
 InChI=1S/C10H12/c1-2-6-10-8-4-3-7-9(10)5-1/h1-3,7-9H,4-6H2



     GEOMETRY OPTIMISED USING EIGENVECTOR FOLLOWING (EF).     
     SCF FIELD WAS ACHIEVED                                   


                              PM3 CALCULATION
                                                       MOPAC2016 (Version: 18.184L)
                                                       Thu Jun 13 15:50:27 2019
                                                       No. of days remaining =  20




          FINAL HEAT OF FORMATION =         29.34227 KCAL/MOL =     122.76805 KJ/MOL


          TOTAL ENERGY            =      -1369.12390 EV
          ELECTRONIC ENERGY       =      -7586.49529 EV  POINT GROUP:     C1  
          CORE-CORE REPULSION     =       6217.37139 EV
          COSMO AREA              =        172.88 SQUARE ANGSTROMS
          COSMO VOLUME            =        175.98 CUBIC ANGSTROMS

          GRADIENT NORM           =          0.04751 = 0.01013 PER ATOM
          IONIZATION POTENTIAL    =          9.150364 EV
          HOMO LUMO ENERGIES (EV) =         -9.150  1.020
          NO. OF FILLED LEVELS    =         26
          MOLECULAR WEIGHT        =        132.2048

          MOLECULAR DIMENSIONS (Angstroms)

            Atom       Atom       Distance
            H    22    H    19     7.20879
            H    21    H    12     5.43193
            H    13    H    11     3.03137


          SCF CALCULATIONS        =         87
 
          WALL-CLOCK TIME         =          2.066 SECONDS
          COMPUTATION TIME        =          0.850 SECONDS




   ATOM   CHEMICAL          X               Y               Z
  NUMBER   SYMBOL      (ANGSTROMS)     (ANGSTROMS)     (ANGSTROMS)
 
     1       C          0.03151595  *   0.85869188  *  -0.23421107  *
     2       C         -1.13952578  *   1.26100855  *   0.66927921  *
     3       C         -1.24159146  *  -1.20734110  *  -0.96196909  *
     4       C          2.39768394  *  -0.84745802  *   0.28866269  *
     5       C          0.03355388  *  -0.62493733  *  -0.44321107  *
     6       C          1.31013577  *   1.37863559  *   0.33421094  *
     7       C          1.10579985  *  -1.38781852  *  -0.20424622  *
     8       C         -2.41127848  *   0.60471203  *   0.27105551  *
     9       C         -2.45488967  *  -0.50899863  *  -0.46101988  *
    10       C          2.37537952  *   0.61168297  *   0.56297085  *
    11       H         -0.10394622  *   1.33130279  *  -1.24022708  *
    12       H         -1.26100814  *   2.36213292  *   0.65152414  *
    13       H         -0.92203731  *   0.99598942  *   1.72372496  *
    14       H         -1.23206472  *  -1.15838167  *  -2.07069425  *
    15       H         -1.31227076  *  -2.28360368  *  -0.70381531  *
    16       H          2.68935186  *  -1.38749952  *   1.21271665  *
    17       H          3.19028445  *  -1.06550823  *  -0.45667866  *
    18       H         -3.33294145  *   1.07785926  *   0.62754463  *
    19       H         -3.41357628  *  -0.96608237  *  -0.73102419  *
    20       H          1.32850540  *   2.45211149  *   0.55566796  *
    21       H          1.07149332  *  -2.47125008  *  -0.37171059  *
    22       H          3.29833255  *   1.03870691  *   0.97124274  *

                             CARTESIAN COORDINATES

   1    C        0.031515953     0.858691882    -0.234211071
   2    C       -1.139525782     1.261008552     0.669279208
   3    C       -1.241591461    -1.207341095    -0.961969092
   4    C        2.397683945    -0.847458024     0.288662692
   5    C        0.033553883    -0.624937327    -0.443211067
   6    C        1.310135770     1.378635586     0.334210941
   7    C        1.105799849    -1.387818523    -0.204246222
   8    C       -2.411278482     0.604712028     0.271055513
   9    C       -2.454889669    -0.508998630    -0.461019880
  10    C        2.375379518     0.611682969     0.562970845
  11    H       -0.103946222     1.331302786    -1.240227083
  12    H       -1.261008138     2.362132922     0.651524138
  13    H       -0.922037315     0.995989421     1.723724956
  14    H       -1.232064718    -1.158381667    -2.070694251
  15    H       -1.312270758    -2.283603682    -0.703815313
  16    H        2.689351856    -1.387499520     1.212716654
  17    H        3.190284455    -1.065508230    -0.456678658
  18    H       -3.332941452     1.077859263     0.627544628
  19    H       -3.413576282    -0.966082371    -0.731024192
  20    H        1.328505398     2.452111487     0.555667960
  21    H        1.071493324    -2.471250081    -0.371710590
  22    H        3.298332553     1.038706912     0.971242741


           Empirical Formula: C10 H12  =    22 atoms



      MOLECULAR POINT GROUP   :   C1  


                  EIGENVALUES  
 -41.54422 -35.66582 -32.26012 -29.06426 -27.63137 -22.97505 -22.10311 -20.60607
 -17.91611 -17.31678 -16.89997 -16.14989 -15.23037 -14.99326 -14.67200 -14.47845
 -14.11068 -13.73537 -13.26654 -13.08434 -12.73414 -11.77530 -11.47449 -10.26511
  -9.63143  -9.15036   1.02001   1.11346   1.13952   3.24502   3.35732   3.42009
   3.50472   3.65677   3.76546   3.82758   3.93925   4.08783   4.18288   4.37255
   4.39747   4.47942   4.54750   4.62966   4.73990   4.91133   5.34762   5.41703
   5.66809   5.84263   6.09952   6.27461


              NET ATOMIC CHARGES AND DIPOLE CONTRIBUTIONS

  ATOM NO.   TYPE          CHARGE      No. of ELECS.   s-Pop       p-Pop       
    1          C           0.009773        3.9902     1.14686     2.84337
    2          C          -0.052995        4.0530     1.14810     2.90490
    3          C          -0.013170        4.0132     1.13262     2.88055
    4          C          -0.017276        4.0173     1.13050     2.88677
    5          C          -0.115725        4.1157     1.19674     2.91898
    6          C          -0.147318        4.1473     1.19479     2.95253
    7          C          -0.151638        4.1516     1.19129     2.96035
    8          C          -0.145520        4.1455     1.19330     2.95222
    9          C          -0.149054        4.1491     1.19352     2.95554
   10          C          -0.141712        4.1417     1.19266     2.94905
   11          H           0.073830        0.9262     0.92617
   12          H           0.053278        0.9467     0.94672
   13          H           0.063562        0.9364     0.93644
   14          H           0.061314        0.9387     0.93869
   15          H           0.059402        0.9406     0.94060
   16          H           0.059787        0.9402     0.94021
   17          H           0.059997        0.9400     0.94000
   18          H           0.097657        0.9023     0.90234
   19          H           0.097447        0.9026     0.90255
   20          H           0.099946        0.9001     0.90005
   21          H           0.100949        0.8991     0.89905
   22          H           0.097464        0.9025     0.90254
 DIPOLE           X         Y         Z       TOTAL
 POINT-CHG.     0.100    -0.025    -0.076     0.128
 HYBRID        -0.016    -0.021     0.012     0.029
 SUM            0.084    -0.046    -0.064     0.115


          ATOMIC ORBITAL ELECTRON POPULATIONS

     Atom    s        px        py        pz   
    1  C   1.14686   0.93233   0.92803   0.98300
    2  C   1.14810   0.92798   0.98748   0.98944
    3  C   1.13262   0.91242   0.97848   0.98964
    4  C   1.13050   0.95451   0.93609   0.99618
    5  C   1.19674   0.95722   0.95884   1.00292
    6  C   1.19479   0.95650   0.98586   1.01017
    7  C   1.19129   0.95561   0.98370   1.02105
    8  C   1.19330   0.97859   0.97458   0.99906
    9  C   1.19352   0.97824   0.97370   1.00360
   10  C   1.19266   0.97954   0.96187   1.00763
   11  H   0.92617
   12  H   0.94672
   13  H   0.93644
   14  H   0.93869
   15  H   0.94060
   16  H   0.94021
   17  H   0.94000
   18  H   0.90234
   19  H   0.90255
   20  H   0.90005
   21  H   0.89905
   22  H   0.90254
 *******************************************************************************
 ** Site#: 14399        For non-commercial use only    Version 18.184L 64BITS **
 *******************************************************************************
 ** Cite this program as: MOPAC2016, Version: 18.184L, James J. P. Stewart,   **
 ** Stewart Computational Chemistry, web: HTTP://OpenMOPAC.net. Days left:  20**
 *******************************************************************************
 **                                                                           **
 **                                MOPAC2016                                  **
 **                                                                           **
 *******************************************************************************

                              PM3 CALCULATION RESULTS

 *******************************************************************************
 *  CALCULATION DONE:                                Thu Jun 13 15:50:27 2019  *
 *  PM3        - The PM3 Hamiltonian to be used
 *  OLDGEO     - PREVIOUS GEOMETRY TO BE USED
 *  PRECISE    - CRITERIA TO BE INCREASED BY 100 TIMES
 *  NOSYM      - POINT-GROUP SYMMETRY SET TO C1
 *  THREADS=1  - MULTI-THREADING NOT USED
 *  T=         - A TIME OF 172800.0 SECONDS REQUESTED
 *  DUMP=N     - RESTART FILE WRITTEN EVERY  7200.000 SECONDS
 *  THERMO     - THERMODYNAMIC QUANTITIES TO BE CALCULATED
 *******************************************************************************
oldgeo thermo nosym precise THREADS=1  pm3
 InChI=1S/C10H12/c1-2-6-10-8-4-3-7-9(10)5-1/h1-3,7-9H,4-6H2

   ATOM   CHEMICAL          X               Y               Z
  NUMBER   SYMBOL      (ANGSTROMS)     (ANGSTROMS)     (ANGSTROMS)
 
     1       C          0.03151595  *   0.85869188  *  -0.23421107  *
     2       C         -1.13952578  *   1.26100855  *   0.66927921  *
     3       C         -1.24159146  *  -1.20734110  *  -0.96196909  *
     4       C          2.39768394  *  -0.84745802  *   0.28866269  *
     5       C          0.03355388  *  -0.62493733  *  -0.44321107  *
     6       C          1.31013577  *   1.37863559  *   0.33421094  *
     7       C          1.10579985  *  -1.38781852  *  -0.20424622  *
     8       C         -2.41127848  *   0.60471203  *   0.27105551  *
     9       C         -2.45488967  *  -0.50899863  *  -0.46101988  *
    10       C          2.37537952  *   0.61168297  *   0.56297085  *
    11       H         -0.10394622  *   1.33130279  *  -1.24022708  *
    12       H         -1.26100814  *   2.36213292  *   0.65152414  *
    13       H         -0.92203731  *   0.99598942  *   1.72372496  *
    14       H         -1.23206472  *  -1.15838167  *  -2.07069425  *
    15       H         -1.31227076  *  -2.28360368  *  -0.70381531  *
    16       H          2.68935186  *  -1.38749952  *   1.21271665  *
    17       H          3.19028445  *  -1.06550823  *  -0.45667866  *
    18       H         -3.33294145  *   1.07785926  *   0.62754463  *
    19       H         -3.41357628  *  -0.96608237  *  -0.73102419  *
    20       H          1.32850540  *   2.45211149  *   0.55566796  *
    21       H          1.07149332  *  -2.47125008  *  -0.37171059  *
    22       H          3.29833255  *   1.03870691  *   0.97124274  *
 


          CARTESIAN COORDINATES 

    NO.       ATOM           X           Y           Z

     1         C          0.0315      0.8587     -0.2342
     2         C         -1.1395      1.2610      0.6693
     3         C         -1.2416     -1.2073     -0.9620
     4         C          2.3977     -0.8475      0.2887
     5         C          0.0336     -0.6249     -0.4432
     6         C          1.3101      1.3786      0.3342
     7         C          1.1058     -1.3878     -0.2042
     8         C         -2.4113      0.6047      0.2711
     9         C         -2.4549     -0.5090     -0.4610
    10         C          2.3754      0.6117      0.5630
    11         H         -0.1039      1.3313     -1.2402
    12         H         -1.2610      2.3621      0.6515
    13         H         -0.9220      0.9960      1.7237
    14         H         -1.2321     -1.1584     -2.0707
    15         H         -1.3123     -2.2836     -0.7038
    16         H          2.6894     -1.3875      1.2127
    17         H          3.1903     -1.0655     -0.4567
    18         H         -3.3329      1.0779      0.6275
    19         H         -3.4136     -0.9661     -0.7310
    20         H          1.3285      2.4521      0.5557
    21         H          1.0715     -2.4713     -0.3717
    22         H          3.2983      1.0387      0.9712

  H: (PM3): J. J. P. STEWART, J. COMP. CHEM. 10, 209 (1989).
  C: (PM3): J. J. P. STEWART, J. COMP. CHEM. 10, 209 (1989).

           Empirical Formula: C10 H12  =    22 atoms



      MOLECULAR POINT GROUP   :   C1  


      RHF CALCULATION, NO. OF DOUBLY OCCUPIED LEVELS = 26



          HEAT OF FORMATION =      29.342268 KCALS/MOLE


          CARTESIAN COORDINATE DERIVATIVES

   NUMBER  ATOM         X            Y            Z

     1       C      0.006421     0.002982     0.002008
     2       C      0.007741    -0.003987    -0.010702
     3       C     -0.000185     0.004552     0.001515
     4       C     -0.006520    -0.000809     0.001590
     5       C      0.002179     0.001270     0.001317
     6       C      0.004140    -0.001749     0.001499
     7       C      0.000952    -0.001523     0.002157
     8       C      0.004833     0.003404    -0.007223
     9       C     -0.000509     0.003891    -0.003162
    10       C     -0.003751    -0.002987     0.003415
    11       H     -0.000797    -0.005580     0.004707
    12       H      0.001144    -0.000754    -0.003404
    13       H     -0.001712     0.001052     0.003327
    14       H      0.002988    -0.003953     0.006563
    15       H     -0.001693    -0.004084    -0.002779
    16       H      0.007819     0.000586    -0.020804
    17       H      0.012649     0.003570    -0.000415
    18       H     -0.006043     0.008516     0.005008
    19       H     -0.002022     0.000071     0.001035
    20       H     -0.000452    -0.000204     0.001293
    21       H     -0.002961     0.002368     0.003131
    22       H     -0.024222    -0.006632     0.009925
 


          GRADIENT NORM =   0.04731


          TIME FOR SCF CALCULATION =    0.03

          TIME FOR DERIVATIVES     =    0.01

          MOLECULAR WEIGHT =  132.20



          ROTATIONAL CONSTANTS IN CM(-1)

          A =    0.08955191   B =    0.03891992   C =    0.02891050



           PRINCIPAL MOMENTS OF INERTIA IN UNITS OF 10**(-40)*GRAM-CM**2

          A =      312.5871   B =      719.2403   C =      968.2563


          ORIENTATION OF MOLECULE IN FORCE CALCULATION

    NO.       ATOM         X         Y         Z

     1          C       0.0694   -0.6430   -0.5896
     2          C       1.6022   -0.6430   -0.5896
     3          C       0.0708    1.8905   -0.5896
     4          C      -1.8780   -0.5898    1.6438
     5          C      -0.4448    0.6261    0.0185
     6          C      -0.4360   -1.8725    0.0896
     7          C      -1.3233    0.6413    1.0268
     8          C       2.1668    0.6453   -1.0672
     9          C       1.4763    1.7861   -1.0633
    10          C      -1.3162   -1.8476    1.0895
    11          H      -0.2961   -0.6712   -1.6476
    12          H       1.9735   -1.4750   -1.2200
    13          H       1.9880   -0.8393    0.4312
    14          H      -0.5772    2.1646   -1.4480
    15          H      -0.0056    2.7296    0.1316
    16          H      -1.6979   -0.5616    2.7380
    17          H      -2.9801   -0.5956    1.5148
    18          H       3.2053    0.6196   -1.4156
    19          H       1.9296    2.7178   -1.4199
    20          H      -0.0377   -2.8210   -0.2893
    21          H      -1.6802    1.5903    1.4451
    22          H      -1.6686   -2.7767    1.5515


    FIRST DERIVATIVES WILL BE USED IN THE CALCULATION OF SECOND DERIVATIVES

          ESTIMATED TIME TO COMPLETE CALCULATION =       10.31 SECONDS

    FOR POINT-GROUP C1   THERE ARE   1 UNIQUE SYMMETRY FUNCTIONS.

 STEP:   1 TIME =     0.06 SECS, INTEGRAL =      0.06 TIME LEFT: 172799.90
 STEP:   2 TIME =     0.05 SECS, INTEGRAL =      0.11 TIME LEFT: 172799.85
 STEP:   3 TIME =     0.05 SECS, INTEGRAL =      0.16 TIME LEFT: 172799.80
 STEP:   4 TIME =     0.05 SECS, INTEGRAL =      0.21 TIME LEFT: 172799.75
 STEP:   5 TIME =     0.05 SECS, INTEGRAL =      0.27 TIME LEFT: 172799.70
 STEP:   6 TIME =     0.05 SECS, INTEGRAL =      0.32 TIME LEFT: 172799.64
 STEP:   7 TIME =     0.05 SECS, INTEGRAL =      0.37 TIME LEFT: 172799.59
 STEP:   8 TIME =     0.05 SECS, INTEGRAL =      0.42 TIME LEFT: 172799.54
 STEP:   9 TIME =     0.05 SECS, INTEGRAL =      0.47 TIME LEFT: 172799.49
 STEP:  10 TIME =     0.05 SECS, INTEGRAL =      0.52 TIME LEFT: 172799.44
 STEP:  11 TIME =     0.05 SECS, INTEGRAL =      0.57 TIME LEFT: 172799.39
 STEP:  12 TIME =     0.05 SECS, INTEGRAL =      0.62 TIME LEFT: 172799.34
 STEP:  13 TIME =     0.05 SECS, INTEGRAL =      0.67 TIME LEFT: 172799.29
 STEP:  14 TIME =     0.05 SECS, INTEGRAL =      0.72 TIME LEFT: 172799.24
 STEP:  15 TIME =     0.05 SECS, INTEGRAL =      0.77 TIME LEFT: 172799.19
 STEP:  16 TIME =     0.05 SECS, INTEGRAL =      0.83 TIME LEFT: 172799.13
 STEP:  17 TIME =     0.05 SECS, INTEGRAL =      0.88 TIME LEFT: 172799.08
 STEP:  18 TIME =     0.05 SECS, INTEGRAL =      0.93 TIME LEFT: 172799.03
 STEP:  19 TIME =     0.05 SECS, INTEGRAL =      0.98 TIME LEFT: 172798.98
 STEP:  20 TIME =     0.05 SECS, INTEGRAL =      1.04 TIME LEFT: 172798.93
 STEP:  21 TIME =     0.05 SECS, INTEGRAL =      1.09 TIME LEFT: 172798.88
 STEP:  22 TIME =     0.05 SECS, INTEGRAL =      1.14 TIME LEFT: 172798.82
 STEP:  23 TIME =     0.05 SECS, INTEGRAL =      1.19 TIME LEFT: 172798.77
 STEP:  24 TIME =     0.05 SECS, INTEGRAL =      1.24 TIME LEFT: 172798.72
 STEP:  25 TIME =     0.05 SECS, INTEGRAL =      1.29 TIME LEFT: 172798.67
 STEP:  26 TIME =     0.05 SECS, INTEGRAL =      1.35 TIME LEFT: 172798.61
 STEP:  27 TIME =     0.05 SECS, INTEGRAL =      1.40 TIME LEFT: 172798.56
 STEP:  28 TIME =     0.05 SECS, INTEGRAL =      1.45 TIME LEFT: 172798.51
 STEP:  29 TIME =     0.05 SECS, INTEGRAL =      1.50 TIME LEFT: 172798.46
 STEP:  30 TIME =     0.05 SECS, INTEGRAL =      1.55 TIME LEFT: 172798.41
 STEP:  31 TIME =     0.05 SECS, INTEGRAL =      1.61 TIME LEFT: 172798.36
 STEP:  32 TIME =     0.05 SECS, INTEGRAL =      1.66 TIME LEFT: 172798.30
 STEP:  33 TIME =     0.05 SECS, INTEGRAL =      1.71 TIME LEFT: 172798.25
 STEP:  34 TIME =     0.05 SECS, INTEGRAL =      1.76 TIME LEFT: 172798.20
 STEP:  35 TIME =     0.05 SECS, INTEGRAL =      1.81 TIME LEFT: 172798.15
 STEP:  36 TIME =     0.05 SECS, INTEGRAL =      1.86 TIME LEFT: 172798.10
 STEP:  37 TIME =     0.05 SECS, INTEGRAL =      1.91 TIME LEFT: 172798.05
 STEP:  38 TIME =     0.05 SECS, INTEGRAL =      1.96 TIME LEFT: 172798.00
 STEP:  39 TIME =     0.05 SECS, INTEGRAL =      2.02 TIME LEFT: 172797.95
 STEP:  40 TIME =     0.05 SECS, INTEGRAL =      2.07 TIME LEFT: 172797.89
 STEP:  41 TIME =     0.05 SECS, INTEGRAL =      2.12 TIME LEFT: 172797.84
 STEP:  42 TIME =     0.05 SECS, INTEGRAL =      2.17 TIME LEFT: 172797.79
 STEP:  43 TIME =     0.05 SECS, INTEGRAL =      2.22 TIME LEFT: 172797.74
 STEP:  44 TIME =     0.05 SECS, INTEGRAL =      2.27 TIME LEFT: 172797.69
 STEP:  45 TIME =     0.05 SECS, INTEGRAL =      2.32 TIME LEFT: 172797.64
 STEP:  46 TIME =     0.05 SECS, INTEGRAL =      2.38 TIME LEFT: 172797.59
 STEP:  47 TIME =     0.09 SECS, INTEGRAL =      2.46 TIME LEFT: 172797.50
 STEP:  48 TIME =     0.05 SECS, INTEGRAL =      2.51 TIME LEFT: 172797.45
 STEP:  49 TIME =     0.05 SECS, INTEGRAL =      2.56 TIME LEFT: 172797.40
 STEP:  50 TIME =     0.05 SECS, INTEGRAL =      2.61 TIME LEFT: 172797.35
 STEP:  51 TIME =     0.05 SECS, INTEGRAL =      2.66 TIME LEFT: 172797.30
 STEP:  52 TIME =     0.05 SECS, INTEGRAL =      2.71 TIME LEFT: 172797.25
 STEP:  53 TIME =     0.05 SECS, INTEGRAL =      2.77 TIME LEFT: 172797.20
 STEP:  54 TIME =     0.05 SECS, INTEGRAL =      2.82 TIME LEFT: 172797.14
 STEP:  55 TIME =     0.05 SECS, INTEGRAL =      2.87 TIME LEFT: 172797.09
 STEP:  56 TIME =     0.05 SECS, INTEGRAL =      2.92 TIME LEFT: 172797.04
 STEP:  57 TIME =     0.05 SECS, INTEGRAL =      2.97 TIME LEFT: 172796.99
 STEP:  58 TIME =     0.05 SECS, INTEGRAL =      3.02 TIME LEFT: 172796.94
 STEP:  59 TIME =     0.05 SECS, INTEGRAL =      3.07 TIME LEFT: 172796.89
 STEP:  60 TIME =     0.05 SECS, INTEGRAL =      3.12 TIME LEFT: 172796.84
 STEP:  61 TIME =     0.05 SECS, INTEGRAL =      3.18 TIME LEFT: 172796.79
 STEP:  62 TIME =     0.05 SECS, INTEGRAL =      3.23 TIME LEFT: 172796.73
 STEP:  63 TIME =     0.05 SECS, INTEGRAL =      3.28 TIME LEFT: 172796.68
 STEP:  64 TIME =     0.05 SECS, INTEGRAL =      3.33 TIME LEFT: 172796.63
 STEP:  65 TIME =     0.05 SECS, INTEGRAL =      3.38 TIME LEFT: 172796.58
 STEP:  66 TIME =     0.05 SECS, INTEGRAL =      3.43 TIME LEFT: 172796.53

(To convert to Hartree/Bohr^2, multiply by (10^(-21) x N x a0^2)/(4.184 x 627.51) =  0.0642)


           FORCE MATRIX IN MILLIDYNES/ANGSTROM


                  C  1       C  2       C  3       C  4       C  5       C  6
 ------------------------------------------------------------------------------
     C    1  15.121713
     C    2   3.750245  14.668819
     C    3   0.601377   0.098340  15.055476
     C    4   0.185812   0.014493   0.130046  15.167433
     C    5   4.575368   0.693070   4.705345   0.829498  18.648608
     C    6   4.783061   0.701444   0.048988   0.851088   0.695881  18.336665
     C    7   0.786493   0.041424   0.820172   5.057701  10.413707   0.056585
     C    8   0.673095   5.030691   0.837977   0.002880   0.064452   0.052829
     C    9   0.063916   0.848374   4.983214   0.015325   0.715120   0.003866
     C   10   0.816926   0.041808   0.003127   5.058040   0.053520  10.769706
     H   11   4.130168   0.438353   0.021994   0.012052   0.404275   0.396066
     H   12   0.434355   4.454574   0.008183   0.001942   0.049045   0.026526
     H   13   0.450588   4.426299   0.013698   0.001264   0.009083   0.032532
     H   14   0.012876   0.012867   4.372907   0.017239   0.414556   0.001492
     H   15   0.039391   0.010179   4.414191   0.004893   0.447284   0.007887
     H   16   0.013751   0.002127   0.016826   4.392373   0.036668   0.038801
     H   17   0.013074   0.003044   0.017590   4.377895   0.033358   0.036659
     H   18   0.040839   0.425747   0.119305   0.000368   0.003326   0.008317
     H   19   0.004461   0.120780   0.423554   0.002458   0.044406   0.001380
     H   20   0.427440   0.027960   0.007355   0.123401   0.044297   4.806567
     H   21   0.112722   0.016225   0.076856   0.422977   0.458493   0.003316
     H   22   0.121449   0.016317   0.000989   0.423827   0.003902   0.444180


                  C  7       C  8       C  9       C 10       H 11       H 12
 ------------------------------------------------------------------------------
     C    7  18.326545
     C    8   0.003414  18.247478
     C    9   0.047390  10.710860  18.236809
     C   10   0.737153   0.009044   0.001607  18.307833
     H   11   0.032863   0.011784   0.006490   0.034770   4.578867
     H   12   0.007403   0.432291   0.044277   0.001831   0.033683   5.054813
     H   13   0.002008   0.410270   0.028779   0.003291   0.043321   0.563629
     H   14   0.026354   0.034014   0.422618   0.001384   0.003504   0.000892
     H   15   0.054367   0.039356   0.421801   0.000895   0.001696   0.000431
     H   16   0.418720   0.000657   0.002654   0.421052   0.002349   0.000316
     H   17   0.419339   0.000779   0.001735   0.420980   0.002135   0.000524
     H   18   0.000939   4.827608   0.444049   0.001893   0.001380   0.036080
     H   19   0.006861   0.443733   4.820620   0.000363   0.000487   0.012719
     H   20   0.003484   0.002075   0.001570   0.445230   0.025004   0.015764
     H   21   4.786270   0.002011   0.006033   0.046080   0.014266   0.002664
     H   22   0.046126   0.002745   0.000360   4.820735   0.015076   0.000441


                  H 13       H 14       H 15       H 16       H 17       H 18
 ------------------------------------------------------------------------------
     H   13   5.024159
     H   14   0.001675   4.953166
     H   15   0.001158   0.559679   5.003797
     H   16   0.000483   0.001993   0.000472   4.975844
     H   17   0.000437   0.002964   0.001037   0.564651   4.964513
     H   18   0.016663   0.016583   0.015203   0.000232   0.000300   5.201701
     H   19   0.016839   0.023451   0.033517   0.000635   0.000250   0.068302
     H   20   0.003417   0.000377   0.001313   0.015509   0.016159   0.000558
     H   21   0.000706   0.009440   0.030125   0.030409   0.026344   0.000369
     H   22   0.000710   0.000310   0.000231   0.029849   0.026065   0.000631


                  H 19       H 20       H 21       H 22
 ------------------------------------------------------
     H   19   5.196998
     H   20   0.000406   5.186269
     H   21   0.001311   0.000782   5.172100
     H   22   0.000170   0.069120   0.006390   5.197762


          HEAT OF FORMATION =      29.342268 KCALS/MOLE

          ZERO POINT ENERGY     118.925 KCAL/MOL


           NORMAL COORDINATE ANALYSIS (Total motion = 1 Angstrom)


   Root No.       1         2         3         4         5         6         7         8

                 1 A       2 A       3 A       4 A       5 A       6 A       7 A       8 A   

                  79.1     120.8     220.4     268.0     352.5     369.5     430.5     464.2
  
           1   -0.0071    0.0120    0.0089   -0.0263    0.0001    0.0046   -0.0271    0.0180
           2   -0.0004    0.0054   -0.0028    0.0081    0.0378   -0.0058    0.0066    0.0061
           3   -0.0151    0.0098    0.0129   -0.0263    0.0232   -0.0057    0.0067   -0.0013
           4   -0.0068    0.0117    0.0095   -0.0257   -0.0017    0.0061   -0.0327    0.0099
           5   -0.0018    0.0147    0.0033    0.0015   -0.0112   -0.0134    0.0096   -0.0428
           6    0.0160    0.0547   -0.0080    0.0248   -0.0047   -0.0117    0.0030    0.0109
           7   -0.0205    0.0043   -0.0178    0.0027    0.0014   -0.0045    0.0145   -0.0370
           8   -0.0071    0.0029   -0.0140    0.0078   -0.0011    0.0077    0.0216    0.0157
           9   -0.0405    0.0093   -0.0289   -0.0033   -0.0188    0.0143   -0.0145    0.0148
          10    0.0429    0.0083   -0.0222   -0.0047   -0.0041    0.0019    0.0133    0.0191
          11    0.0035   -0.0071    0.0016   -0.0060   -0.0204    0.0077   -0.0173    0.0216
          12    0.0300    0.0052   -0.0150   -0.0201    0.0010   -0.0014   -0.0078   -0.0201
          13   -0.0092    0.0045    0.0207   -0.0096   -0.0021    0.0033   -0.0154   -0.0060
          14   -0.0002    0.0024   -0.0033    0.0084    0.0283   -0.0053    0.0235    0.0061
          15   -0.0172    0.0094    0.0234   -0.0110    0.0401   -0.0081   -0.0185   -0.0044
          16   -0.0230   -0.0128    0.0011   -0.0018    0.0096   -0.0004    0.0353    0.0477
          17   -0.0010   -0.0001   -0.0020    0.0024    0.0199   -0.0009   -0.0067    0.0060
          18   -0.0288   -0.0208    0.0076   -0.0186   -0.0146    0.0007    0.0360   -0.0033
          19    0.0146    0.0058    0.0463    0.0239   -0.0369    0.0096    0.0103    0.0089
          20    0.0028   -0.0030    0.0012    0.0010    0.0060    0.0007   -0.0028    0.0286
          21    0.0029    0.0105    0.0452    0.0179    0.0116   -0.0031    0.0046    0.0042
          22    0.0045   -0.0041    0.0012   -0.0068    0.0149    0.0070   -0.0021   -0.0396
          23    0.0034   -0.0039    0.0124   -0.0127   -0.0181    0.0114   -0.0058   -0.0346
          24    0.0422   -0.0171    0.0031    0.0141    0.0078    0.0572    0.0087    0.0001
          25    0.0000   -0.0130   -0.0098    0.0020    0.0042   -0.0285    0.0174   -0.0392
          26    0.0010   -0.0088    0.0060   -0.0073   -0.0243   -0.0099    0.0051   -0.0325
          27    0.0167   -0.0416   -0.0086   -0.0043   -0.0203   -0.0453   -0.0111    0.0358
          28   -0.0002   -0.0183   -0.0272    0.0452    0.0194   -0.0017   -0.0239    0.0137
          29    0.0012   -0.0056   -0.0003   -0.0021   -0.0068    0.0059   -0.0286    0.0261
          30   -0.0088   -0.0255   -0.0168    0.0217   -0.0075   -0.0003   -0.0185   -0.0377
          31    0.0128    0.0443   -0.0021   -0.0097   -0.0142    0.0015   -0.0523    0.0262
          32    0.0059    0.0167    0.0007    0.0127    0.0764   -0.0074   -0.0329    0.0077
          33   -0.0220   -0.0017    0.0163   -0.0305    0.0260   -0.0047    0.0170   -0.0044
          34    0.0056    0.0385    0.0036   -0.0049   -0.0456   -0.0060   -0.0376    0.0024
          35    0.0054   -0.0215    0.0152   -0.0172   -0.0035    0.0397    0.0043   -0.0496
          36    0.0139    0.1189   -0.0273    0.0623   -0.0422   -0.0908    0.0065    0.0145
          37   -0.0280   -0.0142    0.0247   -0.0661    0.0189    0.0158   -0.0410    0.0165
          38   -0.0139    0.0866   -0.0122    0.0288   -0.0572   -0.1079    0.0073   -0.0402
          39    0.0217    0.0779   -0.0169    0.0458   -0.0217   -0.0344    0.0065    0.0092
          40    0.0062   -0.0231   -0.0179    0.0041    0.0020   -0.0581    0.0235   -0.0291
          41   -0.0521    0.0262   -0.0901    0.0219   -0.0533    0.0863    0.0483    0.0270
          42   -0.0750    0.0376   -0.0537    0.0003   -0.0365    0.0816   -0.0122    0.0122
          43   -0.0668    0.0443   -0.0620    0.0152   -0.0023    0.0836    0.0325   -0.0379
          44    0.0164   -0.0070    0.0236    0.0036    0.0383   -0.0320    0.0140    0.0135
          45   -0.0731    0.0252   -0.0781    0.0029   -0.0668    0.0722   -0.0037    0.0182
          46    0.1116    0.0365   -0.0970   -0.1074   -0.0018   -0.0009    0.0654    0.0358
          47   -0.0029   -0.0255   -0.0381   -0.0010   -0.0241    0.0082   -0.0424   -0.0050
          48    0.0190    0.0012   -0.0023   -0.0043    0.0007   -0.0010   -0.0149   -0.0220
          49    0.0349    0.0051   -0.0140    0.0066   -0.0043    0.0021    0.0082    0.0179
          50    0.0122    0.0068    0.0429   -0.0208   -0.0515    0.0143    0.0111    0.0297
          51    0.0990    0.0333   -0.0914   -0.1235    0.0043   -0.0045    0.0428   -0.0066
          52    0.0180   -0.0153    0.0071   -0.0050    0.0215    0.0340    0.0047   -0.0543
          53    0.0087   -0.0127    0.0239   -0.0281   -0.0200    0.0375   -0.0307   -0.0131
          54    0.0823   -0.0493    0.0195    0.0210    0.0278    0.1344    0.0305   -0.0453
          55    0.0101   -0.0326   -0.0161    0.0094    0.0044   -0.0514    0.0352   -0.0156
          56    0.0030   -0.0200    0.0105   -0.0157   -0.0326   -0.0261   -0.0048   -0.0390
          57    0.0350   -0.0958   -0.0042   -0.0163   -0.0420   -0.1173   -0.0139    0.0482
          58   -0.0532   -0.0290    0.0088    0.0035    0.0154   -0.0031    0.1134    0.0842
          59   -0.0031    0.0011   -0.0025    0.0068    0.0330   -0.0041    0.0084    0.0072
          60   -0.0552   -0.0407    0.0172   -0.0242   -0.0418    0.0061    0.0797    0.0317
          61    0.0171    0.0050    0.0865    0.0617   -0.0889    0.0199    0.0278    0.0160
          62    0.0037   -0.0053    0.0018   -0.0035   -0.0069    0.0043   -0.0147    0.0296
          63    0.0030    0.0150    0.0777    0.0600   -0.0051   -0.0020    0.0461    0.0080
          64   -0.0110   -0.0405   -0.0510    0.1034    0.0389   -0.0054   -0.0559   -0.0091
          65    0.0007   -0.0093   -0.0003   -0.0009   -0.0184    0.0082   -0.0299    0.0283
          66   -0.0180   -0.0499   -0.0350    0.0681   -0.0162    0.0015   -0.0463   -0.0510


   Root No.       9        10        11        12        13        14        15        16

                 9 A      10 A      11 A      12 A      13 A      14 A      15 A      16 A   

                 500.0     565.8     623.9     719.8     750.4     764.7     818.7     830.8
  
           1    0.0004    0.0274   -0.0026   -0.0003   -0.0058    0.0103   -0.0030    0.0030
           2   -0.0152    0.0191    0.0053    0.0038    0.0059   -0.0110   -0.0213    0.0020
           3    0.0430    0.0072   -0.0396   -0.0005   -0.0009    0.0121   -0.0181    0.0017
           4   -0.0104    0.0332   -0.0136   -0.0039    0.0163    0.0073    0.0141   -0.0015
           5   -0.0157   -0.0231   -0.0141    0.0031    0.0057   -0.0149   -0.0075   -0.0032
           6    0.0100    0.0028    0.0017   -0.0161   -0.0058    0.0052   -0.0244   -0.0063
           7    0.0021   -0.0132    0.0037   -0.0142   -0.0129    0.0076   -0.0066    0.0055
           8    0.0384    0.0446    0.0099    0.0023    0.0042    0.0070    0.0513    0.0010
           9   -0.0055   -0.0176    0.0065   -0.0090    0.0080   -0.0184    0.0054    0.0150
          10    0.0290   -0.0125   -0.0193    0.0095    0.0020   -0.0279   -0.0164   -0.0157
          11    0.0011   -0.0245   -0.0069   -0.0003    0.0010   -0.0024   -0.0009   -0.0005
          12   -0.0331    0.0194    0.0096    0.0007   -0.0356    0.0086    0.0210   -0.0218
          13    0.0459   -0.0146    0.0600    0.0148    0.0046   -0.0074   -0.0017    0.0035
          14    0.0222    0.0243   -0.0057    0.0032    0.0095    0.0006    0.0180    0.0019
          15    0.0129   -0.0404    0.0227    0.0089    0.0049    0.0036    0.0079    0.0007
          16   -0.0226   -0.0236    0.0021    0.0010   -0.0299   -0.0009    0.0067    0.0134
          17   -0.0414    0.0408    0.0334    0.0051   -0.0010   -0.0185   -0.0431    0.0080
          18   -0.0057    0.0141    0.0079    0.0069   -0.0032   -0.0180   -0.0051    0.0138
          19    0.0095    0.0187    0.0112    0.0051    0.0031   -0.0088   -0.0105   -0.0131
          20    0.0140   -0.0405   -0.0363   -0.0004    0.0142   -0.0006    0.0011   -0.0017
          21   -0.0254   -0.0062   -0.0214   -0.0016   -0.0024    0.0121    0.0118   -0.0163
          22   -0.0417   -0.0040   -0.0266    0.0089    0.0296   -0.0277    0.0236   -0.0064
          23    0.0019   -0.0111   -0.0043   -0.0054    0.0026   -0.0018    0.0002   -0.0027
          24    0.0075   -0.0072    0.0135   -0.0143   -0.0083   -0.0072    0.0032   -0.0023
          25   -0.0028   -0.0032   -0.0035   -0.0128   -0.0156    0.0114   -0.0003   -0.0051
          26    0.0267   -0.0078    0.0115   -0.0177   -0.0237    0.0222   -0.0109   -0.0018
          27   -0.0013    0.0097   -0.0059   -0.0051    0.0102   -0.0203    0.0068   -0.0051
          28    0.0040   -0.0147   -0.0088   -0.0019   -0.0204    0.0043    0.0037    0.0150
          29   -0.0329   -0.0196    0.0087   -0.0061   -0.0284    0.0179    0.0128    0.0003
          30    0.0154    0.0248   -0.0003    0.0048    0.0077   -0.0139   -0.0040    0.0136
          31   -0.0159    0.0654   -0.0171   -0.0282    0.0060    0.0384   -0.0283   -0.0106
          32    0.0046   -0.0063    0.0256    0.0078    0.0221    0.0038   -0.0397   -0.0210
          33    0.0471   -0.0061   -0.0338    0.0092   -0.0045    0.0020   -0.0066    0.0069
          34   -0.0223    0.0084    0.0261    0.0211    0.0165    0.0089    0.0779    0.0058
          35    0.0032   -0.0176   -0.0217   -0.0434   -0.0050   -0.0125   -0.0321   -0.0187
          36   -0.0230   -0.0207    0.0364    0.0637    0.0101    0.0015    0.0490    0.0194
          37    0.0267    0.0647   -0.0645   -0.0311    0.0123    0.0421   -0.0449   -0.0077
          38   -0.0376   -0.0450    0.0082    0.0948    0.0243   -0.0033    0.0624    0.0264
          39   -0.0086   -0.0144    0.0265    0.0139   -0.0012   -0.0055    0.0127    0.0025
          40   -0.0053    0.0130   -0.0160   -0.0511   -0.0186   -0.0081    0.0279   -0.0017
          41    0.0067    0.0920   -0.0676    0.0503   -0.0094    0.0464    0.0166   -0.0623
          42   -0.0103   -0.0218   -0.0045    0.0361    0.0071    0.0077   -0.0339   -0.0012
          43   -0.0197   -0.0022   -0.0373    0.0451   -0.0117    0.0451   -0.0367   -0.0253
          44    0.0508    0.0294    0.0394   -0.0183    0.0175   -0.0112    0.0957    0.0306
          45   -0.0226    0.0018   -0.0342    0.0237   -0.0065    0.0074   -0.0500   -0.0240
          46    0.0047   -0.0538    0.0354   -0.0263    0.1106    0.0306   -0.0322    0.0786
          47    0.0300   -0.0119    0.0056    0.0053    0.0059   -0.0281   -0.0171    0.0419
          48   -0.0306    0.0252    0.0017    0.0055   -0.0518    0.0016    0.0249   -0.0367
          49    0.0319   -0.0091   -0.0249    0.0132   -0.0070   -0.0350   -0.0172   -0.0244
          50   -0.0043   -0.0085    0.0062    0.0035    0.0287   -0.0114   -0.0183   -0.0402
          51   -0.0620   -0.0190    0.0674   -0.0374    0.0642    0.0774    0.0193    0.0717
          52   -0.0466   -0.0136   -0.0263    0.0617    0.0318    0.0046    0.0233    0.0156
          53   -0.0091    0.0056   -0.0125    0.0344    0.0371    0.0033    0.0247    0.0124
          54   -0.0082   -0.0390    0.0154    0.1414   -0.0044    0.0875   -0.0019    0.0626
          55    0.0245    0.0272    0.0053    0.0368   -0.0354    0.0801   -0.0083   -0.0010
          56    0.0106   -0.0180   -0.0032    0.0151   -0.0136    0.0358   -0.0444   -0.0011
          57   -0.0082    0.0195   -0.0315    0.1439    0.0106    0.1018   -0.0931    0.0026
          58   -0.0671   -0.0502    0.0664   -0.0231    0.0785    0.0370   -0.0241   -0.1093
          59   -0.0367    0.0432    0.0336    0.0058    0.0128   -0.0243   -0.0653    0.0018
          60   -0.0631   -0.0218    0.0739   -0.0199    0.0767    0.0355    0.0172   -0.0993
          61   -0.0531    0.0343   -0.0249   -0.0510    0.0438    0.0364   -0.0299    0.1529
          62    0.0057   -0.0480   -0.0285   -0.0008    0.0065   -0.0012   -0.0045   -0.0043
          63   -0.0604    0.0253   -0.0697   -0.0485    0.0504    0.0519    0.0095    0.1311
          64   -0.0190   -0.0059    0.0476   -0.0414    0.1191    0.0984   -0.0215   -0.0568
          65   -0.0132   -0.0390   -0.0047   -0.0080   -0.0084    0.0203    0.0231   -0.0046
          66    0.0370   -0.0082    0.0152   -0.0294    0.1546    0.0637   -0.0000   -0.0513


   Root No.      17        18        19        20        21        22        23        24

                17 A      18 A      19 A      20 A      21 A      22 A      23 A      24 A   

                 867.7     911.4     936.9     959.8     996.4    1015.6    1019.5    1029.2
  
           1    0.0041    0.0029   -0.0072    0.0019    0.0014    0.0049   -0.0034   -0.0114
           2   -0.0042    0.0029   -0.0031    0.0057   -0.0030   -0.0105    0.0131   -0.0005
           3   -0.0274    0.0156   -0.0233    0.0213    0.0077    0.0038    0.0054    0.0175
           4    0.0263   -0.0101    0.0052   -0.0010    0.0009   -0.0071    0.0056    0.0112
           5   -0.0343    0.0136    0.0079   -0.0092   -0.0034    0.0048   -0.0280   -0.0044
           6   -0.0130    0.0094    0.0208   -0.0164   -0.0063   -0.0013   -0.0022   -0.0025
           7    0.0198    0.0106   -0.0039   -0.0042    0.0035   -0.0090   -0.0085    0.0241
           8   -0.0102    0.0094    0.0112   -0.0082    0.0020    0.0016    0.0014   -0.0094
           9    0.0147    0.0380    0.0017   -0.0161    0.0098   -0.0054    0.0124    0.0072
          10    0.0260    0.0151    0.0049    0.0125    0.0195    0.0235    0.0035   -0.0059
          11   -0.0052    0.0045    0.0004    0.0025   -0.0012   -0.0147    0.0033   -0.0024
          12   -0.0026    0.0139    0.0077    0.0180    0.0135   -0.0263   -0.0131   -0.0102
          13   -0.0226   -0.0092    0.0087    0.0103   -0.0011    0.0028   -0.0173   -0.0044
          14    0.0007   -0.0003    0.0034   -0.0008    0.0030    0.0034    0.0013    0.0077
          15    0.0036   -0.0165    0.0107    0.0032   -0.0029    0.0070   -0.0100   -0.0084
          16   -0.0134   -0.0066   -0.0075   -0.0132    0.0106   -0.0193    0.0027   -0.0149
          17    0.0201   -0.0053   -0.0119   -0.0033    0.0091    0.0191   -0.0125    0.0047
          18    0.0077   -0.0113   -0.0046   -0.0165    0.0096    0.0021    0.0026   -0.0134
          19   -0.0212    0.0027   -0.0147   -0.0173   -0.0128   -0.0030    0.0069    0.0145
          20    0.0369   -0.0179    0.0042   -0.0074   -0.0026   -0.0123   -0.0218   -0.0115
          21    0.0150   -0.0147   -0.0075   -0.0249   -0.0138    0.0058    0.0041    0.0043
          22   -0.0268   -0.0044    0.0125   -0.0005    0.0068    0.0037    0.0204   -0.0068
          23    0.0036   -0.0077    0.0017    0.0028    0.0034   -0.0024    0.0087    0.0070
          24    0.0021   -0.0225   -0.0019    0.0094    0.0175   -0.0015    0.0030    0.0141
          25    0.0078   -0.0065   -0.0059    0.0036   -0.0050    0.0088    0.0114   -0.0239
          26    0.0256   -0.0099   -0.0086    0.0063   -0.0030    0.0031    0.0199   -0.0141
          27   -0.0137   -0.0075   -0.0167    0.0143   -0.0180    0.0053   -0.0214   -0.0138
          28   -0.0108   -0.0035    0.0050    0.0013   -0.0210    0.0023    0.0043    0.0147
          29   -0.0279    0.0096   -0.0043    0.0031    0.0053    0.0396    0.0110    0.0151
          30    0.0107   -0.0093    0.0105   -0.0031   -0.0237   -0.0002    0.0061    0.0057
          31    0.0424    0.0348    0.0354   -0.0450   -0.0656    0.0178   -0.0187   -0.1147
          32   -0.0185   -0.0042    0.0106    0.0621   -0.0759   -0.1126    0.1289   -0.0372
          33   -0.0394    0.0036   -0.0377    0.0360    0.0332    0.0021    0.0082    0.0555
          34    0.0979   -0.0627   -0.0015    0.0019    0.0294   -0.0216   -0.0401    0.0604
          35   -0.0450    0.0141    0.0546   -0.0511   -0.0032   -0.0004   -0.0906    0.0142
          36    0.0440   -0.0242   -0.0470    0.0429    0.0115   -0.0037    0.0524    0.0055
          37   -0.0082    0.0542   -0.0029   -0.0043   -0.0416    0.0205   -0.0410   -0.0108
          38    0.0186    0.0035   -0.0852    0.0641   -0.0007    0.0160   -0.0322    0.0116
          39    0.0115   -0.0177    0.0043    0.0002    0.0112   -0.0097    0.0161    0.0093
          40    0.0332    0.0483   -0.0441   -0.0241   -0.0354   -0.0426   -0.0450    0.1309
          41   -0.0630   -0.0974   -0.0204    0.0327   -0.0532    0.0062   -0.0401    0.0070
          42   -0.0130   -0.0275    0.0215    0.0130    0.0212    0.0219    0.0258   -0.0684
          43   -0.0139   -0.0816    0.0159    0.0275    0.0037   -0.0040   -0.0743    0.0166
          44    0.0120    0.0612    0.0356   -0.0353    0.0274   -0.0105   -0.0109    0.0020
          45   -0.0170   -0.0350   -0.0244    0.0199   -0.0204    0.0095    0.0199   -0.0087
          46   -0.0255   -0.0482   -0.0226   -0.0514   -0.0448    0.0463    0.0273    0.0281
          47   -0.0191    0.0170    0.0362    0.0541   -0.0355   -0.0640    0.0008    0.0082
          48    0.0045    0.0230    0.0110    0.0264    0.0238   -0.0293   -0.0164   -0.0157
          49    0.0329    0.0214    0.0074    0.0186    0.0267    0.0259    0.0019   -0.0090
          50   -0.0225    0.0204   -0.0401   -0.0363    0.0176   -0.1212    0.0607   -0.0308
          51   -0.0638   -0.0512   -0.0165   -0.0420   -0.0559   -0.0380   -0.0025    0.0199
          52   -0.0039    0.0531   -0.0087   -0.0100   -0.0255    0.0072    0.0079   -0.0281
          53    0.0387    0.0088   -0.0071    0.0053   -0.0115   -0.0411   -0.0122    0.0928
          54    0.0679    0.1479   -0.0659   -0.0180   -0.0778    0.0103   -0.0340   -0.0516
          55    0.0070   -0.0074    0.0466   -0.0293    0.0303    0.0065   -0.0119   -0.0190
          56    0.0217   -0.0106    0.0188   -0.0054    0.0170   -0.0095    0.0539    0.0201
          57   -0.0268   -0.0088    0.1215   -0.0588    0.0792   -0.0295    0.0347    0.0798
          58    0.0364    0.0573    0.0492    0.0979   -0.0586   -0.0488   -0.0088    0.0487
          59    0.0247   -0.0011   -0.0161    0.0126    0.0048   -0.0336   -0.0212    0.0141
          60    0.0483    0.0452    0.0656    0.0603   -0.0523    0.1095    0.0151    0.0308
          61   -0.0362    0.0239    0.0438    0.1183    0.0353   -0.0637   -0.0422   -0.0337
          62    0.0234   -0.0120    0.0027   -0.0018   -0.0060   -0.0653   -0.0408   -0.0203
          63    0.0348   -0.0112    0.0464    0.0773    0.0342    0.0719    0.0050   -0.0187
          64   -0.0348    0.0126   -0.0850   -0.0221    0.1122   -0.0342   -0.0604   -0.0354
          65   -0.0336    0.0151    0.0001    0.0002    0.0035    0.0597    0.0475    0.0101
          66   -0.0178    0.0129   -0.0477   -0.0277    0.0729    0.0128    0.0307   -0.0444


   Root No.      25        26        27        28        29        30        31        32

                25 A      26 A      27 A      28 A      29 A      30 A      31 A      32 A   

                1039.1    1047.1    1065.6    1074.1    1082.2    1102.0    1103.5    1153.5
  
           1   -0.0021    0.0163   -0.0081   -0.0144    0.0024   -0.0110   -0.0309   -0.0100
           2    0.0059    0.0061   -0.0030    0.0074    0.0006   -0.0010   -0.0032    0.0121
           3   -0.0149   -0.0017    0.0013   -0.0051    0.0045   -0.0044   -0.0261    0.0012
           4    0.0039   -0.0109    0.0054    0.0105    0.0116    0.0156    0.0196    0.0010
           5    0.0029    0.0214   -0.0008   -0.0063    0.0104    0.0058   -0.0044   -0.0032
           6    0.0107   -0.0282    0.0068    0.0082   -0.0007    0.0085    0.0170   -0.0033
           7    0.0084    0.0104    0.0036    0.0152   -0.0111   -0.0028   -0.0047   -0.0003
           8   -0.0077   -0.0045   -0.0018   -0.0091    0.0006    0.0049    0.0019   -0.0019
           9   -0.0108    0.0038   -0.0054   -0.0075    0.0003    0.0051   -0.0036   -0.0010
          10    0.0156    0.0037   -0.0010    0.0001    0.0037   -0.0012    0.0052   -0.0026
          11   -0.0030    0.0009   -0.0017    0.0010    0.0069   -0.0071    0.0049    0.0016
          12    0.0000   -0.0066   -0.0016   -0.0004   -0.0065    0.0001    0.0006    0.0049
          13    0.0073   -0.0101    0.0033   -0.0136   -0.0096   -0.0032    0.0074    0.0082
          14    0.0038   -0.0000    0.0054    0.0167   -0.0030   -0.0128   -0.0025    0.0006
          15    0.0108   -0.0005    0.0011   -0.0088    0.0034   -0.0141    0.0145    0.0013
          16    0.0119    0.0007   -0.0094    0.0075   -0.0020   -0.0019    0.0082    0.0030
          17   -0.0086   -0.0081    0.0020   -0.0092    0.0024    0.0016    0.0018   -0.0066
          18    0.0160    0.0022   -0.0078    0.0018   -0.0065    0.0085    0.0019   -0.0026
          19   -0.0127   -0.0012   -0.0157    0.0117   -0.0024    0.0084   -0.0096   -0.0005
          20   -0.0109   -0.0108   -0.0035   -0.0165   -0.0148    0.0139   -0.0075   -0.0023
          21   -0.0076    0.0026   -0.0165    0.0062    0.0064   -0.0041    0.0013   -0.0029
          22   -0.0106   -0.0178   -0.0030   -0.0104   -0.0100   -0.0047    0.0015   -0.0000
          23    0.0003   -0.0051   -0.0003    0.0015   -0.0111   -0.0049    0.0002   -0.0014
          24   -0.0141    0.0363   -0.0074   -0.0077   -0.0071    0.0006    0.0086    0.0013
          25   -0.0089   -0.0099    0.0018    0.0013    0.0135    0.0046    0.0030    0.0009
          26   -0.0055   -0.0150    0.0002    0.0021    0.0002   -0.0018    0.0026   -0.0002
          27    0.0093   -0.0071    0.0128    0.0240    0.0007    0.0001   -0.0065   -0.0014
          28   -0.0141   -0.0003    0.0231   -0.0061    0.0013   -0.0039   -0.0024   -0.0034
          29    0.0091   -0.0004    0.0053    0.0040   -0.0011    0.0057   -0.0026    0.0009
          30   -0.0054    0.0074    0.0175   -0.0073    0.0009    0.0016   -0.0045    0.0034
          31   -0.0002    0.1133   -0.0362   -0.0169   -0.0775   -0.1254   -0.0812    0.0607
          32    0.1161    0.0914   -0.0407   -0.0067   -0.0017    0.1413   -0.0500   -0.0831
          33   -0.0176   -0.0388    0.0125   -0.0032    0.0335    0.0321   -0.0078   -0.0218
          34    0.0294    0.0149    0.0148    0.0052    0.1410    0.0276   -0.0851    0.0157
          35    0.0397    0.0165    0.0150   -0.0026    0.0992    0.0323   -0.0465   -0.0025
          36   -0.0220   -0.0047   -0.0081    0.0005   -0.0397   -0.0167    0.0099    0.0033
          37   -0.0359    0.0650    0.0164    0.0376   -0.0461    0.0741    0.2200    0.0009
          38   -0.0524    0.1407   -0.0104   -0.0089   -0.0192    0.0302    0.0714    0.0022
          39    0.0146   -0.0348    0.0005   -0.0029    0.0157   -0.0097   -0.0458   -0.0023
          40    0.0990    0.0156   -0.0565   -0.1234   -0.0364   -0.0454    0.0289    0.0003
          41    0.0639   -0.0317   -0.0320   -0.1034   -0.0018   -0.0302    0.0396    0.0043
          42   -0.0559   -0.0078    0.0309    0.0686    0.0191    0.0258   -0.0169    0.0005
          43    0.0234    0.0556    0.0658    0.1789   -0.0432   -0.0244   -0.0483   -0.0291
          44   -0.0263    0.0276    0.0222    0.0651   -0.0210    0.0083   -0.0295   -0.0221
          45    0.0118   -0.0316   -0.0272   -0.0792    0.0215   -0.0012    0.0288    0.0199
          46   -0.0094    0.0125    0.0047    0.0006    0.0128    0.0017   -0.0041   -0.0159
          47   -0.0296   -0.0063   -0.2309    0.1031    0.0929   -0.1180    0.0687   -0.1025
          48    0.0048   -0.0076    0.0035   -0.0027   -0.0101    0.0019    0.0006    0.0116
          49    0.0191    0.0033   -0.0019   -0.0004    0.0035   -0.0006    0.0063   -0.0049
          50    0.0123    0.0602    0.2355   -0.0391    0.0650   -0.1203    0.0648   -0.0809
          51   -0.0363   -0.0069   -0.0036    0.0015   -0.0080    0.0046   -0.0138    0.0138
          52    0.0060   -0.0511    0.0044   -0.0039    0.0038   -0.0012   -0.0032   -0.0014
          53    0.0657   -0.0541    0.0347    0.0910   -0.0582   -0.0007    0.0185    0.0142
          54    0.0335   -0.0581    0.0125    0.0084    0.0319    0.0078   -0.0084   -0.0041
          55   -0.0359    0.0755   -0.0146   -0.0406    0.0899    0.0747    0.0368    0.0047
          56    0.0010   -0.0461   -0.0041    0.0037   -0.0520   -0.0439   -0.0135   -0.0022
          57   -0.0095    0.0257   -0.0200   -0.0277   -0.0338   -0.0177   -0.0055   -0.0014
          58   -0.0721   -0.0166    0.0168   -0.0065    0.0376   -0.0303   -0.0010    0.1384
          59   -0.0375   -0.0224    0.0043   -0.0072    0.0279   -0.0134    0.0131    0.1152
          60    0.0042    0.0222    0.0136   -0.0180   -0.0289    0.0205   -0.0378   -0.1687
          61    0.0029   -0.0173    0.0178   -0.0357   -0.0341    0.0519   -0.0341    0.0292
          62   -0.0371   -0.0197   -0.0085   -0.0230   -0.0394    0.0589   -0.0372    0.0205
          63    0.0645    0.0087    0.0221   -0.0213    0.0373   -0.0730    0.0503   -0.0317
          64   -0.0113   -0.0448   -0.0313   -0.0140   -0.0202   -0.0025   -0.0007   -0.1560
          65    0.0482    0.0296   -0.0056    0.0290    0.0154    0.0044    0.0040    0.1405
          66    0.0778    0.0356   -0.0465    0.0367    0.0157    0.0030    0.0083    0.1720


   Root No.      33        34        35        36        37        38        39        40

                33 A      34 A      35 A      36 A      37 A      38 A      39 A      40 A   

                1164.2    1181.6    1210.7    1227.0    1277.4    1333.9    1362.9    1374.4
  
           1    0.0019    0.0196    0.0311    0.0316    0.0300    0.0207   -0.0156   -0.0136
           2    0.0013    0.0014    0.0319   -0.0201   -0.0179    0.0126    0.0218   -0.0312
           3    0.0089   -0.0075   -0.0162   -0.0106   -0.0039   -0.0184    0.0038    0.0103
           4   -0.0071    0.0056    0.0080    0.0001   -0.0288    0.0147    0.0263    0.0037
           5    0.0033    0.0027    0.0132    0.0113   -0.0031    0.0135    0.0163    0.0176
           6   -0.0018    0.0025   -0.0007    0.0025    0.0075   -0.0029   -0.0092   -0.0070
           7   -0.0021   -0.0117    0.0105    0.0029    0.0084    0.0101    0.0215    0.0388
           8    0.0017    0.0060   -0.0137    0.0030    0.0168    0.0027   -0.0341    0.0090
           9   -0.0010    0.0029   -0.0023    0.0024   -0.0060   -0.0075    0.0040   -0.0157
          10    0.0040    0.0062   -0.0113   -0.0047   -0.0003   -0.0076    0.0074   -0.0150
          11    0.0005   -0.0045   -0.0061    0.0112   -0.0070    0.0125    0.0121   -0.0331
          12   -0.0046   -0.0082    0.0113    0.0036   -0.0007    0.0071   -0.0078    0.0172
          13   -0.0036   -0.0133    0.0056    0.0057   -0.0056   -0.0074   -0.0001    0.0039
          14   -0.0183   -0.0251    0.0268   -0.0146   -0.0194    0.0116   -0.0077   -0.0023
          15    0.0057    0.0148   -0.0094   -0.0161    0.0001    0.0080    0.0009   -0.0073
          16   -0.0015   -0.0014    0.0046   -0.0049    0.0015   -0.0093   -0.0010    0.0040
          17    0.0046    0.0111   -0.0094   -0.0015    0.0171   -0.0268   -0.0090    0.0200
          18   -0.0003   -0.0063   -0.0158    0.0011   -0.0062    0.0091    0.0014   -0.0044
          19   -0.0038   -0.0106    0.0044    0.0063   -0.0068   -0.0075    0.0038   -0.0019
          20   -0.0032   -0.0104    0.0139    0.0189    0.0064   -0.0151   -0.0051    0.0158
          21    0.0041    0.0118   -0.0035   -0.0042    0.0092    0.0087   -0.0045    0.0031
          22    0.0009    0.0002   -0.0142   -0.0016   -0.0006   -0.0132   -0.0154   -0.0018
          23    0.0071    0.0076   -0.0052    0.0075   -0.0235   -0.0123   -0.0056    0.0125
          24   -0.0025   -0.0029    0.0042   -0.0015    0.0062    0.0062    0.0056   -0.0016
          25    0.0016   -0.0030   -0.0051   -0.0114    0.0248    0.0063    0.0017   -0.0231
          26   -0.0007    0.0087   -0.0048   -0.0007   -0.0075   -0.0053   -0.0028   -0.0100
          27   -0.0004    0.0003    0.0025    0.0051   -0.0070   -0.0008    0.0004    0.0102
          28    0.0013    0.0029    0.0051   -0.0060    0.0038   -0.0126   -0.0024    0.0080
          29    0.0011   -0.0067   -0.0228   -0.0020   -0.0087    0.0124    0.0006    0.0014
          30   -0.0008   -0.0007   -0.0013    0.0083   -0.0026    0.0141    0.0025   -0.0093
          31    0.0505   -0.0817   -0.0881   -0.0810   -0.0472   -0.0296    0.0192    0.0152
          32   -0.0236   -0.0297   -0.0818    0.0586    0.0281   -0.0207   -0.0243    0.0429
          33   -0.0080    0.0283    0.0286    0.0251    0.0205    0.0002   -0.0064   -0.0018
          34   -0.0942   -0.0640   -0.0638   -0.1037   -0.0036   -0.0629   -0.0231    0.0134
          35   -0.0512   -0.0414   -0.0213   -0.0399    0.0588   -0.0065   -0.0255   -0.0523
          36    0.0205    0.0178    0.0032    0.0083   -0.0529   -0.0191    0.0162    0.0789
          37   -0.0827   -0.0211   -0.0249   -0.0358    0.0185   -0.0336   -0.0338    0.0140
          38   -0.0405   -0.0308   -0.0107   -0.0201    0.0704    0.0140   -0.0236   -0.0882
          39    0.0181    0.0074    0.0077    0.0103    0.0006    0.0134    0.0064   -0.0239
          40   -0.0093    0.0602   -0.0249    0.0078   -0.0492   -0.0207   -0.0517   -0.0487
          41   -0.0014    0.0510   -0.0495   -0.0151    0.0457   -0.0060    0.2127    0.0069
          42    0.0049   -0.0373    0.0149   -0.0066    0.0409    0.0128    0.1126    0.0447
          43   -0.0250    0.0984   -0.0530    0.0551   -0.0681   -0.0357   -0.1357   -0.0731
          44   -0.0141    0.0787   -0.0777    0.0355    0.0370   -0.0264    0.1260   -0.0089
          45    0.0130   -0.0699    0.0634   -0.0323   -0.0300    0.0223   -0.1701   -0.0006
          46    0.0134    0.0257   -0.0467   -0.0241   -0.0022    0.1546   -0.0566    0.0928
          47    0.0157    0.0313    0.0052   -0.0329    0.0279   -0.0240   -0.0214    0.0533
          48   -0.0074   -0.0139    0.0199    0.0103   -0.0009   -0.0305    0.0083   -0.0105
          49    0.0058    0.0093   -0.0189   -0.0096   -0.0014    0.0233   -0.0045    0.0055
          50    0.0159    0.0321    0.0121   -0.0344    0.0258   -0.0256   -0.0183    0.0491
          51   -0.0136   -0.0232    0.0500    0.0286    0.0043   -0.1543    0.0565   -0.0953
          52   -0.0084    0.0049   -0.0134    0.0002   -0.0095   -0.0147   -0.0154   -0.0001
          53    0.2607   -0.0777   -0.0063   -0.0357    0.1437    0.0132   -0.0139   -0.0472
          54   -0.0448    0.0169    0.0103    0.0091   -0.0289    0.0040    0.0100    0.0099
          55    0.2307    0.0183    0.0105    0.0253   -0.1064   -0.0390   -0.0077   -0.0028
          56   -0.1350   -0.0024   -0.0158   -0.0222    0.0692    0.0200    0.0014   -0.0237
          57   -0.0578   -0.0049   -0.0014   -0.0036    0.0223    0.0090    0.0029    0.0056
          58   -0.0034   -0.0101   -0.0658    0.0722   -0.0014    0.0487   -0.0072   -0.0082
          59   -0.0003   -0.0039   -0.0839    0.0589    0.0106    0.0198   -0.0141    0.0116
          60    0.0102    0.0238    0.0965   -0.0737    0.0082   -0.0523    0.0079    0.0063
          61    0.0131    0.0756   -0.0067   -0.1263   -0.0053    0.0298   -0.0131   -0.0052
          62    0.0109    0.0612    0.0077   -0.0939    0.0079    0.0180   -0.0192    0.0164
          63   -0.0137   -0.0794    0.0051    0.1413    0.0094   -0.0340    0.0099    0.0025
          64    0.0103   -0.0509   -0.0653    0.0061   -0.0389    0.0494    0.0173   -0.0384
          65   -0.0065    0.0411    0.0378   -0.0138    0.0305   -0.0445   -0.0175    0.0435
          66   -0.0103    0.0557    0.0735   -0.0055    0.0448   -0.0525   -0.0191    0.0393


   Root No.      41        42        43        44        45        46        47        48

                41 A      42 A      43 A      44 A      45 A      46 A      47 A      48 A   

                1380.8    1390.5    1417.4    1453.1    1489.2    1881.6    1883.6    1909.9
  
           1   -0.0186   -0.0147    0.0336    0.0034    0.0024   -0.0003    0.0082    0.0170
           2   -0.0207    0.0064   -0.0167   -0.0003    0.0941   -0.0025    0.0230   -0.0071
           3    0.0044    0.0095   -0.0193    0.0015   -0.0005   -0.0000   -0.0101   -0.0188
           4    0.0441    0.0075   -0.0325   -0.0173   -0.0160   -0.0047    0.0003    0.0026
           5    0.0010   -0.0290   -0.0342   -0.0292   -0.0275   -0.0279   -0.0035    0.0021
           6   -0.0018    0.0089    0.0165    0.0104    0.0072    0.0069    0.0010   -0.0014
           7    0.0163   -0.0108    0.0136    0.0568    0.0319   -0.0226   -0.0103    0.0162
           8    0.0175   -0.0150   -0.0312    0.0273    0.0361    0.0116   -0.0031    0.0125
           9   -0.0122    0.0106    0.0028   -0.0319   -0.0206    0.0049    0.0060   -0.0143
          10    0.0146   -0.0224    0.0086    0.0053    0.0056   -0.0003   -0.0082   -0.0170
          11   -0.0199    0.0006   -0.0307    0.0825   -0.0528   -0.0091    0.0250   -0.0107
          12   -0.0144    0.0239   -0.0085   -0.0079   -0.0046    0.0005    0.0082    0.0187
          13   -0.0033    0.0095   -0.0042   -0.0171    0.0071   -0.0264    0.0440   -0.1288
          14   -0.0012   -0.0019    0.0484   -0.0195   -0.0885   -0.0025   -0.0021   -0.0019
          15    0.0043   -0.0101    0.0006    0.0156   -0.0090    0.0315   -0.0493    0.1453
          16   -0.0037    0.0090   -0.0091    0.0105   -0.0105    0.0244   -0.1114   -0.0499
          17    0.0063    0.0078   -0.0114    0.0147   -0.0385    0.0047   -0.0237   -0.0076
          18    0.0056   -0.0087    0.0110   -0.0117    0.0137   -0.0270    0.1272    0.0567
          19   -0.0067    0.0095   -0.0044   -0.0136    0.0019    0.0269   -0.0393    0.1171
          20   -0.0016    0.0132   -0.0013   -0.0393    0.0314    0.0084   -0.0114    0.0272
          21    0.0072   -0.0109    0.0060    0.0163   -0.0016   -0.0310    0.0450   -0.1335
          22   -0.0092    0.0079    0.0177    0.0136    0.0089   -0.0733   -0.0191    0.0097
          23   -0.0027    0.0085    0.0294    0.0319    0.0135    0.1745    0.0418   -0.0224
          24    0.0027   -0.0047   -0.0116   -0.0111   -0.0065   -0.0106   -0.0021    0.0012
          25   -0.0053   -0.0037   -0.0243   -0.0394   -0.0232    0.1199    0.0295   -0.0153
          26   -0.0047    0.0083    0.0066   -0.0044   -0.0007   -0.1457   -0.0368    0.0210
          27    0.0032   -0.0004    0.0068    0.0149    0.0083   -0.0119   -0.0026    0.0006
          28    0.0004    0.0071   -0.0071    0.0054   -0.0138   -0.0240    0.1121    0.0496
          29    0.0128   -0.0135    0.0218   -0.0361    0.0332    0.0071   -0.0306   -0.0108
          30   -0.0019   -0.0075    0.0070   -0.0040    0.0138    0.0268   -0.1253   -0.0555
          31    0.0242    0.0185   -0.0349   -0.0042   -0.0055   -0.0005   -0.0009    0.0006
          32    0.0205   -0.0095    0.0158   -0.0103   -0.0761   -0.0104    0.0204   -0.0143
          33   -0.0111   -0.0016    0.0033    0.0041    0.0059    0.0002   -0.0045   -0.0066
          34   -0.1350   -0.0400    0.0051    0.0177    0.0627   -0.0123   -0.0020    0.0006
          35    0.0233    0.0581    0.0347    0.0232    0.0317   -0.0292   -0.0043    0.0006
          36   -0.1158   -0.1147   -0.0473   -0.0334   -0.0208    0.0078    0.0034   -0.0046
          37   -0.1231   -0.0540    0.0295    0.0105    0.0285   -0.0064    0.0007    0.0011
          38    0.1019    0.1181    0.0555    0.0375    0.0339   -0.0045   -0.0002    0.0017
          39    0.0669    0.0481    0.0062    0.0093    0.0005    0.0075   -0.0005   -0.0010
          40   -0.0176    0.0149   -0.0127   -0.0465   -0.0201   -0.0177   -0.0025   -0.0025
          41   -0.0449    0.0368    0.0577   -0.0221   -0.0291    0.0003   -0.0029    0.0078
          42   -0.0028    0.0040    0.0420    0.0296    0.0007    0.0045   -0.0003    0.0035
          43   -0.0123    0.0139   -0.0552   -0.0603   -0.0036   -0.0275    0.0021   -0.0194
          44   -0.0374    0.0364    0.0057   -0.0352    0.0026   -0.0018    0.0060   -0.0192
          45    0.0452   -0.0431   -0.0370    0.0295    0.0106    0.0160   -0.0059    0.0220
          46   -0.0782    0.1042   -0.0290   -0.0109   -0.0083   -0.0001   -0.0035   -0.0094
          47    0.0320   -0.0024    0.0325   -0.0792    0.0508   -0.0068    0.0228   -0.0091
          48    0.0060   -0.0057   -0.0012    0.0000   -0.0042    0.0002    0.0056    0.0125
          49   -0.0029    0.0018    0.0012    0.0025    0.0028   -0.0002   -0.0054   -0.0104
          50    0.0326   -0.0053    0.0323   -0.0756    0.0496   -0.0068    0.0207   -0.0084
          51    0.0768   -0.1049    0.0287    0.0130    0.0072    0.0005    0.0024    0.0081
          52   -0.0070    0.0104    0.0204    0.0173    0.0112   -0.0934   -0.0245    0.0127
          53   -0.0356   -0.0175   -0.0292   -0.0591   -0.0318   -0.0382   -0.0095    0.0042
          54    0.0121    0.0003   -0.0023    0.0050    0.0021    0.0414    0.0107   -0.0055
          55   -0.0273    0.0328    0.0695    0.0145   -0.0071   -0.0780   -0.0202    0.0115
          56    0.0076   -0.0118   -0.0485   -0.0368   -0.0096   -0.0654   -0.0176    0.0129
          57    0.0085   -0.0082   -0.0150    0.0015    0.0043    0.0393    0.0103   -0.0066
          58    0.0097   -0.0287    0.0419   -0.0306    0.0165    0.0040   -0.0142   -0.0011
          59    0.0213   -0.0238    0.0321   -0.0220   -0.0143   -0.0205    0.0964    0.0517
          60   -0.0156    0.0316   -0.0471    0.0360   -0.0166   -0.0033    0.0109   -0.0024
          61    0.0235   -0.0337    0.0422    0.0053   -0.0399    0.0024   -0.0078    0.0036
          62    0.0254   -0.0237    0.0404   -0.0220   -0.0046   -0.0213    0.0283   -0.1066
          63   -0.0286    0.0374   -0.0469   -0.0094    0.0443   -0.0010    0.0092   -0.0054
          64    0.0038   -0.0295    0.0174   -0.0048    0.0316   -0.0031    0.0096   -0.0021
          65    0.0109    0.0185    0.0005   -0.0275   -0.0078   -0.0191    0.0949    0.0503
          66   -0.0070    0.0315   -0.0193    0.0083   -0.0347    0.0043   -0.0176   -0.0016


   Root No.      49        50        51        52        53        54        55        56

                49 A      50 A      51 A      52 A      53 A      54 A      55 A      56 A   

                2847.4    2930.6    2932.3    2949.3    3008.3    3009.6    3026.4    3043.0
  
           1   -0.0217    0.0001   -0.0001   -0.0010    0.0001    0.0000   -0.0009   -0.0001
           2   -0.0016    0.0000    0.0002   -0.0002   -0.0000    0.0003    0.0001   -0.0003
           3   -0.0645    0.0002   -0.0003   -0.0029   -0.0002   -0.0001   -0.0001   -0.0003
           4   -0.0008   -0.0000    0.0000   -0.0015    0.0000   -0.0001   -0.0218   -0.0002
           5    0.0015   -0.0000    0.0000   -0.0196   -0.0000    0.0002    0.0310    0.0001
           6    0.0039   -0.0001    0.0002   -0.0545   -0.0000    0.0000   -0.0087    0.0001
           7    0.0000    0.0006   -0.0206   -0.0000   -0.0002    0.0199   -0.0002   -0.0000
           8    0.0000    0.0005   -0.0164   -0.0000    0.0003   -0.0343    0.0002   -0.0001
           9    0.0002    0.0016   -0.0526   -0.0000   -0.0000    0.0001    0.0000    0.0000
          10    0.0000   -0.0432   -0.0013    0.0000    0.0252    0.0003    0.0000    0.0007
          11   -0.0000   -0.0011    0.0000   -0.0000   -0.0007   -0.0000   -0.0000    0.0001
          12   -0.0000   -0.0402   -0.0013    0.0001   -0.0280   -0.0002   -0.0000   -0.0009
          13    0.0006   -0.0002    0.0003   -0.0003   -0.0001   -0.0003    0.0003    0.0004
          14   -0.0006   -0.0000    0.0001    0.0001   -0.0002   -0.0005   -0.0001    0.0004
          15   -0.0006   -0.0002   -0.0005    0.0001    0.0002    0.0003   -0.0001   -0.0005
          16    0.0001   -0.0002   -0.0000   -0.0001   -0.0001    0.0000   -0.0004    0.0134
          17    0.0013    0.0000   -0.0000   -0.0002    0.0000   -0.0000    0.0002   -0.0313
          18   -0.0002   -0.0002    0.0000   -0.0001    0.0001    0.0000    0.0002   -0.0129
          19   -0.0006   -0.0001   -0.0003    0.0000   -0.0016    0.0004   -0.0000   -0.0028
          20   -0.0000    0.0001   -0.0006    0.0000    0.0050   -0.0009   -0.0000    0.0061
          21    0.0003    0.0001    0.0002   -0.0000    0.0019   -0.0004    0.0000    0.0032
          22   -0.0000    0.0000   -0.0001   -0.0010   -0.0000   -0.0001    0.0065    0.0001
          23   -0.0000    0.0000   -0.0001    0.0004   -0.0000    0.0001    0.0000    0.0000
          24   -0.0001    0.0000   -0.0002    0.0002    0.0000    0.0000   -0.0022   -0.0000
          25   -0.0000    0.0000   -0.0001    0.0001   -0.0000    0.0024   -0.0003    0.0000
          26   -0.0000   -0.0000    0.0003   -0.0001   -0.0000    0.0041   -0.0005    0.0001
          27   -0.0000   -0.0000   -0.0001   -0.0003    0.0000   -0.0017    0.0002   -0.0000
          28   -0.0006   -0.0001   -0.0000   -0.0000   -0.0012   -0.0000   -0.0000    0.0093
          29    0.0000   -0.0001    0.0000    0.0000   -0.0040   -0.0000   -0.0002    0.0256
          30    0.0002    0.0001    0.0000   -0.0000    0.0017    0.0000    0.0000   -0.0122
          31    0.2746   -0.0006    0.0008    0.0159    0.0003    0.0002   -0.0000    0.0014
          32    0.0211   -0.0001    0.0005    0.0004    0.0000   -0.0000    0.0006   -0.0017
          33    0.7841   -0.0012    0.0023    0.0318    0.0009    0.0007    0.0003    0.0046
          34    0.0061   -0.0001    0.0003   -0.1454   -0.0002    0.0010    0.1388    0.0006
          35   -0.0233    0.0003   -0.0004    0.3165    0.0005   -0.0022   -0.3233   -0.0031
          36   -0.0182    0.0002   -0.0004    0.2322    0.0004   -0.0019   -0.2780   -0.0020
          37   -0.0083    0.0002   -0.0003    0.1651   -0.0001    0.0005    0.1303    0.0003
          38    0.0067   -0.0001   -0.0000   -0.0849    0.0000   -0.0001   -0.0468   -0.0002
          39   -0.0339    0.0004   -0.0009    0.4259   -0.0003    0.0017    0.3844    0.0011
          40   -0.0011   -0.0088    0.2842    0.0003    0.0019   -0.2268    0.0012   -0.0002
          41    0.0001    0.0039   -0.1222   -0.0002   -0.0007    0.0731   -0.0004    0.0000
          42   -0.0016   -0.0116    0.3724    0.0001    0.0028   -0.3234    0.0017   -0.0003
          43    0.0002    0.0010   -0.0328   -0.0002   -0.0001   -0.0122   -0.0000   -0.0002
          44   -0.0025   -0.0094    0.3168    0.0010   -0.0025    0.3389   -0.0017    0.0008
          45   -0.0021   -0.0077    0.2624    0.0009   -0.0022    0.3203   -0.0015    0.0009
          46   -0.0002    0.0646    0.0020   -0.0001    0.0967    0.0010    0.0001    0.0031
          47    0.0000    0.0114    0.0004    0.0000    0.0108    0.0000   -0.0000    0.0027
          48    0.0007    0.4372    0.0132   -0.0005    0.4104    0.0041    0.0004    0.0147
          49    0.0021    0.4587    0.0138   -0.0001   -0.3984   -0.0045   -0.0004   -0.0135
[...]
 EFF. MASS   3.6759

 VIBRATION   40   40A         ATOM PAIR      ENERGY CONTRIBUTION    RADIAL
 FREQ.      1374.39         C  3 -- C  9         +10.5% ( 45.9%)     88.0%
 T-DIPOLE    0.0619         C  4 -- H 16          +8.0% ( 40.1%)      3.1%
 TRAVEL      0.0834         C  4 -- H 17          +8.0% ( 40.1%)      2.9%
 RED. MASS   0.7350         C  3 -- H 15          +7.5% ( 38.8%)      0.8%
 EFF. MASS   7.0529

 VIBRATION   41   41A         ATOM PAIR      ENERGY CONTRIBUTION    RADIAL
 FREQ.      1380.83         C  2 -- H 12         +17.3% ( 52.0%)      2.5%
 T-DIPOLE    0.0430         C  2 -- H 13         +16.4% ( 50.7%)      2.3%
 TRAVEL      0.0989         C  1 -- C  2         +11.1% ( 41.7%)     88.5%
 RED. MASS   0.5504         C  2 -- C  8          +7.2% ( 33.6%)     21.6%
 EFF. MASS   4.9916

 VIBRATION   42   42A         ATOM PAIR      ENERGY CONTRIBUTION    RADIAL
 FREQ.      1390.47         C  2 -- H 13         +11.1% ( 41.9%)      4.7%
 T-DIPOLE    0.0753         C  2 -- H 12         +10.4% ( 40.6%)      6.7%
 TRAVEL      0.0970         C  4 -- H 17          +8.2% ( 36.1%)      7.7%
 RED. MASS   0.3738         C  4 -- H 16          +8.1% ( 35.8%)      8.2%
 EFF. MASS   5.1576

 VIBRATION   43   43A         ATOM PAIR      ENERGY CONTRIBUTION    RADIAL
 FREQ.      1417.39         C  2 -- C  8         +10.7% ( 49.0%)     94.3%
 T-DIPOLE    0.0735         C  1 -- C  5          +9.9% ( 47.3%)     95.8%
 TRAVEL      0.0717         C  1 -- C  2          +8.9% ( 44.9%)     73.3%
 RED. MASS   1.0258         C  3 -- C  5          +8.7% ( 44.1%)     57.8%
 EFF. MASS   9.2464

 VIBRATION   44   44A         ATOM PAIR      ENERGY CONTRIBUTION    RADIAL
 FREQ.      1453.08         C  4 -- C  7         +13.4% ( 57.8%)     88.5%
 T-DIPOLE    0.1088         C  4 -- C 10         +11.4% ( 53.3%)     69.6%
 TRAVEL      0.0663         C  3 -- C  9         +10.1% ( 50.2%)     86.3%
 RED. MASS   1.8046         C  4 -- H 16          +8.7% ( 46.6%)      0.1%
 EFF. MASS  10.5601

 VIBRATION   45   45A         ATOM PAIR      ENERGY CONTRIBUTION    RADIAL
 FREQ.      1489.20         C  1 -- C  5         +18.7% ( 67.6%)     76.3%
 T-DIPOLE    0.0729         C  1 -- C  6         +11.3% ( 52.6%)     80.3%
 TRAVEL      0.0639         C  3 -- C  5         +11.0% ( 52.0%)     86.5%
 RED. MASS   2.0745         C  1 -- C  2          +8.5% ( 45.6%)      2.2%
 EFF. MASS  11.1005

 VIBRATION   46   46A         ATOM PAIR      ENERGY CONTRIBUTION    RADIAL
 FREQ.      1881.62         C  8 -- C  9         +40.9% ( 94.3%)    100.0%
 T-DIPOLE    0.1464         C  2 -- C  8         +13.2% ( 53.6%)     52.3%
 TRAVEL      0.0550         C  3 -- C  9         +13.0% ( 53.2%)     50.4%
 RED. MASS   4.6349         C  8 -- H 18         +12.1% ( 51.3%)      4.5%
 EFF. MASS  11.8682         C  9 -- H 19         +12.1% ( 51.2%)      4.6%

 VIBRATION   47   47A         ATOM PAIR      ENERGY CONTRIBUTION    RADIAL
 FREQ.      1883.61         C  6 -- C 10         +36.5% ( 89.4%)    100.0%
 T-DIPOLE    0.1321         C  1 -- C  6         +11.7% ( 50.7%)     56.6%
 TRAVEL      0.0549         C  4 -- C 10         +11.7% ( 50.7%)     57.3%
 RED. MASS   3.7947         C  6 -- H 20         +10.8% ( 48.6%)      4.7%
 EFF. MASS  11.8946         C 10 -- H 22         +10.7% ( 48.5%)      4.5%

 VIBRATION   48   48A         ATOM PAIR      ENERGY CONTRIBUTION    RADIAL
 FREQ.      1909.90         C  5 -- C  7         +37.0% ( 89.6%)     99.2%
 T-DIPOLE    0.0626         C  3 -- C  5         +12.9% ( 52.9%)     34.6%
 TRAVEL      0.0545         C  1 -- C  5         +12.9% ( 52.9%)     30.4%
 RED. MASS   4.0747         C  4 -- C  7         +10.9% ( 48.7%)     49.2%
 EFF. MASS  11.8921         C  7 -- H 21         +10.1% ( 46.8%)      4.2%

 VIBRATION   49   49A         ATOM PAIR      ENERGY CONTRIBUTION    RADIAL
 FREQ.      2847.35         C  1 -- H 11         +96.6% ( 99.8%)    100.0%
 T-DIPOLE    0.0757         C  1 -- C  2          +1.0% ( 10.2%)      8.5%
 TRAVEL      0.1284         C  1 -- C  6          +1.0% ( 10.1%)      8.2%
 RED. MASS   0.9236         C  1 -- C  5          +1.0% ( 10.1%)      8.0%
 EFF. MASS   1.4366

 VIBRATION   50   50A         ATOM PAIR      ENERGY CONTRIBUTION    RADIAL
 FREQ.      2930.59         C  4 -- H 17         +50.8% ( 73.9%)     96.8%
 T-DIPOLE    0.0298         C  4 -- H 16         +47.0% ( 71.1%)     96.3%
 TRAVEL      0.1225         C  4 -- C  7          +1.1% ( 10.8%)      0.0%
 RED. MASS   0.5173         C  4 -- C 10          +1.1% ( 10.8%)      0.0%
 EFF. MASS   1.5344

 VIBRATION   51   51A         ATOM PAIR      ENERGY CONTRIBUTION    RADIAL
 FREQ.      2932.30         C  3 -- H 14         +55.9% ( 77.6%)     97.2%
 T-DIPOLE    0.0376         C  3 -- H 15         +41.8% ( 67.0%)     95.7%
 TRAVEL      0.1223         C  3 -- C  9          +1.1% ( 10.9%)      0.1%
 RED. MASS   0.5272         C  3 -- C  5          +1.1% ( 10.9%)      0.0%
 EFF. MASS   1.5378

 VIBRATION   52   52A         ATOM PAIR      ENERGY CONTRIBUTION    RADIAL
 FREQ.      2949.28         C  2 -- H 13         +53.4% ( 75.8%)     96.9%
 T-DIPOLE    0.0495         C  2 -- H 12         +44.1% ( 68.9%)     96.0%
 TRAVEL      0.1219         C  2 -- C  8          +1.1% ( 11.0%)      0.0%
 RED. MASS   0.5189         C  1 -- C  2          +1.1% ( 10.9%)      0.0%
 EFF. MASS   1.5387

 VIBRATION   53   53A         ATOM PAIR      ENERGY CONTRIBUTION    RADIAL
 FREQ.      3008.33         C  4 -- H 16         +50.3% ( 70.0%)     97.9%
 T-DIPOLE    0.0812         C  4 -- H 17         +46.3% ( 67.1%)     97.5%
 TRAVEL      0.1321         C  7 -- H 21          +1.2% ( 10.9%)    100.0%
 RED. MASS   0.4667         C 10 -- H 22          +0.8% (  8.7%)     99.9%
 EFF. MASS   1.2844

 VIBRATION   54   54A         ATOM PAIR      ENERGY CONTRIBUTION    RADIAL
 FREQ.      3009.59         C  3 -- H 15         +56.6% ( 74.2%)     98.5%
 T-DIPOLE    0.0865         C  3 -- H 14         +41.2% ( 63.3%)     96.6%
 TRAVEL      0.1322         C  9 -- H 19          +0.9% (  9.3%)     99.9%
 RED. MASS   0.4856         C  3 -- C  9          +0.7% (  8.1%)     19.6%
 EFF. MASS   1.2822

 VIBRATION   55   55A         ATOM PAIR      ENERGY CONTRIBUTION    RADIAL
 FREQ.      3026.44         C  2 -- H 12         +53.2% ( 72.0%)     98.2%
 T-DIPOLE    0.0701         C  2 -- H 13         +43.7% ( 65.2%)     97.1%
 TRAVEL      0.1319         C  8 -- H 18          +1.8% ( 13.1%)    100.0%
 RED. MASS   0.4719         C  2 -- C  8          +0.6% (  7.9%)     18.4%
 EFF. MASS   1.2798

 VIBRATION   56   56A         ATOM PAIR      ENERGY CONTRIBUTION    RADIAL
 FREQ.      3043.00         C  6 -- H 20         +56.1% ( 76.0%)    100.0%
 T-DIPOLE    0.2350         C 10 -- H 22         +39.1% ( 63.4%)    100.0%
 TRAVEL      0.1234         C  7 -- H 21          +2.3% ( 15.5%)    100.0%
 RED. MASS   0.4566         C  6 -- C 10          +1.1% ( 10.4%)      0.6%
 EFF. MASS   1.4561

 VIBRATION   57   57A         ATOM PAIR      ENERGY CONTRIBUTION    RADIAL
 FREQ.      3045.84         C  9 -- H 19         +50.0% ( 71.7%)    100.0%
 T-DIPOLE    0.3468         C  8 -- H 18         +41.2% ( 65.1%)    100.0%
 TRAVEL      0.1233         C  7 -- H 21          +5.1% ( 22.9%)    100.0%
 RED. MASS   0.4114         C  8 -- C  9          +1.0% ( 10.2%)      0.1%
 EFF. MASS   1.4565

 VIBRATION   58   58A         ATOM PAIR      ENERGY CONTRIBUTION    RADIAL
 FREQ.      3046.36         C  7 -- H 21         +88.1% ( 95.2%)    100.0%
 T-DIPOLE    0.2657         C  9 -- H 19          +2.7% ( 16.7%)    100.0%
 TRAVEL      0.1209         C  8 -- H 18          +2.5% ( 16.1%)    100.0%
 RED. MASS   0.7671         C  6 -- H 20          +2.4% ( 15.7%)    100.0%
 EFF. MASS   1.5137

 VIBRATION   59   59A         ATOM PAIR      ENERGY CONTRIBUTION    RADIAL
 FREQ.      3063.66         C 10 -- H 22         +57.1% ( 76.6%)     99.9%
 T-DIPOLE    0.2731         C  6 -- H 20         +38.3% ( 62.8%)     99.9%
 TRAVEL      0.1177         C  6 -- C 10          +2.0% ( 14.5%)     98.4%
 RED. MASS   0.4742         C  4 -- C 10          +0.9% (  9.8%)     15.4%
 EFF. MASS   1.5899

 VIBRATION   60   60A         ATOM PAIR      ENERGY CONTRIBUTION    RADIAL
 FREQ.      3066.07         C  8 -- H 18         +51.7% ( 72.9%)     99.9%
 T-DIPOLE    0.2865         C  9 -- H 19         +43.6% ( 66.9%)     99.9%
 TRAVEL      0.1177         C  8 -- C  9          +2.0% ( 14.4%)     99.7%
 RED. MASS   0.4579         C  2 -- C  8          +0.9% (  9.4%)     16.5%
 EFF. MASS   1.5865

      SYMMETRY NUMBER FOR POINT-GROUP C1  =  1


          SYSTEM IS A GROUND STATE



 InChI=1S/C10H12/c1-2-6-10-8-4-3-7-9(10)5-1/h1-3,7-9H,4-6H2


          MOLECULE IS NOT LINEAR

          THERE ARE 60 GENUINE VIBRATIONS IN THIS SYSTEM
          THIS THERMODYNAMICS CALCULATION IS LIMITED TO
          MOLECULES WHICH HAVE NO INTERNAL ROTATIONS




                    CALCULATED THERMODYNAMIC PROPERTIES
                                          *
   TEMP. (K)   PARTITION FUNCTION   H.O.F.    ENTHALPY  HEAT CAPACITY ENTROPY
                                   KCAL/MOL   CAL/MOLE    CAL/K/MOL  CAL/K/MOL


 298.00  VIB.     0.4552D+02                  3369.8562    27.6726    18.8955
         ROT.     0.5263D+06                   888.2813     2.9808    29.1596
         INT.     0.2396D+08                  4258.1375    30.6534    48.0551
         TRA.     0.1470D+28                  1480.4688     4.9680    40.5480
         TOT.                       29.342    5738.6063    35.6215    88.6031

 200.00  VIB.     0.8094D+01                  1279.2737    15.3513    10.5519
         ROT.     0.2894D+06                   596.1620     2.9808    27.9710
         INT.     0.2342D+07                  1875.4357    18.3321    38.5228
         TRA.     0.8080D+27                   993.6033     4.9680    38.5668
         TOT.                       26.473    2869.0389    23.3001    77.0896

 210.00  VIB.     0.9523D+01                  1438.4442    16.4890    11.3282
         ROT.     0.3114D+06                   625.9700     2.9808    28.1164
         INT.     0.2965D+07                  2064.4142    19.4698    39.4446
         TRA.     0.8694D+27                  1043.2834     4.9680    38.8092
         TOT.                       26.711    3107.6976    24.4378    78.2538

 220.00  VIB.     0.1124D+02                  1609.1728    17.6625    12.1222
         ROT.     0.3339D+06                   655.7781     2.9808    28.2551
         INT.     0.3752D+07                  2264.9509    20.6433    40.3773
         TRA.     0.9322D+27                  1092.9636     4.9680    39.0403
         TOT.                       26.962    3357.9145    25.6114    79.4176

 230.00  VIB.     0.1331D+02                  1791.8055    18.8693    12.9339
         ROT.     0.3569D+06                   685.5862     2.9808    28.3876
         INT.     0.4749D+07                  2477.3918    21.8501    41.3214
         TRA.     0.9965D+27                  1142.6437     4.9680    39.2612
         TOT.                       27.224    3620.0355    26.8181    80.5826

 240.00  VIB.     0.1580D+02                  1986.6591    20.1061    13.7630
         ROT.     0.3804D+06                   715.3943     2.9808    28.5144
         INT.     0.6012D+07                  2702.0534    23.0869    42.2774
         TRA.     0.1062D+28                  1192.3239     4.9680    39.4726
         TOT.                       27.498    3894.3773    28.0549    81.7500

 250.00  VIB.     0.1883D+02                  2194.0157    21.3693    14.6093
         ROT.     0.4044D+06                   745.2024     2.9808    28.6361
         INT.     0.7615D+07                  2939.2182    24.3501    43.2454
         TRA.     0.1129D+28                  1242.0041     4.9680    39.6754
         TOT.                       27.785    4181.2222    29.3181    82.9208

 260.00  VIB.     0.2250D+02                  2414.1195    22.6549    15.4724
         ROT.     0.4289D+06                   775.0105     2.9808    28.7530
         INT.     0.9652D+07                  3189.1300    25.6357    44.2254
         TRA.     0.1198D+28                  1291.6842     4.9680    39.8703
         TOT.                       28.084    4480.8143    30.6037    84.0957

 270.00  VIB.     0.2697D+02                  2647.1742    23.9588    16.3518
         ROT.     0.4539D+06                   804.8186     2.9808    28.8655
         INT.     0.1224D+08                  3451.9928    26.9396    45.2173
         TRA.     0.1267D+28                  1341.3644     4.9680    40.0578
         TOT.                       28.397    4793.3572    31.9076    85.2751

 280.00  VIB.     0.3243D+02                  2893.3426    25.2769    17.2469
         ROT.     0.4794D+06                   834.6267     2.9808    28.9739
         INT.     0.1554D+08                  3727.9693    28.2577    46.2208
         TRA.     0.1338D+28                  1391.0445     4.9680    40.2384
         TOT.                       28.723    5119.0139    33.2258    86.4592

 290.00  VIB.     0.3910D+02                  3152.7467    26.6053    18.1570
         ROT.     0.5053D+06                   864.4348     2.9808    29.0785
         INT.     0.1976D+08                  4017.1815    29.5861    47.2356
         TRA.     0.1411D+28                  1440.7247     4.9680    40.4128
         TOT.                       29.062    5457.9062    34.5541    87.6483

 300.00  VIB.     0.4729D+02                  3425.4687    27.9399    19.0815
         ROT.     0.5316D+06                   894.2429     2.9808    29.1796
         INT.     0.2514D+08                  4319.7116    30.9207    48.2611
         TRA.     0.1484D+28                  1490.4049     4.9680    40.5812
         TOT.                       29.414    5810.1165    35.8887    88.8423

 310.00  VIB.     0.5735D+02                  3711.5531    29.2772    20.0194
         ROT.     0.5584D+06                   924.0510     2.9808    29.2773
         INT.     0.3203D+08                  4635.6042    32.2580    49.2967
         TRA.     0.1559D+28                  1540.0850     4.9680    40.7441
         TOT.                       29.779    6175.6892    37.2260    90.0408

 320.00  VIB.     0.6975D+02                  4011.0091    30.6136    20.9700
         ROT.     0.5857D+06                   953.8591     2.9808    29.3720
         INT.     0.4085D+08                  4964.8682    33.5944    50.3420
         TRA.     0.1635D+28                  1589.7652     4.9680    40.9018
         TOT.                       30.158    6554.6334    38.5625    91.2438

 330.00  VIB.     0.8507D+02                  4323.8127    31.9462    21.9325
         ROT.     0.6133D+06                   983.6672     2.9808    29.4637
         INT.     0.5218D+08                  5307.4799    34.9270    51.3962
         TRA.     0.1713D+28                  1639.4454     4.9680    41.0547
         TOT.                       30.551    6946.9253    39.8950    92.4509

 340.00  VIB.     0.1040D+03                  4649.9104    33.2720    22.9059
         ROT.     0.6414D+06                  1013.4753     2.9808    29.5527
         INT.     0.6672D+08                  5663.3857    36.2528    52.4586
         TRA.     0.1791D+28                  1689.1255     4.9680    41.2030
         TOT.                       30.956    7352.5112    41.2208    93.6616

 350.00  VIB.     0.1275D+03                  4989.2215    34.5885    23.8894
         ROT.     0.6699D+06                  1043.2834     2.9808    29.6391
         INT.     0.8543D+08                  6032.5049    37.5693    53.5284
         TRA.     0.1871D+28                  1738.8057     4.9680    41.3470
         TOT.                       31.375    7771.3106    42.5373    94.8755

 360.00  VIB.     0.1567D+03                  5341.6416    35.8934    24.8821
         ROT.     0.6989D+06                  1073.0915     2.9808    29.7230
         INT.     0.1095D+09                  6414.7331    38.8742    54.6051
         TRA.     0.1951D+28                  1788.4859     4.9680    41.4870
         TOT.                       31.807    8203.2189    43.8423    96.0921

 370.00  VIB.     0.1931D+03                  5707.0450    37.1849    25.8832
         ROT.     0.7282D+06                  1102.8996     2.9808    29.8047
         INT.     0.1406D+09                  6809.9446    40.1657    55.6879
         TRA.     0.2033D+28                  1838.1660     4.9680    41.6231
         TOT.                       32.252    8648.1107    45.1337    97.3110

 380.00  VIB.     0.2384D+03                  6085.2881    38.4611    26.8918
         ROT.     0.7579D+06                  1132.7077     2.9808    29.8842
         INT.     0.1807D+09                  7217.9958    41.4419    56.7760
         TRA.     0.2116D+28                  1887.8462     4.9680    41.7556
         TOT.                       32.710    9105.8420    46.4099    98.5316

 390.00  VIB.     0.2950D+03                  6476.2117    39.7207    27.9072
         ROT.     0.7880D+06                  1162.5158     2.9808    29.9616
         INT.     0.2325D+09                  7638.7275    42.7015    57.8688
         TRA.     0.2200D+28                  1937.5263     4.9680    41.8846
         TOT.                       33.180    9576.2538    47.6696    99.7534

 400.00  VIB.     0.3659D+03                  6879.6433    40.9625    28.9285
         ROT.     0.8185D+06                  1192.3239     2.9808    30.0371
         INT.     0.2995D+09                  8071.9672    43.9434    58.9656
         TRA.     0.2285D+28                  1987.2065     4.9680    42.0104
         TOT.                       33.663   10059.1737    48.9114   100.9760

   *: NOTE: HEATS OF FORMATION ARE RELATIVE TO THE
            ELEMENTS IN THEIR STANDARD STATE AT 298K
              (=  Standard Enthalpy of Formation).

            Hvib:  Zero-point energy is not included.
                   frequencies of less than zero cm-1 are not included.
            Hrot = (3/2)RT
            Htra = (3/2)RT + pV = (5/2)RT

            Heat capacity is Cp, not Cv

          For more information, see: HTTP://OpenMOPAC.net/Manual/thermochemistry.html


           FORCE CONSTANT IN CARTESIAN COORDINATES (Millidynes/A)

    ATOM   CHEMICAL       X               Y               Z
   NUMBER   SYMBOL  FORCE CONSTANT  FORCE CONSTANT  FORCE CONSTANT

      1       C        8.074471        9.639830        8.352932
      2       C        8.122481        9.221580        7.998463
      3       C        8.939485        8.940644        8.118115
      4       C        8.257124        9.475467        8.435279
      5       C        8.676977        9.565942        9.987612
      6       C        8.334009        9.404810        9.704274
      7       C        7.989184        9.747480        9.733514
      8       C       10.569723       13.390958        3.375211
      9       C       10.187671       13.689210        3.404588
     10       C        8.081872        9.585028        9.738234
     11       H        1.083509        0.653663        4.059611
     12       H        1.188379        3.015631        2.151925
     13       H        1.185297        0.744636        4.341637
     14       H        2.056113        0.846095        3.238680
     15       H        0.682375        3.045503        2.559830
     16       H        0.773212        0.680091        4.736711
     17       H        4.794644        0.663323        0.707880
     18       H        4.646135        0.757161        0.850136
     19       H        1.488473        3.885202        0.879232
     20       H        1.098524        4.050691        1.093773
     21       H        0.995507        4.027018        1.219363
     22       H        0.976456        3.925874        1.351984

 **********************
 *                    *
 * JOB ENDED NORMALLY *
 *                    *
 **********************



 TOTAL JOB TIME:             8.39 SECONDS

 == MOPAC DONE ==
