 *******************************************************************************
 ** Site#: 14399        For non-commercial use only    Version 18.184L 64BITS **
 *******************************************************************************
 ** Cite this program as: MOPAC2016, Version: 18.184L, James J. P. Stewart,   **
 ** Stewart Computational Chemistry, web: HTTP://OpenMOPAC.net. Days left:  20**
 *******************************************************************************
 **                                                                           **
 **                                MOPAC2016                                  **
 **                                                                           **
 *******************************************************************************

                              PM3 CALCULATION RESULTS

 *******************************************************************************
 *  CALCULATION DONE:                                Thu Jun 13 23:38:10 2019  *
 *  PM3        - The PM3 Hamiltonian to be used
 *  PRECISE    - CRITERIA TO BE INCREASED BY 100 TIMES
 *  NOSYM      - POINT-GROUP SYMMETRY SET TO C1
 *  THREADS=1  - MULTI-THREADING NOT USED
 *  T=         - A TIME OF 172800.0 SECONDS REQUESTED
 *  DUMP=N     - RESTART FILE WRITTEN EVERY  7200.000 SECONDS
 *******************************************************************************
pm3  precise nosym THREADS=1
 InChI=1S/C7H12O2/c1-6(9-8)7-4-2-3-5-7/h2,4,6-8H,3,5H2,1H3

   ATOM   CHEMICAL          X               Y               Z
  NUMBER   SYMBOL      (ANGSTROMS)     (ANGSTROMS)     (ANGSTROMS)
 
     1       O         -1.97510000  *  -0.99590000  *  -0.65060000  *
     2       O         -2.95280000  *  -1.28480000  *   0.19010000  *
     3       C          0.21790000  *   0.00040000  *  -0.64550000  *
     4       C         -1.21100000  *   0.03080000  *  -0.05510000  *
     5       C          1.19850000  *   0.95440000  *   0.07140000  *
     6       C          2.39570000  *   0.10120000  *   0.50130000  *
     7       C         -1.88760000  *   1.38150000  *  -0.33060000  *
     8       C          0.84680000  *  -1.34340000  *  -0.47750000  *
     9       C          2.01570000  *  -1.28540000  *   0.13450000  *
    10       H          0.18270000  *   0.23450000  *  -1.73300000  *
    11       H         -1.13410000  *  -0.11910000  *   1.04970000  *
    12       H          0.74400000  *   1.42180000  *   0.97230000  *
    13       H          1.52490000  *   1.76370000  *  -0.61780000  *
    14       H          2.56540000  *   0.17210000  *   1.59720000  *
    15       H          3.31550000  *   0.39770000  *  -0.04700000  *
    16       H         -2.91270000  *   1.38600000  *   0.09610000  *
    17       H         -1.32170000  *   2.21410000  *   0.13610000  *
    18       H         -1.95900000  *   1.56220000  *  -1.42450000  *
    19       H          2.63450000  *  -2.15610000  *   0.32490000  *
    20       H          0.41890000  *  -2.26940000  *  -0.84870000  *
    21       H         -2.70670000  *  -2.16630000  *   0.57170000  *
 


          CARTESIAN COORDINATES 

    NO.       ATOM           X           Y           Z

     1         O         -1.9751     -0.9959     -0.6506
     2         O         -2.9528     -1.2848      0.1901
     3         C          0.2179      0.0004     -0.6455
     4         C         -1.2110      0.0308     -0.0551
     5         C          1.1985      0.9544      0.0714
     6         C          2.3957      0.1012      0.5013
     7         C         -1.8876      1.3815     -0.3306
     8         C          0.8468     -1.3434     -0.4775
     9         C          2.0157     -1.2854      0.1345
    10         H          0.1827      0.2345     -1.7330
    11         H         -1.1341     -0.1191      1.0497
    12         H          0.7440      1.4218      0.9723
    13         H          1.5249      1.7637     -0.6178
    14         H          2.5654      0.1721      1.5972
    15         H          3.3155      0.3977     -0.0470
    16         H         -2.9127      1.3860      0.0961
    17         H         -1.3217      2.2141      0.1361
    18         H         -1.9590      1.5622     -1.4245
    19         H          2.6345     -2.1561      0.3249
    20         H          0.4189     -2.2694     -0.8487
    21         H         -2.7067     -2.1663      0.5717

  H: (PM3): J. J. P. STEWART, J. COMP. CHEM. 10, 209 (1989).
  C: (PM3): J. J. P. STEWART, J. COMP. CHEM. 10, 209 (1989).
  O: (PM3): J. J. P. STEWART, J. COMP. CHEM. 10, 209 (1989).

           Empirical Formula: C7 H12 O2  =    21 atoms



      MOLECULAR POINT GROUP   :   C1  


      RHF CALCULATION, NO. OF DOUBLY OCCUPIED LEVELS = 26


          Geometry optimization using EF

          DIAGONAL MATRIX USED AS START HESSIAN

 CYCLE:     1 TIME:   0.023 TIME LEFT:  2.00D  GRAD.:   173.218 HEAT: -16.00495
 CYCLE:     2 TIME:   0.031 TIME LEFT:  2.00D  GRAD.:   204.987 HEAT: -17.80220
 CYCLE:     3 TIME:   0.031 TIME LEFT:  2.00D  GRAD.:    74.459 HEAT: -24.23269
 CYCLE:     4 TIME:   0.031 TIME LEFT:  2.00D  GRAD.:    55.492 HEAT: -25.84644
 CYCLE:     5 TIME:   0.031 TIME LEFT:  2.00D  GRAD.:    45.995 HEAT: -26.33316
 CYCLE:     6 TIME:   0.023 TIME LEFT:  2.00D  GRAD.:    42.694 HEAT: -26.43634
 CYCLE:     7 TIME:   0.023 TIME LEFT:  2.00D  GRAD.:    43.668 HEAT: -26.64113
 CYCLE:     8 TIME:   0.039 TIME LEFT:  2.00D  GRAD.:    17.348 HEAT: -27.05324
 CYCLE:     9 TIME:   0.031 TIME LEFT:  2.00D  GRAD.:    11.130 HEAT: -27.14197
 CYCLE:    10 TIME:   0.023 TIME LEFT:  2.00D  GRAD.:    11.895 HEAT: -27.19656
 CYCLE:    11 TIME:   0.031 TIME LEFT:  2.00D  GRAD.:    14.805 HEAT: -27.23740
 CYCLE:    12 TIME:   0.031 TIME LEFT:  2.00D  GRAD.:     9.380 HEAT: -27.29472
 CYCLE:    13 TIME:   0.039 TIME LEFT:  2.00D  GRAD.:     6.630 HEAT: -27.31785
 CYCLE:    14 TIME:   0.023 TIME LEFT:  2.00D  GRAD.:     4.699 HEAT: -27.34138
 CYCLE:    15 TIME:   0.031 TIME LEFT:  2.00D  GRAD.:     8.289 HEAT: -27.36200
 CYCLE:    16 TIME:   0.023 TIME LEFT:  2.00D  GRAD.:    10.229 HEAT: -27.38619
 CYCLE:    17 TIME:   0.023 TIME LEFT:  2.00D  GRAD.:    10.397 HEAT: -27.40695
 CYCLE:    18 TIME:   0.031 TIME LEFT:  2.00D  GRAD.:     9.500 HEAT: -27.43931
 CYCLE:    19 TIME:   0.023 TIME LEFT:  2.00D  GRAD.:     8.358 HEAT: -27.48187
 CYCLE:    20 TIME:   0.023 TIME LEFT:  2.00D  GRAD.:    12.389 HEAT: -27.51133
 CYCLE:    21 TIME:   0.023 TIME LEFT:  2.00D  GRAD.:     8.463 HEAT: -27.58897
 CYCLE:    22 TIME:   0.016 TIME LEFT:  2.00D  GRAD.:    12.343 HEAT: -27.64487
 CYCLE:    23 TIME:   0.023 TIME LEFT:  2.00D  GRAD.:    14.095 HEAT: -27.72598
 CYCLE:    24 TIME:   0.023 TIME LEFT:  2.00D  GRAD.:    11.667 HEAT: -27.79934
 CYCLE:    25 TIME:   0.031 TIME LEFT:  2.00D  GRAD.:     9.417 HEAT: -27.88089
 CYCLE:    26 TIME:   0.039 TIME LEFT:  2.00D  GRAD.:     9.322 HEAT: -27.94343
 CYCLE:    27 TIME:   0.023 TIME LEFT:  2.00D  GRAD.:    17.257 HEAT: -27.97407
 CYCLE:    28 TIME:   0.062 TIME LEFT:  2.00D  GRAD.:     7.744 HEAT: -28.03480
 CYCLE:    29 TIME:   0.031 TIME LEFT:  2.00D  GRAD.:     8.082 HEAT: -28.04758
 CYCLE:    30 TIME:   0.031 TIME LEFT:  2.00D  GRAD.:     2.785 HEAT: -28.07844
 CYCLE:    31 TIME:   0.023 TIME LEFT:  2.00D  GRAD.:     2.796 HEAT: -28.10084
 CYCLE:    32 TIME:   0.031 TIME LEFT:  2.00D  GRAD.:     3.848 HEAT: -28.13049
 CYCLE:    33 TIME:   0.031 TIME LEFT:  2.00D  GRAD.:     6.150 HEAT: -28.17717
 CYCLE:    34 TIME:   0.023 TIME LEFT:  2.00D  GRAD.:    13.791 HEAT: -28.20477
 CYCLE:    35 TIME:   0.031 TIME LEFT:  2.00D  GRAD.:     4.229 HEAT: -28.22997
 CYCLE:    36 TIME:   0.023 TIME LEFT:  2.00D  GRAD.:     4.223 HEAT: -28.26924
 CYCLE:    37 TIME:   0.031 TIME LEFT:  2.00D  GRAD.:    12.810 HEAT: -28.29367
 CYCLE:    38 TIME:   0.031 TIME LEFT:  2.00D  GRAD.:     3.616 HEAT: -28.32314
 CYCLE:    39 TIME:   0.031 TIME LEFT:  2.00D  GRAD.:     5.131 HEAT: -28.34989
 CYCLE:    40 TIME:   0.023 TIME LEFT:  2.00D  GRAD.:     8.254 HEAT: -28.38903
 CYCLE:    41 TIME:   0.031 TIME LEFT:  2.00D  GRAD.:     2.937 HEAT: -28.41547
 CYCLE:    42 TIME:   0.031 TIME LEFT:  2.00D  GRAD.:     7.898 HEAT: -28.42533
 CYCLE:    43 TIME:   0.023 TIME LEFT:  2.00D  GRAD.:     3.410 HEAT: -28.44873
 CYCLE:    44 TIME:   0.031 TIME LEFT:  2.00D  GRAD.:     3.868 HEAT: -28.47768
 CYCLE:    45 TIME:   0.031 TIME LEFT:  2.00D  GRAD.:     2.730 HEAT: -28.49834
 CYCLE:    46 TIME:   0.023 TIME LEFT:  2.00D  GRAD.:     7.685 HEAT: -28.50477
 CYCLE:    47 TIME:   0.031 TIME LEFT:  2.00D  GRAD.:     3.473 HEAT: -28.51985
 CYCLE:    48 TIME:   0.031 TIME LEFT:  2.00D  GRAD.:     1.751 HEAT: -28.53182
 CYCLE:    49 TIME:   0.023 TIME LEFT:  2.00D  GRAD.:     3.533 HEAT: -28.54200
 CYCLE:    50 TIME:   0.031 TIME LEFT:  2.00D  GRAD.:     2.964 HEAT: -28.54701
 CYCLE:    51 TIME:   0.031 TIME LEFT:  2.00D  GRAD.:     1.785 HEAT: -28.55429
 CYCLE:    52 TIME:   0.023 TIME LEFT:  2.00D  GRAD.:     1.988 HEAT: -28.55865
 CYCLE:    53 TIME:   0.031 TIME LEFT:  2.00D  GRAD.:     1.398 HEAT: -28.56373
 CYCLE:    54 TIME:   0.031 TIME LEFT:  2.00D  GRAD.:     3.167 HEAT: -28.56480
 CYCLE:    55 TIME:   0.023 TIME LEFT:  2.00D  GRAD.:     1.349 HEAT: -28.56802
 CYCLE:    56 TIME:   0.031 TIME LEFT:  2.00D  GRAD.:     1.144 HEAT: -28.57199
 CYCLE:    57 TIME:   0.031 TIME LEFT:  2.00D  GRAD.:     1.257 HEAT: -28.57632
 CYCLE:    58 TIME:   0.031 TIME LEFT:  2.00D  GRAD.:     1.327 HEAT: -28.57924
 CYCLE:    59 TIME:   0.031 TIME LEFT:  2.00D  GRAD.:     1.009 HEAT: -28.58098
 CYCLE:    60 TIME:   0.023 TIME LEFT:  2.00D  GRAD.:     0.966 HEAT: -28.58336
 CYCLE:    61 TIME:   0.031 TIME LEFT:  2.00D  GRAD.:     0.994 HEAT: -28.58558
 CYCLE:    62 TIME:   0.031 TIME LEFT:  2.00D  GRAD.:     0.904 HEAT: -28.58752
 CYCLE:    63 TIME:   0.023 TIME LEFT:  2.00D  GRAD.:     0.873 HEAT: -28.58946
 CYCLE:    64 TIME:   0.031 TIME LEFT:  2.00D  GRAD.:     1.082 HEAT: -28.59158
 CYCLE:    65 TIME:   0.023 TIME LEFT:  2.00D  GRAD.:     1.371 HEAT: -28.59352
 CYCLE:    66 TIME:   0.031 TIME LEFT:  2.00D  GRAD.:     3.166 HEAT: -28.59369
 CYCLE:    67 TIME:   0.031 TIME LEFT:  2.00D  GRAD.:     1.050 HEAT: -28.59667
 CYCLE:    68 TIME:   0.031 TIME LEFT:  2.00D  GRAD.:     0.601 HEAT: -28.59794
 CYCLE:    69 TIME:   0.023 TIME LEFT:  2.00D  GRAD.:     0.770 HEAT: -28.59935
 CYCLE:    70 TIME:   0.031 TIME LEFT:  2.00D  GRAD.:     0.698 HEAT: -28.60032
 CYCLE:    71 TIME:   0.023 TIME LEFT:  2.00D  GRAD.:     0.628 HEAT: -28.60140
 CYCLE:    72 TIME:   0.031 TIME LEFT:  2.00D  GRAD.:     0.626 HEAT: -28.60233
 CYCLE:    73 TIME:   0.031 TIME LEFT:  2.00D  GRAD.:     0.638 HEAT: -28.60334
 CYCLE:    74 TIME:   0.023 TIME LEFT:  2.00D  GRAD.:     0.602 HEAT: -28.60427
 CYCLE:    75 TIME:   0.031 TIME LEFT:  2.00D  GRAD.:     0.574 HEAT: -28.60521
 CYCLE:    76 TIME:   0.031 TIME LEFT:  2.00D  GRAD.:     0.559 HEAT: -28.60607
 CYCLE:    77 TIME:   0.023 TIME LEFT:  2.00D  GRAD.:     0.540 HEAT: -28.60690
 CYCLE:    78 TIME:   0.031 TIME LEFT:  2.00D  GRAD.:     0.516 HEAT: -28.60762
 CYCLE:    79 TIME:   0.031 TIME LEFT:  2.00D  GRAD.:     0.519 HEAT: -28.60820
 CYCLE:    80 TIME:   0.023 TIME LEFT:  2.00D  GRAD.:     0.445 HEAT: -28.60868
 CYCLE:    81 TIME:   0.031 TIME LEFT:  2.00D  GRAD.:     0.782 HEAT: -28.60925
 CYCLE:    82 TIME:   0.031 TIME LEFT:  2.00D  GRAD.:     0.801 HEAT: -28.61027
 CYCLE:    83 TIME:   0.023 TIME LEFT:  2.00D  GRAD.:     1.037 HEAT: -28.61278
 CYCLE:    84 TIME:   0.031 TIME LEFT:  2.00D  GRAD.:     1.685 HEAT: -28.61840
 CYCLE:    85 TIME:   0.031 TIME LEFT:  2.00D  GRAD.:     3.655 HEAT: -28.62634
 CYCLE:    86 TIME:   0.031 TIME LEFT:  2.00D  GRAD.:     3.822 HEAT: -28.63398
 CYCLE:    87 TIME:   0.062 TIME LEFT:  2.00D  GRAD.:     6.030 HEAT: -28.64679
 CYCLE:    88 TIME:   0.023 TIME LEFT:  2.00D  GRAD.:     2.301 HEAT: -28.66848
 CYCLE:    89 TIME:   0.031 TIME LEFT:  2.00D  GRAD.:     2.355 HEAT: -28.68597
 CYCLE:    90 TIME:   0.023 TIME LEFT:  2.00D  GRAD.:     2.959 HEAT: -28.70183
 CYCLE:    91 TIME:   0.031 TIME LEFT:  2.00D  GRAD.:     3.036 HEAT: -28.73098
 CYCLE:    92 TIME:   0.031 TIME LEFT:  2.00D  GRAD.:     2.728 HEAT: -28.75547
 CYCLE:    93 TIME:   0.055 TIME LEFT:  2.00D  GRAD.:     8.361 HEAT: -28.75749
 CYCLE:    94 TIME:   0.031 TIME LEFT:  2.00D  GRAD.:     3.153 HEAT: -28.79781
 CYCLE:    95 TIME:   0.023 TIME LEFT:  2.00D  GRAD.:     2.004 HEAT: -28.81523
 CYCLE:    96 TIME:   0.031 TIME LEFT:  2.00D  GRAD.:     2.513 HEAT: -28.83580
 CYCLE:    97 TIME:   0.023 TIME LEFT:  2.00D  GRAD.:     2.834 HEAT: -28.84805
 CYCLE:    98 TIME:   0.031 TIME LEFT:  2.00D  GRAD.:     3.484 HEAT: -28.87100
 CYCLE:    99 TIME:   0.031 TIME LEFT:  2.00D  GRAD.:     3.146 HEAT: -28.88618
 CYCLE:   100 TIME:   0.031 TIME LEFT:  2.00D  GRAD.:     7.644 HEAT: -28.92752
 CYCLE:   101 TIME:   0.023 TIME LEFT:  2.00D  GRAD.:     3.405 HEAT: -28.94956
 CYCLE:   102 TIME:   0.031 TIME LEFT:  2.00D  GRAD.:     2.523 HEAT: -28.96568
 CYCLE:   103 TIME:   0.023 TIME LEFT:  2.00D  GRAD.:    10.405 HEAT: -28.97569
 CYCLE:   104 TIME:   0.031 TIME LEFT:  2.00D  GRAD.:     1.098 HEAT: -28.99458
 CYCLE:   105 TIME:   0.031 TIME LEFT:  2.00D  GRAD.:     1.849 HEAT: -28.99951
 CYCLE:   106 TIME:   0.031 TIME LEFT:  2.00D  GRAD.:     3.317 HEAT: -29.00237
 CYCLE:   107 TIME:   0.023 TIME LEFT:  2.00D  GRAD.:     2.363 HEAT: -29.00443
 CYCLE:   108 TIME:   0.031 TIME LEFT:  2.00D  GRAD.:     1.575 HEAT: -29.00470
 CYCLE:   109 TIME:   0.023 TIME LEFT:  2.00D  GRAD.:     0.702 HEAT: -29.00745
 CYCLE:   110 TIME:   0.031 TIME LEFT:  2.00D  GRAD.:     0.649 HEAT: -29.00777
 CYCLE:   111 TIME:   0.031 TIME LEFT:  2.00D  GRAD.:     0.632 HEAT: -29.00831
 CYCLE:   112 TIME:   0.023 TIME LEFT:  2.00D  GRAD.:     0.511 HEAT: -29.00860
 CYCLE:   113 TIME:   0.031 TIME LEFT:  2.00D  GRAD.:     1.118 HEAT: -29.00998
 CYCLE:   114 TIME:   0.031 TIME LEFT:  2.00D  GRAD.:     0.833 HEAT: -29.01096
 CYCLE:   115 TIME:   0.023 TIME LEFT:  2.00D  GRAD.:     0.447 HEAT: -29.01155
 CYCLE:   116 TIME:   0.031 TIME LEFT:  2.00D  GRAD.:     0.614 HEAT: -29.01232
 CYCLE:   117 TIME:   0.031 TIME LEFT:  2.00D  GRAD.:     0.847 HEAT: -29.01314
 CYCLE:   118 TIME:   0.023 TIME LEFT:  2.00D  GRAD.:     1.067 HEAT: -29.01439
 CYCLE:   119 TIME:   0.031 TIME LEFT:  2.00D  GRAD.:     1.071 HEAT: -29.01499
 CYCLE:   120 TIME:   0.031 TIME LEFT:  2.00D  GRAD.:     0.384 HEAT: -29.01553
 CYCLE:   121 TIME:   0.023 TIME LEFT:  2.00D  GRAD.:     0.303 HEAT: -29.01584
 CYCLE:   122 TIME:   0.031 TIME LEFT:  2.00D  GRAD.:     0.401 HEAT: -29.01645
 CYCLE:   123 TIME:   0.031 TIME LEFT:  2.00D  GRAD.:     0.386 HEAT: -29.01692
 CYCLE:   124 TIME:   0.023 TIME LEFT:  2.00D  GRAD.:     0.518 HEAT: -29.01759
 CYCLE:   125 TIME:   0.031 TIME LEFT:  2.00D  GRAD.:     0.869 HEAT: -29.01832
 CYCLE:   126 TIME:   0.031 TIME LEFT:  2.00D  GRAD.:     0.837 HEAT: -29.01919
 CYCLE:   127 TIME:   0.039 TIME LEFT:  2.00D  GRAD.:     0.587 HEAT: -29.01993
 CYCLE:   128 TIME:   0.023 TIME LEFT:  2.00D  GRAD.:     0.457 HEAT: -29.02029
 CYCLE:   129 TIME:   0.031 TIME LEFT:  2.00D  GRAD.:     0.515 HEAT: -29.02099
 CYCLE:   130 TIME:   0.031 TIME LEFT:  2.00D  GRAD.:     0.329 HEAT: -29.02134
 CYCLE:   131 TIME:   0.023 TIME LEFT:  2.00D  GRAD.:     0.207 HEAT: -29.02154
 CYCLE:   132 TIME:   0.031 TIME LEFT:  2.00D  GRAD.:     0.185 HEAT: -29.02167
 CYCLE:   133 TIME:   0.031 TIME LEFT:  2.00D  GRAD.:     0.144 HEAT: -29.02172
 CYCLE:   134 TIME:   0.023 TIME LEFT:  2.00D  GRAD.:     0.070 HEAT: -29.02174
 CYCLE:   135 TIME:   0.031 TIME LEFT:  2.00D  GRAD.:     0.036 HEAT: -29.02175

     GRADIENT =  0.03568  IS LESS THAN CUTOFF =  0.05000



 -------------------------------------------------------------------------------
 pm3  precise nosym THREADS=1
 InChI=1S/C7H12O2/c1-6(9-8)7-4-2-3-5-7/h2,4,6-8H,3,5H2,1H3



     GEOMETRY OPTIMISED USING EIGENVECTOR FOLLOWING (EF).     
     SCF FIELD WAS ACHIEVED                                   


                              PM3 CALCULATION
                                                       MOPAC2016 (Version: 18.184L)
                                                       Thu Jun 13 23:38:14 2019
                                                       No. of days remaining =  20




          FINAL HEAT OF FORMATION =        -29.02175 KCAL/MOL =    -121.42700 KJ/MOL


          TOTAL ENERGY            =      -1599.58342 EV
          ELECTRONIC ENERGY       =      -7774.68726 EV  POINT GROUP:     C1  
          CORE-CORE REPULSION     =       6175.10384 EV
          COSMO AREA              =        170.03 SQUARE ANGSTROMS
          COSMO VOLUME            =        169.87 CUBIC ANGSTROMS

          GRADIENT NORM           =          0.03568 = 0.00779 PER ATOM
          IONIZATION POTENTIAL    =          9.689485 EV
          HOMO LUMO ENERGIES (EV) =         -9.689  0.990
          NO. OF FILLED LEVELS    =         26
          MOLECULAR WEIGHT        =        128.1706

          MOLECULAR DIMENSIONS (Angstroms)

            Atom       Atom       Distance
            H    21    H    15     7.27873
            H    19    H    18     5.29773
            H    10    H    14     2.97669


          SCF CALCULATIONS        =        153
 
          WALL-CLOCK TIME         =          4.008 SECONDS
          COMPUTATION TIME        =          1.921 SECONDS




   ATOM   CHEMICAL          X               Y               Z
  NUMBER   SYMBOL      (ANGSTROMS)     (ANGSTROMS)     (ANGSTROMS)
 
     1       O         -1.99983777  *  -0.93381384  *  -0.73140884  *
     2       O         -3.04100749  *  -1.43365207  *   0.24913590  *
     3       C          0.21860345  *  -0.10390081  *  -0.69929169  *
     4       C         -1.17169458  *  -0.02137863  *  -0.02527805  *
     5       C          1.19221943  *   0.97256832  *  -0.16866970  *
     6       C          2.35862246  *   0.22018543  *   0.48503762  *
     7       C         -1.75279814  *   1.38928827  *  -0.10449342  *
     8       C          0.89904379  *  -1.40619696  *  -0.38079156  *
     9       C          2.05923240  *  -1.22627371  *   0.25900300  *
    10       H          0.10142503  *  -0.00488504  *  -1.80467818  *
    11       H         -1.08031718  *  -0.32930546  *   1.04602146  *
    12       H          0.68404306  *   1.65630547  *   0.54358167  *
    13       H          1.54693393  *   1.61652087  *  -0.99323547  *
    14       H          2.44188678  *   0.43750536  *   1.56586376  *
    15       H          3.33237011  *   0.49647477  *   0.04065167  *
    16       H         -2.71713186  *   1.45636747  *   0.41372180  *
    17       H         -1.06073933  *   2.10384855  *   0.36979870  *
    18       H         -1.90974401  *   1.71418989  *  -1.14098477  *
    19       H          2.74235768  *  -2.00527790  *   0.59631555  *
    20       H          0.44764209  *  -2.35799173  *  -0.66100979  *
    21       H         -3.51143972  *  -1.94435836  *  -0.38885155  *

                             CARTESIAN COORDINATES

   1    O       -1.999837772    -0.933813840    -0.731408839
   2    O       -3.041007486    -1.433652068     0.249135902
   3    C        0.218603448    -0.103900810    -0.699291691
   4    C       -1.171694579    -0.021378634    -0.025278054
   5    C        1.192219433     0.972568324    -0.168669696
   6    C        2.358622459     0.220185430     0.485037624
   7    C       -1.752798143     1.389288270    -0.104493416
   8    C        0.899043786    -1.406196958    -0.380791559
   9    C        2.059232397    -1.226273713     0.259002998
  10    H        0.101425030    -0.004885041    -1.804678177
  11    H       -1.080317184    -0.329305464     1.046021460
  12    H        0.684043060     1.656305466     0.543581672
  13    H        1.546933927     1.616520869    -0.993235467
  14    H        2.441886775     0.437505356     1.565863757
  15    H        3.332370108     0.496474766     0.040651674
  16    H       -2.717131855     1.456367475     0.413721795
  17    H       -1.060739331     2.103848550     0.369798699
  18    H       -1.909744009     1.714189894    -1.140984766
  19    H        2.742357685    -2.005277900     0.596315549
  20    H        0.447642090    -2.357991731    -0.661009790
  21    H       -3.511439724    -1.944358357    -0.388851547


           Empirical Formula: C7 H12 O2  =    21 atoms



      MOLECULAR POINT GROUP   :   C1  


                  EIGENVALUES  
 -41.16798 -36.10303 -33.90178 -30.67039 -28.11917 -26.80951 -22.15890 -19.70778
 -18.70474 -17.96877 -17.56954 -16.85857 -15.98902 -15.24070 -14.53899 -14.21757
 -13.63492 -13.44414 -13.25291 -12.79509 -12.64427 -12.43699 -12.28658 -11.81104
 -11.05335  -9.68948   0.99014   1.19986   3.23056   3.38560   3.46285   3.55295
   3.63525   3.75472   3.90882   4.02977   4.10402   4.15976   4.25459   4.35377
   4.60004   4.63439   4.71559   4.94426   5.05028   5.29540   5.53186   5.94197


              NET ATOMIC CHARGES AND DIPOLE CONTRIBUTIONS

  ATOM NO.   TYPE          CHARGE      No. of ELECS.   s-Pop       p-Pop       
    1          O          -0.151649        6.1516     1.90632     4.24533
    2          O          -0.209607        6.2096     1.86505     4.34456
    3          C          -0.058576        4.0586     1.17864     2.87994
    4          C           0.073266        3.9267     1.17874     2.74800
    5          C          -0.107025        4.1070     1.17101     2.93602
    6          C          -0.064643        4.0646     1.15336     2.91128
    7          C          -0.151600        4.1516     1.14961     3.00199
    8          C          -0.149838        4.1498     1.20405     2.94579
    9          C          -0.150887        4.1509     1.20222     2.94866
   10          H           0.078383        0.9216     0.92162
   11          H           0.078199        0.9218     0.92180
   12          H           0.063157        0.9368     0.93684
   13          H           0.052685        0.9473     0.94731
   14          H           0.056335        0.9437     0.94367
   15          H           0.056843        0.9432     0.94316
   16          H           0.054662        0.9453     0.94534
   17          H           0.051901        0.9481     0.94810
   18          H           0.048797        0.9512     0.95120
   19          H           0.111942        0.8881     0.88806
   20          H           0.120090        0.8799     0.87991
   21          H           0.197566        0.8024     0.80243
 DIPOLE           X         Y         Z       TOTAL
 POINT-CHG.     0.613     0.531     0.134     0.822
 HYBRID        -0.236    -0.142    -0.263     0.381
 SUM            0.377     0.389    -0.129     0.557


          ATOMIC ORBITAL ELECTRON POPULATIONS

     Atom    s        px        py        pz   
    1  O   1.90632   1.40841   1.63296   1.20396
    2  O   1.86505   1.41968   1.71437   1.21051
    3  C   1.17864   0.93464   0.94337   1.00192
    4  C   1.17874   0.88379   0.89177   0.97244
    5  C   1.17101   0.96219   0.96828   1.00555
    6  C   1.15336   0.97460   0.93688   0.99980
    7  C   1.14961   1.01252   0.96712   1.02235
    8  C   1.20405   0.96818   0.97693   1.00068
    9  C   1.20222   0.97900   0.97104   0.99862
   10  H   0.92162
   11  H   0.92180
   12  H   0.93684
   13  H   0.94731
   14  H   0.94367
   15  H   0.94316
   16  H   0.94534
   17  H   0.94810
   18  H   0.95120
   19  H   0.88806
   20  H   0.87991
   21  H   0.80243
 *******************************************************************************
 ** Site#: 14399        For non-commercial use only    Version 18.184L 64BITS **
 *******************************************************************************
 ** Cite this program as: MOPAC2016, Version: 18.184L, James J. P. Stewart,   **
 ** Stewart Computational Chemistry, web: HTTP://OpenMOPAC.net. Days left:  20**
 *******************************************************************************
 **                                                                           **
 **                                MOPAC2016                                  **
 **                                                                           **
 *******************************************************************************

                              PM3 CALCULATION RESULTS

 *******************************************************************************
 *  CALCULATION DONE:                                Thu Jun 13 23:38:14 2019  *
 *  PM3        - The PM3 Hamiltonian to be used
 *  OLDGEO     - PREVIOUS GEOMETRY TO BE USED
 *  PRECISE    - CRITERIA TO BE INCREASED BY 100 TIMES
 *  NOSYM      - POINT-GROUP SYMMETRY SET TO C1
 *  THREADS=1  - MULTI-THREADING NOT USED
 *  T=         - A TIME OF 172800.0 SECONDS REQUESTED
 *  DUMP=N     - RESTART FILE WRITTEN EVERY  7200.000 SECONDS
 *  THERMO     - THERMODYNAMIC QUANTITIES TO BE CALCULATED
 *******************************************************************************
oldgeo thermo nosym precise THREADS=1  pm3
 InChI=1S/C7H12O2/c1-6(9-8)7-4-2-3-5-7/h2,4,6-8H,3,5H2,1H3

   ATOM   CHEMICAL          X               Y               Z
  NUMBER   SYMBOL      (ANGSTROMS)     (ANGSTROMS)     (ANGSTROMS)
 
     1       O         -1.99983777  *  -0.93381384  *  -0.73140884  *
     2       O         -3.04100749  *  -1.43365207  *   0.24913590  *
     3       C          0.21860345  *  -0.10390081  *  -0.69929169  *
     4       C         -1.17169458  *  -0.02137863  *  -0.02527805  *
     5       C          1.19221943  *   0.97256832  *  -0.16866970  *
     6       C          2.35862246  *   0.22018543  *   0.48503762  *
     7       C         -1.75279814  *   1.38928827  *  -0.10449342  *
     8       C          0.89904379  *  -1.40619696  *  -0.38079156  *
     9       C          2.05923240  *  -1.22627371  *   0.25900300  *
    10       H          0.10142503  *  -0.00488504  *  -1.80467818  *
    11       H         -1.08031718  *  -0.32930546  *   1.04602146  *
    12       H          0.68404306  *   1.65630547  *   0.54358167  *
    13       H          1.54693393  *   1.61652087  *  -0.99323547  *
    14       H          2.44188678  *   0.43750536  *   1.56586376  *
    15       H          3.33237011  *   0.49647477  *   0.04065167  *
    16       H         -2.71713186  *   1.45636747  *   0.41372180  *
    17       H         -1.06073933  *   2.10384855  *   0.36979870  *
    18       H         -1.90974401  *   1.71418989  *  -1.14098477  *
    19       H          2.74235768  *  -2.00527790  *   0.59631555  *
    20       H          0.44764209  *  -2.35799173  *  -0.66100979  *
    21       H         -3.51143972  *  -1.94435836  *  -0.38885155  *
 


          CARTESIAN COORDINATES 

    NO.       ATOM           X           Y           Z

     1         O         -1.9998     -0.9338     -0.7314
     2         O         -3.0410     -1.4337      0.2491
     3         C          0.2186     -0.1039     -0.6993
     4         C         -1.1717     -0.0214     -0.0253
     5         C          1.1922      0.9726     -0.1687
     6         C          2.3586      0.2202      0.4850
     7         C         -1.7528      1.3893     -0.1045
     8         C          0.8990     -1.4062     -0.3808
     9         C          2.0592     -1.2263      0.2590
    10         H          0.1014     -0.0049     -1.8047
    11         H         -1.0803     -0.3293      1.0460
    12         H          0.6840      1.6563      0.5436
    13         H          1.5469      1.6165     -0.9932
    14         H          2.4419      0.4375      1.5659
    15         H          3.3324      0.4965      0.0407
    16         H         -2.7171      1.4564      0.4137
    17         H         -1.0607      2.1038      0.3698
    18         H         -1.9097      1.7142     -1.1410
    19         H          2.7424     -2.0053      0.5963
    20         H          0.4476     -2.3580     -0.6610
    21         H         -3.5114     -1.9444     -0.3889

  H: (PM3): J. J. P. STEWART, J. COMP. CHEM. 10, 209 (1989).
  C: (PM3): J. J. P. STEWART, J. COMP. CHEM. 10, 209 (1989).
  O: (PM3): J. J. P. STEWART, J. COMP. CHEM. 10, 209 (1989).

           Empirical Formula: C7 H12 O2  =    21 atoms



      MOLECULAR POINT GROUP   :   C1  


      RHF CALCULATION, NO. OF DOUBLY OCCUPIED LEVELS = 26



          HEAT OF FORMATION =     -29.021749 KCALS/MOLE


          CARTESIAN COORDINATE DERIVATIVES

   NUMBER  ATOM         X            Y            Z

     1       O      0.002743    -0.002074     0.006943
     2       O     -0.010044     0.004161    -0.000441
     3       C     -0.000064    -0.000239    -0.001223
     4       C      0.002063    -0.002691     0.004306
     5       C     -0.001372     0.000653    -0.002556
     6       C     -0.003573     0.003465     0.000153
     7       C     -0.003071    -0.001434     0.000521
     8       C     -0.006860     0.007024     0.004195
     9       C     -0.001871    -0.000205     0.004152
    10       H      0.011402    -0.004354    -0.004730
    11       H     -0.004608    -0.001020    -0.007156
    12       H      0.003356    -0.003121     0.000671
    13       H     -0.000324     0.007889     0.000353
    14       H     -0.002357    -0.007636    -0.012300
    15       H      0.000041     0.002585     0.001206
    16       H     -0.001413    -0.003824     0.007938
    17       H      0.003869    -0.007689    -0.004417
    18       H      0.006195     0.006421    -0.005846
    19       H      0.002732     0.000848     0.004227
    20       H     -0.001570     0.002273     0.002073
    21       H      0.004726    -0.001031     0.001931
 


          GRADIENT NORM =   0.03598


          TIME FOR SCF CALCULATION =    0.02

          TIME FOR DERIVATIVES     =    0.02

          MOLECULAR WEIGHT =  128.17



          ROTATIONAL CONSTANTS IN CM(-1)

          A =    0.10082653   B =    0.03449969   C =    0.02814568



           PRINCIPAL MOMENTS OF INERTIA IN UNITS OF 10**(-40)*GRAM-CM**2

          A =      277.6330   B =      811.3921   C =      994.5672


          ORIENTATION OF MOLECULE IN FORCE CALCULATION

    NO.       ATOM         X         Y         Z

     1          O       1.0110   -1.6644   -0.0556
     2          O       2.5261   -1.6644   -0.0556
     3          C      -0.7666   -0.0987   -0.0556
     4          C       0.5979   -0.4619    0.5771
     5          C      -1.4474    1.0894    0.6609
     6          C      -1.5776    2.2087   -0.3803
     7          C       0.4806   -0.6724    2.0857
     8          C      -0.5984    0.3726   -1.4734
     9          C      -1.0410    1.6225   -1.6457
    10          H      -1.4341   -0.9928   -0.0365
    11          H       1.3300    0.3575    0.3690
    12          H      -0.8627    1.4101    1.5488
    13          H      -2.4373    0.7925    1.0513
    14          H      -1.0070    3.1119   -0.0955
    15          H      -2.6256    2.5360   -0.5095
    16          H       1.4565   -0.8845    2.5390
    17          H       0.0762    0.2376    2.5579
    18          H      -0.1896   -1.5046    2.3362
    19          H      -1.0351    2.1911   -2.5752
    20          H      -0.1555   -0.2744   -2.2306
    21          H       2.6049   -2.5252   -0.4324


    FIRST DERIVATIVES WILL BE USED IN THE CALCULATION OF SECOND DERIVATIVES

          ESTIMATED TIME TO COMPLETE CALCULATION =        9.84 SECONDS

    FOR POINT-GROUP C1   THERE ARE   1 UNIQUE SYMMETRY FUNCTIONS.

 STEP:   1 TIME =     0.05 SECS, INTEGRAL =      0.05 TIME LEFT: 172799.91
 STEP:   2 TIME =     0.05 SECS, INTEGRAL =      0.11 TIME LEFT: 172799.85
 STEP:   3 TIME =     0.05 SECS, INTEGRAL =      0.16 TIME LEFT: 172799.80
 STEP:   4 TIME =     0.05 SECS, INTEGRAL =      0.20 TIME LEFT: 172799.76
 STEP:   5 TIME =     0.04 SECS, INTEGRAL =      0.24 TIME LEFT: 172799.72
 STEP:   6 TIME =     0.04 SECS, INTEGRAL =      0.28 TIME LEFT: 172799.68
 STEP:   7 TIME =     0.04 SECS, INTEGRAL =      0.32 TIME LEFT: 172799.64
 STEP:   8 TIME =     0.03 SECS, INTEGRAL =      0.35 TIME LEFT: 172799.61
 STEP:   9 TIME =     0.04 SECS, INTEGRAL =      0.39 TIME LEFT: 172799.57
 STEP:  10 TIME =     0.04 SECS, INTEGRAL =      0.43 TIME LEFT: 172799.53
 STEP:  11 TIME =     0.04 SECS, INTEGRAL =      0.47 TIME LEFT: 172799.49
 STEP:  12 TIME =     0.05 SECS, INTEGRAL =      0.52 TIME LEFT: 172799.45
 STEP:  13 TIME =     0.04 SECS, INTEGRAL =      0.55 TIME LEFT: 172799.41
 STEP:  14 TIME =     0.03 SECS, INTEGRAL =      0.59 TIME LEFT: 172799.38
 STEP:  15 TIME =     0.04 SECS, INTEGRAL =      0.62 TIME LEFT: 172799.34
 STEP:  16 TIME =     0.04 SECS, INTEGRAL =      0.66 TIME LEFT: 172799.30
 STEP:  17 TIME =     0.04 SECS, INTEGRAL =      0.70 TIME LEFT: 172799.26
 STEP:  18 TIME =     0.04 SECS, INTEGRAL =      0.74 TIME LEFT: 172799.22
 STEP:  19 TIME =     0.04 SECS, INTEGRAL =      0.78 TIME LEFT: 172799.18
 STEP:  20 TIME =     0.04 SECS, INTEGRAL =      0.82 TIME LEFT: 172799.14
 STEP:  21 TIME =     0.05 SECS, INTEGRAL =      0.87 TIME LEFT: 172799.09
 STEP:  22 TIME =     0.05 SECS, INTEGRAL =      0.92 TIME LEFT: 172799.04
 STEP:  23 TIME =     0.04 SECS, INTEGRAL =      0.96 TIME LEFT: 172799.00
 STEP:  24 TIME =     0.04 SECS, INTEGRAL =      1.00 TIME LEFT: 172798.96
 STEP:  25 TIME =     0.04 SECS, INTEGRAL =      1.04 TIME LEFT: 172798.92
 STEP:  26 TIME =     0.04 SECS, INTEGRAL =      1.08 TIME LEFT: 172798.88
 STEP:  27 TIME =     0.04 SECS, INTEGRAL =      1.12 TIME LEFT: 172798.84
 STEP:  28 TIME =     0.04 SECS, INTEGRAL =      1.16 TIME LEFT: 172798.80
 STEP:  29 TIME =     0.04 SECS, INTEGRAL =      1.20 TIME LEFT: 172798.77
 STEP:  30 TIME =     0.04 SECS, INTEGRAL =      1.23 TIME LEFT: 172798.73
 STEP:  31 TIME =     0.04 SECS, INTEGRAL =      1.27 TIME LEFT: 172798.69
 STEP:  32 TIME =     0.06 SECS, INTEGRAL =      1.34 TIME LEFT: 172798.62
 STEP:  33 TIME =     0.05 SECS, INTEGRAL =      1.38 TIME LEFT: 172798.58
 STEP:  34 TIME =     0.04 SECS, INTEGRAL =      1.42 TIME LEFT: 172798.54
 STEP:  35 TIME =     0.04 SECS, INTEGRAL =      1.46 TIME LEFT: 172798.50
 STEP:  36 TIME =     0.04 SECS, INTEGRAL =      1.50 TIME LEFT: 172798.46
 STEP:  37 TIME =     0.04 SECS, INTEGRAL =      1.54 TIME LEFT: 172798.42
 STEP:  38 TIME =     0.04 SECS, INTEGRAL =      1.58 TIME LEFT: 172798.38
 STEP:  39 TIME =     0.04 SECS, INTEGRAL =      1.62 TIME LEFT: 172798.34
 STEP:  40 TIME =     0.04 SECS, INTEGRAL =      1.66 TIME LEFT: 172798.30
 STEP:  41 TIME =     0.04 SECS, INTEGRAL =      1.70 TIME LEFT: 172798.27
 STEP:  42 TIME =     0.04 SECS, INTEGRAL =      1.73 TIME LEFT: 172798.23
 STEP:  43 TIME =     0.04 SECS, INTEGRAL =      1.77 TIME LEFT: 172798.19
 STEP:  44 TIME =     0.04 SECS, INTEGRAL =      1.81 TIME LEFT: 172798.15
 STEP:  45 TIME =     0.04 SECS, INTEGRAL =      1.85 TIME LEFT: 172798.11
 STEP:  46 TIME =     0.04 SECS, INTEGRAL =      1.89 TIME LEFT: 172798.07
 STEP:  47 TIME =     0.04 SECS, INTEGRAL =      1.93 TIME LEFT: 172798.03
 STEP:  48 TIME =     0.04 SECS, INTEGRAL =      1.97 TIME LEFT: 172797.99
 STEP:  49 TIME =     0.04 SECS, INTEGRAL =      2.01 TIME LEFT: 172797.95
 STEP:  50 TIME =     0.04 SECS, INTEGRAL =      2.05 TIME LEFT: 172797.91
 STEP:  51 TIME =     0.04 SECS, INTEGRAL =      2.09 TIME LEFT: 172797.88
 STEP:  52 TIME =     0.04 SECS, INTEGRAL =      2.12 TIME LEFT: 172797.84
 STEP:  53 TIME =     0.05 SECS, INTEGRAL =      2.17 TIME LEFT: 172797.79
 STEP:  54 TIME =     0.04 SECS, INTEGRAL =      2.21 TIME LEFT: 172797.75
 STEP:  55 TIME =     0.04 SECS, INTEGRAL =      2.25 TIME LEFT: 172797.71
 STEP:  56 TIME =     0.05 SECS, INTEGRAL =      2.30 TIME LEFT: 172797.66
 STEP:  57 TIME =     0.04 SECS, INTEGRAL =      2.34 TIME LEFT: 172797.62
 STEP:  58 TIME =     0.04 SECS, INTEGRAL =      2.38 TIME LEFT: 172797.59
 STEP:  59 TIME =     0.04 SECS, INTEGRAL =      2.41 TIME LEFT: 172797.55
 STEP:  60 TIME =     0.04 SECS, INTEGRAL =      2.45 TIME LEFT: 172797.51
 STEP:  61 TIME =     0.04 SECS, INTEGRAL =      2.49 TIME LEFT: 172797.47
 STEP:  62 TIME =     0.04 SECS, INTEGRAL =      2.53 TIME LEFT: 172797.43
 STEP:  63 TIME =     0.04 SECS, INTEGRAL =      2.57 TIME LEFT: 172797.39

(To convert to Hartree/Bohr^2, multiply by (10^(-21) x N x a0^2)/(4.184 x 627.51) =  0.0642)


           FORCE MATRIX IN MILLIDYNES/ANGSTROM


                  O  1       O  2       C  3       C  4       C  5       C  6
 ------------------------------------------------------------------------------
     O    1   7.849243
     O    2   2.580553  10.108289
     C    3   0.830142   0.109606  14.340335
     C    4   4.758671   0.984697   3.316529  14.161854
     C    5   0.055490   0.017918   3.456387   0.536024  14.144047
     C    6   0.004960   0.003150   0.719456   0.035686   3.807362  14.697109
     C    7   0.884772   0.056741   0.575897   3.900512   0.093777   0.007525
     C    8   0.069417   0.005806   4.449481   0.619407   0.871444   1.182947
     C    9   0.006033   0.002752   1.139420   0.041579   0.896240   4.754993
     H   10   0.083801   0.003972   4.265756   0.457662   0.422948   0.028924
     H   11   0.442498   0.083921   0.425056   4.163236   0.011704   0.001310
     H   12   0.004360   0.001747   0.448802   0.071556   4.377476   0.437706
     H   13   0.006010   0.002240   0.441186   0.032096   4.573589   0.440358
     H   14   0.000916   0.000495   0.028228   0.002758   0.436828   4.518927
     H   15   0.000696   0.000712   0.029980   0.003608   0.436748   4.525447
     H   16   0.029991   0.006484   0.049661   0.463667   0.006908   0.000527
     H   17   0.066992   0.003521   0.025783   0.431580   0.101214   0.000878
     H   18   0.037071   0.002315   0.016256   0.482033   0.004007   0.000497
     H   19   0.001601   0.000991   0.117978   0.016627   0.043698   0.413773
     H   20   0.011601   0.003685   0.416833   0.018688   0.041644   0.117546
     H   21   1.077430   8.654884   0.019947   0.143651   0.003578   0.001057


                  C  7       C  8       C  9       H 10       H 11       H 12
 ------------------------------------------------------------------------------
     C    7  14.265346
     C    8   0.049646  18.368147
     C    9   0.009403  10.600590  18.379979
     H   10   0.012026   0.408081   0.038623   4.745924
     H   11   0.415726   0.028771   0.003861   0.040158   4.564680
     H   12   0.109064   0.028580   0.029868   0.025137   0.008878   5.063267
     H   13   0.002812   0.026930   0.026150   0.027245   0.001102   0.579491
     H   14   0.000730   0.037913   0.429205   0.003839   0.000473   0.030102
     H   15   0.000620   0.039512   0.432115   0.001114   0.000483   0.025073
     H   16   4.786860   0.009098   0.001727   0.001396   0.029021   0.001745
     H   17   4.595127   0.001881   0.001075   0.001494   0.027714   0.125649
     H   18   4.756938   0.001265   0.000739   0.007724   0.044988   0.001334
     H   19   0.003102   0.447696   5.019712   0.015104   0.000791   0.003249
     H   20   0.003244   5.015164   0.446929   0.014435   0.002914   0.003189
     H   21   0.007307   0.002123   0.001728   0.000701   0.008442   0.000572


                  H 13       H 14       H 15       H 16       H 17       H 18
 ------------------------------------------------------------------------------
     H   13   5.169714
     H   14   0.029231   5.124799
     H   15   0.028957   0.573620   5.130474
     H   16   0.000297   0.000138   0.000118   5.507709
     H   17   0.001429   0.000327   0.000347   0.547214   5.360210
     H   18   0.000678   0.000263   0.000177   0.569404   0.556542   5.490871
     H   19   0.002764   0.013945   0.014791   0.000530   0.000348   0.000102
     H   20   0.002697   0.016238   0.016151   0.000528   0.000750   0.000671
     H   21   0.000592   0.000203   0.000400   0.001861   0.001292   0.001526


                  H 19       H 20       H 21
 ------------------------------------------
     H   19   5.414051
     H   20   0.048461   5.407273
     H   21   0.000490   0.002858   8.994943


          HEAT OF FORMATION =     -29.021749 KCALS/MOLE

          ZERO POINT ENERGY     112.401 KCAL/MOL


           NORMAL COORDINATE ANALYSIS (Total motion = 1 Angstrom)


   Root No.       1         2         3         4         5         6         7         8

                 1 A       2 A       3 A       4 A       5 A       6 A       7 A       8 A   

                  40.6      63.2     103.1     165.5     190.4     230.1     251.2     338.2
  
           1    0.0034    0.0124    0.0065    0.0052   -0.0095   -0.0107    0.0041   -0.0267
           2    0.0090    0.0284    0.0046   -0.0092    0.0190    0.0152    0.0450   -0.0041
           3   -0.0337   -0.0401   -0.0102    0.0032   -0.0187   -0.0298   -0.0178   -0.0081
           4    0.0037    0.0132    0.0069    0.0057   -0.0116   -0.0114    0.0006   -0.0363
           5   -0.0677    0.0148    0.0043    0.0256   -0.0087    0.0132   -0.0364    0.0322
           6    0.0793    0.0475    0.0035   -0.0302   -0.0073    0.0051   -0.0249    0.0167
           7    0.0119   -0.0210    0.0119   -0.0002   -0.0046   -0.0219    0.0196    0.0134
           8    0.0098   -0.0081    0.0168    0.0006    0.0048   -0.0097    0.0097    0.0081
           9   -0.0155    0.0077    0.0099   -0.0058    0.0150    0.0140    0.0156   -0.0033
          10    0.0172   -0.0094    0.0032   -0.0018   -0.0009   -0.0122    0.0228   -0.0070
          11    0.0104    0.0045   -0.0084   -0.0061    0.0075    0.0005    0.0305   -0.0097
          12   -0.0265   -0.0099    0.0113   -0.0081    0.0097   -0.0051    0.0221    0.0131
          13    0.0021    0.0023    0.0440    0.0095   -0.0115   -0.0024   -0.0250   -0.0045
          14   -0.0071    0.0082    0.0355    0.0018    0.0092    0.0035   -0.0075   -0.0055
          15    0.0034    0.0036    0.0102    0.0029   -0.0010    0.0086   -0.0033   -0.0083
          16   -0.0434    0.0515   -0.0250    0.0026   -0.0105   -0.0126    0.0042    0.0092
          17   -0.0055    0.0169   -0.0000    0.0041   -0.0024   -0.0135   -0.0043   -0.0002
          18    0.0110    0.0069   -0.0195    0.0066   -0.0147   -0.0095   -0.0042   -0.0065
          19    0.0329   -0.0020   -0.0268   -0.0076    0.0196    0.0173   -0.0171    0.0448
          20    0.0170   -0.0262   -0.0408   -0.0093   -0.0151    0.0036   -0.0023   -0.0274
          21   -0.0245   -0.0136    0.0047   -0.0078    0.0074   -0.0048    0.0143    0.0139
          22    0.0002   -0.0494    0.0030   -0.0076    0.0136    0.0077    0.0134    0.0389
          23    0.0303   -0.0311    0.0003    0.0048   -0.0054   -0.0173   -0.0074    0.0152
          24   -0.0101   -0.0032    0.0042   -0.0050    0.0134    0.0155    0.0105   -0.0008
          25   -0.0311   -0.0091   -0.0230   -0.0098    0.0194    0.0474   -0.0114   -0.0304
          26    0.0212   -0.0168   -0.0113    0.0050   -0.0057   -0.0046   -0.0187   -0.0121
          27    0.0040   -0.0034   -0.0134    0.0010   -0.0005    0.0115   -0.0048   -0.0186
          28    0.0186   -0.0212   -0.0071   -0.0040   -0.0043   -0.0265    0.0398    0.0076
          29    0.0042   -0.0069    0.0309    0.0034    0.0048   -0.0051   -0.0069    0.0107
          30   -0.0260    0.0397    0.0202   -0.0066    0.0181    0.0236    0.0201   -0.0355
          31    0.0193   -0.0262    0.0110   -0.0012   -0.0072   -0.0229    0.0259   -0.0006
          32    0.0051    0.0226   -0.0078   -0.0060    0.0141    0.0089    0.0324   -0.0125
          33   -0.0388    0.0022    0.0411   -0.0061    0.0138   -0.0141    0.0498    0.0146
          34    0.0151   -0.0051    0.0966    0.0185   -0.0162    0.0231   -0.0696   -0.0219
          35    0.0029   -0.0151    0.0642    0.0003    0.0152    0.0107   -0.0138   -0.0238
          36   -0.0088    0.0168   -0.0344   -0.0025   -0.0002   -0.0099    0.0281    0.0104
          37    0.0172   -0.0139    0.0700    0.0127   -0.0129    0.0046   -0.0406   -0.0133
          38   -0.0292    0.0342    0.0425    0.0040    0.0109    0.0188   -0.0252   -0.0131
          39    0.0247   -0.0174    0.0814    0.0124   -0.0031    0.0371   -0.0553   -0.0357
          40   -0.0741    0.1161   -0.0630    0.0080   -0.0324   -0.0682    0.0364    0.0613
          41    0.0131   -0.0200    0.0350    0.0019    0.0106    0.0171   -0.0233   -0.0271
          42    0.0132   -0.0051   -0.0551    0.0029   -0.0125    0.0025   -0.0075   -0.0233
          43   -0.0559    0.0701   -0.0429    0.0023   -0.0141   -0.0241    0.0148    0.0211
          44   -0.0420    0.0845   -0.0533    0.0074   -0.0227   -0.0663    0.0306    0.0485
          45    0.0189    0.0293   -0.0109    0.0176   -0.0379   -0.0541    0.0011    0.0276
          46    0.0367    0.0028   -0.0395   -0.0128    0.0529    0.0101   -0.0441    0.0579
          47    0.0119   -0.0163   -0.0677   -0.0319    0.1529   -0.0950   -0.0864   -0.0698
          48   -0.0350   -0.0192    0.0191   -0.0071    0.0146   -0.0357    0.0317   -0.0329
          49    0.0449   -0.0180   -0.0202    0.0116   -0.1370    0.1193    0.0341    0.0954
          50    0.0212   -0.0422   -0.0418   -0.0029   -0.0835    0.0450    0.0166   -0.0138
          51   -0.0224    0.0034    0.0127   -0.0039    0.0055    0.0031    0.0224    0.0307
          52    0.0301    0.0141   -0.0467   -0.0266    0.1622   -0.0592   -0.0859    0.0256
          53    0.0225   -0.0435   -0.0340    0.0047   -0.1312    0.0712    0.0417   -0.0049
          54   -0.0141   -0.0280   -0.0259   -0.0118    0.0024    0.0144   -0.0225    0.0357
          55   -0.0470   -0.0163   -0.0410   -0.0170    0.0403    0.1043   -0.0340   -0.0855
          56    0.0311   -0.0270   -0.0270    0.0067   -0.0092    0.0068   -0.0343   -0.0322
          57    0.0100   -0.0097   -0.0231    0.0019   -0.0025    0.0188   -0.0144   -0.0312
          58    0.0148   -0.0957    0.0120   -0.0098    0.0268    0.0151    0.0223    0.0844
          59    0.0495   -0.0551   -0.0028    0.0068   -0.0102   -0.0248   -0.0112    0.0314
          60   -0.0180   -0.0098    0.0121   -0.0083    0.0250    0.0261    0.0189    0.0119
          61   -0.0131    0.0265    0.0101    0.0212   -0.0243   -0.0026   -0.0514    0.0024
          62   -0.0645    0.0273    0.0152   -0.2633   -0.0299    0.0070   -0.0557    0.0358
          63    0.0683    0.0218   -0.0208    0.6340    0.0384    0.0212    0.0071    0.0170


   Root No.       9        10        11        12        13        14        15        16

                 9 A      10 A      11 A      12 A      13 A      14 A      15 A      16 A   

                 379.5     431.8     484.9     531.8     699.8     747.2     781.8     805.0
  
           1   -0.0221   -0.0020    0.0107    0.0048   -0.0233    0.0054   -0.0376    0.1006
           2    0.0319    0.0213    0.0202    0.0177   -0.0028   -0.0067   -0.0002   -0.0081
           3   -0.0119    0.0392   -0.0239    0.0386   -0.0003   -0.0041   -0.0015   -0.0019
           4   -0.0391   -0.0085    0.0367    0.0150    0.0346   -0.0069    0.0305   -0.0727
           5    0.0127   -0.0066   -0.0203   -0.0146   -0.0022    0.0018    0.0029   -0.0085
           6    0.0031   -0.0021   -0.0129   -0.0052   -0.0010    0.0010    0.0012   -0.0035
           7    0.0161    0.0043   -0.0321   -0.0408    0.0032   -0.0057    0.0197   -0.0027
           8   -0.0191   -0.0012   -0.0228   -0.0102    0.0593    0.0070    0.0263    0.0282
           9   -0.0258   -0.0211   -0.0192   -0.0071    0.0012    0.0152   -0.0243   -0.0225
          10   -0.0011    0.0039   -0.0444   -0.0250   -0.0255    0.0188   -0.0002   -0.0110
          11    0.0225    0.0268   -0.0349    0.0321   -0.0032   -0.0005    0.0013   -0.0099
          12    0.0027    0.0196    0.0343   -0.0191   -0.0031    0.0030    0.0012    0.0022
          13    0.0530    0.0074    0.0091   -0.0001   -0.0147   -0.0103   -0.0053   -0.0319
          14   -0.0343   -0.0105   -0.0031    0.0032    0.0055   -0.0138    0.0240    0.0328
          15    0.0133   -0.0161   -0.0122    0.0126    0.0557    0.0190   -0.0063    0.0318
          16    0.0206   -0.0058    0.0025    0.0055    0.0210   -0.0039   -0.0308   -0.0117
          17   -0.0365   -0.0011    0.0065   -0.0068   -0.0475   -0.0343    0.0139   -0.0043
          18    0.0264   -0.0062   -0.0030    0.0033    0.0075   -0.0171    0.0176    0.0128
          19   -0.0279    0.0314    0.0063    0.0033   -0.0032    0.0025    0.0022   -0.0003
          20    0.0305   -0.0384    0.0133   -0.0113    0.0008   -0.0007   -0.0037   -0.0024
          21    0.0054    0.0187    0.0563   -0.0317   -0.0002    0.0076    0.0068    0.0060
          22    0.0126   -0.0413    0.0016    0.0281    0.0092   -0.0294    0.0012    0.0167
          23   -0.0107   -0.0015    0.0149    0.0026    0.0032    0.0193   -0.0440   -0.0216
          24   -0.0257   -0.0333   -0.0112    0.0068   -0.0305    0.0033   -0.0462   -0.0459
          25    0.0026    0.0149   -0.0118   -0.0090    0.0151   -0.0066   -0.0116    0.0054
          26   -0.0105    0.0235    0.0119   -0.0132   -0.0000    0.0202   -0.0356   -0.0193
          27    0.0051   -0.0089   -0.0094   -0.0016   -0.0303   -0.0427    0.0400    0.0161
          28    0.0192    0.0204   -0.0539   -0.0464   -0.0275    0.0159    0.0048   -0.0303
          29   -0.0221   -0.0131   -0.0052   -0.0039    0.0807   -0.0083    0.0381    0.0521
          30   -0.0363   -0.0088   -0.0578   -0.0245   -0.0322    0.0284    0.0192   -0.0471
          31   -0.0023   -0.0050   -0.0703   -0.0586   -0.0035    0.0301    0.0384   -0.0484
          32    0.0269    0.0371   -0.0072    0.0560   -0.0219   -0.0116   -0.0305    0.0383
          33    0.0132    0.0346    0.0493   -0.0400   -0.0000    0.0031    0.0131    0.0540
          34    0.0910    0.0179    0.0535    0.0505   -0.0696    0.0321   -0.0063   -0.0112
          35   -0.0153   -0.0289   -0.0068   -0.0032    0.0003    0.0268    0.0199    0.0366
          36   -0.0175   -0.0149   -0.0388   -0.0165    0.0939   -0.0208   -0.0040    0.0180
          37    0.0760    0.0106    0.0186    0.0108   -0.0282    0.0135    0.0092   -0.0184
          38   -0.0345   -0.0135    0.0275    0.0397   -0.0178   -0.0002   -0.0226    0.0330
          39    0.0709   -0.0101    0.0328    0.0657    0.0113    0.0877   -0.0052    0.0661
          40    0.0145   -0.0518    0.0199    0.0466   -0.0160    0.1028    0.0517    0.0284
          41   -0.0316    0.0190   -0.0034   -0.0255   -0.0271   -0.0984   -0.0216   -0.0216
          42    0.0239    0.0181   -0.0045   -0.0160    0.0089   -0.0197   -0.0228   -0.0066
          43    0.0131   -0.0179    0.0053    0.0155    0.0103    0.0248   -0.0058    0.0083
          44   -0.0509   -0.0445    0.0227    0.0305   -0.0946    0.0651    0.1037    0.0464
          45    0.0526   -0.0263    0.0182    0.0255   -0.0281    0.0341    0.0513   -0.0176
          46   -0.0283    0.0409    0.0308    0.0169    0.0166   -0.0140    0.0075    0.0157
          47    0.0741   -0.0870    0.0397   -0.0361    0.0079   -0.0017   -0.0044    0.0155
          48    0.0265   -0.0230    0.0176   -0.0714   -0.0379    0.0412   -0.0040   -0.0175
          49   -0.0675    0.0588    0.0372    0.0124    0.0121   -0.0108    0.0060    0.0199
          50    0.0120   -0.0536    0.0439   -0.0381   -0.0000    0.0011   -0.0019    0.0179
          51    0.0065    0.0683    0.0261    0.0238    0.0143   -0.0064    0.0061   -0.0132
          52    0.0011    0.0229    0.0188    0.0128    0.0127   -0.0085    0.0063    0.0087
          53    0.0042   -0.0399    0.0323   -0.0291   -0.0022    0.0021   -0.0039    0.0095
          54   -0.0047   -0.0072    0.1432   -0.0608    0.0299   -0.0114    0.0160    0.0619
          55   -0.0189    0.0416   -0.0151   -0.0067   -0.0741    0.1638    0.1860    0.0044
          56    0.0107    0.0465    0.0172   -0.0114    0.0101    0.0927    0.0699    0.0271
          57    0.0181    0.0051   -0.0065   -0.0003   -0.0246    0.0024    0.1060    0.0442
          58    0.0066   -0.1112    0.0280    0.1176   -0.0754    0.0763    0.1091   -0.0103
          59   -0.0003   -0.0182    0.0367    0.0303   -0.0673    0.0391    0.0212   -0.0260
          60   -0.0378   -0.0595   -0.0145    0.0352   -0.0194    0.0485   -0.0395   -0.0585
          61   -0.0366   -0.0369   -0.0064   -0.0325    0.0032    0.0110    0.0014    0.0111
          62    0.0105   -0.0094   -0.0276   -0.0162   -0.0032    0.0033    0.0033   -0.0074
          63    0.0077   -0.0027   -0.0048   -0.0124   -0.0009    0.0010    0.0005   -0.0042


   Root No.      17        18        19        20        21        22        23        24

                17 A      18 A      19 A      20 A      21 A      22 A      23 A      24 A   

                 821.1     898.1     960.7     982.1     996.8    1009.4    1025.4    1060.1
  
           1   -0.0134   -0.0065   -0.0008    0.0078    0.0047   -0.0040   -0.0047   -0.0016
           2   -0.0012   -0.0080    0.0049   -0.0304   -0.0016   -0.0086    0.0047   -0.0020
           3   -0.0011   -0.0062    0.0046   -0.0200   -0.0005   -0.0051    0.0018   -0.0004
           4    0.0085    0.0018    0.0002    0.0010   -0.0014    0.0027    0.0011   -0.0003
           5    0.0020    0.0024    0.0000   -0.0019   -0.0009    0.0002    0.0006    0.0009
           6    0.0009    0.0011    0.0001   -0.0011   -0.0004   -0.0001    0.0002    0.0005
           7    0.0009   -0.0235    0.0133    0.0061   -0.0123    0.0075    0.0096   -0.0151
           8    0.0013   -0.0087    0.0093    0.0145    0.0053   -0.0244   -0.0213   -0.0008
           9   -0.0038   -0.0098    0.0029   -0.0023    0.0129    0.0104   -0.0094   -0.0097
          10    0.0111    0.0281   -0.0023   -0.0134   -0.0067    0.0001   -0.0001    0.0180
          11    0.0020    0.0052   -0.0027    0.0258   -0.0004    0.0093   -0.0041    0.0074
          12    0.0024    0.0005    0.0018   -0.0044   -0.0025    0.0023   -0.0025   -0.0041
          13   -0.0295   -0.0208   -0.0101    0.0016    0.0202   -0.0077    0.0099   -0.0117
          14   -0.0047    0.0093   -0.0063   -0.0093    0.0084    0.0116    0.0050   -0.0020
          15   -0.0050    0.0101   -0.0069   -0.0020   -0.0255    0.0036    0.0423    0.0026
          16   -0.0187    0.0208    0.0082   -0.0077   -0.0222    0.0077   -0.0206   -0.0084
          17    0.0001    0.0033    0.0020    0.0126   -0.0245   -0.0177    0.0060    0.0077
          18   -0.0037    0.0073    0.0034    0.0002    0.0030   -0.0107   -0.0225    0.0084
          19    0.0046    0.0160   -0.0130   -0.0141    0.0081   -0.0153    0.0020   -0.0102
          20   -0.0024    0.0021   -0.0090    0.0278   -0.0001    0.0053    0.0003   -0.0051
          21    0.0009    0.0208   -0.0147    0.0287    0.0075   -0.0010    0.0023    0.0007
          22    0.0189   -0.0068   -0.0262   -0.0088    0.0001    0.0132   -0.0243    0.0019
          23    0.0018   -0.0072   -0.0098   -0.0057   -0.0041    0.0103   -0.0031   -0.0037
          24    0.0015   -0.0253   -0.0049    0.0034   -0.0157   -0.0064   -0.0015   -0.0062
          25    0.0185   -0.0003    0.0118    0.0082    0.0274   -0.0093    0.0295    0.0213
          26    0.0022   -0.0011    0.0055   -0.0003    0.0153    0.0034    0.0107    0.0063
          27    0.0108    0.0015    0.0016   -0.0040    0.0052    0.0124    0.0146   -0.0099
          28    0.0169   -0.0121    0.0398    0.0306   -0.0631    0.0556    0.0204    0.0258
          29   -0.0107   -0.0142   -0.0103   -0.0046    0.0469   -0.0577   -0.0315   -0.0301
          30   -0.0340    0.0021    0.0548    0.0006    0.1758    0.1129   -0.0872    0.0161
          31    0.0253    0.0353    0.0288   -0.0125   -0.0363    0.0079   -0.0178    0.0763
          32   -0.0119   -0.0129   -0.0134    0.0189    0.0146    0.0090    0.0077   -0.0308
          33   -0.0017   -0.0339    0.0624   -0.0240   -0.0431    0.0263   -0.0182    0.0516
          34    0.0892    0.0199    0.0288    0.0314   -0.0292   -0.0015   -0.0596    0.0162
          35    0.0398   -0.0222    0.0209   -0.0510    0.0265    0.0109    0.0290   -0.0538
          36   -0.0946   -0.0046   -0.0404   -0.0037    0.0002   -0.0002    0.0764    0.0026
          37    0.0260   -0.0331    0.0146    0.0193    0.0110   -0.0341    0.0146   -0.0300
          38    0.0167    0.0905   -0.0139   -0.0338   -0.0309    0.0926   -0.0808    0.0699
          39    0.1427    0.0406    0.0464    0.0226   -0.0736   -0.0032   -0.0111    0.0151
          40    0.0623   -0.0514   -0.0198   -0.0069    0.0461    0.0250    0.0609   -0.0012
          41   -0.0616    0.0428   -0.0053   -0.0015   -0.0707   -0.0069   -0.0070    0.0419
          42    0.0404    0.0207    0.0824    0.0434    0.0207   -0.0804   -0.1424   -0.1145
          43    0.0208    0.0066    0.0161   -0.0009   -0.0104    0.0113    0.0019   -0.0478
          44    0.1082   -0.0615    0.0001    0.0296    0.0418   -0.0193    0.0670   -0.0326
          45   -0.0294   -0.0605   -0.0653   -0.0082    0.0828   -0.0477   -0.0328    0.2175
          46   -0.0082   -0.0408    0.0303    0.0251   -0.0167    0.0293   -0.0045    0.0144
          47   -0.0051   -0.0240    0.0313   -0.0516   -0.0149   -0.0028   -0.0043    0.0189
          48    0.0260    0.1259   -0.0844   -0.0895    0.0506   -0.0970    0.0135   -0.0364
          49   -0.0065   -0.0318    0.0288   -0.0011   -0.0146    0.0163   -0.0043    0.0183
          50    0.0006   -0.0142    0.0251   -0.0684   -0.0051   -0.0109   -0.0029    0.0079
          51   -0.0144    0.0115   -0.0432    0.2152   -0.0019    0.0542    0.0029    0.0007
          52   -0.0046   -0.0235    0.0171    0.0270   -0.0118    0.0205   -0.0030    0.0115
          53   -0.0005    0.0019    0.0034   -0.0367    0.0012   -0.0133    0.0000    0.0002
          54   -0.0166   -0.0762    0.0955   -0.0666   -0.0357    0.0302   -0.0104    0.0691
          55   -0.0842   -0.0769   -0.0809   -0.0040   -0.1400   -0.0257   -0.0647   -0.0201
          56   -0.0407    0.0063   -0.0300   -0.0513    0.0320    0.0808   -0.0908   -0.0450
          57   -0.0161    0.0048   -0.0206   -0.0348    0.0141    0.0583   -0.0487   -0.0414
          58   -0.1313    0.1062    0.1311    0.0418    0.0362   -0.0507    0.0485    0.0074
          59   -0.0535    0.0560    0.0460   -0.0196    0.0010    0.0772    0.1063   -0.0502
          60   -0.0391   -0.0134    0.0394    0.0440    0.0020   -0.0989   -0.0523    0.0349
          61    0.0030    0.0165   -0.0083    0.0457    0.0010    0.0124   -0.0081    0.0086
          62    0.0022    0.0046   -0.0006    0.0019   -0.0009    0.0011   -0.0001    0.0021
          63    0.0018    0.0015   -0.0006    0.0008   -0.0007    0.0012    0.0000    0.0007


   Root No.      25        26        27        28        29        30        31        32

                25 A      26 A      27 A      28 A      29 A      30 A      31 A      32 A   

                1080.1    1098.3    1104.2    1116.1    1123.0    1138.2    1175.8    1203.3
  
           1   -0.0006   -0.0055   -0.0023   -0.0088    0.0025   -0.0012    0.0016    0.0082
           2    0.0045   -0.0221    0.0003   -0.0191   -0.0042   -0.0116    0.0046   -0.0002
           3    0.0027   -0.0077   -0.0002   -0.0060   -0.0015   -0.0024    0.0030    0.0006
           4   -0.0005    0.0053    0.0005    0.0041    0.0001    0.0003    0.0003   -0.0007
           5    0.0003   -0.0018    0.0004   -0.0004   -0.0008   -0.0002   -0.0005   -0.0011
           6    0.0001   -0.0006    0.0001    0.0003   -0.0002    0.0002   -0.0002   -0.0006
           7   -0.0044    0.0082   -0.0032   -0.0022    0.0130   -0.0296    0.0219   -0.0189
           8   -0.0123    0.0008   -0.0108   -0.0120    0.0217    0.0171    0.0227    0.0095
           9   -0.0005    0.0069   -0.0027   -0.0074    0.0031   -0.0117   -0.0034   -0.0240
          10    0.0021   -0.0186    0.0022    0.0137   -0.0050    0.0194   -0.0220   -0.0380
          11    0.0001    0.0110   -0.0139    0.0308    0.0114    0.0183   -0.0137    0.0114
          12   -0.0139    0.0188    0.0264   -0.0182   -0.0119   -0.0127   -0.0011   -0.0181
          13   -0.0003   -0.0147    0.0114    0.0168   -0.0100    0.0104    0.0071    0.0063
          14   -0.0059   -0.0052    0.0137    0.0174    0.0049   -0.0211   -0.0275    0.0223
          15    0.0245   -0.0005    0.0035    0.0068   -0.0250   -0.0040    0.0046   -0.0054
          16   -0.0066    0.0130   -0.0147   -0.0143    0.0129    0.0023   -0.0122    0.0041
          17    0.0254    0.0110   -0.0102   -0.0081   -0.0272   -0.0018    0.0026   -0.0184
          18    0.0035    0.0038    0.0039    0.0021    0.0054   -0.0065   -0.0027    0.0103
          19   -0.0044    0.0169    0.0073   -0.0051   -0.0018   -0.0009    0.0084    0.0159
          20   -0.0093    0.0041    0.0192   -0.0180   -0.0096   -0.0032    0.0004   -0.0013
          21    0.0091   -0.0148   -0.0250    0.0129    0.0135    0.0022   -0.0082    0.0079
          22    0.0218    0.0016   -0.0023    0.0004   -0.0132    0.0028   -0.0048    0.0018
          23    0.0048   -0.0016   -0.0009    0.0002    0.0022    0.0071    0.0033    0.0102
          24   -0.0172   -0.0080   -0.0016    0.0029    0.0176    0.0108   -0.0028    0.0100
          25   -0.0059    0.0011    0.0037    0.0008    0.0013   -0.0070    0.0004   -0.0059
          26   -0.0035    0.0005    0.0003    0.0006   -0.0036   -0.0021    0.0046    0.0013
          27   -0.0241   -0.0055   -0.0085   -0.0052    0.0176    0.0179    0.0115    0.0122
          28    0.0061    0.0469   -0.0391    0.0430   -0.0175   -0.1291    0.0597    0.1603
          29   -0.0165   -0.0285    0.0164   -0.0463    0.0452    0.0941   -0.0041   -0.1263
          30    0.1794    0.0420   -0.0262   -0.0658   -0.0477    0.0504    0.0688    0.0488
          31   -0.0136   -0.1214    0.0426   -0.0712   -0.0420    0.0575   -0.0705    0.1136
          32    0.0007    0.1388   -0.0162    0.1252    0.0278    0.0301    0.0270   -0.1074
          33   -0.0612    0.1375    0.1539    0.0339   -0.0804    0.1541   -0.0123    0.0728
          34   -0.0140   -0.0037   -0.0167   -0.0239    0.0179    0.0195    0.0581   -0.0104
          35   -0.0225    0.0625   -0.0228    0.0016    0.0300   -0.0703   -0.1486    0.0466
          36    0.0406   -0.0313    0.0357    0.0389   -0.0519    0.0068    0.0152   -0.0041
          37    0.0141    0.0278   -0.0359   -0.0252   -0.0190    0.0215   -0.0490    0.0171
          38   -0.0477   -0.0774    0.1068    0.0770    0.0621   -0.0646    0.1508   -0.0492
          39    0.0327    0.0524   -0.0433   -0.0560   -0.0050   -0.0066   -0.0031   -0.0370
          40   -0.0382   -0.0174   -0.0062    0.0006    0.0135    0.0300    0.0211    0.0281
          41    0.0169    0.0460   -0.0518   -0.0438   -0.0299   -0.0004    0.0011   -0.0304
          42    0.0951   -0.0457    0.1205    0.0889    0.0075   -0.0737   -0.0704   -0.0045
          43   -0.0032   -0.0116   -0.0045    0.0048   -0.0083    0.0156    0.0034    0.0086
          44    0.0353   -0.0407    0.0315    0.0433   -0.0709   -0.0017    0.0290   -0.0296
          45   -0.0006    0.0704    0.0240   -0.0266    0.0751   -0.0977   -0.0621   -0.0389
          46   -0.0050   -0.0157    0.0060   -0.0051   -0.0031   -0.0031   -0.0212   -0.0191
          47    0.0123   -0.0025   -0.0088    0.0259   -0.0006    0.0183    0.0224   -0.0150
          48    0.0203    0.0482   -0.0337    0.0341    0.0187    0.0212    0.0639    0.0760
          49    0.0043   -0.0161   -0.0055    0.0114    0.0001    0.0112   -0.0038   -0.0114
          50    0.0066    0.0120   -0.0095    0.0204    0.0047    0.0054    0.0029   -0.0020
          51   -0.0125   -0.0535    0.0174   -0.0401   -0.0116    0.0002   -0.0194   -0.0126
          52   -0.0041   -0.0161    0.0061   -0.0067   -0.0041    0.0035   -0.0178   -0.0035
          53    0.0040    0.0142   -0.0023    0.0145    0.0009    0.0089    0.0157    0.0040
          54    0.0527   -0.0668   -0.0965    0.1083    0.0406    0.0489   -0.0246   -0.0217
          55    0.0848    0.0097    0.0353   -0.0081    0.0630    0.0139    0.0120    0.0286
          56   -0.1018   -0.0049   -0.0760    0.0117   -0.1315   -0.0340   -0.0354   -0.0613
          57   -0.0846   -0.0092   -0.0543    0.0017   -0.0574   -0.0005   -0.0126   -0.0240
          58   -0.0330    0.0050   -0.0078    0.0036   -0.0135   -0.0242    0.0127   -0.0125
          59    0.0442    0.0148    0.0515   -0.0518    0.1432    0.0303   -0.0320   -0.0239
          60   -0.0842   -0.0203   -0.0496    0.0479   -0.0998   -0.0224    0.0378    0.0317
          61   -0.0083    0.0272    0.0017    0.0311    0.0047    0.0274   -0.0195   -0.0049
          62   -0.0003    0.0006    0.0002    0.0035   -0.0003    0.0029   -0.0028   -0.0021
          63   -0.0004    0.0007    0.0014    0.0005   -0.0006    0.0013   -0.0014   -0.0011


   Root No.      33        34        35        36        37        38        39        40

                33 A      34 A      35 A      36 A      37 A      38 A      39 A      40 A   

                1238.2    1267.6    1294.4    1331.4    1352.8    1377.3    1398.2    1403.1
  
           1    0.0063    0.0021    0.0049    0.0038    0.0014    0.0010   -0.0001   -0.0003
           2   -0.0078   -0.0144   -0.0056   -0.0134   -0.0002   -0.0004   -0.0010   -0.0009
           3   -0.0034   -0.0103   -0.0023   -0.0091    0.0007    0.0003   -0.0016   -0.0010
           4   -0.0000    0.0001    0.0006    0.0011    0.0006    0.0006   -0.0005    0.0000
           5   -0.0014   -0.0015   -0.0012   -0.0027    0.0001    0.0002   -0.0007   -0.0005
           6   -0.0006   -0.0009   -0.0006   -0.0016    0.0001    0.0001   -0.0004   -0.0003
           7   -0.0240   -0.0303    0.0189    0.0377    0.0117    0.0114   -0.0039    0.0026
           8    0.0264    0.0091   -0.0139   -0.0297   -0.0146   -0.0214    0.0063   -0.0022
           9    0.0351    0.0095    0.0144   -0.0378    0.0382    0.0455   -0.0166   -0.0022
          10   -0.0170    0.0121   -0.0307   -0.0339   -0.0131   -0.0105    0.0030   -0.0019
          11    0.0204    0.0228    0.0290    0.0462    0.0081    0.0075    0.0007    0.0020
          12    0.0074    0.0644   -0.0161    0.0342   -0.0159   -0.0085    0.0217    0.0098
          13    0.0168    0.0148    0.0097   -0.0125   -0.0048   -0.0040    0.0034   -0.0034
          14   -0.0196   -0.0101   -0.0473    0.0237    0.0118    0.0137   -0.0030    0.0026
          15    0.0014   -0.0053    0.0119    0.0026   -0.0125   -0.0131   -0.0029    0.0062
          16   -0.0050   -0.0042    0.0020   -0.0015   -0.0146   -0.0041    0.0028    0.0041
          17    0.0157   -0.0050    0.0106   -0.0003   -0.0125    0.0143   -0.0075   -0.0051
          18   -0.0238    0.0179   -0.0131    0.0014    0.0740   -0.0047    0.0002   -0.0084
          19    0.0023   -0.0075    0.0071    0.0051    0.0017    0.0035    0.0174   -0.0264
          20   -0.0071   -0.0077   -0.0031   -0.0143   -0.0002    0.0010    0.0189    0.0178
          21   -0.0084   -0.0139    0.0122   -0.0098   -0.0031   -0.0162   -0.0353   -0.0221
          22    0.0044    0.0040    0.0014   -0.0077    0.0008    0.0035   -0.0018   -0.0007
          23   -0.0158    0.0094    0.0016   -0.0035   -0.0055    0.0059   -0.0009    0.0020
          24    0.0012   -0.0281   -0.0163    0.0299   -0.0056   -0.0351    0.0102   -0.0019
          25    0.0085   -0.0074   -0.0046    0.0055    0.0127   -0.0076    0.0011   -0.0021
          26   -0.0149    0.0100    0.0060   -0.0027   -0.0021    0.0135   -0.0027    0.0021
          27   -0.0078    0.0122    0.0096   -0.0152   -0.0448    0.0125   -0.0010    0.0056
          28    0.0731    0.0230   -0.0792   -0.0960   -0.0285   -0.0295    0.0085   -0.0057
          29   -0.0498   -0.0302    0.0575    0.0721    0.0125    0.0067   -0.0016    0.0048
          30   -0.0787   -0.0107   -0.0069    0.0473   -0.0559   -0.0528    0.0181    0.0050
          31    0.0530    0.0025    0.0842    0.0646    0.0283    0.0255   -0.0091   -0.0082
          32   -0.0484   -0.0195   -0.0629   -0.0691   -0.0168   -0.0177   -0.0031    0.0011
          33   -0.0081   -0.1284    0.0325   -0.0663    0.0297    0.0187   -0.0352   -0.0150
          34    0.0252   -0.0083   -0.0684   -0.0014    0.0777   -0.0158   -0.0319    0.0289
          35   -0.0853    0.0397    0.1915   -0.1080   -0.0168   -0.0691    0.0117   -0.0004
          36    0.0211   -0.0090   -0.0236    0.0457   -0.0614    0.0308    0.0174   -0.0168
          37    0.0096   -0.0003   -0.0472    0.0183   -0.0133    0.0291    0.0078   -0.0089
          38   -0.0098   -0.0011    0.1223   -0.0107   -0.0202   -0.0204    0.0133   -0.0144
          39   -0.0093   -0.0385   -0.0034    0.0627   -0.0718    0.0560    0.0274   -0.0285
          40   -0.0284    0.0246   -0.0425    0.0092   -0.0492    0.1094   -0.0416   -0.0224
          41    0.0060   -0.0014    0.0386   -0.0099    0.0779   -0.0751    0.0273    0.0086
          42    0.0574   -0.0550    0.0013    0.0059   -0.1209    0.0157   -0.0074    0.0085
          43   -0.0098    0.0105    0.0067   -0.0058    0.0373   -0.0375    0.0156    0.0064
          44    0.0337    0.0024    0.0483   -0.0136    0.1075   -0.1280    0.0479    0.0184
          45    0.0500   -0.0733    0.0174    0.0082   -0.0945   -0.0173    0.0060    0.0164
          46   -0.0115    0.0243   -0.0026   -0.0009   -0.0151   -0.0280   -0.0551   -0.1099
          47    0.0301    0.0253   -0.0345    0.0597   -0.0009   -0.0037   -0.1779   -0.1112
          48    0.0395   -0.0703    0.0144    0.0357    0.0357    0.0558    0.0323    0.1536
          49    0.0101    0.0132   -0.0210    0.0247    0.0005   -0.0119   -0.1820    0.1929
          50    0.0111    0.0327    0.0060    0.0235   -0.0113   -0.0361   -0.1071    0.0886
          51   -0.0310   -0.0758   -0.0317   -0.0578    0.0215    0.0543    0.0442    0.0056
          52   -0.0110   -0.0065    0.0052   -0.0285    0.0025   -0.0020    0.0233    0.2475
          53    0.0127   -0.0048   -0.0063    0.0176    0.0058    0.0244    0.0572   -0.1877
          54    0.0188   -0.0140   -0.0012   -0.0073    0.0252    0.0684    0.2045    0.0374
          55   -0.0462    0.0429    0.0083   -0.0204    0.0068    0.0216   -0.0041    0.0027
          56    0.0844   -0.0875   -0.0142    0.0475    0.0111   -0.0394    0.0065   -0.0067
          57    0.0517   -0.0466   -0.0033    0.0146   -0.0394   -0.0207    0.0051    0.0006
          58   -0.0136    0.0080    0.0131   -0.0064    0.0006    0.0183   -0.0049    0.0015
          59    0.1013   -0.0464   -0.0357    0.0137    0.0348   -0.0476    0.0104   -0.0079
          60   -0.1082    0.0214    0.0211    0.0160   -0.0417    0.0171   -0.0004    0.0080
          61    0.0163    0.0534    0.0104    0.0515   -0.0115   -0.0104    0.0200    0.0109
          62   -0.0001    0.0040   -0.0003    0.0026   -0.0014   -0.0010    0.0015    0.0006
          63    0.0000    0.0022   -0.0007    0.0012   -0.0006   -0.0007    0.0009    0.0006


   Root No.      41        42        43        44        45        46        47        48

                41 A      42 A      43 A      44 A      45 A      46 A      47 A      48 A   

                1409.3    1422.2    1445.5    1483.5    1830.9    2840.5    2896.8    2954.9
  
           1    0.0000    0.0002   -0.0005   -0.0215    0.0000    0.0007   -0.0005   -0.0000
           2    0.0003    0.0007    0.0009    0.0486    0.0004    0.0013    0.0002    0.0000
           3    0.0002    0.0008    0.0000    0.0239   -0.0001    0.0005   -0.0000    0.0000
           4   -0.0001    0.0003   -0.0001   -0.0230   -0.0001    0.0002    0.0000   -0.0000
           5    0.0000    0.0007    0.0002   -0.0351   -0.0001   -0.0007   -0.0000   -0.0000
           6    0.0000    0.0003    0.0001   -0.0150   -0.0000   -0.0003   -0.0000   -0.0000
           7   -0.0043   -0.0042   -0.0067    0.0052   -0.0029    0.0021   -0.0370   -0.0017
           8    0.0090    0.0019    0.0087    0.0008    0.0151    0.0043   -0.0507   -0.0026
           9   -0.0099    0.0111   -0.0166    0.0098   -0.0115   -0.0004    0.0016   -0.0002
          10    0.0018    0.0016    0.0061   -0.0078   -0.0009   -0.0456   -0.0042    0.0001
          11   -0.0022   -0.0036   -0.0067   -0.0234    0.0001   -0.0500   -0.0033   -0.0004
          12   -0.0035   -0.0072    0.0105   -0.0212   -0.0041    0.0130    0.0005   -0.0001
          13    0.0111    0.0104    0.0059   -0.0009   -0.0020   -0.0003    0.0054   -0.0352
          14   -0.0149    0.0065   -0.0159    0.0007    0.0004    0.0000    0.0014   -0.0148
          15   -0.0124   -0.0404   -0.0056   -0.0036    0.0079   -0.0001    0.0014   -0.0187
          16   -0.0188    0.0080   -0.0052   -0.0002    0.0083    0.0000   -0.0004    0.0129
          17    0.0294   -0.0247    0.0103   -0.0003   -0.0159   -0.0000    0.0001    0.0050
          18    0.0309    0.0041    0.0142    0.0016   -0.0083    0.0000   -0.0001    0.0032
          19   -0.0027   -0.0046   -0.0025    0.0013   -0.0000    0.0011   -0.0000    0.0010
          20    0.0083   -0.0015   -0.0130    0.0002   -0.0001    0.0014    0.0002   -0.0023
          21    0.0139    0.0061   -0.0325    0.0023    0.0011    0.0009    0.0001   -0.0006
          22    0.0008   -0.0006   -0.0002    0.0003    0.0732   -0.0003   -0.0002   -0.0000
          23   -0.0109    0.0040   -0.0052    0.0002   -0.2200    0.0001   -0.0002    0.0000
          24    0.0172   -0.0045    0.0123   -0.0030    0.0549   -0.0004    0.0008    0.0001
          25    0.0105   -0.0034    0.0045   -0.0000   -0.0854    0.0000   -0.0003   -0.0001
          26   -0.0110    0.0041   -0.0062    0.0004    0.2226   -0.0001    0.0003   -0.0000
          27   -0.0261    0.0075   -0.0105   -0.0000   -0.0050   -0.0000   -0.0002    0.0000
          28    0.0150    0.0167    0.0136    0.0169    0.0120   -0.0327    0.4616    0.0200
          29   -0.0058   -0.0145   -0.0063   -0.0094   -0.0025   -0.0513    0.6077    0.0306
          30    0.0045   -0.0181    0.0147   -0.0046   -0.0315    0.0035   -0.0121    0.0004
          31   -0.0062   -0.0016   -0.0115   -0.0156   -0.0001    0.5450    0.0399    0.0018
          32    0.0063    0.0031    0.0005   -0.0112    0.0017    0.5896    0.0380    0.0011
          33    0.0017    0.0101   -0.0169    0.0105   -0.0008   -0.1615   -0.0090   -0.0005
          34   -0.0856   -0.1836   -0.0739   -0.0060    0.0047   -0.0003   -0.0243    0.2129
          35    0.0335   -0.0533    0.1297   -0.0034    0.0011    0.0009   -0.0106    0.1170
          36    0.0412    0.1322    0.0006    0.0025    0.0049    0.0017   -0.0335    0.3210
          37    0.0114    0.0796   -0.0041    0.0027   -0.0051    0.0004   -0.0351    0.2097
          38    0.0610    0.0348    0.0430    0.0041   -0.0026    0.0005   -0.0150    0.0604
          39    0.0645    0.2070    0.0210    0.0105   -0.0001    0.0000    0.0134   -0.0933
          40    0.1216   -0.0950    0.0305   -0.0001    0.0098   -0.0001    0.0021   -0.0566
          41   -0.0565    0.0632   -0.0079    0.0011   -0.0041   -0.0001    0.0032   -0.0896
          42   -0.0197   -0.0327   -0.0089   -0.0026   -0.0314   -0.0001    0.0013   -0.0310
          43   -0.0403    0.0412   -0.0096    0.0003    0.0103   -0.0000    0.0011   -0.0995
          44   -0.1127    0.1115   -0.0277    0.0005   -0.0052   -0.0000   -0.0001    0.0310
          45   -0.0627    0.0022   -0.0195   -0.0013   -0.0349    0.0000   -0.0005   -0.0101
          46   -0.0020    0.0037   -0.0200    0.0019    0.0002   -0.0096   -0.0010   -0.0048
          47   -0.0892    0.0175    0.1596    0.0081   -0.0005    0.0012    0.0002   -0.0005
          48   -0.0347   -0.0006    0.1092    0.0029    0.0001    0.0002   -0.0000   -0.0030
          49   -0.0235    0.0396    0.1256    0.0050   -0.0005    0.0033    0.0012   -0.0130
          50    0.0361    0.0236   -0.0575   -0.0034    0.0003   -0.0097   -0.0028    0.0262
          51   -0.0785   -0.0068    0.2054    0.0111   -0.0006   -0.0004   -0.0006    0.0103
          52    0.0568    0.0117   -0.0472   -0.0063    0.0000   -0.0097   -0.0008    0.0038
          53   -0.0504   -0.0213    0.0463    0.0008   -0.0002   -0.0119    0.0000    0.0028
          54   -0.0173   -0.0312    0.0350   -0.0186    0.0000   -0.0017   -0.0011   -0.0015
          55   -0.0178    0.0099   -0.0085    0.0017    0.0246    0.0001   -0.0007    0.0001
          56    0.0423   -0.0214    0.0185   -0.0017    0.0425   -0.0002    0.0022   -0.0003
          57    0.0051   -0.0070    0.0045   -0.0014   -0.1666    0.0004   -0.0036    0.0008
          58   -0.0082    0.0008   -0.0055    0.0018    0.0601   -0.0005    0.0015   -0.0002
          59    0.0373   -0.0056    0.0182   -0.0009   -0.0610    0.0006   -0.0051    0.0003
          60   -0.0297    0.0057   -0.0106   -0.0014   -0.1539    0.0003   -0.0032    0.0006
          61   -0.0007   -0.0160   -0.0013    0.7284    0.0007    0.0006    0.0001    0.0000
          62   -0.0001   -0.0012    0.0002    0.0549    0.0000   -0.0014   -0.0000   -0.0000
          63    0.0002   -0.0005   -0.0001    0.0202   -0.0000   -0.0006   -0.0000    0.0000


   Root No.      49        50        51        52        53        54        55        56

                49 A      50 A      51 A      52 A      53 A      54 A      55 A      56 A   

                2978.8    3049.7    3055.8    3059.5    3090.7    3113.8    3133.0    3172.5
  
           1   -0.0000    0.0000    0.0000   -0.0000   -0.0001    0.0000   -0.0000   -0.0000
           2    0.0000   -0.0001   -0.0000    0.0001   -0.0000   -0.0000    0.0000    0.0001
           3    0.0000   -0.0001   -0.0001    0.0003    0.0000    0.0000   -0.0000   -0.0001
           4   -0.0000    0.0000    0.0000   -0.0000    0.0000   -0.0000    0.0000   -0.0000
           5   -0.0000    0.0000    0.0000   -0.0000   -0.0000    0.0000   -0.0000   -0.0000
           6   -0.0000   -0.0000   -0.0000    0.0000   -0.0000    0.0000   -0.0000   -0.0000
           7   -0.0004   -0.0006   -0.0000   -0.0003    0.0001    0.0001   -0.0000    0.0000
           8   -0.0007    0.0000   -0.0003   -0.0000   -0.0001   -0.0000   -0.0010   -0.0001
           9   -0.0001    0.0003    0.0002    0.0001    0.0003    0.0003    0.0004    0.0001
          10    0.0000    0.0001    0.0001   -0.0002   -0.0008   -0.0000   -0.0000    0.0000
          11   -0.0001    0.0001    0.0002   -0.0005   -0.0007   -0.0000    0.0000    0.0001
          12   -0.0000    0.0001    0.0000   -0.0001    0.0002    0.0001   -0.0001   -0.0009
          13   -0.0113   -0.0159   -0.0032   -0.0062   -0.0000    0.0001   -0.0006    0.0003
          14   -0.0049   -0.0032   -0.0004   -0.0006   -0.0001   -0.0001    0.0000    0.0001
          15   -0.0071    0.0195    0.0028    0.0116   -0.0004   -0.0001    0.0015    0.0006
          16   -0.0415    0.0020   -0.0109   -0.0025   -0.0000   -0.0000   -0.0010    0.0000
          17   -0.0150   -0.0076    0.0260    0.0053    0.0000    0.0001    0.0021    0.0000
          18   -0.0107   -0.0008    0.0034    0.0008   -0.0000   -0.0001    0.0004   -0.0000
          19    0.0005   -0.0051   -0.0041    0.0095   -0.0527    0.0000    0.0000   -0.0033
          20   -0.0011    0.0144    0.0121   -0.0287   -0.0168    0.0000   -0.0001    0.0120
          21   -0.0003    0.0031    0.0025   -0.0058   -0.0051   -0.0000   -0.0000   -0.0233
          22   -0.0002   -0.0000   -0.0001   -0.0001    0.0000   -0.0165    0.0164    0.0000
          23   -0.0001    0.0001    0.0001    0.0001    0.0000    0.0243   -0.0268   -0.0000
          24   -0.0000   -0.0000    0.0003    0.0001   -0.0000    0.0280   -0.0234   -0.0000
          25   -0.0001    0.0001   -0.0002   -0.0000   -0.0000    0.0004   -0.0019   -0.0000
          26   -0.0001   -0.0000   -0.0004   -0.0002    0.0000    0.0185    0.0263    0.0000
          27    0.0000   -0.0003    0.0013    0.0003   -0.0000   -0.0310   -0.0339    0.0000
          28    0.0051    0.0035    0.0012    0.0015    0.0001   -0.0015    0.0033    0.0004
[...]
 T-DIPOLE    0.4326         C  4 -- H 11         +12.6% ( 52.0%)      0.2%
 TRAVEL      0.0789         C  3 -- H 10         +11.4% ( 49.5%)      0.0%
 RED. MASS   1.6217         O  1 -- C  4         +10.7% ( 48.1%)     95.4%
 EFF. MASS   8.1310         C  3 -- C  8         +10.5% ( 47.6%)     50.2%

 VIBRATION   37   37A         ATOM PAIR      ENERGY CONTRIBUTION    RADIAL
 FREQ.      1352.82         C  6 -- C  9         +20.9% ( 65.2%)     75.5%
 T-DIPOLE    0.0763         C  6 -- H 14         +16.4% ( 57.7%)      0.0%
 TRAVEL      0.0802         C  6 -- H 15         +16.1% ( 57.2%)      0.0%
 RED. MASS   1.8027         C  5 -- C  6         +12.2% ( 49.9%)     70.0%
 EFF. MASS   7.7421

 VIBRATION   38   38A         ATOM PAIR      ENERGY CONTRIBUTION    RADIAL
 FREQ.      1377.34         C  3 -- C  8         +19.3% ( 57.1%)     95.9%
 T-DIPOLE    0.0739         C  3 -- H 10         +11.3% ( 43.8%)      1.3%
 TRAVEL      0.0905         C  3 -- C  5         +11.1% ( 43.4%)      0.9%
 RED. MASS   0.8977         C  3 -- C  4         +11.1% ( 43.3%)     54.9%
 EFF. MASS   5.9791

 VIBRATION   39   39A         ATOM PAIR      ENERGY CONTRIBUTION    RADIAL
 FREQ.      1398.17         C  7 -- H 17         +25.0% ( 52.3%)      0.3%
 T-DIPOLE    0.1224         C  7 -- H 18         +23.9% ( 51.1%)      9.8%
 TRAVEL      0.1274         C  7 -- H 16         +20.9% ( 47.8%)      0.1%
 RED. MASS   0.4147         C  4 -- C  7         +11.1% ( 34.9%)     94.7%
 EFF. MASS   2.9712

 VIBRATION   40   40A         ATOM PAIR      ENERGY CONTRIBUTION    RADIAL
 FREQ.      1403.13         C  7 -- H 18         +42.3% ( 59.8%)      0.0%
 T-DIPOLE    0.1213         C  7 -- H 17         +22.0% ( 43.1%)      2.5%
 TRAVEL      0.1576         C  7 -- H 16         +21.6% ( 42.7%)     15.0%
 RED. MASS   0.3803         C  4 -- C  7          +6.9% ( 24.1%)     54.2%
 EFF. MASS   1.9357

 VIBRATION   41   41A         ATOM PAIR      ENERGY CONTRIBUTION    RADIAL
 FREQ.      1409.30         C  6 -- C  9         +17.0% ( 50.7%)     97.1%
 T-DIPOLE    0.0791         C  6 -- H 14         +15.0% ( 47.6%)      5.6%
 TRAVEL      0.0970         C  6 -- H 15         +14.9% ( 47.4%)      5.9%
 RED. MASS   0.6147         C  5 -- C  6         +11.0% ( 40.7%)      0.6%
 EFF. MASS   5.0822

 VIBRATION   42   42A         ATOM PAIR      ENERGY CONTRIBUTION    RADIAL
 FREQ.      1422.16         C  5 -- H 12         +27.6% ( 55.1%)      5.0%
 T-DIPOLE    0.0182         C  5 -- H 13         +25.6% ( 53.0%)      5.2%
 TRAVEL      0.1265         C  5 -- C  6         +11.5% ( 35.6%)     94.0%
 RED. MASS   0.4095         C  3 -- C  5          +8.3% ( 30.3%)     24.8%
 EFF. MASS   2.9606

 VIBRATION   43   43A         ATOM PAIR      ENERGY CONTRIBUTION    RADIAL
 FREQ.      1445.53         C  7 -- H 17         +30.3% ( 57.3%)      4.9%
 T-DIPOLE    0.0722         C  7 -- H 16         +18.5% ( 44.8%)      1.9%
 TRAVEL      0.1269         C  5 -- H 12         +11.3% ( 35.0%)      0.9%
 RED. MASS   0.3283         C  7 -- H 18          +7.0% ( 27.5%)      0.4%
 EFF. MASS   2.8954

 VIBRATION   44   44A         ATOM PAIR      ENERGY CONTRIBUTION    RADIAL
 FREQ.      1483.48         O  2 -- H 21         +85.3% ( 91.7%)      2.8%
 T-DIPOLE    0.4118         O  1 -- C  4          +5.7% ( 23.6%)     98.3%
 TRAVEL      0.1323         O  1 -- O  2          +4.9% ( 22.0%)      0.0%
 RED. MASS   0.8707         C  3 -- C  4          +1.4% ( 11.6%)     19.9%
 EFF. MASS   2.5950

 VIBRATION   45   45A         ATOM PAIR      ENERGY CONTRIBUTION    RADIAL
 FREQ.      1830.91         C  8 -- C  9         +45.9% (100.2%)    100.0%
 T-DIPOLE    0.1066         C  3 -- C  8         +13.9% ( 55.2%)     25.0%
 TRAVEL      0.0557         C  6 -- C  9         +13.9% ( 55.1%)     25.8%
 RED. MASS   5.3935         C  8 -- H 20         +13.0% ( 53.3%)     10.0%
 EFF. MASS  11.8833         C  9 -- H 19         +12.9% ( 53.2%)      9.6%

 VIBRATION   46   46A         ATOM PAIR      ENERGY CONTRIBUTION    RADIAL
 FREQ.      2840.50         C  4 -- H 11         +95.9% ( 99.7%)    100.0%
 T-DIPOLE    0.0853         C  3 -- C  4          +1.2% ( 10.9%)     10.5%
 TRAVEL      0.1272         O  1 -- C  4          +1.1% ( 10.9%)     12.1%
 RED. MASS   0.9184         C  4 -- C  7          +1.1% ( 10.8%)     10.3%
 EFF. MASS   1.4667

 VIBRATION   47   47A         ATOM PAIR      ENERGY CONTRIBUTION    RADIAL
 FREQ.      2896.77         C  3 -- H 10         +95.8% ( 99.4%)    100.0%
 T-DIPOLE    0.1326         C  3 -- C  5          +1.0% ( 10.4%)     10.0%
 TRAVEL      0.1271         C  3 -- C  8          +1.0% ( 10.2%)     11.0%
 RED. MASS   0.9085         C  3 -- C  4          +1.0% ( 10.2%)      9.1%
 EFF. MASS   1.4416

 VIBRATION   48   48A         ATOM PAIR      ENERGY CONTRIBUTION    RADIAL
 FREQ.      2954.89         C  5 -- H 12         +63.2% ( 82.5%)     98.4%
 T-DIPOLE    0.0963         C  5 -- H 13         +24.1% ( 51.0%)     92.3%
 TRAVEL      0.1221         C  6 -- H 14          +5.0% ( 23.1%)     96.5%
 RED. MASS   0.4954         C  6 -- H 15          +4.5% ( 22.0%)     95.8%
 EFF. MASS   1.5319

 VIBRATION   49   49A         ATOM PAIR      ENERGY CONTRIBUTION    RADIAL
 FREQ.      2978.76         C  6 -- H 14         +45.1% ( 69.5%)     96.7%
 T-DIPOLE    0.0674         C  6 -- H 15         +43.6% ( 68.3%)     96.6%
 TRAVEL      0.1217         C  5 -- H 12          +7.3% ( 27.9%)     99.0%
 RED. MASS   0.4294         C  5 -- H 13          +1.8% ( 14.0%)     90.5%
 EFF. MASS   1.5285

 VIBRATION   50   50A         ATOM PAIR      ENERGY CONTRIBUTION    RADIAL
 FREQ.      3049.69         C  5 -- H 13         +57.0% ( 75.2%)     99.6%
 T-DIPOLE    0.0805         C  5 -- H 12         +16.2% ( 40.1%)     90.3%
 TRAVEL      0.1288         C  7 -- H 17         +15.3% ( 39.0%)     99.4%
 RED. MASS   0.3719         C  6 -- H 14          +4.2% ( 20.4%)     98.2%
 EFF. MASS   1.3325

 VIBRATION   51   51A         ATOM PAIR      ENERGY CONTRIBUTION    RADIAL
 FREQ.      3055.76         C  6 -- H 15         +44.3% ( 65.9%)     97.8%
 T-DIPOLE    0.1213         C  6 -- H 14         +41.3% ( 63.7%)     97.4%
 TRAVEL      0.1301         C  7 -- H 17          +9.0% ( 29.8%)     99.4%
 RED. MASS   0.3800         C  5 -- H 13          +1.6% ( 12.6%)     99.9%
 EFF. MASS   1.3047

 VIBRATION   52   52A         ATOM PAIR      ENERGY CONTRIBUTION    RADIAL
 FREQ.      3059.55         C  7 -- H 17         +59.4% ( 78.3%)     99.4%
 T-DIPOLE    0.0690         C  5 -- H 13         +13.7% ( 37.5%)     98.8%
 TRAVEL      0.1239         C  7 -- H 18          +8.6% ( 29.8%)     80.3%
 RED. MASS   0.3872         C  5 -- H 12          +7.8% ( 28.3%)     95.4%
 EFF. MASS   1.4347

 VIBRATION   53   53A         ATOM PAIR      ENERGY CONTRIBUTION    RADIAL
 FREQ.      3090.69         C  7 -- H 18         +49.0% ( 72.2%)     96.8%
 T-DIPOLE    0.0918         C  7 -- H 16         +48.6% ( 72.0%)     97.2%
 TRAVEL      0.1203         C  7 -- H 17          +1.4% ( 12.0%)      9.2%
 RED. MASS   0.5062         C  4 -- C  7          +1.0% ( 10.4%)      0.0%
 EFF. MASS   1.5074

 VIBRATION   54   54A         ATOM PAIR      ENERGY CONTRIBUTION    RADIAL
 FREQ.      3113.81         C  8 -- H 20         +53.8% ( 74.5%)    100.0%
 T-DIPOLE    0.3923         C  9 -- H 19         +43.6% ( 67.1%)    100.0%
 TRAVEL      0.1217         C  8 -- C  9          +1.1% ( 10.7%)      0.3%
 RED. MASS   0.4699         C  3 -- C  8          +0.8% (  9.1%)     25.4%
 EFF. MASS   1.4633

 VIBRATION   55   55A         ATOM PAIR      ENERGY CONTRIBUTION    RADIAL
 FREQ.      3132.99         C  9 -- H 19         +52.7% ( 74.0%)     99.9%
 T-DIPOLE    0.3683         C  8 -- H 20         +42.7% ( 66.6%)     99.9%
 TRAVEL      0.1141         C  8 -- C  9          +2.5% ( 16.1%)     99.7%
 RED. MASS   0.4710         C  6 -- C  9          +1.0% ( 10.3%)     21.1%
 EFF. MASS   1.6520

 VIBRATION   56   56A         ATOM PAIR      ENERGY CONTRIBUTION    RADIAL
 FREQ.      3172.54         C  7 -- H 16         +45.3% ( 65.0%)     98.2%
 T-DIPOLE    0.0866         C  7 -- H 18         +39.7% ( 60.9%)     97.5%
 TRAVEL      0.1360         C  7 -- H 17         +14.7% ( 37.0%)     90.0%
 RED. MASS   0.3715         C  4 -- C  7          +0.3% (  5.3%)     84.4%
 EFF. MASS   1.1496

 VIBRATION   57   57A         ATOM PAIR      ENERGY CONTRIBUTION    RADIAL
 FREQ.      3988.43         O  2 -- H 21         +99.6% (100.0%)     99.9%
 T-DIPOLE    0.3803         O  1 -- O  2          +0.4% (  6.0%)      0.0%
 TRAVEL      0.1107
 RED. MASS   0.9479
 EFF. MASS   1.3795

      SYMMETRY NUMBER FOR POINT-GROUP C1  =  1


          SYSTEM IS A GROUND STATE



 InChI=1S/C7H12O2/c1-6(9-8)7-4-2-3-5-7/h2,4,6-8H,3,5H2,1H3


          MOLECULE IS NOT LINEAR

          THERE ARE 57 GENUINE VIBRATIONS IN THIS SYSTEM
          THIS THERMODYNAMICS CALCULATION IS LIMITED TO
          MOLECULES WHICH HAVE NO INTERNAL ROTATIONS




                    CALCULATED THERMODYNAMIC PROPERTIES
                                          *
   TEMP. (K)   PARTITION FUNCTION   H.O.F.    ENTHALPY  HEAT CAPACITY ENTROPY
                                   KCAL/MOL   CAL/MOLE    CAL/K/MOL  CAL/K/MOL


 298.00  VIB.     0.8969D+03                  4390.7211    29.9313    28.2450
         ROT.     0.5340D+06                   888.2813     2.9808    29.1882
         INT.     0.4789D+09                  5279.0024    32.9121    57.4332
         TRA.     0.1403D+28                  1480.4688     4.9680    40.4556
         TOT.                      -29.022    6759.4712    37.8801    97.8888

 200.00  VIB.     0.7834D+02                  1988.9400    19.4064    18.6110
         ROT.     0.2936D+06                   596.1620     2.9808    27.9996
         INT.     0.2300D+08                  2585.1020    22.3872    46.6106
         TRA.     0.7713D+27                   993.6033     4.9680    38.4745
         TOT.                      -32.203    3578.7052    27.3552    85.0850

 210.00  VIB.     0.1006D+03                  2187.8527    20.3805    19.5813
         ROT.     0.3159D+06                   625.9700     2.9808    28.1450
         INT.     0.3177D+08                  2813.8228    23.3613    47.7263
         TRA.     0.8299D+27                  1043.2834     4.9680    38.7168
         TOT.                      -31.924    3857.1062    28.3294    86.4432

 220.00  VIB.     0.1291D+03                  2396.6386    21.3810    20.5524
         ROT.     0.3387D+06                   655.7781     2.9808    28.2837
         INT.     0.4372D+08                  3052.4168    24.3619    48.8361
         TRA.     0.8899D+27                  1092.9636     4.9680    38.9480
         TOT.                      -31.636    4145.3803    29.3299    87.7840

 230.00  VIB.     0.1656D+03                  2615.5607    22.4077    21.5254
         ROT.     0.3621D+06                   685.5862     2.9808    28.4162
         INT.     0.5994D+08                  3301.1470    25.3885    49.9416
         TRA.     0.9512D+27                  1142.6437     4.9680    39.1688
         TOT.                      -31.337    4443.7907    30.3565    89.1104

 240.00  VIB.     0.2123D+03                  2844.8751    23.4593    22.5012
         ROT.     0.3859D+06                   715.3943     2.9808    28.5430
         INT.     0.8194D+08                  3560.2695    26.4401    51.0442
         TRA.     0.1014D+28                  1192.3239     4.9680    39.3802
         TOT.                      -31.029    4752.5934    31.4081    90.4245

 250.00  VIB.     0.2722D+03                  3084.8231    24.5340    23.4806
         ROT.     0.4103D+06                   745.2024     2.9808    28.6647
         INT.     0.1117D+09                  3830.0255    27.5148    52.1453
         TRA.     0.1078D+28                  1242.0041     4.9680    39.5830
         TOT.                      -30.709    5072.0296    32.4828    91.7283

 260.00  VIB.     0.3489D+03                  3335.6247    25.6296    24.4641
         ROT.     0.4352D+06                   775.0105     2.9808    28.7816
         INT.     0.1518D+09                  4110.6352    28.6104    53.2457
         TRA.     0.1143D+28                  1291.6842     4.9680    39.7779
         TOT.                      -30.379    5402.3194    33.5784    93.0236

 270.00  VIB.     0.4473D+03                  3597.4744    26.7431    25.4522
         ROT.     0.4605D+06                   804.8186     2.9808    28.8941
         INT.     0.2060D+09                  4402.2930    29.7240    54.3463
         TRA.     0.1210D+28                  1341.3644     4.9680    39.9654
         TOT.                      -30.038    5743.6574    34.6920    94.3117

 280.00  VIB.     0.5734D+03                  3870.5378    27.8718    26.4451
         ROT.     0.4863D+06                   834.6267     2.9808    29.0025
         INT.     0.2788D+09                  4705.1646    30.8526    55.4476
         TRA.     0.1278D+28                  1391.0445     4.9680    40.1461
         TOT.                      -29.685    6096.2091    35.8206    95.5937

 290.00  VIB.     0.7351D+03                  4154.9499    29.0123    27.4430
         ROT.     0.5126D+06                   864.4348     2.9808    29.1071
         INT.     0.3768D+09                  5019.3847    31.9932    56.5502
         TRA.     0.1347D+28                  1440.7247     4.9680    40.3204
         TOT.                      -29.321    6460.1094    36.9612    96.8706

 300.00  VIB.     0.9427D+03                  4450.8139    30.1617    28.4460
         ROT.     0.5393D+06                   894.2429     2.9808    29.2082
         INT.     0.5084D+09                  5345.0569    33.1425    57.6541
         TRA.     0.1417D+28                  1490.4049     4.9680    40.4888
         TOT.                      -28.946    6835.4617    38.1105    98.1430

 310.00  VIB.     0.1209D+04                  4758.2022    31.3167    29.4538
         ROT.     0.5665D+06                   924.0510     2.9808    29.3059
         INT.     0.6851D+09                  5682.2532    34.2975    58.7597
         TRA.     0.1488D+28                  1540.0850     4.9680    40.6517
         TOT.                      -28.559    7222.3382    39.2655    99.4114

 320.00  VIB.     0.1552D+04                  5077.1562    32.4743    30.4663
         ROT.     0.5942D+06                   953.8591     2.9808    29.4006
         INT.     0.9220D+09                  6031.0153    35.4552    59.8669
         TRA.     0.1561D+28                  1589.7652     4.9680    40.8094
         TOT.                      -28.160    7620.7805    40.4232   100.6763

 330.00  VIB.     0.1992D+04                  5407.6885    33.6319    31.4833
         ROT.     0.6222D+06                   983.6672     2.9808    29.4923
         INT.     0.1239D+10                  6391.3557    36.6127    60.9756
         TRA.     0.1635D+28                  1639.4454     4.9680    40.9623
         TOT.                      -27.750    8030.8011    41.5807   101.9379

 340.00  VIB.     0.2558D+04                  5749.7843    34.7866    32.5045
         ROT.     0.6507D+06                  1013.4753     2.9808    29.5813
         INT.     0.1664D+10                  6763.2596    37.7674    62.0858
         TRA.     0.1710D+28                  1689.1255     4.9680    41.1106
         TOT.                      -27.329    8452.3851    42.7354   103.1964

 350.00  VIB.     0.3286D+04                  6103.4035    35.9362    33.5295
         ROT.     0.6797D+06                  1043.2834     2.9808    29.6677
         INT.     0.2233D+10                  7146.6869    38.9170    63.1971
         TRA.     0.1786D+28                  1738.8057     4.9680    41.2546
         TOT.                      -26.896    8885.4926    43.8850   104.4518

 360.00  VIB.     0.4223D+04                  6468.4830    37.0783    34.5579
         ROT.     0.7090D+06                  1073.0915     2.9808    29.7516
         INT.     0.2994D+10                  7541.5745    40.0591    64.3095
         TRA.     0.1863D+28                  1788.4859     4.9680    41.3946
         TOT.                      -26.451    9330.0604    45.0272   105.7041

 370.00  VIB.     0.5430D+04                  6844.9391    38.2112    35.5892
         ROT.     0.7387D+06                  1102.8996     2.9808    29.8333
         INT.     0.4011D+10                  7947.8387    41.1920    65.4226
         TRA.     0.1941D+28                  1838.1660     4.9680    41.5307
         TOT.                      -25.995    9786.0047    46.1600   106.9533

 380.00  VIB.     0.6985D+04                  7232.6696    39.3329    36.6232
         ROT.     0.7689D+06                  1132.7077     2.9808    29.9128
         INT.     0.5371D+10                  8365.3773    42.3138    66.5360
         TRA.     0.2020D+28                  1887.8462     4.9680    41.6632
         TOT.                      -25.528   10253.2234    47.2818   108.1992

 390.00  VIB.     0.8989D+04                  7631.5561    40.4422    37.6592
         ROT.     0.7994D+06                  1162.5158     2.9808    29.9902
         INT.     0.7186D+10                  8794.0719    43.4230    67.6495
         TRA.     0.2100D+28                  1937.5263     4.9680    41.7923
         TOT.                      -25.050   10731.5983    48.3910   109.4417

 400.00  VIB.     0.1157D+05                  8041.4665    41.5375    38.6970
         ROT.     0.8304D+06                  1192.3239     2.9808    30.0657
         INT.     0.9611D+10                  9233.7904    44.5183    68.7627
         TRA.     0.2182D+28                  1987.2065     4.9680    41.9180
         TOT.                      -24.560   11220.9969    49.4864   110.6807

   *: NOTE: HEATS OF FORMATION ARE RELATIVE TO THE
            ELEMENTS IN THEIR STANDARD STATE AT 298K
              (=  Standard Enthalpy of Formation).

            Hvib:  Zero-point energy is not included.
                   frequencies of less than zero cm-1 are not included.
            Hrot = (3/2)RT
            Htra = (3/2)RT + pV = (5/2)RT

            Heat capacity is Cp, not Cv

          For more information, see: HTTP://OpenMOPAC.net/Manual/thermochemistry.html


           FORCE CONSTANT IN CARTESIAN COORDINATES (Millidynes/A)

    ATOM   CHEMICAL       X               Y               Z
   NUMBER   SYMBOL  FORCE CONSTANT  FORCE CONSTANT  FORCE CONSTANT

      1       O        4.380657        5.040069        2.062128
      2       O        3.074134        8.055930        1.588924
      3       C        7.551425        8.845169        8.318365
      4       C        8.100198        8.458297        7.932627
      5       C        8.274177        7.054204        9.025559
      6       C        8.347637        9.092175        7.872022
      7       C        8.420767        8.397960        7.874097
      8       C        4.596752       13.667609        9.154914
      9       C        3.998128       13.418430       10.024660
     10       H        2.182403        3.223551        0.641572
     11       H        2.374101        2.659745        0.854962
     12       H        2.005821        1.224604        3.319969
     13       H        4.268205        1.039716        1.173680
     14       H        1.910243        3.506242        0.968067
     15       H        4.647876        1.018228        0.724833
     16       H        4.504257        0.831772        1.463821
     17       H        1.316472        3.876254        1.578495
     18       H        2.449284        3.403351        0.933946
     19       H        0.412999        1.914632        4.088806
     20       H        1.175475        2.281628        2.955990
     21       H        1.301169        7.377417        1.423533

 **********************
 *                    *
 * JOB ENDED NORMALLY *
 *                    *
 **********************



 TOTAL JOB TIME:            11.28 SECONDS

 == MOPAC DONE ==
