 *******************************************************************************
 ** Site#: 14399        For non-commercial use only    Version 18.184L 64BITS **
 *******************************************************************************
 ** Cite this program as: MOPAC2016, Version: 18.184L, James J. P. Stewart,   **
 ** Stewart Computational Chemistry, web: HTTP://OpenMOPAC.net. Days left:  20**
 *******************************************************************************
 **                                                                           **
 **                                MOPAC2016                                  **
 **                                                                           **
 *******************************************************************************

                              PM3 CALCULATION RESULTS

 *******************************************************************************
 *  CALCULATION DONE:                                Thu Jun 13 16:08:29 2019  *
 *  PM3        - The PM3 Hamiltonian to be used
 *  PRECISE    - CRITERIA TO BE INCREASED BY 100 TIMES
 *  NOSYM      - POINT-GROUP SYMMETRY SET TO C1
 *  THREADS=1  - MULTI-THREADING NOT USED
 *  T=         - A TIME OF 172800.0 SECONDS REQUESTED
 *  DUMP=N     - RESTART FILE WRITTEN EVERY  7200.000 SECONDS
 *******************************************************************************
pm3  precise nosym THREADS=1
 InChI=1S/C7H12O2/c8-9-7-5-3-1-2-4-6-7/h3,5,7-8H,1-2,4,6H2

   ATOM   CHEMICAL          X               Y               Z
  NUMBER   SYMBOL      (ANGSTROMS)     (ANGSTROMS)     (ANGSTROMS)
 
     1       O          2.64070000  *  -0.04230000  *   0.18280000  *
     2       O          3.21940000  *   1.00330000  *  -0.38190000  *
     3       C          0.60100000  *  -1.29050000  *   0.15980000  *
     4       C         -0.77910000  *  -1.40730000  *  -0.50530000  *
     5       C          1.25390000  *   0.08980000  *  -0.03690000  *
     6       C         -1.85920000  *  -0.55240000  *   0.17120000  *
     7       C         -1.62910000  *   0.95290000  *  -0.01570000  *
     8       C          0.68660000  *   1.09830000  *   0.93840000  *
     9       C         -0.59860000  *   1.48430000  *   0.94330000  *
    10       H         -1.09870000  *  -2.47060000  *  -0.44720000  *
    11       H         -0.70770000  *  -1.15010000  *  -1.58490000  *
    12       H          0.52900000  *  -1.53920000  *   1.24210000  *
    13       H          1.25680000  *  -2.05880000  *  -0.30620000  *
    14       H          1.06440000  *   0.43080000  *  -1.08310000  *
    15       H         -2.83610000  *  -0.81210000  *  -0.29180000  *
    16       H         -1.93170000  *  -0.80560000  *   1.25210000  *
    17       H         -1.33630000  *   1.18410000  *  -1.06280000  *
    18       H         -2.58710000  *   1.48060000  *   0.18160000  *
    19       H          1.35480000  *   1.54310000  *   1.67090000  *
    20       H         -0.91380000  *   2.22160000  *   1.67610000  *
    21       H          3.67070000  *   0.63980000  *  -1.18650000  *
 


          CARTESIAN COORDINATES 

    NO.       ATOM           X           Y           Z

     1         O          2.6407     -0.0423      0.1828
     2         O          3.2194      1.0033     -0.3819
     3         C          0.6010     -1.2905      0.1598
     4         C         -0.7791     -1.4073     -0.5053
     5         C          1.2539      0.0898     -0.0369
     6         C         -1.8592     -0.5524      0.1712
     7         C         -1.6291      0.9529     -0.0157
     8         C          0.6866      1.0983      0.9384
     9         C         -0.5986      1.4843      0.9433
    10         H         -1.0987     -2.4706     -0.4472
    11         H         -0.7077     -1.1501     -1.5849
    12         H          0.5290     -1.5392      1.2421
    13         H          1.2568     -2.0588     -0.3062
    14         H          1.0644      0.4308     -1.0831
    15         H         -2.8361     -0.8121     -0.2918
    16         H         -1.9317     -0.8056      1.2521
    17         H         -1.3363      1.1841     -1.0628
    18         H         -2.5871      1.4806      0.1816
    19         H          1.3548      1.5431      1.6709
    20         H         -0.9138      2.2216      1.6761
    21         H          3.6707      0.6398     -1.1865

  H: (PM3): J. J. P. STEWART, J. COMP. CHEM. 10, 209 (1989).
  C: (PM3): J. J. P. STEWART, J. COMP. CHEM. 10, 209 (1989).
  O: (PM3): J. J. P. STEWART, J. COMP. CHEM. 10, 209 (1989).

           Empirical Formula: C7 H12 O2  =    21 atoms



      MOLECULAR POINT GROUP   :   C1  


      RHF CALCULATION, NO. OF DOUBLY OCCUPIED LEVELS = 26


          Geometry optimization using EF

          DIAGONAL MATRIX USED AS START HESSIAN

 CYCLE:     1 TIME:   0.043 TIME LEFT:  2.00D  GRAD.:   174.531 HEAT: -17.23255
 CYCLE:     2 TIME:   0.031 TIME LEFT:  2.00D  GRAD.:   201.561 HEAT: -19.72671
 CYCLE:     3 TIME:   0.027 TIME LEFT:  2.00D  GRAD.:    79.409 HEAT: -25.08184
 CYCLE:     4 TIME:   0.023 TIME LEFT:  2.00D  GRAD.:    75.129 HEAT: -26.24969
 CYCLE:     5 TIME:   0.031 TIME LEFT:  2.00D  GRAD.:    47.347 HEAT: -27.07780
 CYCLE:     6 TIME:   0.121 TIME LEFT:  2.00D  GRAD.:    46.452 HEAT: -27.21754
 CYCLE:     7 TIME:   0.031 TIME LEFT:  2.00D  GRAD.:    21.027 HEAT: -27.71777
 CYCLE:     8 TIME:   0.031 TIME LEFT:  2.00D  GRAD.:    19.855 HEAT: -27.79999
 CYCLE:     9 TIME:   0.020 TIME LEFT:  2.00D  GRAD.:    15.830 HEAT: -27.86503
 CYCLE:    10 TIME:   0.023 TIME LEFT:  2.00D  GRAD.:    21.084 HEAT: -27.90110
 CYCLE:    11 TIME:   0.027 TIME LEFT:  2.00D  GRAD.:    12.393 HEAT: -27.99402
 CYCLE:    12 TIME:   0.031 TIME LEFT:  2.00D  GRAD.:     6.136 HEAT: -28.03998
 CYCLE:    13 TIME:   0.020 TIME LEFT:  2.00D  GRAD.:     7.953 HEAT: -28.06856
 CYCLE:    14 TIME:   0.023 TIME LEFT:  2.00D  GRAD.:     7.874 HEAT: -28.11070
 CYCLE:    15 TIME:   0.031 TIME LEFT:  2.00D  GRAD.:     8.733 HEAT: -28.12755
 CYCLE:    16 TIME:   0.020 TIME LEFT:  2.00D  GRAD.:     7.592 HEAT: -28.15698
 CYCLE:    17 TIME:   0.031 TIME LEFT:  2.00D  GRAD.:     7.029 HEAT: -28.17147
 CYCLE:    18 TIME:   0.020 TIME LEFT:  2.00D  GRAD.:     4.614 HEAT: -28.19471
 CYCLE:    19 TIME:   0.023 TIME LEFT:  2.00D  GRAD.:     6.534 HEAT: -28.21244
 CYCLE:    20 TIME:   0.023 TIME LEFT:  2.00D  GRAD.:     4.747 HEAT: -28.24770
 CYCLE:    21 TIME:   0.023 TIME LEFT:  2.00D  GRAD.:     8.377 HEAT: -28.27450
 CYCLE:    22 TIME:   0.023 TIME LEFT:  2.00D  GRAD.:     6.326 HEAT: -28.33057
 CYCLE:    23 TIME:   0.023 TIME LEFT:  2.00D  GRAD.:     9.856 HEAT: -28.38069
 CYCLE:    24 TIME:   0.023 TIME LEFT:  2.00D  GRAD.:     9.239 HEAT: -28.42842
 CYCLE:    25 TIME:   0.023 TIME LEFT:  2.00D  GRAD.:     7.992 HEAT: -28.51416
 CYCLE:    26 TIME:   0.020 TIME LEFT:  2.00D  GRAD.:    13.674 HEAT: -28.57849
 CYCLE:    27 TIME:   0.023 TIME LEFT:  2.00D  GRAD.:    13.144 HEAT: -28.61477
 CYCLE:    28 TIME:   0.031 TIME LEFT:  2.00D  GRAD.:    15.241 HEAT: -28.65066
 CYCLE:    29 TIME:   0.020 TIME LEFT:  2.00D  GRAD.:    10.137 HEAT: -28.70576
 CYCLE:    30 TIME:   0.023 TIME LEFT:  2.00D  GRAD.:     8.810 HEAT: -28.76471
 CYCLE:    31 TIME:   0.023 TIME LEFT:  2.00D  GRAD.:     8.993 HEAT: -28.82021
 CYCLE:    32 TIME:   0.023 TIME LEFT:  2.00D  GRAD.:     7.138 HEAT: -28.88721
 CYCLE:    33 TIME:   0.023 TIME LEFT:  2.00D  GRAD.:    20.265 HEAT: -28.88769
 CYCLE:    34 TIME:   0.023 TIME LEFT:  2.00D  GRAD.:     5.622 HEAT: -28.96038
 CYCLE:    35 TIME:   0.020 TIME LEFT:  2.00D  GRAD.:     4.311 HEAT: -29.00171
 CYCLE:    36 TIME:   0.023 TIME LEFT:  2.00D  GRAD.:    12.594 HEAT: -29.05620
 CYCLE:    37 TIME:   0.023 TIME LEFT:  2.00D  GRAD.:     6.487 HEAT: -29.09727
 CYCLE:    38 TIME:   0.023 TIME LEFT:  2.00D  GRAD.:    12.419 HEAT: -29.14917
 CYCLE:    39 TIME:   0.023 TIME LEFT:  2.00D  GRAD.:     7.071 HEAT: -29.17832
 CYCLE:    40 TIME:   0.023 TIME LEFT:  2.00D  GRAD.:     3.326 HEAT: -29.21765
 CYCLE:    41 TIME:   0.020 TIME LEFT:  2.00D  GRAD.:    14.069 HEAT: -29.23186
 CYCLE:    42 TIME:   0.023 TIME LEFT:  2.00D  GRAD.:     4.989 HEAT: -29.26405
 CYCLE:    43 TIME:   0.023 TIME LEFT:  2.00D  GRAD.:     3.216 HEAT: -29.28417
 CYCLE:    44 TIME:   0.023 TIME LEFT:  2.00D  GRAD.:     9.603 HEAT: -29.30888
 CYCLE:    45 TIME:   0.023 TIME LEFT:  2.00D  GRAD.:     2.318 HEAT: -29.32647
 CYCLE:    46 TIME:   0.023 TIME LEFT:  2.00D  GRAD.:     2.473 HEAT: -29.33506
 CYCLE:    47 TIME:   0.023 TIME LEFT:  2.00D  GRAD.:     8.964 HEAT: -29.34677
 CYCLE:    48 TIME:   0.020 TIME LEFT:  2.00D  GRAD.:     3.987 HEAT: -29.36015
 CYCLE:    49 TIME:   0.023 TIME LEFT:  2.00D  GRAD.:     1.928 HEAT: -29.37672
 CYCLE:    50 TIME:   0.023 TIME LEFT:  2.00D  GRAD.:     2.230 HEAT: -29.39280
 CYCLE:    51 TIME:   0.023 TIME LEFT:  2.00D  GRAD.:     4.404 HEAT: -29.40437
 CYCLE:    52 TIME:   0.023 TIME LEFT:  2.00D  GRAD.:     2.250 HEAT: -29.41711
 CYCLE:    53 TIME:   0.023 TIME LEFT:  2.00D  GRAD.:     2.380 HEAT: -29.42733
 CYCLE:    54 TIME:   0.023 TIME LEFT:  2.00D  GRAD.:     1.881 HEAT: -29.43443
 CYCLE:    55 TIME:   0.020 TIME LEFT:  2.00D  GRAD.:     2.011 HEAT: -29.43908
 CYCLE:    56 TIME:   0.023 TIME LEFT:  2.00D  GRAD.:     1.550 HEAT: -29.44368
 CYCLE:    57 TIME:   0.023 TIME LEFT:  2.00D  GRAD.:     1.647 HEAT: -29.44732
 CYCLE:    58 TIME:   0.023 TIME LEFT:  2.00D  GRAD.:     1.310 HEAT: -29.45033
 CYCLE:    59 TIME:   0.023 TIME LEFT:  2.00D  GRAD.:     1.276 HEAT: -29.45276
 CYCLE:    60 TIME:   0.023 TIME LEFT:  2.00D  GRAD.:     1.006 HEAT: -29.45436
 CYCLE:    61 TIME:   0.020 TIME LEFT:  2.00D  GRAD.:     0.872 HEAT: -29.45583
 CYCLE:    62 TIME:   0.023 TIME LEFT:  2.00D  GRAD.:     0.565 HEAT: -29.45694
 CYCLE:    63 TIME:   0.023 TIME LEFT:  2.00D  GRAD.:     0.730 HEAT: -29.45769
 CYCLE:    64 TIME:   0.023 TIME LEFT:  2.00D  GRAD.:     0.633 HEAT: -29.45841
 CYCLE:    65 TIME:   0.023 TIME LEFT:  2.00D  GRAD.:     0.909 HEAT: -29.45931
 CYCLE:    66 TIME:   0.023 TIME LEFT:  2.00D  GRAD.:     0.827 HEAT: -29.46046
 CYCLE:    67 TIME:   0.023 TIME LEFT:  2.00D  GRAD.:     1.139 HEAT: -29.46181
 CYCLE:    68 TIME:   0.020 TIME LEFT:  2.00D  GRAD.:     0.837 HEAT: -29.46271
 CYCLE:    69 TIME:   0.023 TIME LEFT:  2.00D  GRAD.:     1.016 HEAT: -29.46604
 CYCLE:    70 TIME:   0.023 TIME LEFT:  2.00D  GRAD.:     0.792 HEAT: -29.46724
 CYCLE:    71 TIME:   0.023 TIME LEFT:  2.00D  GRAD.:     0.560 HEAT: -29.46857
 CYCLE:    72 TIME:   0.023 TIME LEFT:  2.00D  GRAD.:     0.397 HEAT: -29.46893
 CYCLE:    73 TIME:   0.023 TIME LEFT:  2.00D  GRAD.:     0.390 HEAT: -29.46957
 CYCLE:    74 TIME:   0.023 TIME LEFT:  2.00D  GRAD.:     0.351 HEAT: -29.46985
 CYCLE:    75 TIME:   0.020 TIME LEFT:  2.00D  GRAD.:     0.370 HEAT: -29.47022
 CYCLE:    76 TIME:   0.023 TIME LEFT:  2.00D  GRAD.:     0.348 HEAT: -29.47053
 CYCLE:    77 TIME:   0.023 TIME LEFT:  2.00D  GRAD.:     0.325 HEAT: -29.47089
 CYCLE:    78 TIME:   0.023 TIME LEFT:  2.00D  GRAD.:     0.287 HEAT: -29.47106
 CYCLE:    79 TIME:   0.023 TIME LEFT:  2.00D  GRAD.:     0.290 HEAT: -29.47136
 CYCLE:    80 TIME:   0.023 TIME LEFT:  2.00D  GRAD.:     0.267 HEAT: -29.47155
 CYCLE:    81 TIME:   0.020 TIME LEFT:  2.00D  GRAD.:     0.397 HEAT: -29.47178
 CYCLE:    82 TIME:   0.023 TIME LEFT:  2.00D  GRAD.:     0.320 HEAT: -29.47200
 CYCLE:    83 TIME:   0.023 TIME LEFT:  2.00D  GRAD.:     0.298 HEAT: -29.47231
 CYCLE:    84 TIME:   0.023 TIME LEFT:  2.00D  GRAD.:     0.271 HEAT: -29.47243
 CYCLE:    85 TIME:   0.023 TIME LEFT:  2.00D  GRAD.:     0.390 HEAT: -29.47258
 CYCLE:    86 TIME:   0.023 TIME LEFT:  2.00D  GRAD.:     0.199 HEAT: -29.47268
 CYCLE:    87 TIME:   0.023 TIME LEFT:  2.00D  GRAD.:     0.316 HEAT: -29.47271
 CYCLE:    88 TIME:   0.020 TIME LEFT:  2.00D  GRAD.:     0.118 HEAT: -29.47283
 CYCLE:    89 TIME:   0.023 TIME LEFT:  2.00D  GRAD.:     0.181 HEAT: -29.47286
 CYCLE:    90 TIME:   0.023 TIME LEFT:  2.00D  GRAD.:     0.184 HEAT: -29.47289
 CYCLE:    91 TIME:   0.023 TIME LEFT:  2.00D  GRAD.:     0.139 HEAT: -29.47293
 CYCLE:    92 TIME:   0.023 TIME LEFT:  2.00D  GRAD.:     0.105 HEAT: -29.47296
 CYCLE:    93 TIME:   0.023 TIME LEFT:  2.00D  GRAD.:     0.091 HEAT: -29.47298
 CYCLE:    94 TIME:   0.020 TIME LEFT:  2.00D  GRAD.:     0.087 HEAT: -29.47300
 CYCLE:    95 TIME:   0.023 TIME LEFT:  2.00D  GRAD.:     0.197 HEAT: -29.47278
 CYCLE:    96 TIME:   0.023 TIME LEFT:  2.00D  GRAD.:     0.066 HEAT: -29.47302
 CYCLE:    97 TIME:   0.023 TIME LEFT:  2.00D  GRAD.:     0.075 HEAT: -29.47303
 CYCLE:    98 TIME:   0.023 TIME LEFT:  2.00D  GRAD.:     0.107 HEAT: -29.47303
 CYCLE:    99 TIME:   0.023 TIME LEFT:  2.00D  GRAD.:     0.168 HEAT: -29.47302
 CYCLE:   100 TIME:   0.023 TIME LEFT:  2.00D  GRAD.:     0.035 HEAT: -29.47303

     GRADIENT =  0.03516  IS LESS THAN CUTOFF =  0.05000



 -------------------------------------------------------------------------------
 pm3  precise nosym THREADS=1
 InChI=1S/C7H12O2/c8-9-7-5-3-1-2-4-6-7/h3,5,7-8H,1-2,4,6H2



     GEOMETRY OPTIMISED USING EIGENVECTOR FOLLOWING (EF).     
     SCF FIELD WAS ACHIEVED                                   


                              PM3 CALCULATION
                                                       MOPAC2016 (Version: 18.184L)
                                                       Thu Jun 13 16:08:31 2019
                                                       No. of days remaining =  20




          FINAL HEAT OF FORMATION =        -29.47303 KCAL/MOL =    -123.31517 KJ/MOL


          TOTAL ENERGY            =      -1599.60299 EV
          ELECTRONIC ENERGY       =      -7819.35760 EV  POINT GROUP:     C1  
          CORE-CORE REPULSION     =       6219.75461 EV
          COSMO AREA              =        165.39 SQUARE ANGSTROMS
          COSMO VOLUME            =        166.37 CUBIC ANGSTROMS

          GRADIENT NORM           =          0.03516 = 0.00767 PER ATOM
          IONIZATION POTENTIAL    =          9.900999 EV
          HOMO LUMO ENERGIES (EV) =         -9.901  0.993
          NO. OF FILLED LEVELS    =         26
          MOLECULAR WEIGHT        =        128.1706

          MOLECULAR DIMENSIONS (Angstroms)

            Atom       Atom       Distance
            H    21    H    15     7.20978
            H    20    H    13     5.05044
            H    17    H    12     3.26425


          SCF CALCULATIONS        =        110
 
          WALL-CLOCK TIME         =          2.520 SECONDS
          COMPUTATION TIME        =          0.954 SECONDS




   ATOM   CHEMICAL          X               Y               Z
  NUMBER   SYMBOL      (ANGSTROMS)     (ANGSTROMS)     (ANGSTROMS)
 
     1       O          2.60715471  *  -0.07595557  *   0.17111785  *
     2       O          3.32238682  *   0.98088152  *  -0.64544355  *
     3       C          0.58010424  *  -1.28349620  *   0.15302057  *
     4       C         -0.78384640  *  -1.38367466  *  -0.51056527  *
     5       C          1.21462230  *   0.10768749  *  -0.04160558  *
     6       C         -1.86281277  *  -0.56684854  *   0.18268606  *
     7       C         -1.66880839  *   0.93653338  *   0.03541509  *
     8       C          0.65655034  *   1.10793777  *   0.92986983  *
     9       C         -0.62631609  *   1.47156577  *   0.95254431  *
    10       H         -1.09380047  *  -2.44797035  *  -0.52007519  *
    11       H         -0.71062169  *  -1.08658885  *  -1.57692164  *
    12       H          0.49789757  *  -1.51551060  *   1.23330540  *
    13       H          1.24316763  *  -2.06349812  *  -0.27394393  *
    14       H          1.03148232  *   0.46938947  *  -1.08651955  *
    15       H         -2.84716306  *  -0.84454655  *  -0.24392011  *
    16       H         -1.91334739  *  -0.83685471  *   1.25608959  *
    17       H         -1.40442967  *   1.19074091  *  -1.01230920  *
    18       H         -2.63006890  *   1.44967617  *   0.23337650  *
    19       H          1.36759727  *   1.55255038  *   1.63732186  *
    20       H         -0.96279073  *   2.21602349  *   1.68356579  *
    21       H          4.18277560  *   0.75318240  *  -0.33385642  *

                             CARTESIAN COORDINATES

   1    O        2.607154710    -0.075955569     0.171117848
   2    O        3.322386816     0.980881520    -0.645443550
   3    C        0.580104238    -1.283496201     0.153020572
   4    C       -0.783846403    -1.383674664    -0.510565273
   5    C        1.214622301     0.107687486    -0.041605576
   6    C       -1.862812773    -0.566848540     0.182686064
   7    C       -1.668808394     0.936533381     0.035415092
   8    C        0.656550345     1.107937765     0.929869831
   9    C       -0.626316092     1.471565766     0.952544307
  10    H       -1.093800469    -2.447970349    -0.520075186
  11    H       -0.710621690    -1.086588853    -1.576921638
  12    H        0.497897573    -1.515510595     1.233305401
  13    H        1.243167627    -2.063498120    -0.273943934
  14    H        1.031482317     0.469389466    -1.086519547
  15    H       -2.847163064    -0.844546547    -0.243920110
  16    H       -1.913347391    -0.836854713     1.256089589
  17    H       -1.404429666     1.190740913    -1.012309195
  18    H       -2.630068896     1.449676173     0.233376499
  19    H        1.367597275     1.552550376     1.637321865
  20    H       -0.962790730     2.216023494     1.683565790
  21    H        4.182775604     0.753182397    -0.333856422


           Empirical Formula: C7 H12 O2  =    21 atoms



      MOLECULAR POINT GROUP   :   C1  


                  EIGENVALUES  
 -40.95137 -35.68513 -33.64948 -32.16990 -29.68892 -23.88163 -23.14606 -20.52057
 -18.39777 -17.83834 -17.26149 -16.69661 -16.08285 -15.22292 -14.77796 -14.47071
 -14.24268 -13.74197 -13.32250 -12.85335 -12.40688 -11.91206 -11.84806 -11.71738
 -11.00997  -9.90100   0.99269   1.15165   3.20495   3.36695   3.49763   3.62073
   3.67556   3.71103   3.77797   3.87348   4.15957   4.20243   4.34373   4.37703
   4.53594   4.55425   4.81498   4.96372   5.01243   5.15082   5.64225   5.90225


              NET ATOMIC CHARGES AND DIPOLE CONTRIBUTIONS

  ATOM NO.   TYPE          CHARGE      No. of ELECS.   s-Pop       p-Pop       
    1          O          -0.152599        6.1526     1.90672     4.24588
    2          O          -0.208725        6.2087     1.86517     4.34355
    3          C          -0.106854        4.1069     1.16483     2.94202
    4          C          -0.094509        4.0945     1.16136     2.93315
    5          C           0.101974        3.8980     1.16492     2.73311
    6          C          -0.094586        4.0946     1.16048     2.93411
    7          C          -0.064310        4.0643     1.14812     2.91619
    8          C          -0.170676        4.1707     1.20565     2.96503
    9          C          -0.138844        4.1388     1.19444     2.94440
   10          H           0.048872        0.9511     0.95113
   11          H           0.053538        0.9465     0.94646
   12          H           0.062996        0.9370     0.93700
   13          H           0.062270        0.9377     0.93773
   14          H           0.082282        0.9177     0.91772
   15          H           0.047609        0.9524     0.95239
   16          H           0.056641        0.9434     0.94336
   17          H           0.058749        0.9413     0.94125
   18          H           0.049930        0.9501     0.95007
   19          H           0.112045        0.8880     0.88796
   20          H           0.096754        0.9032     0.90325
   21          H           0.197445        0.8026     0.80255
 DIPOLE           X         Y         Z       TOTAL
 POINT-CHG.    -0.800    -0.411    -0.100     0.905
 HYBRID         0.358     0.009     0.187     0.404
 SUM           -0.442    -0.402     0.088     0.604


          ATOMIC ORBITAL ELECTRON POPULATIONS

     Atom    s        px        py        pz   
    1  O   1.90672   1.19588   1.41911   1.63089
    2  O   1.86517   1.27086   1.46403   1.60867
    3  C   1.16483   0.96696   0.95588   1.01918
    4  C   1.16136   0.94607   0.99751   0.98957
    5  C   1.16492   0.81435   0.93776   0.98100
    6  C   1.16048   0.97767   0.94688   1.00956
    7  C   1.14812   0.97443   0.95304   0.98872
    8  C   1.20565   0.97051   0.99444   1.00008
    9  C   1.19444   0.95166   0.99763   0.99511
   10  H   0.95113
   11  H   0.94646
   12  H   0.93700
   13  H   0.93773
   14  H   0.91772
   15  H   0.95239
   16  H   0.94336
   17  H   0.94125
   18  H   0.95007
   19  H   0.88796
   20  H   0.90325
   21  H   0.80255
 *******************************************************************************
 ** Site#: 14399        For non-commercial use only    Version 18.184L 64BITS **
 *******************************************************************************
 ** Cite this program as: MOPAC2016, Version: 18.184L, James J. P. Stewart,   **
 ** Stewart Computational Chemistry, web: HTTP://OpenMOPAC.net. Days left:  20**
 *******************************************************************************
 **                                                                           **
 **                                MOPAC2016                                  **
 **                                                                           **
 *******************************************************************************

                              PM3 CALCULATION RESULTS

 *******************************************************************************
 *  CALCULATION DONE:                                Thu Jun 13 16:08:32 2019  *
 *  PM3        - The PM3 Hamiltonian to be used
 *  OLDGEO     - PREVIOUS GEOMETRY TO BE USED
 *  PRECISE    - CRITERIA TO BE INCREASED BY 100 TIMES
 *  NOSYM      - POINT-GROUP SYMMETRY SET TO C1
 *  THREADS=1  - MULTI-THREADING NOT USED
 *  T=         - A TIME OF 172800.0 SECONDS REQUESTED
 *  DUMP=N     - RESTART FILE WRITTEN EVERY  7200.000 SECONDS
 *  THERMO     - THERMODYNAMIC QUANTITIES TO BE CALCULATED
 *******************************************************************************
oldgeo thermo nosym precise THREADS=1  pm3
 InChI=1S/C7H12O2/c8-9-7-5-3-1-2-4-6-7/h3,5,7-8H,1-2,4,6H2

   ATOM   CHEMICAL          X               Y               Z
  NUMBER   SYMBOL      (ANGSTROMS)     (ANGSTROMS)     (ANGSTROMS)
 
     1       O          2.60715471  *  -0.07595557  *   0.17111785  *
     2       O          3.32238682  *   0.98088152  *  -0.64544355  *
     3       C          0.58010424  *  -1.28349620  *   0.15302057  *
     4       C         -0.78384640  *  -1.38367466  *  -0.51056527  *
     5       C          1.21462230  *   0.10768749  *  -0.04160558  *
     6       C         -1.86281277  *  -0.56684854  *   0.18268606  *
     7       C         -1.66880839  *   0.93653338  *   0.03541509  *
     8       C          0.65655034  *   1.10793777  *   0.92986983  *
     9       C         -0.62631609  *   1.47156577  *   0.95254431  *
    10       H         -1.09380047  *  -2.44797035  *  -0.52007519  *
    11       H         -0.71062169  *  -1.08658885  *  -1.57692164  *
    12       H          0.49789757  *  -1.51551060  *   1.23330540  *
    13       H          1.24316763  *  -2.06349812  *  -0.27394393  *
    14       H          1.03148232  *   0.46938947  *  -1.08651955  *
    15       H         -2.84716306  *  -0.84454655  *  -0.24392011  *
    16       H         -1.91334739  *  -0.83685471  *   1.25608959  *
    17       H         -1.40442967  *   1.19074091  *  -1.01230920  *
    18       H         -2.63006890  *   1.44967617  *   0.23337650  *
    19       H          1.36759727  *   1.55255038  *   1.63732186  *
    20       H         -0.96279073  *   2.21602349  *   1.68356579  *
    21       H          4.18277560  *   0.75318240  *  -0.33385642  *
 


          CARTESIAN COORDINATES 

    NO.       ATOM           X           Y           Z

     1         O          2.6072     -0.0760      0.1711
     2         O          3.3224      0.9809     -0.6454
     3         C          0.5801     -1.2835      0.1530
     4         C         -0.7838     -1.3837     -0.5106
     5         C          1.2146      0.1077     -0.0416
     6         C         -1.8628     -0.5668      0.1827
     7         C         -1.6688      0.9365      0.0354
     8         C          0.6566      1.1079      0.9299
     9         C         -0.6263      1.4716      0.9525
    10         H         -1.0938     -2.4480     -0.5201
    11         H         -0.7106     -1.0866     -1.5769
    12         H          0.4979     -1.5155      1.2333
    13         H          1.2432     -2.0635     -0.2739
    14         H          1.0315      0.4694     -1.0865
    15         H         -2.8472     -0.8445     -0.2439
    16         H         -1.9133     -0.8369      1.2561
    17         H         -1.4044      1.1907     -1.0123
    18         H         -2.6301      1.4497      0.2334
    19         H          1.3676      1.5526      1.6373
    20         H         -0.9628      2.2160      1.6836
    21         H          4.1828      0.7532     -0.3339

  H: (PM3): J. J. P. STEWART, J. COMP. CHEM. 10, 209 (1989).
  C: (PM3): J. J. P. STEWART, J. COMP. CHEM. 10, 209 (1989).
  O: (PM3): J. J. P. STEWART, J. COMP. CHEM. 10, 209 (1989).

           Empirical Formula: C7 H12 O2  =    21 atoms



      MOLECULAR POINT GROUP   :   C1  


      RHF CALCULATION, NO. OF DOUBLY OCCUPIED LEVELS = 26



          HEAT OF FORMATION =     -29.473032 KCALS/MOLE


          CARTESIAN COORDINATE DERIVATIVES

   NUMBER  ATOM         X            Y            Z

     1       O      0.004676    -0.002502     0.003473
     2       O     -0.001914     0.011993    -0.006215
     3       C     -0.003422     0.001622    -0.000540
     4       C     -0.001490    -0.000373     0.000572
     5       C     -0.002490     0.002293     0.001788
     6       C      0.002156    -0.001866    -0.000572
     7       C      0.003884    -0.003956    -0.002032
     8       C      0.003812     0.001683     0.007363
     9       C      0.007678     0.000370     0.002249
    10       H     -0.000913     0.000440    -0.000450
    11       H     -0.008688     0.007086    -0.000784
    12       H     -0.003795    -0.000736    -0.005766
    13       H      0.005629    -0.006099    -0.000796
    14       H      0.004394     0.002243     0.008640
    15       H     -0.001378     0.001565     0.002669
    16       H     -0.010330     0.005156    -0.006242
    17       H      0.000331     0.000969    -0.000155
    18       H     -0.002519     0.004926    -0.000526
    19       H     -0.000521    -0.003899    -0.001653
    20       H      0.007666    -0.007668    -0.004009
    21       H     -0.002762    -0.013247     0.002985
 


          GRADIENT NORM =   0.03662


          TIME FOR SCF CALCULATION =    0.02

          TIME FOR DERIVATIVES     =    0.01

          MOLECULAR WEIGHT =  128.17



          ROTATIONAL CONSTANTS IN CM(-1)

          A =    0.09644486   B =    0.03698283   C =    0.02976763



           PRINCIPAL MOMENTS OF INERTIA IN UNITS OF 10**(-40)*GRAM-CM**2

          A =      290.2464   B =      756.9128   C =      940.3762


          ORIENTATION OF MOLECULE IN FORCE CALCULATION

    NO.       ATOM         X         Y         Z

     1          O       0.8187   -1.6803   -1.0374
     2          O       2.3337   -1.6803   -1.0374
     3          C      -0.9708   -0.1425   -1.0374
     4          C      -1.3270    1.3274   -0.8849
     5          C       0.4041   -0.4690   -0.4219
     6          C      -1.6402    1.7356    0.5460
     7          C      -0.4205    1.7205    1.4579
     8          C       0.3148   -0.6342    1.0682
     9          C      -0.0494    0.3472    1.8945
    10          H      -2.2106    1.5435   -1.5184
    11          H      -0.5104    1.9604   -1.2890
    12          H      -1.7537   -0.7757   -0.5752
    13          H      -0.9718   -0.4001   -2.1163
    14          H       1.1331    0.3491   -0.6573
    15          H      -2.0687    2.7575    0.5377
    16          H      -2.4310    1.0814    0.9635
    17          H       0.4463    2.1935    0.9508
    18          H      -0.6231    2.3466    2.3487
    19          H       0.5793   -1.6210    1.4681
    20          H      -0.0830    0.1585    2.9739
    21          H       2.4132   -2.5469   -1.4007


    FIRST DERIVATIVES WILL BE USED IN THE CALCULATION OF SECOND DERIVATIVES

          ESTIMATED TIME TO COMPLETE CALCULATION =        8.86 SECONDS

    FOR POINT-GROUP C1   THERE ARE   1 UNIQUE SYMMETRY FUNCTIONS.

 STEP:   1 TIME =     0.04 SECS, INTEGRAL =      0.04 TIME LEFT: 172799.92
 STEP:   2 TIME =     0.05 SECS, INTEGRAL =      0.09 TIME LEFT: 172799.88
 STEP:   3 TIME =     0.05 SECS, INTEGRAL =      0.14 TIME LEFT: 172799.83
 STEP:   4 TIME =     0.04 SECS, INTEGRAL =      0.18 TIME LEFT: 172799.79
 STEP:   5 TIME =     0.05 SECS, INTEGRAL =      0.23 TIME LEFT: 172799.74
 STEP:   6 TIME =     0.08 SECS, INTEGRAL =      0.31 TIME LEFT: 172799.66
 STEP:   7 TIME =     0.04 SECS, INTEGRAL =      0.35 TIME LEFT: 172799.61
 STEP:   8 TIME =     0.04 SECS, INTEGRAL =      0.39 TIME LEFT: 172799.57
 STEP:   9 TIME =     0.05 SECS, INTEGRAL =      0.44 TIME LEFT: 172799.52
 STEP:  10 TIME =     0.05 SECS, INTEGRAL =      0.49 TIME LEFT: 172799.48
 STEP:  11 TIME =     0.04 SECS, INTEGRAL =      0.53 TIME LEFT: 172799.43
 STEP:  12 TIME =     0.04 SECS, INTEGRAL =      0.57 TIME LEFT: 172799.39
 STEP:  13 TIME =     0.05 SECS, INTEGRAL =      0.62 TIME LEFT: 172799.34
 STEP:  14 TIME =     0.05 SECS, INTEGRAL =      0.67 TIME LEFT: 172799.30
 STEP:  15 TIME =     0.04 SECS, INTEGRAL =      0.71 TIME LEFT: 172799.25
 STEP:  16 TIME =     0.04 SECS, INTEGRAL =      0.75 TIME LEFT: 172799.21
 STEP:  17 TIME =     0.05 SECS, INTEGRAL =      0.80 TIME LEFT: 172799.16
 STEP:  18 TIME =     0.04 SECS, INTEGRAL =      0.84 TIME LEFT: 172799.12
 STEP:  19 TIME =     0.05 SECS, INTEGRAL =      0.89 TIME LEFT: 172799.07
 STEP:  20 TIME =     0.05 SECS, INTEGRAL =      0.94 TIME LEFT: 172799.03
 STEP:  21 TIME =     0.05 SECS, INTEGRAL =      0.98 TIME LEFT: 172798.98
 STEP:  22 TIME =     0.04 SECS, INTEGRAL =      1.03 TIME LEFT: 172798.94
 STEP:  23 TIME =     0.05 SECS, INTEGRAL =      1.07 TIME LEFT: 172798.89
 STEP:  24 TIME =     0.05 SECS, INTEGRAL =      1.12 TIME LEFT: 172798.84
 STEP:  25 TIME =     0.04 SECS, INTEGRAL =      1.16 TIME LEFT: 172798.80
 STEP:  26 TIME =     0.05 SECS, INTEGRAL =      1.21 TIME LEFT: 172798.75
 STEP:  27 TIME =     0.05 SECS, INTEGRAL =      1.26 TIME LEFT: 172798.71
 STEP:  28 TIME =     0.05 SECS, INTEGRAL =      1.30 TIME LEFT: 172798.66
 STEP:  29 TIME =     0.04 SECS, INTEGRAL =      1.35 TIME LEFT: 172798.62
 STEP:  30 TIME =     0.05 SECS, INTEGRAL =      1.39 TIME LEFT: 172798.57
 STEP:  31 TIME =     0.05 SECS, INTEGRAL =      1.44 TIME LEFT: 172798.52
 STEP:  32 TIME =     0.04 SECS, INTEGRAL =      1.48 TIME LEFT: 172798.48
 STEP:  33 TIME =     0.04 SECS, INTEGRAL =      1.53 TIME LEFT: 172798.44
 STEP:  34 TIME =     0.04 SECS, INTEGRAL =      1.57 TIME LEFT: 172798.39
 STEP:  35 TIME =     0.04 SECS, INTEGRAL =      1.61 TIME LEFT: 172798.35
 STEP:  36 TIME =     0.05 SECS, INTEGRAL =      1.66 TIME LEFT: 172798.30
 STEP:  37 TIME =     0.04 SECS, INTEGRAL =      1.70 TIME LEFT: 172798.26
 STEP:  38 TIME =     0.05 SECS, INTEGRAL =      1.75 TIME LEFT: 172798.21
 STEP:  39 TIME =     0.04 SECS, INTEGRAL =      1.79 TIME LEFT: 172798.17
 STEP:  40 TIME =     0.04 SECS, INTEGRAL =      1.84 TIME LEFT: 172798.13
 STEP:  41 TIME =     0.05 SECS, INTEGRAL =      1.88 TIME LEFT: 172798.08
 STEP:  42 TIME =     0.05 SECS, INTEGRAL =      1.93 TIME LEFT: 172798.04
 STEP:  43 TIME =     0.04 SECS, INTEGRAL =      1.97 TIME LEFT: 172797.99
 STEP:  44 TIME =     0.04 SECS, INTEGRAL =      2.02 TIME LEFT: 172797.95
 STEP:  45 TIME =     0.05 SECS, INTEGRAL =      2.06 TIME LEFT: 172797.90
 STEP:  46 TIME =     0.04 SECS, INTEGRAL =      2.11 TIME LEFT: 172797.86
 STEP:  47 TIME =     0.05 SECS, INTEGRAL =      2.15 TIME LEFT: 172797.81
 STEP:  48 TIME =     0.05 SECS, INTEGRAL =      2.20 TIME LEFT: 172797.77
 STEP:  49 TIME =     0.05 SECS, INTEGRAL =      2.25 TIME LEFT: 172797.72
 STEP:  50 TIME =     0.05 SECS, INTEGRAL =      2.29 TIME LEFT: 172797.67
 STEP:  51 TIME =     0.04 SECS, INTEGRAL =      2.34 TIME LEFT: 172797.63
 STEP:  52 TIME =     0.04 SECS, INTEGRAL =      2.38 TIME LEFT: 172797.59
 STEP:  53 TIME =     0.04 SECS, INTEGRAL =      2.42 TIME LEFT: 172797.54
 STEP:  54 TIME =     0.04 SECS, INTEGRAL =      2.46 TIME LEFT: 172797.50
 STEP:  55 TIME =     0.05 SECS, INTEGRAL =      2.51 TIME LEFT: 172797.45
 STEP:  56 TIME =     0.04 SECS, INTEGRAL =      2.55 TIME LEFT: 172797.41
 STEP:  57 TIME =     0.05 SECS, INTEGRAL =      2.60 TIME LEFT: 172797.36
 STEP:  58 TIME =     0.05 SECS, INTEGRAL =      2.65 TIME LEFT: 172797.32
 STEP:  59 TIME =     0.05 SECS, INTEGRAL =      2.70 TIME LEFT: 172797.27
 STEP:  60 TIME =     0.04 SECS, INTEGRAL =      2.74 TIME LEFT: 172797.23
 STEP:  61 TIME =     0.04 SECS, INTEGRAL =      2.78 TIME LEFT: 172797.18
 STEP:  62 TIME =     0.05 SECS, INTEGRAL =      2.83 TIME LEFT: 172797.14
 STEP:  63 TIME =     0.04 SECS, INTEGRAL =      2.87 TIME LEFT: 172797.09

(To convert to Hartree/Bohr^2, multiply by (10^(-21) x N x a0^2)/(4.184 x 627.51) =  0.0642)


           FORCE MATRIX IN MILLIDYNES/ANGSTROM


                  O  1       O  2       C  3       C  4       C  5       C  6
 ------------------------------------------------------------------------------
     O    1   7.847620
     O    2   2.580057  10.103953
     C    3   0.848208   0.109691  14.084620
     C    4   0.055635   0.018100   4.173584  14.280851
     C    5   4.743013   0.979441   3.504580   0.609853  14.462501
     C    6   0.003517   0.001263   0.606683   4.166195   0.038212  14.251497
     C    7   0.004003   0.001089   0.035546   0.615325   0.112033   4.069782
     C    8   0.921939   0.056886   0.613512   0.027650   4.430887   0.037858
     C    9   0.070335   0.003106   0.043263   0.027529   0.758479   0.663021
     H   10   0.009577   0.003686   0.427131   4.452576   0.050497   0.428939
     H   11   0.003163   0.001560   0.444764   4.413522   0.033244   0.444822
     H   12   0.033989   0.003571   4.474204   0.446965   0.453843   0.024199
     H   13   0.104882   0.004636   4.447687   0.430407   0.464721   0.049874
     H   14   0.436812   0.083224   0.427109   0.044531   4.069565   0.006560
     H   15   0.001570   0.000904   0.050683   0.428864   0.005594   4.461271
     H   16   0.000778   0.000589   0.022861   0.446324   0.004855   4.464349
     H   17   0.001876   0.000759   0.005462   0.033590   0.026763   0.453208
     H   18   0.001077   0.000431   0.002151   0.048711   0.003386   0.432973
     H   19   0.073141   0.007063   0.024249   0.001719   0.461986   0.015031
     H   20   0.009100   0.001422   0.014882   0.001131   0.123663   0.026301
     H   21   1.073830   8.654304   0.020088   0.003438   0.143676   0.000613


                  C  7       C  8       C  9       H 10       H 11       H 12
 ------------------------------------------------------------------------------
     C    7  14.591182
     C    8   0.787705  18.106279
     C    9   4.956368  10.687858  18.077914
     H   10   0.050636   0.002801   0.002708   5.051822
     H   11   0.026161   0.002091   0.002418   0.570591   5.038352
     H   12   0.003399   0.031746   0.005405   0.025353   0.045254   5.092402
     H   13   0.003442   0.042752   0.002253   0.039622   0.025440   0.559589
     H   14   0.023551   0.406563   0.029765   0.002442   0.029985   0.039202
     H   15   0.433309   0.003260   0.047681   0.039648   0.026941   0.002740
     H   16   0.443793   0.004598   0.029975   0.026304   0.045543   0.023815
     H   17   4.377027   0.026503   0.424998   0.002715   0.028591   0.000819
     H   18   4.486168   0.051640   0.436868   0.007961   0.002407   0.000267
     H   19   0.122048   4.802974   0.437239   0.000375   0.000459   0.003004
     H   20   0.432991   0.441652   4.812496   0.000460   0.000423   0.000843
     H   21   0.000611   0.006797   0.002482   0.000714   0.000474   0.001304


                  H 13       H 14       H 15       H 16       H 17       H 18
 ------------------------------------------------------------------------------
     H   13   5.061641
     H   14   0.012346   4.470961
     H   15   0.008297   0.000645   5.057510
     H   16   0.002495   0.000925   0.566420   5.079344
     H   17   0.000506   0.017066   0.017951   0.043966   4.988377
     H   18   0.000324   0.000731   0.037207   0.018975   0.568300   5.061693
     H   19   0.003958   0.023278   0.002408   0.000835   0.012097   0.005939
     H   20   0.002092   0.011695   0.003921   0.002908   0.024646   0.032936
     H   21   0.001476   0.008637   0.000293   0.000217   0.000346   0.000160


                  H 19       H 20       H 21
 ------------------------------------------
     H   19   5.178976
     H   20   0.075921   5.165773
     H   21   0.003206   0.000639   8.994234


          HEAT OF FORMATION =     -29.473032 KCALS/MOLE

          ZERO POINT ENERGY     112.460 KCAL/MOL


           NORMAL COORDINATE ANALYSIS (Total motion = 1 Angstrom)


   Root No.       1         2         3         4         5         6         7         8

                 1 A       2 A       3 A       4 A       5 A       6 A       7 A       8 A   

                  48.5      99.2     172.2     187.9     227.8     308.5     337.8     360.7
  
           1   -0.0008    0.0097   -0.0017    0.0031   -0.0142   -0.0151   -0.0194    0.0021
           2    0.0368    0.0115   -0.0071    0.0080   -0.0220    0.0467   -0.0018    0.0227
           3   -0.0637   -0.0128    0.0093   -0.0199    0.0047   -0.0245    0.0259   -0.0135
           4   -0.0004    0.0110   -0.0020    0.0035   -0.0130   -0.0223   -0.0276   -0.0001
           5   -0.0510    0.0426    0.0223   -0.0026    0.0421   -0.0014    0.0185   -0.0119
           6    0.1074    0.0247   -0.0266   -0.0068    0.0255   -0.0061    0.0116   -0.0091
           7   -0.0152   -0.0256    0.0046   -0.0187   -0.0227    0.0025    0.0147    0.0042
           8    0.0082   -0.0166    0.0102   -0.0174   -0.0056   -0.0025    0.0150   -0.0201
           9   -0.0076    0.0103   -0.0189    0.0368   -0.0158    0.0171   -0.0167   -0.0264
          10   -0.0343   -0.0145   -0.0055    0.0159    0.0364    0.0242   -0.0285   -0.0096
          11    0.0015   -0.0117    0.0058   -0.0048    0.0087    0.0020    0.0028   -0.0290
          12    0.0128   -0.0041    0.0043   -0.0053   -0.0084   -0.0254   -0.0250   -0.0108
          13    0.0001   -0.0210   -0.0042    0.0038   -0.0315   -0.0014    0.0029   -0.0086
          14    0.0226   -0.0092    0.0002   -0.0006   -0.0203    0.0150    0.0147    0.0057
          15   -0.0347    0.0041   -0.0062   -0.0040   -0.0126    0.0354    0.0071    0.0094
          16   -0.0127    0.0298   -0.0002    0.0037    0.0078   -0.0011    0.0115    0.0283
          17   -0.0154    0.0206   -0.0129    0.0309   -0.0191   -0.0395    0.0127    0.0008
          18    0.0224   -0.0031    0.0109   -0.0182   -0.0066   -0.0208   -0.0202   -0.0105
          19    0.0058    0.0439    0.0102   -0.0245   -0.0082    0.0064   -0.0027   -0.0046
          20   -0.0032   -0.0081   -0.0013   -0.0065   -0.0011   -0.0135   -0.0371    0.0120
          21   -0.0021   -0.0214   -0.0024    0.0173    0.0161   -0.0265   -0.0024    0.0359
          22    0.0296   -0.0328   -0.0087    0.0241    0.0032    0.0062    0.0468   -0.0279
          23    0.0100   -0.0286   -0.0023    0.0024   -0.0003   -0.0110   -0.0052    0.0041
          24   -0.0346    0.0013   -0.0058   -0.0031   -0.0094    0.0355    0.0065    0.0095
          25    0.0339   -0.0079    0.0067   -0.0108    0.0392    0.0075    0.0091    0.0212
          26   -0.0011   -0.0166   -0.0012   -0.0100    0.0066    0.0007   -0.0280    0.0142
          27   -0.0197   -0.0018   -0.0008   -0.0035   -0.0024    0.0240    0.0133    0.0205
          28   -0.0500   -0.0321   -0.0109    0.0312    0.0686    0.0474   -0.0649   -0.0385
          29   -0.0063   -0.0184    0.0068    0.0051    0.0625    0.0196   -0.0412   -0.0478
          30    0.0320    0.0182    0.0121   -0.0230   -0.0341   -0.0506    0.0094    0.0218
          31   -0.0517   -0.0228   -0.0127    0.0382    0.0777    0.0456   -0.0689   -0.0328
          32    0.0174   -0.0240    0.0169   -0.0342   -0.0176   -0.0086    0.0257   -0.0236
          33    0.0025   -0.0400    0.0072   -0.0063    0.0331    0.0012   -0.0688   -0.0485
          34    0.0024   -0.0236   -0.0006   -0.0072   -0.0407   -0.0034    0.0123    0.0015
          35   -0.0077   -0.0064   -0.0021    0.0136    0.0181    0.0186   -0.0023   -0.0425
          36    0.0006    0.0274   -0.0449    0.0991   -0.0148    0.0371   -0.0449   -0.0629
          37   -0.0315   -0.0383    0.0247   -0.0711   -0.0278   -0.0001    0.0511    0.0415
          38    0.0191   -0.0313    0.0324   -0.0648   -0.0092   -0.0405    0.0254    0.0015
          39   -0.0103    0.0139   -0.0242    0.0484   -0.0145    0.0257   -0.0201   -0.0326
          40   -0.0120   -0.0331    0.0004   -0.0095   -0.0314   -0.0048    0.0065   -0.0137
          41    0.0304    0.0066   -0.0029    0.0067   -0.0211    0.0254    0.0099    0.0165
          42   -0.0434    0.0190   -0.0035   -0.0188   -0.0237    0.0595   -0.0022    0.0329
          43   -0.0295    0.0655   -0.0187    0.0522   -0.0157   -0.0475    0.0681    0.0522
          44   -0.0223    0.0355   -0.0206    0.0514   -0.0289   -0.0596    0.0373    0.0115
          45    0.0393   -0.0114    0.0249   -0.0452    0.0030    0.0063   -0.0215   -0.0405
          46    0.0063    0.0144    0.0154   -0.0375    0.0160    0.0278   -0.0246    0.0093
          47   -0.0318    0.0547   -0.0310    0.0748   -0.0436   -0.0855    0.0558    0.0287
          48    0.0327    0.0212    0.0124   -0.0279   -0.0290   -0.0369   -0.0220   -0.0024
          49   -0.0113    0.0545    0.0052   -0.0125   -0.0151    0.0055    0.0102   -0.0001
          50    0.0131   -0.0519   -0.0061    0.0148    0.0429   -0.0362   -0.0448    0.0589
          51   -0.0160   -0.0441   -0.0154    0.0576    0.0457   -0.0503    0.0117    0.0900
          52    0.0143    0.0828    0.0214   -0.0566   -0.0519    0.0168   -0.0101   -0.0753
          53   -0.0125    0.0174    0.0051   -0.0349   -0.0295    0.0228   -0.0383   -0.0221
          54    0.0064   -0.0306   -0.0045    0.0305    0.0265   -0.0502   -0.0029    0.0449
          55    0.0502   -0.0690   -0.0218    0.0556    0.0252    0.0133    0.1144   -0.0553
          56    0.0102   -0.0405   -0.0063    0.0111    0.0066   -0.0103    0.0075   -0.0050
          57   -0.0477   -0.0056   -0.0074   -0.0024   -0.0055    0.0295   -0.0058    0.0050
          58    0.0585   -0.0289    0.0101   -0.0120    0.1056    0.0091    0.0230    0.0666
          59   -0.0097   -0.0099   -0.0016   -0.0207    0.0143    0.0314   -0.0243    0.0164
          60   -0.0204   -0.0016   -0.0009   -0.0050    0.0013    0.0289    0.0140    0.0227
          61   -0.0114    0.0380    0.0104    0.0003    0.0329   -0.0439   -0.0120   -0.0220
          62   -0.0430    0.0477   -0.2151   -0.0380    0.0578   -0.0134    0.0235   -0.0180
          63    0.0858    0.0187    0.5436    0.0771   -0.0010    0.0171    0.0029   -0.0002


   Root No.       9        10        11        12        13        14        15        16

                 9 A      10 A      11 A      12 A      13 A      14 A      15 A      16 A   

                 424.6     449.9     513.6     554.7     646.4     765.8     792.9     872.5
  
           1   -0.0084    0.0196    0.0054    0.0007    0.0008    0.0159    0.1426   -0.0137
           2    0.0091    0.0124    0.0094    0.0226   -0.0244    0.0063   -0.0161    0.0068
           3    0.0263    0.0490   -0.0035    0.0274   -0.0232    0.0066   -0.0062    0.0043
           4   -0.0199    0.0426    0.0252   -0.0170   -0.0020   -0.0141   -0.1098    0.0068
           5    0.0046   -0.0304   -0.0131   -0.0005    0.0047   -0.0018   -0.0100    0.0012
           6    0.0035   -0.0122   -0.0069    0.0002    0.0018   -0.0009   -0.0038    0.0005
           7   -0.0102   -0.0411   -0.0296    0.0060    0.0155    0.0121   -0.0276    0.0066
           8   -0.0233    0.0191   -0.0125   -0.0179    0.0055   -0.0022   -0.0137   -0.0201
           9   -0.0098    0.0041   -0.0330   -0.0054    0.0023    0.0021   -0.0208   -0.0238
          10    0.0159   -0.0181    0.0067    0.0166    0.0015    0.0141   -0.0240    0.0115
          11   -0.0220    0.0338   -0.0044   -0.0243    0.0011   -0.0023    0.0277    0.0009
          12   -0.0042   -0.0307    0.0122    0.0257   -0.0056    0.0066   -0.0204   -0.0222
          13    0.0101   -0.0188   -0.0337    0.0106    0.0147   -0.0043    0.0044   -0.0002
          14    0.0389    0.0268   -0.0089    0.0305   -0.0009    0.0018   -0.0105   -0.0021
          15   -0.0277   -0.0086    0.0036   -0.0049   -0.0230   -0.0026    0.0021    0.0014
          16    0.0343    0.0037   -0.0037   -0.0257   -0.0108    0.0116   -0.0124   -0.0226
          17   -0.0309   -0.0108    0.0089    0.0123   -0.0032    0.0048    0.0193    0.0380
          18    0.0043   -0.0115    0.0076    0.0058   -0.0019    0.0053    0.0051    0.0079
          19    0.0226    0.0002    0.0023   -0.0068   -0.0104   -0.0043    0.0043   -0.0097
          20    0.0057   -0.0245   -0.0057   -0.0168   -0.0239    0.0065    0.0056    0.0212
          21    0.0197    0.0001   -0.0037   -0.0170    0.0066    0.0035    0.0106    0.0396
          22    0.0066   -0.0190    0.0212   -0.0139   -0.0274   -0.0321    0.0159    0.0149
          23    0.0403   -0.0057    0.0187   -0.0103    0.0423   -0.0091   -0.0024   -0.0177
          24   -0.0272   -0.0125    0.0152   -0.0182   -0.0052   -0.0132    0.0148    0.0017
          25   -0.0378    0.0260   -0.0183    0.0240    0.0070   -0.0349    0.0134    0.0139
          26   -0.0095   -0.0127   -0.0008   -0.0053    0.0040   -0.0070    0.0013   -0.0100
          27    0.0093    0.0111    0.0236   -0.0132    0.0624   -0.0185    0.0177   -0.0003
          28    0.0128   -0.0226    0.0371    0.0658   -0.0015   -0.0202    0.0096   -0.0041
          29    0.0010    0.0489    0.0544    0.0173   -0.0172   -0.0424    0.0934   -0.0452
          30    0.0086   -0.0191   -0.0092   -0.0265   -0.0080    0.0400   -0.0429   -0.0166
          31    0.0235   -0.0163    0.0481    0.0652   -0.0098   -0.0220    0.0164   -0.0136
          32   -0.0347    0.0262   -0.0316   -0.0470    0.0143    0.0152    0.0003    0.0014
          33   -0.0090   -0.0359    0.0482    0.0805   -0.0071   -0.0349    0.0174   -0.0656
          34    0.0116   -0.0360   -0.0540    0.0196    0.0344    0.0194   -0.0398    0.0089
          35   -0.0226    0.0577   -0.0276   -0.0454    0.0195    0.0089    0.0038    0.0056
          36    0.0291    0.0675   -0.1010   -0.0219    0.0572    0.0333   -0.0228    0.0175
          37   -0.0424   -0.0858    0.0227    0.0172   -0.0364   -0.0173   -0.0154   -0.0152
          38   -0.0491   -0.0408    0.0413    0.0060   -0.0271   -0.0227   -0.0346   -0.0819
          39   -0.0031    0.0207   -0.0464   -0.0117    0.0109    0.0076   -0.0133   -0.0097
          40   -0.0024   -0.0343   -0.0529    0.0062    0.0387    0.0014   -0.0680   -0.0060
          41    0.0370    0.0362    0.0049    0.0368   -0.0285    0.0110    0.0612    0.0038
          42   -0.0694   -0.0139   -0.0103    0.0028   -0.0422    0.0414    0.0265    0.0046
          43   -0.0031   -0.0058    0.0252    0.0437    0.0410   -0.0343   -0.0383   -0.1217
          44   -0.0474   -0.0147    0.0213    0.0422    0.0192   -0.0155    0.0083   -0.0059
          45    0.0069    0.0317   -0.0075   -0.0362   -0.0120    0.0111    0.0534    0.0286
          46    0.0592    0.0109   -0.0219   -0.0734   -0.0505    0.0407    0.0091    0.0241
          47   -0.0601   -0.0333    0.0355    0.0791    0.0375   -0.0331   -0.0130   -0.0439
          48    0.0087   -0.0313    0.0118    0.0137   -0.0173    0.0051   -0.0051   -0.0302
          49    0.0385   -0.0006    0.0145   -0.0217   -0.0000    0.0201   -0.0013   -0.0253
          50   -0.0159   -0.0112   -0.0636   -0.0201   -0.1124   -0.0410    0.0050   -0.0592
          51    0.0285    0.0114   -0.0405   -0.0489   -0.0637   -0.0020    0.0012   -0.0662
          52    0.0179   -0.0197    0.0524    0.0285    0.0504    0.0301    0.0186    0.1362
          53    0.0181   -0.0317    0.0404   -0.0120    0.0647    0.0235    0.0083    0.0735
          54    0.0092    0.0008   -0.0255   -0.0130   -0.0441   -0.0014    0.0122    0.0336
          55   -0.0067   -0.0356    0.1192   -0.0567   -0.0498    0.2051   -0.0480   -0.0357
          56    0.0267   -0.0211    0.0475   -0.0305    0.0280    0.0637   -0.0187   -0.0400
          57   -0.0494   -0.0379    0.0216   -0.0390   -0.0254    0.0100    0.0164   -0.0166
          58   -0.1322    0.0810   -0.0119    0.0696    0.0876    0.2095   -0.0740   -0.0002
          59   -0.0676   -0.0066    0.0089    0.0049    0.0097    0.0557   -0.0188   -0.0570
          60   -0.0044    0.0134    0.0252   -0.0105    0.0656   -0.0004    0.0122   -0.0088
          61   -0.0229   -0.0225   -0.0062   -0.0333    0.0332   -0.0101    0.0215   -0.0103
          62    0.0077   -0.0335   -0.0163   -0.0018    0.0083   -0.0031   -0.0071    0.0005
          63   -0.0054   -0.0196   -0.0056   -0.0023    0.0020   -0.0004   -0.0049    0.0003


   Root No.      17        18        19        20        21        22        23        24

                17 A      18 A      19 A      20 A      21 A      22 A      23 A      24 A   

                 874.0     881.3     942.5     965.0     992.2    1001.4    1049.8    1077.0
  
           1    0.0021    0.0123    0.0037    0.0024   -0.0055    0.0010    0.0014    0.0002
           2   -0.0044    0.0082   -0.0013   -0.0012    0.0009   -0.0048    0.0113   -0.0155
           3   -0.0023    0.0045   -0.0001   -0.0004   -0.0014    0.0011    0.0054   -0.0056
           4    0.0003   -0.0059   -0.0005    0.0009    0.0013   -0.0009   -0.0013    0.0017
           5   -0.0005   -0.0027   -0.0009   -0.0016    0.0012    0.0005    0.0001   -0.0009
           6   -0.0001   -0.0012   -0.0003   -0.0009    0.0004    0.0004   -0.0001   -0.0002
           7   -0.0091   -0.0009   -0.0004    0.0188   -0.0038   -0.0157    0.0038   -0.0102
           8   -0.0075    0.0044    0.0125   -0.0002   -0.0189    0.0129    0.0044    0.0106
           9    0.0455    0.0086    0.0332    0.0094    0.0003   -0.0010   -0.0078   -0.0025
          10    0.0010    0.0463   -0.0172    0.0065   -0.0015   -0.0022   -0.0084    0.0066
          11    0.0015    0.0028   -0.0011   -0.0053    0.0121   -0.0048   -0.0058   -0.0088
          12    0.0061    0.0193   -0.0260   -0.0021   -0.0089    0.0157    0.0128    0.0005
          13   -0.0021   -0.0244   -0.0065   -0.0243    0.0134    0.0149   -0.0101   -0.0037
          14    0.0056   -0.0084   -0.0029   -0.0000   -0.0020    0.0099   -0.0244    0.0102
          15   -0.0004    0.0008    0.0134   -0.0015    0.0064   -0.0115    0.0147    0.0129
          16    0.0038    0.0070    0.0017   -0.0218    0.0074    0.0106    0.0063   -0.0027
          17    0.0272   -0.0153   -0.0345    0.0142    0.0048   -0.0020    0.0096    0.0010
          18   -0.0199    0.0017   -0.0004   -0.0029    0.0129   -0.0164   -0.0094    0.0020
          19   -0.0023   -0.0209    0.0002    0.0220   -0.0072   -0.0154   -0.0127    0.0063
          20   -0.0064   -0.0093    0.0156   -0.0029   -0.0213    0.0145   -0.0196    0.0046
          21   -0.0049   -0.0037    0.0373   -0.0099   -0.0028    0.0066    0.0005   -0.0115
          22    0.0008    0.0070   -0.0064   -0.0356   -0.0169   -0.0125    0.0056    0.0137
          23    0.0113    0.0072    0.0022    0.0063    0.0126   -0.0257    0.0261    0.0186
          24   -0.0133   -0.0057   -0.0193   -0.0153   -0.0036    0.0064   -0.0227   -0.0110
          25   -0.0012    0.0090    0.0033    0.0328    0.0068    0.0219    0.0150   -0.0133
          26   -0.0094    0.0082    0.0052   -0.0023    0.0159   -0.0028    0.0135   -0.0134
          27    0.0097   -0.0091   -0.0217    0.0219   -0.0102    0.0097   -0.0185    0.0123
          28    0.0049   -0.0581    0.0274    0.0266   -0.0188   -0.0246   -0.0044   -0.0141
          29   -0.0220   -0.1093    0.0238   -0.0907    0.0698    0.0536    0.0063    0.0178
          30   -0.0079    0.1211   -0.0801   -0.0588    0.0367    0.0646    0.0124    0.0376
          31    0.0134   -0.0672    0.0185   -0.0151    0.0201    0.0200    0.0045    0.0193
          32   -0.0390    0.0673   -0.0175    0.0376   -0.0537   -0.0594   -0.0056   -0.0605
          33   -0.0335   -0.1008    0.0148    0.0228   -0.0662   -0.0276    0.0410   -0.0548
          34   -0.0260   -0.0500   -0.0367    0.0036    0.0258    0.0379    0.0107   -0.0321
          35   -0.0908    0.0445    0.0052    0.0179   -0.0648   -0.0469    0.0208    0.0361
          36   -0.1048   -0.0185   -0.0421    0.0116   -0.0141    0.0073    0.0299   -0.0042
          37    0.1107    0.0058    0.0997    0.0331    0.0120   -0.0734   -0.0342    0.0011
          38    0.1192    0.0257    0.0343   -0.0221   -0.0121    0.0864   -0.0121   -0.0038
          39    0.0120    0.0029    0.0267    0.0136   -0.0015   -0.0171   -0.0023    0.0015
          40   -0.0232   -0.0618   -0.0036   -0.0290    0.0397    0.0512    0.0504    0.0408
          41    0.0104    0.0182    0.0001    0.0134   -0.0155   -0.0101   -0.0350    0.0241
          42   -0.0518   -0.0257    0.0274    0.0260    0.0414    0.0352    0.1624    0.1913
          43   -0.1021    0.0459    0.0910   -0.0528    0.0493   -0.0163   -0.0347   -0.0274
          44   -0.0192    0.0021    0.0023    0.0006    0.0227   -0.0129   -0.0081   -0.0098
          45    0.0334   -0.0220   -0.0511   -0.0057    0.1462   -0.0693    0.0001   -0.0572
          46    0.0696   -0.0422   -0.0618   -0.0017   -0.0207    0.0102    0.0442    0.0106
          47   -0.0790    0.0111    0.0424    0.0017   -0.0235   -0.0165   -0.0233    0.0072
          48   -0.0547   -0.0500   -0.0084    0.0151   -0.0842   -0.0386    0.0156    0.0372
          49    0.0266   -0.0507   -0.0149   -0.0008   -0.0550   -0.0247    0.0979   -0.0718
          50   -0.0342   -0.0169   -0.0417    0.0659    0.0185   -0.0125   -0.1504    0.1001
          51    0.0198   -0.0656   -0.0478    0.0190   -0.0491   -0.0368    0.0684   -0.0565
          52   -0.0149    0.0147    0.0939   -0.0124    0.0436   -0.0189   -0.0438    0.0298
          53   -0.0015    0.0166    0.0751   -0.0576   -0.0722    0.0912    0.0281   -0.0525
          54   -0.0124   -0.0150    0.0155    0.0206    0.0445   -0.0486   -0.0423    0.0333
          55   -0.0485   -0.0456    0.0337    0.1648    0.0381    0.0875   -0.0450   -0.0311
          56   -0.0139   -0.0054    0.0173    0.0497    0.0485   -0.0079    0.0364   -0.0205
          57   -0.0420   -0.0028   -0.0077   -0.0396    0.0448   -0.0124    0.0330   -0.0763
          58    0.0544   -0.0551    0.0057   -0.1453   -0.0484   -0.0783   -0.0235    0.0575
          59   -0.0155   -0.0124   -0.0702   -0.0859    0.0078   -0.0208   -0.0819   -0.0500
          60    0.0099   -0.0152   -0.0358    0.0019   -0.0131    0.0034   -0.0381    0.0079
          61    0.0041   -0.0145   -0.0002   -0.0036    0.0023    0.0096   -0.0176    0.0261
          62   -0.0001   -0.0043   -0.0012   -0.0026    0.0016    0.0015   -0.0021    0.0015
          63   -0.0005   -0.0023   -0.0001   -0.0005    0.0009    0.0008   -0.0000    0.0013


   Root No.      25        26        27        28        29        30        31        32

                25 A      26 A      27 A      28 A      29 A      30 A      31 A      32 A   

                1088.6    1104.2    1122.3    1126.2    1150.0    1155.3    1161.0    1186.4
  
           1    0.0069    0.0010   -0.0011   -0.0070    0.0045   -0.0033   -0.0013    0.0053
           2    0.0202    0.0106   -0.0215   -0.0113    0.0029    0.0034   -0.0039    0.0065
           3    0.0080    0.0020   -0.0081   -0.0047    0.0029    0.0028   -0.0024    0.0023
           4   -0.0052   -0.0022    0.0028    0.0010   -0.0013   -0.0004    0.0002   -0.0013
           5    0.0010    0.0014   -0.0016    0.0013   -0.0002    0.0010    0.0002    0.0001
           6    0.0003    0.0004   -0.0004    0.0007   -0.0000    0.0005    0.0001   -0.0002
           7   -0.0125   -0.0052   -0.0014   -0.0385   -0.0040   -0.0215   -0.0033   -0.0026
           8    0.0212    0.0008    0.0162   -0.0174    0.0184   -0.0200    0.0032   -0.0095
           9   -0.0013    0.0014    0.0019   -0.0023   -0.0005    0.0046   -0.0073    0.0047
          10    0.0007    0.0013    0.0025    0.0182    0.0022    0.0084   -0.0229   -0.0001
          11   -0.0157   -0.0035   -0.0140    0.0085   -0.0203    0.0176   -0.0210    0.0111
          12   -0.0002   -0.0086   -0.0048   -0.0007   -0.0073   -0.0133    0.0287   -0.0005
          13    0.0091    0.0187   -0.0039    0.0439   -0.0072    0.0168    0.0120   -0.0180
          14   -0.0224   -0.0066    0.0299    0.0201    0.0003   -0.0058    0.0077   -0.0034
          15   -0.0070    0.0056   -0.0080    0.0010   -0.0097   -0.0067    0.0044    0.0014
          16   -0.0113    0.0076    0.0079   -0.0294    0.0009    0.0175    0.0332    0.0010
          17   -0.0009    0.0073    0.0041   -0.0074    0.0033    0.0014    0.0132   -0.0037
          18   -0.0111    0.0131    0.0037    0.0008    0.0172    0.0041   -0.0240   -0.0029
          19    0.0174   -0.0186   -0.0167    0.0224   -0.0032   -0.0161   -0.0112   -0.0032
          20   -0.0073   -0.0078   -0.0205    0.0047    0.0048   -0.0046   -0.0034   -0.0008
          21    0.0071   -0.0073    0.0088    0.0034    0.0005   -0.0006    0.0038    0.0061
          22   -0.0015   -0.0123   -0.0031   -0.0073    0.0074   -0.0002   -0.0029    0.0048
          23    0.0080   -0.0012   -0.0048   -0.0056   -0.0058    0.0008   -0.0008    0.0027
          24    0.0055   -0.0045    0.0101    0.0019   -0.0013   -0.0026    0.0003   -0.0061
          25   -0.0049    0.0093    0.0077    0.0033   -0.0022    0.0005    0.0002    0.0008
          26    0.0016   -0.0009    0.0159    0.0039   -0.0025   -0.0033    0.0002    0.0019
          27    0.0003    0.0025   -0.0135   -0.0028    0.0017    0.0035    0.0002   -0.0007
          28    0.0102   -0.0152    0.0190   -0.0177    0.0400    0.0345    0.0123   -0.0137
          29   -0.0637    0.0500   -0.0348   -0.0483   -0.1229   -0.0833   -0.0267    0.0220
          30   -0.0335    0.0336   -0.0344    0.0264   -0.0935   -0.0847   -0.0211    0.0223
          31    0.0072    0.0206    0.0177   -0.0413    0.0299   -0.0510   -0.0227   -0.0187
          32   -0.0357   -0.0538   -0.0378    0.0661   -0.0813    0.1425    0.0715    0.0529
          33   -0.0178   -0.0477   -0.0147   -0.0227   -0.0438    0.0594    0.1760    0.0296
          34   -0.0083   -0.1085   -0.0045   -0.1338   -0.0368    0.0118   -0.1080    0.0257
          35    0.0184    0.1003    0.0223    0.0427    0.0549   -0.0882    0.1249   -0.0519
          36    0.0020   -0.0402    0.0041   -0.0825   -0.0050   -0.0319   -0.0145   -0.0027
          37   -0.0866    0.0794    0.0021    0.0186   -0.0240   -0.0503    0.0259    0.0369
          38    0.1065   -0.0640    0.0208   -0.0217    0.0409    0.0635   -0.0666   -0.0398
          39   -0.0210    0.0159    0.0005   -0.0023   -0.0070   -0.0155    0.0098    0.0116
          40    0.0750    0.0620   -0.0606    0.0683    0.0582    0.0361    0.0156    0.1068
          41   -0.0999   -0.0781    0.0984    0.0185   -0.0452   -0.0026    0.0031   -0.1147
          42   -0.0568   -0.0994    0.0365    0.0660    0.0400    0.0664   -0.0039    0.0224
          43   -0.0395   -0.0291   -0.0270   -0.0112    0.0499    0.0247    0.0068   -0.0093
          44   -0.0153   -0.0081   -0.0134    0.0013    0.0237    0.0043    0.0013   -0.0085
          45   -0.0677   -0.0321   -0.0410   -0.0089    0.1586    0.0038    0.0288   -0.0585
          46   -0.0130    0.0700    0.0559   -0.0825   -0.0100    0.0712    0.0351   -0.0044
          47   -0.0103    0.0172   -0.0073    0.0206   -0.0046    0.0158   -0.0686   -0.0003
          48   -0.0293    0.1491    0.0777   -0.0544   -0.0147    0.1231   -0.1496   -0.0091
          49   -0.0059   -0.0304    0.0162    0.1035    0.0004   -0.0706   -0.0728    0.0191
          50    0.0212   -0.0112   -0.0823   -0.0450    0.0075    0.0286    0.0310   -0.0268
          51   -0.0042   -0.0281    0.0083    0.0979    0.0089   -0.0644   -0.0749    0.0208
          52    0.0965   -0.0331    0.0705   -0.0155   -0.0615   -0.0080    0.0462    0.0522
          53   -0.1031    0.0028   -0.0646    0.0055    0.0649    0.0151   -0.0075   -0.0320
          54    0.0906   -0.0183    0.0589   -0.0053   -0.0518   -0.0122    0.0187    0.0414
          55   -0.0189    0.0265   -0.0046    0.0264    0.0035   -0.0055    0.0082    0.0197
          56    0.0370    0.0123    0.0145    0.0156   -0.0310    0.0131   -0.0007   -0.0585
          57    0.0858    0.0044    0.0523    0.0305   -0.0584    0.0306   -0.0067   -0.1634
          58    0.0183   -0.0198   -0.0646   -0.0018   -0.0206    0.0020   -0.0024   -0.0595
          59   -0.0061   -0.0151    0.1297    0.0197    0.0714   -0.0138    0.0082    0.1752
          60    0.0011   -0.0011    0.0050   -0.0001    0.0138    0.0018    0.0017    0.0279
          61   -0.0273   -0.0110    0.0347    0.0320   -0.0056   -0.0025    0.0119   -0.0133
          62   -0.0017    0.0004    0.0021    0.0052   -0.0010    0.0010    0.0015   -0.0018
          63   -0.0010    0.0001    0.0003    0.0022   -0.0003    0.0006    0.0008   -0.0001


   Root No.      33        34        35        36        37        38        39        40

                33 A      34 A      35 A      36 A      37 A      38 A      39 A      40 A   

                1229.9    1245.9    1287.5    1329.1    1345.9    1374.9    1394.3    1402.5
  
           1   -0.0047    0.0068    0.0037    0.0033   -0.0015   -0.0010    0.0005   -0.0005
           2    0.0129   -0.0083    0.0001   -0.0099   -0.0001    0.0049   -0.0018   -0.0010
           3    0.0087   -0.0052    0.0017   -0.0069   -0.0015    0.0032   -0.0016   -0.0011
           4    0.0001    0.0000    0.0004    0.0002   -0.0007   -0.0005   -0.0003   -0.0002
           5    0.0015   -0.0016   -0.0004   -0.0021   -0.0001    0.0013   -0.0008   -0.0007
           6    0.0009   -0.0008   -0.0000   -0.0011   -0.0001    0.0007   -0.0004   -0.0004
           7    0.0106   -0.0163    0.0067    0.0048   -0.0292   -0.0356   -0.0044   -0.0098
           8   -0.0065    0.0145   -0.0014   -0.0050    0.0293    0.0211   -0.0001   -0.0264
           9    0.0089   -0.0049    0.0141   -0.0003   -0.0149   -0.0063   -0.0024   -0.0147
          10   -0.0081    0.0017    0.0117    0.0093    0.0082    0.0116    0.0027   -0.0013
          11    0.0068    0.0106   -0.0212   -0.0264    0.0010   -0.0291   -0.0153    0.0084
          12    0.0005    0.0120   -0.0128   -0.0232    0.0094   -0.0233   -0.0126    0.0201
          13    0.0049   -0.0259   -0.0246   -0.0143    0.0200    0.0167   -0.0015   -0.0021
          14   -0.0254    0.0310    0.0157    0.0245   -0.0145   -0.0204    0.0046    0.0064
          15   -0.0296   -0.0059   -0.0356    0.0397    0.0366   -0.0140    0.0189    0.0049
          16   -0.0007    0.0065   -0.0144   -0.0021   -0.0153    0.0148    0.0068   -0.0241
          17    0.0042    0.0021   -0.0030    0.0119   -0.0044    0.0062    0.0065    0.0015
          18    0.0065    0.0117   -0.0307    0.0055   -0.0355    0.0229    0.0390   -0.0131
          19    0.0145    0.0053   -0.0063    0.0225    0.0031   -0.0017   -0.0346    0.0129
          20   -0.0078   -0.0061    0.0153   -0.0234   -0.0042    0.0050    0.0064    0.0014
          21    0.0122    0.0004   -0.0020    0.0209    0.0102   -0.0066   -0.0338    0.0117
          22    0.0050    0.0043    0.0071   -0.0012   -0.0031   -0.0015   -0.0002    0.0003
          23    0.0009   -0.0050   -0.0108    0.0080    0.0072   -0.0012    0.0013   -0.0001
          24   -0.0245    0.0064    0.0052   -0.0125   -0.0251    0.0077   -0.0184   -0.0012
          25    0.0012   -0.0010    0.0016   -0.0004    0.0042   -0.0020    0.0091   -0.0010
          26   -0.0222   -0.0029   -0.0086   -0.0055   -0.0154    0.0087   -0.0201   -0.0007
          27    0.0088   -0.0057    0.0099   -0.0162    0.0002    0.0038    0.0099   -0.0027
          28   -0.0005    0.0160   -0.0451   -0.0124   -0.0312   -0.0116    0.0229    0.0392
          29    0.0346   -0.0745    0.0640    0.0680   -0.0723    0.0161    0.0397    0.0248
          30   -0.0023   -0.0344    0.0997    0.0365    0.0480    0.0256   -0.0286   -0.0409
          31    0.0032    0.0112   -0.0057   -0.0312    0.0397   -0.0146   -0.0384   -0.0399
          32   -0.0182   -0.0185    0.0460    0.0647   -0.0313    0.0500    0.0400    0.0087
          33   -0.0172   -0.0122    0.0623    0.0346    0.0333    0.0484   -0.0166   -0.0709
          34   -0.0228    0.0613   -0.0101    0.0008    0.0686    0.0742    0.0134    0.0211
          35    0.0245   -0.0782    0.0187    0.0178   -0.0614   -0.0065    0.0097    0.0828
          36   -0.0069    0.0039    0.0116    0.0227    0.0254    0.1204    0.0362    0.1580
          37    0.0460    0.0910    0.0528   -0.0633    0.0428    0.1608    0.0057    0.1161
          38   -0.0185   -0.1207    0.0186    0.0880   -0.0660    0.0347    0.0422    0.1066
          39    0.0115    0.0243    0.0102   -0.0195    0.0083   -0.0012   -0.0093   -0.0331
          40   -0.0368    0.0940    0.0633    0.0297   -0.0505   -0.0310    0.0045    0.0168
          41    0.0475   -0.0819   -0.0407   -0.0430    0.0261    0.0313   -0.0135   -0.0136
          42    0.0806   -0.0114    0.0449   -0.0519   -0.0423    0.0168   -0.0213   -0.0026
          43   -0.0397   -0.0152    0.0318   -0.0821    0.0314   -0.0760    0.0528    0.1104
          44   -0.0115   -0.0080    0.0189   -0.0168    0.0152   -0.0263    0.0190    0.0475
          45   -0.0627   -0.0592    0.1263    0.0174    0.0704    0.0140   -0.0625   -0.0287
          46   -0.0217   -0.0088    0.0188   -0.0340    0.0316   -0.0581    0.0202    0.0833
          47    0.0010   -0.0115    0.0220    0.0394    0.0052    0.0460   -0.0684   -0.0963
          48   -0.0375   -0.0400    0.0731   -0.0027    0.0667   -0.0394   -0.0662    0.0135
          49   -0.0385   -0.0190    0.0161   -0.0429   -0.0109    0.0057    0.0471   -0.0097
          50    0.0556    0.0113    0.0177    0.0304    0.0567   -0.0433    0.0834   -0.0235
          51   -0.0212   -0.0239    0.0349   -0.0401    0.0332   -0.0312    0.1524   -0.0411
          52   -0.0366   -0.0429    0.0646   -0.0680    0.0573   -0.0457    0.1338   -0.0428
          53    0.0582    0.0171    0.0054    0.0543    0.0556   -0.0425    0.0615   -0.0135
          54   -0.0436   -0.0283    0.0244   -0.0546   -0.0131    0.0117   -0.0187    0.0052
          55   -0.0290   -0.0275   -0.0233   -0.0078    0.0001    0.0106   -0.0135    0.0000
          56    0.0506    0.0349    0.0192    0.0241    0.0214   -0.0175    0.0244    0.0023
          57    0.1144    0.1209    0.0968    0.0269    0.0064   -0.0373    0.0460    0.0045
          58   -0.0390    0.0137    0.0026   -0.0090   -0.0162    0.0057   -0.0088   -0.0010
          59    0.1459   -0.0399   -0.0172    0.0499    0.0651   -0.0212    0.0031    0.0128
          60    0.0387   -0.0118    0.0099   -0.0082    0.0136   -0.0010    0.0135   -0.0003
          61   -0.0388    0.0201   -0.0120    0.0435    0.0148   -0.0238    0.0195    0.0174
          62   -0.0022    0.0004   -0.0017    0.0024    0.0016   -0.0013    0.0014    0.0014
          63   -0.0015   -0.0005   -0.0015    0.0013    0.0010   -0.0006    0.0006    0.0005


   Root No.      41        42        43        44        45        46        47        48

                41 A      42 A      43 A      44 A      45 A      46 A      47 A      48 A   

                1405.7    1412.7    1423.4    1482.9    1883.0    2810.6    2940.6    2944.8
  
           1   -0.0006   -0.0003   -0.0005   -0.0207   -0.0010    0.0008   -0.0000   -0.0000
           2   -0.0007   -0.0001   -0.0022    0.0482    0.0009    0.0013    0.0000    0.0000
           3   -0.0007    0.0001   -0.0018    0.0231    0.0044    0.0005    0.0000   -0.0000
           4   -0.0000    0.0001   -0.0004   -0.0225    0.0001    0.0002   -0.0000   -0.0000
           5   -0.0004    0.0001   -0.0017   -0.0342   -0.0003   -0.0007    0.0000    0.0000
           6   -0.0002    0.0000   -0.0008   -0.0140    0.0001   -0.0003    0.0000    0.0000
           7    0.0020    0.0040    0.0046    0.0048    0.0022    0.0002    0.0003    0.0037
           8   -0.0291   -0.0132   -0.0138    0.0055   -0.0022    0.0008    0.0002    0.0020
           9   -0.0086    0.0029   -0.0046    0.0067   -0.0012   -0.0016   -0.0004   -0.0060
          10   -0.0107   -0.0008   -0.0054   -0.0004    0.0001   -0.0006   -0.0058   -0.0372
          11    0.0297    0.0199    0.0161   -0.0028    0.0003   -0.0001   -0.0019   -0.0100
          12    0.0128   -0.0404   -0.0025   -0.0019   -0.0002    0.0002   -0.0005   -0.0039
          13   -0.0031   -0.0009   -0.0045   -0.0059   -0.0062   -0.0471    0.0005    0.0004
          14    0.0065    0.0018    0.0090   -0.0246    0.0076   -0.0518    0.0005   -0.0001
          15   -0.0026   -0.0060    0.0260   -0.0260    0.0289    0.0150   -0.0003   -0.0000
          16    0.0226   -0.0143    0.0144   -0.0005    0.0004   -0.0000    0.0024    0.0024
          17   -0.0106    0.0093   -0.0099    0.0007    0.0023   -0.0000    0.0062    0.0081
          18   -0.0126    0.0239    0.0035    0.0004    0.0016    0.0001   -0.0020   -0.0023
          19   -0.0091    0.0064   -0.0136    0.0014    0.0104   -0.0010   -0.0302    0.0040
          20   -0.0168   -0.0120    0.0523   -0.0035   -0.0362   -0.0002    0.0003   -0.0005
          21   -0.0026    0.0024   -0.0153    0.0011    0.0013    0.0007    0.0351   -0.0049
          22   -0.0010   -0.0007    0.0029    0.0011    0.0627   -0.0004   -0.0001    0.0000
          23    0.0008    0.0006   -0.0029   -0.0005   -0.1584    0.0011   -0.0000    0.0000
          24    0.0075    0.0083   -0.0319    0.0063   -0.1768    0.0008    0.0003    0.0000
          25   -0.0008   -0.0028    0.0104   -0.0020   -0.0718    0.0000    0.0002    0.0000
          26    0.0064    0.0080   -0.0333    0.0052    0.2037   -0.0007   -0.0002   -0.0000
          27   -0.0042   -0.0045    0.0157    0.0005    0.1217   -0.0001   -0.0021    0.0003
          28   -0.0105   -0.1368   -0.0258   -0.0009   -0.0003   -0.0016    0.0284    0.2180
          29   -0.0639   -0.1319   -0.0547    0.0125   -0.0005    0.0004   -0.0077   -0.0573
          30   -0.0134    0.1293    0.0108    0.0036    0.0001   -0.0010    0.0211    0.1613
          31    0.0421    0.1508    0.0460   -0.0020    0.0001    0.0037    0.0390    0.2276
          32   -0.0520   -0.0726   -0.0334    0.0014    0.0004    0.0057    0.0309    0.1796
          33    0.0016    0.1717    0.0364    0.0009   -0.0003   -0.0031   -0.0203   -0.1160
          34   -0.0039   -0.0106   -0.0031    0.0037    0.0024   -0.0104   -0.0046   -0.0478
          35    0.0630    0.0209    0.0204   -0.0113   -0.0010   -0.0141   -0.0033   -0.0354
          36    0.0883    0.0195    0.0246   -0.0151    0.0025    0.0111    0.0025    0.0270
          37    0.0570    0.0027   -0.0186    0.0157   -0.0120   -0.0006    0.0001    0.0004
          38    0.0749    0.0532    0.0401   -0.0223    0.0045    0.0011    0.0007    0.0116
          39   -0.0256   -0.0109   -0.0148    0.0110   -0.0021    0.0073    0.0023    0.0441
          40    0.0157   -0.0005    0.0046   -0.0164    0.0117    0.5664   -0.0053   -0.0014
          41   -0.0097    0.0054   -0.0121   -0.0068   -0.0150    0.6088   -0.0067   -0.0028
          42    0.0009    0.0044   -0.0207    0.0116   -0.0172   -0.1868    0.0013    0.0008
          43   -0.1116    0.0731   -0.0189   -0.0015   -0.0101    0.0000    0.0164    0.0225
          44   -0.0554    0.0363   -0.0184    0.0002   -0.0032    0.0002   -0.0347   -0.0526
          45    0.0322   -0.0840    0.0264   -0.0009   -0.0084    0.0000    0.0009   -0.0010
          46   -0.0743    0.0534   -0.0470    0.0009    0.0034   -0.0002   -0.0471   -0.0545
          47    0.1117   -0.0923    0.0481   -0.0010   -0.0012   -0.0002   -0.0404   -0.0447
          48    0.0238   -0.0298   -0.0112    0.0001    0.0031    0.0001    0.0276    0.0257
          49   -0.0042   -0.0075    0.0289   -0.0021   -0.0086    0.0117    0.3182   -0.0395
          50    0.0692    0.0149   -0.1141    0.0044    0.0217    0.0077    0.1734   -0.0216
          51    0.0678    0.0010   -0.0744    0.0019    0.0104   -0.0063   -0.1834    0.0230
          52    0.0867   -0.0172   -0.0609    0.0011    0.0151   -0.0001    0.0463   -0.0081
          53    0.0555    0.0165   -0.1037    0.0023   -0.0476   -0.0014   -0.1695    0.0278
          54   -0.0223   -0.0219    0.0707   -0.0026    0.0132   -0.0014   -0.2340    0.0387
          55    0.0009    0.0037   -0.0163    0.0024    0.0214    0.0001   -0.0003    0.0001
          56   -0.0051   -0.0077    0.0343   -0.0111   -0.1002   -0.0097   -0.0003   -0.0003
          57   -0.0084   -0.0147    0.0710   -0.0185    0.1042   -0.0002   -0.0003    0.0002
          58    0.0040    0.0052   -0.0172    0.0014    0.0116   -0.0012   -0.0026    0.0003
          59   -0.0168   -0.0128    0.0441   -0.0075   -0.0709   -0.0001   -0.0017    0.0001
          60   -0.0087   -0.0083    0.0299   -0.0015    0.1161   -0.0002    0.0238   -0.0028
          61    0.0099   -0.0013    0.0375    0.7035    0.0054    0.0006    0.0000    0.0000
          62    0.0009   -0.0001    0.0028    0.0538    0.0007   -0.0015    0.0000    0.0000
          63    0.0003    0.0000    0.0010    0.0184    0.0004   -0.0006    0.0000   -0.0000


   Root No.      49        50        51        52        53        54        55        56

                49 A      50 A      51 A      52 A      53 A      54 A      55 A      56 A   

                2955.7    2957.3    3023.4    3025.9    3034.0    3034.5    3036.8    3056.7
  
           1   -0.0001   -0.0002   -0.0000    0.0001   -0.0002    0.0001   -0.0000    0.0001
           2    0.0001    0.0001    0.0000   -0.0000    0.0001   -0.0000    0.0000   -0.0001
           3   -0.0000   -0.0001   -0.0000    0.0000   -0.0001   -0.0000    0.0003   -0.0004
           4    0.0000    0.0000    0.0000   -0.0000    0.0000   -0.0000   -0.0000   -0.0000
           5    0.0000    0.0000    0.0000   -0.0000    0.0000    0.0000   -0.0000    0.0000
           6    0.0000    0.0000    0.0000    0.0000   -0.0000   -0.0000    0.0000   -0.0000
           7    0.0057    0.0153   -0.0017    0.0043   -0.0166    0.0032   -0.0002    0.0001
           8    0.0026    0.0064   -0.0019    0.0048   -0.0183    0.0037   -0.0002    0.0002
           9   -0.0123   -0.0335   -0.0004    0.0009   -0.0102    0.0030   -0.0002    0.0005
          10   -0.0061    0.0098    0.0007   -0.0015   -0.0015    0.0025    0.0004    0.0001
          11   -0.0012    0.0013   -0.0053    0.0136    0.0024   -0.0047   -0.0005   -0.0001
          12   -0.0014    0.0025    0.0067   -0.0167   -0.0042    0.0063    0.0007    0.0002
          13    0.0002    0.0004    0.0001    0.0002   -0.0008    0.0002   -0.0002    0.0001
          14    0.0002    0.0006    0.0003   -0.0001   -0.0001    0.0001   -0.0002    0.0005
          15   -0.0001   -0.0004   -0.0002    0.0000   -0.0002   -0.0000    0.0003    0.0001
          16   -0.0061    0.0021   -0.0067    0.0046    0.0078    0.0201    0.0043    0.0006
          17   -0.0348    0.0122   -0.0007   -0.0004   -0.0014   -0.0058   -0.0016   -0.0006
          18    0.0084   -0.0027    0.0025   -0.0022   -0.0029   -0.0067   -0.0013   -0.0001
          19   -0.0024    0.0005   -0.0087   -0.0034   -0.0001   -0.0001   -0.0005    0.0001
          20    0.0011   -0.0003   -0.0196   -0.0080   -0.0010   -0.0027   -0.0037   -0.0028
          21    0.0040   -0.0011   -0.0104   -0.0041   -0.0007   -0.0021   -0.0033   -0.0028
          22    0.0001    0.0002   -0.0002   -0.0001   -0.0003   -0.0007    0.0070   -0.0101
          23    0.0000    0.0001    0.0007    0.0005    0.0011    0.0025   -0.0261    0.0360
          24    0.0001    0.0002   -0.0003   -0.0002   -0.0004   -0.0011    0.0107   -0.0093
          25   -0.0002    0.0001   -0.0001   -0.0001   -0.0000   -0.0002    0.0008    0.0025
          26    0.0001   -0.0001   -0.0007   -0.0003   -0.0002   -0.0007    0.0053    0.0017
          27   -0.0003    0.0001    0.0042    0.0020    0.0014    0.0043   -0.0291   -0.0369
          28    0.0440   -0.0748   -0.0787    0.2006    0.0545   -0.0876   -0.0108   -0.0023
          29   -0.0121    0.0179    0.0142   -0.0360   -0.0132    0.0170    0.0020    0.0005
          30    0.0307   -0.0545   -0.0498    0.1286    0.0344   -0.0598   -0.0077   -0.0016
          31    0.0300   -0.0402    0.0707   -0.1826   -0.0354    0.0587    0.0061    0.0009
          32    0.0216   -0.0355    0.0497   -0.1287   -0.0233    0.0400    0.0041    0.0005
          33   -0.0182    0.0225   -0.0295    0.0748    0.0136   -0.0222   -0.0022   -0.0003
          34   -0.0708   -0.1850    0.0223   -0.0576    0.2188   -0.0425    0.0024   -0.0010
          35   -0.0565   -0.1518    0.0180   -0.0460    0.1719   -0.0337    0.0018   -0.0007
          36    0.0397    0.1029   -0.0145    0.0375   -0.1475    0.0291   -0.0016    0.0008
          37    0.0013    0.0040   -0.0010    0.0026   -0.0125    0.0027   -0.0002    0.0003
          38    0.0270    0.0711    0.0025   -0.0061    0.0511   -0.0131    0.0004   -0.0009
          39    0.1106    0.2984    0.0197   -0.0487    0.2737   -0.0648    0.0027   -0.0041
          40   -0.0030   -0.0068   -0.0020   -0.0009    0.0040   -0.0016    0.0023   -0.0032
          41   -0.0029   -0.0052   -0.0029    0.0001    0.0026   -0.0015    0.0019   -0.0024
          42    0.0004    0.0005    0.0006   -0.0003   -0.0006    0.0005   -0.0014    0.0024
          43   -0.1147    0.0394    0.0131   -0.0146   -0.0278   -0.0800   -0.0181   -0.0033
          44    0.2672   -0.0915   -0.0479    0.0425    0.0811    0.2287    0.0507    0.0086
          45   -0.0006    0.0008    0.0019   -0.0044   -0.0035   -0.0073   -0.0018   -0.0003
          46    0.1893   -0.0651    0.0631   -0.0421   -0.0682   -0.1660   -0.0338   -0.0033
          47    0.1497   -0.0506    0.0567   -0.0388   -0.0645   -0.1579   -0.0325   -0.0035
          48   -0.0990    0.0349   -0.0340    0.0234    0.0371    0.0914    0.0186    0.0018
          49    0.0214   -0.0048    0.1741    0.0701    0.0065    0.0149    0.0210    0.0101
          50    0.0109   -0.0023    0.0823    0.0333    0.0030    0.0066    0.0082    0.0024
          51   -0.0092    0.0015   -0.1130   -0.0465   -0.0049   -0.0112   -0.0148   -0.0075
          52    0.0092   -0.0026   -0.0660   -0.0262   -0.0032   -0.0084   -0.0148   -0.0107
          53   -0.0260    0.0069    0.1525    0.0621    0.0094    0.0248    0.0385    0.0285
          54   -0.0356    0.0093    0.2381    0.0973    0.0149    0.0393    0.0545    0.0382
          55    0.0002    0.0004    0.0018    0.0013    0.0036    0.0080   -0.0824    0.1012
          56   -0.0007   -0.0015   -0.0078   -0.0054   -0.0139   -0.0301    0.3105   -0.3794
          57    0.0003    0.0009    0.0037    0.0025    0.0059    0.0130   -0.1323    0.1563
          58   -0.0003    0.0000    0.0010    0.0005    0.0005    0.0015   -0.0097   -0.0127
[...]
 T-DIPOLE    0.3115         O  1 -- C  5          +9.5% ( 43.2%)     82.2%
 TRAVEL      0.0881         C  5 -- C  8          +9.5% ( 43.2%)     81.3%
 RED. MASS   0.9492         C  7 -- H 18          +9.1% ( 42.1%)      0.0%
 EFF. MASS   6.5351

 VIBRATION   37   37A         ATOM PAIR      ENERGY CONTRIBUTION    RADIAL
 FREQ.      1345.90         C  3 -- C  5         +13.4% ( 51.0%)     77.8%
 T-DIPOLE    0.1284         C  5 -- C  8         +10.4% ( 45.1%)     80.5%
 TRAVEL      0.0857         C  3 -- H 12          +9.2% ( 42.3%)      0.0%
 RED. MASS   0.9304         C  3 -- H 13          +8.1% ( 39.8%)      0.7%
 EFF. MASS   6.8195

 VIBRATION   38   38A         ATOM PAIR      ENERGY CONTRIBUTION    RADIAL
 FREQ.      1374.92         C  3 -- H 13         +15.0% ( 49.8%)      0.2%
 T-DIPOLE    0.1652         C  3 -- C  4         +12.5% ( 45.4%)     74.6%
 TRAVEL      0.0947         C  3 -- H 12         +12.2% ( 44.9%)      1.8%
 RED. MASS   0.6476         C  3 -- C  5          +9.5% ( 39.6%)     60.7%
 EFF. MASS   5.4634

 VIBRATION   39   39A         ATOM PAIR      ENERGY CONTRIBUTION    RADIAL
 FREQ.      1394.31         C  7 -- H 17         +17.4% ( 53.1%)      1.1%
 T-DIPOLE    0.1636         C  6 -- C  7         +14.9% ( 49.1%)     84.0%
 TRAVEL      0.0927         C  7 -- H 18         +13.3% ( 46.3%)      4.0%
 RED. MASS   0.7286         C  7 -- C  9         +10.9% ( 42.0%)     51.3%
 EFF. MASS   5.6227

 VIBRATION   40   40A         ATOM PAIR      ENERGY CONTRIBUTION    RADIAL
 FREQ.      1402.50         C  3 -- H 12         +19.7% ( 47.7%)      3.4%
 T-DIPOLE    0.1044         C  3 -- H 13         +15.8% ( 42.7%)      6.5%
 TRAVEL      0.1216         C  6 -- H 16         +10.9% ( 35.5%)      3.2%
 RED. MASS   0.2964         C  6 -- H 15         +10.3% ( 34.5%)      3.3%
 EFF. MASS   3.2510

 VIBRATION   41   41A         ATOM PAIR      ENERGY CONTRIBUTION    RADIAL
 FREQ.      1405.69         C  3 -- C  4         +12.0% ( 40.5%)     94.3%
 T-DIPOLE    0.1423         C  6 -- H 16         +11.3% ( 39.2%)      4.4%
 TRAVEL      0.1061         C  4 -- C  6          +9.7% ( 36.4%)     51.1%
 RED. MASS   0.3792         C  6 -- H 15          +9.7% ( 36.4%)      7.3%
 EFF. MASS   4.2576

 VIBRATION   42   42A         ATOM PAIR      ENERGY CONTRIBUTION    RADIAL
 FREQ.      1412.67         C  4 -- H 11         +26.9% ( 55.6%)      4.7%
 T-DIPOLE    0.0523         C  4 -- H 10         +24.3% ( 52.8%)      5.7%
 TRAVEL      0.1214         C  4 -- C  6         +12.3% ( 37.5%)     82.4%
 RED. MASS   0.4431         C  3 -- C  4          +8.2% ( 30.6%)     27.8%
 EFF. MASS   3.2380

 VIBRATION   43   43A         ATOM PAIR      ENERGY CONTRIBUTION    RADIAL
 FREQ.      1423.42         C  7 -- C  9         +18.4% ( 58.4%)     99.8%
 T-DIPOLE    0.2292         C  7 -- H 17         +13.7% ( 50.4%)      3.4%
 TRAVEL      0.0827         C  7 -- H 18         +13.6% ( 50.3%)      3.6%
 RED. MASS   1.0328         C  6 -- C  7          +9.8% ( 42.6%)     23.6%
 EFF. MASS   6.9264

 VIBRATION   44   44A         ATOM PAIR      ENERGY CONTRIBUTION    RADIAL
 FREQ.      1482.87         O  2 -- H 21         +83.0% ( 91.1%)      2.8%
 T-DIPOLE    0.4161         O  1 -- C  5          +6.3% ( 25.2%)     97.6%
 TRAVEL      0.1297         O  1 -- O  2          +4.9% ( 22.1%)      0.0%
 RED. MASS   0.8618         C  3 -- C  5          +1.7% ( 13.2%)     12.6%
 EFF. MASS   2.7023

 VIBRATION   45   45A         ATOM PAIR      ENERGY CONTRIBUTION    RADIAL
 FREQ.      1883.02         C  8 -- C  9         +44.5% ( 98.3%)    100.0%
 T-DIPOLE    0.2587         C  7 -- C  9         +14.4% ( 55.9%)     54.1%
 TRAVEL      0.0549         C  5 -- C  8         +13.9% ( 54.9%)     48.3%
 RED. MASS   5.4470         C  9 -- H 20         +13.2% ( 53.6%)      4.0%
 EFF. MASS  11.8596         C  8 -- H 19         +13.1% ( 53.4%)      4.7%

 VIBRATION   46   46A         ATOM PAIR      ENERGY CONTRIBUTION    RADIAL
 FREQ.      2810.60         C  5 -- H 14         +96.5% ( 99.9%)    100.0%
 T-DIPOLE    0.0957         O  1 -- C  5          +1.1% ( 10.9%)     11.9%
 TRAVEL      0.1280         C  3 -- C  5          +1.1% ( 10.8%)     11.3%
 RED. MASS   0.9275         C  5 -- C  8          +1.1% ( 10.8%)     10.0%
 EFF. MASS   1.4638

 VIBRATION   47   47A         ATOM PAIR      ENERGY CONTRIBUTION    RADIAL
 FREQ.      2940.64         C  7 -- H 17         +60.3% ( 80.7%)     97.8%
 T-DIPOLE    0.0208         C  7 -- H 18         +33.2% ( 59.8%)     94.3%
 TRAVEL      0.1219         C  6 -- H 16          +1.7% ( 13.5%)     98.1%
 RED. MASS   0.5139         C  6 -- C  7          +1.2% ( 11.2%)      0.6%
 EFF. MASS   1.5430

 VIBRATION   48   48A         ATOM PAIR      ENERGY CONTRIBUTION    RADIAL
 FREQ.      2944.80         C  4 -- H 11         +48.5% ( 72.4%)     97.1%
 T-DIPOLE    0.0218         C  4 -- H 10         +39.0% ( 64.9%)     95.8%
 TRAVEL      0.1217         C  6 -- H 16          +2.8% ( 17.4%)     97.3%
 RED. MASS   0.4233         C  3 -- H 12          +2.1% ( 15.1%)     97.6%
 EFF. MASS   1.5462

 VIBRATION   49   49A         ATOM PAIR      ENERGY CONTRIBUTION    RADIAL
 FREQ.      2955.71         C  6 -- H 15         +44.9% ( 69.6%)     97.0%
 T-DIPOLE    0.0215         C  6 -- H 16         +36.7% ( 62.9%)     95.9%
 TRAVEL      0.1217         C  3 -- H 13          +6.8% ( 27.1%)     97.2%
 RED. MASS   0.3739         C  3 -- H 12          +5.3% ( 23.9%)     95.7%
 EFF. MASS   1.5416

 VIBRATION   50   50A         ATOM PAIR      ENERGY CONTRIBUTION    RADIAL
 FREQ.      2957.31         C  3 -- H 13         +47.3% ( 71.3%)     97.3%
 T-DIPOLE    0.0927         C  3 -- H 12         +35.0% ( 61.4%)     95.6%
 TRAVEL      0.1214         C  6 -- H 15          +5.0% ( 23.3%)     97.0%
 RED. MASS   0.3822         C  4 -- H 10          +4.4% ( 21.8%)     98.3%
 EFF. MASS   1.5478

 VIBRATION   51   51A         ATOM PAIR      ENERGY CONTRIBUTION    RADIAL
 FREQ.      3023.40         C  7 -- H 18         +50.7% ( 70.3%)     98.9%
 T-DIPOLE    0.0550         C  7 -- H 17         +28.9% ( 53.1%)     95.3%
 TRAVEL      0.1317         C  4 -- H 10          +5.3% ( 22.7%)     98.0%
 RED. MASS   0.3435         C  6 -- H 16          +5.1% ( 22.2%)     99.3%
 EFF. MASS   1.2861

 VIBRATION   52   52A         ATOM PAIR      ENERGY CONTRIBUTION    RADIAL
 FREQ.      3025.87         C  4 -- H 10         +37.9% ( 60.7%)     97.9%
 T-DIPOLE    0.0210         C  4 -- H 11         +36.0% ( 59.1%)     97.5%
 TRAVEL      0.1323         C  7 -- H 18          +9.2% ( 30.0%)     98.9%
 RED. MASS   0.2861         C  7 -- H 17          +5.2% ( 22.5%)     95.7%
 EFF. MASS   1.2737

 VIBRATION   53   53A         ATOM PAIR      ENERGY CONTRIBUTION    RADIAL
 FREQ.      3034.02         C  3 -- H 12         +48.9% ( 68.9%)     98.3%
 T-DIPOLE    0.0879         C  3 -- H 13         +37.8% ( 60.5%)     96.8%
 TRAVEL      0.1323         C  6 -- H 16          +5.0% ( 22.1%)     98.5%
 RED. MASS   0.3817         C  6 -- H 15          +3.6% ( 18.6%)     96.6%
 EFF. MASS   1.2696

 VIBRATION   54   54A         ATOM PAIR      ENERGY CONTRIBUTION    RADIAL
 FREQ.      3034.49         C  6 -- H 16         +39.7% ( 62.1%)     97.8%
 T-DIPOLE    0.0598         C  6 -- H 15         +38.2% ( 60.9%)     97.6%
 TRAVEL      0.1319         C  4 -- H 10          +7.6% ( 27.1%)     99.0%
 RED. MASS   0.3110         C  4 -- H 11          +3.5% ( 18.5%)     94.9%
 EFF. MASS   1.2780

 VIBRATION   55   55A         ATOM PAIR      ENERGY CONTRIBUTION    RADIAL
 FREQ.      3036.83         C  9 -- H 20         +47.5% ( 69.8%)    100.0%
 T-DIPOLE    0.3126         C  8 -- H 19         +46.3% ( 69.0%)    100.0%
 TRAVEL      0.1238         C  7 -- H 18          +1.7% ( 13.1%)     99.7%
 RED. MASS   0.4271         C  6 -- H 15          +1.0% ( 10.3%)     98.0%
 EFF. MASS   1.4488

 VIBRATION   56   56A         ATOM PAIR      ENERGY CONTRIBUTION    RADIAL
 FREQ.      3056.70         C  8 -- H 19         +50.0% ( 71.7%)     99.9%
 T-DIPOLE    0.3354         C  9 -- H 20         +45.8% ( 68.6%)     99.9%
 TRAVEL      0.1183         C  8 -- C  9          +1.9% ( 14.1%)    100.0%
 RED. MASS   0.4598         C  5 -- C  8          +0.8% (  9.1%)     11.0%
 EFF. MASS   1.5764

 VIBRATION   57   57A         ATOM PAIR      ENERGY CONTRIBUTION    RADIAL
 FREQ.      3988.31         O  2 -- H 21         +99.6% (100.0%)     99.9%
 T-DIPOLE    0.3830         O  1 -- O  2          +0.4% (  6.0%)      0.0%
 TRAVEL      0.1107
 RED. MASS   0.9479
 EFF. MASS   1.3795

      SYMMETRY NUMBER FOR POINT-GROUP C1  =  1


          SYSTEM IS A GROUND STATE



 InChI=1S/C7H12O2/c8-9-7-5-3-1-2-4-6-7/h3,5,7-8H,1-2,4,6H2


          MOLECULE IS NOT LINEAR

          THERE ARE 57 GENUINE VIBRATIONS IN THIS SYSTEM
          THIS THERMODYNAMICS CALCULATION IS LIMITED TO
          MOLECULES WHICH HAVE NO INTERNAL ROTATIONS




                    CALCULATED THERMODYNAMIC PROPERTIES
                                          *
   TEMP. (K)   PARTITION FUNCTION   H.O.F.    ENTHALPY  HEAT CAPACITY ENTROPY
                                   KCAL/MOL   CAL/MOLE    CAL/K/MOL  CAL/K/MOL


 298.00  VIB.     0.2095D+03                  3980.5819    29.0539    23.9791
         ROT.     0.5127D+06                   888.2813     2.9808    29.1077
         INT.     0.1074D+09                  4868.8632    32.0348    53.0867
         TRA.     0.1403D+28                  1480.4688     4.9680    40.4556
         TOT.                      -29.473    6349.3320    37.0028    93.5423

 200.00  VIB.     0.2452D+02                  1685.2466    18.0684    14.7844
         ROT.     0.2819D+06                   596.1620     2.9808    27.9190
         INT.     0.6913D+07                  2281.4086    21.0492    42.7033
         TRA.     0.7713D+27                   993.6033     4.9680    38.4745
         TOT.                      -32.547    3275.0118    26.0172    81.1778

 210.00  VIB.     0.3033D+02                  1871.0821    19.1025    15.6909
         ROT.     0.3033D+06                   625.9700     2.9808    28.0644
         INT.     0.9201D+07                  2497.0522    22.0833    43.7553
         TRA.     0.8299D+27                  1043.2834     4.9680    38.7168
         TOT.                      -32.282    3540.3356    27.0513    82.4721

 220.00  VIB.     0.3758D+02                  2067.3729    20.1595    16.6038
         ROT.     0.3252D+06                   655.7781     2.9808    28.2031
         INT.     0.1222D+08                  2723.1511    23.1403    44.8069
         TRA.     0.8899D+27                  1092.9636     4.9680    38.9480
         TOT.                      -32.006    3816.1147    28.1083    83.7548

 230.00  VIB.     0.4663D+02                  2274.3485    21.2393    17.5237
         ROT.     0.3477D+06                   685.5862     2.9808    28.3356
         INT.     0.1621D+08                  2959.9347    24.2202    45.8593
         TRA.     0.9512D+27                  1142.6437     4.9680    39.1688
         TOT.                      -31.720    4102.5785    29.1882    85.0281

 240.00  VIB.     0.5793D+02                  2492.2330    22.3411    18.4508
         ROT.     0.3706D+06                   715.3943     2.9808    28.4624
         INT.     0.2147D+08                  3207.6274    25.3219    46.9133
         TRA.     0.1014D+28                  1192.3239     4.9680    39.3802
         TOT.                      -31.422    4399.9513    30.2899    86.2935

 250.00  VIB.     0.7207D+02                  2721.2381    23.4631    19.3855
         ROT.     0.3940D+06                   745.2024     2.9808    28.5841
         INT.     0.2839D+08                  3466.4406    26.4440    47.9696
         TRA.     0.1078D+28                  1242.0041     4.9680    39.5830
         TOT.                      -31.114    4708.4446    31.4120    87.5527

 260.00  VIB.     0.8979D+02                  2961.5564    24.6033    20.3279
         ROT.     0.4179D+06                   775.0105     2.9808    28.7010
         INT.     0.3752D+08                  3736.5669    27.5841    49.0289
         TRA.     0.1143D+28                  1291.6842     4.9680    39.7779
         TOT.                      -30.794    5028.2511    32.5522    88.8068

 270.00  VIB.     0.1120D+03                  3213.3568    25.7591    21.2781
         ROT.     0.4422D+06                   804.8186     2.9808    28.8135
         INT.     0.4953D+08                  4018.1755    28.7399    50.0916
         TRA.     0.1210D+28                  1341.3644     4.9680    39.9654
         TOT.                      -30.463    5359.5399    33.7080    90.0570

 280.00  VIB.     0.1399D+03                  3476.7816    26.9277    22.2360
         ROT.     0.4670D+06                   834.6267     2.9808    28.9219
         INT.     0.6534D+08                  4311.4083    29.9085    51.1579
         TRA.     0.1278D+28                  1391.0445     4.9680    40.1461
         TOT.                      -30.120    5702.4529    34.8765    91.3040

 290.00  VIB.     0.1750D+03                  3751.9439    28.1061    23.2014
         ROT.     0.4922D+06                   864.4348     2.9808    29.0265
         INT.     0.8615D+08                  4616.3788    31.0869    52.2280
         TRA.     0.1347D+28                  1440.7247     4.9680    40.3204
         TOT.                      -29.765    6057.1035    36.0550    92.5483

 300.00  VIB.     0.2192D+03                  4038.9272    29.2914    24.1742
         ROT.     0.5179D+06                   894.2429     2.9808    29.1276
         INT.     0.1135D+09                  4933.1701    32.2722    53.3018
         TRA.     0.1417D+28                  1490.4049     4.9680    40.4888
         TOT.                      -29.399    6423.5750    37.2402    93.7906

 310.00  VIB.     0.2749D+03                  4337.7849    30.4806    25.1541
         ROT.     0.5440D+06                   924.0510     2.9808    29.2253
         INT.     0.1496D+09                  5261.8360    33.4614    54.3794
         TRA.     0.1488D+28                  1540.0850     4.9680    40.6517
         TOT.                      -29.020    6801.9210    38.4294    95.0311

 320.00  VIB.     0.3453D+03                  4648.5416    31.6707    26.1406
         ROT.     0.5706D+06                   953.8591     2.9808    29.3200
         INT.     0.1970D+09                  5602.4007    34.6515    55.4605
         TRA.     0.1561D+28                  1589.7652     4.9680    40.8094
         TOT.                      -28.630    7192.1659    39.6195    96.2700

 330.00  VIB.     0.4342D+03                  4971.1936    32.8592    27.1333
         ROT.     0.5975D+06                   983.6672     2.9808    29.4117
         INT.     0.2594D+09                  5954.8609    35.8400    56.5450
         TRA.     0.1635D+28                  1639.4454     4.9680    40.9623
         TOT.                      -28.228    7594.3062    40.8080    97.5074

 340.00  VIB.     0.5466D+03                  5305.7114    34.0435    28.1319
         ROT.     0.6249D+06                  1013.4753     2.9808    29.5007
         INT.     0.3416D+09                  6319.1868    37.0243    57.6326
         TRA.     0.1710D+28                  1689.1255     4.9680    41.1106
         TOT.                      -27.814    8008.3123    41.9923    98.7432

 350.00  VIB.     0.6891D+03                  5652.0411    35.2212    29.1357
         ROT.     0.6526D+06                  1043.2834     2.9808    29.5871
         INT.     0.4497D+09                  6695.3245    38.2020    58.7228
         TRA.     0.1786D+28                  1738.8057     4.9680    41.2546
         TOT.                      -27.388    8434.1302    43.1700    99.9775

 360.00  VIB.     0.8697D+03                  6010.1066    36.3903    30.1443
         ROT.     0.6808D+06                  1073.0915     2.9808    29.6711
         INT.     0.5921D+09                  7083.1981    39.3711    59.8154
         TRA.     0.1863D+28                  1788.4859     4.9680    41.3946
         TOT.                      -26.951    8871.6839    44.3391   101.2100

 370.00  VIB.     0.1099D+04                  6379.8121    37.5489    31.1572
         ROT.     0.7094D+06                  1102.8996     2.9808    29.7527
         INT.     0.7795D+09                  7482.7117    40.5297    60.9100
         TRA.     0.1941D+28                  1838.1660     4.9680    41.5307
         TOT.                      -26.501    9320.8778    45.4977   102.4407

 380.00  VIB.     0.1390D+04                  6761.0445    38.6954    32.1738
         ROT.     0.7383D+06                  1132.7077     2.9808    29.8322
         INT.     0.1026D+10                  7893.7522    41.6762    62.0061
         TRA.     0.2020D+28                  1887.8462     4.9680    41.6632
         TOT.                      -26.041    9781.5983    46.6442   103.6693

 390.00  VIB.     0.1760D+04                  7153.6748    39.8283    33.1937
         ROT.     0.7677D+06                  1162.5158     2.9808    29.9097
         INT.     0.1351D+10                  8316.1906    42.8091    63.1033
         TRA.     0.2100D+28                  1937.5263     4.9680    41.7923
         TOT.                      -25.569   10253.7170    47.7771   104.8956

 400.00  VIB.     0.2232D+04                  7557.5614    40.9465    34.2161
         ROT.     0.7974D+06                  1192.3239     2.9808    29.9851
         INT.     0.1779D+10                  8749.8853    43.9273    64.2013
         TRA.     0.2182D+28                  1987.2065     4.9680    41.9180
         TOT.                      -25.085   10737.0918    48.8953   106.1193

   *: NOTE: HEATS OF FORMATION ARE RELATIVE TO THE
            ELEMENTS IN THEIR STANDARD STATE AT 298K
              (=  Standard Enthalpy of Formation).

            Hvib:  Zero-point energy is not included.
                   frequencies of less than zero cm-1 are not included.
            Hrot = (3/2)RT
            Htra = (3/2)RT + pV = (5/2)RT

            Heat capacity is Cp, not Cv

          For more information, see: HTTP://OpenMOPAC.net/Manual/thermochemistry.html


           FORCE CONSTANT IN CARTESIAN COORDINATES (Millidynes/A)

    ATOM   CHEMICAL       X               Y               Z
   NUMBER   SYMBOL  FORCE CONSTANT  FORCE CONSTANT  FORCE CONSTANT

      1       O        4.373630        5.086257        2.022606
      2       O        3.075109        8.160680        1.485058
      3       C        7.760113        8.246838        8.363093
      4       C        8.375429        8.136515        8.218608
      5       C        7.988783        8.561545        8.466232
      6       C        8.174330        8.446349        8.056589
      7       C        7.906106        8.929780        8.394318
      8       C        3.604873       12.164277       11.263396
      9       C        3.584034       11.929899       11.617117
     10       H        3.486590        0.855451        2.039778
     11       H        3.087605        2.068091        1.240184
     12       H        2.841634        2.076051        1.519372
     13       H        0.746269        0.920246        4.761717
     14       H        2.338127        2.597902        0.836350
     15       H        1.259837        4.383557        0.738955
     16       H        2.801440        2.282860        1.330155
     17       H        3.266140        1.377874        1.638606
     18       H        0.866270        1.978415        3.523693
     19       H        0.626655        4.215531        1.417644
     20       H        0.373931        0.871990        4.957196
     21       H        1.300002        7.477245        1.323793

 **********************
 *                    *
 * JOB ENDED NORMALLY *
 *                    *
 **********************



 TOTAL JOB TIME:             8.55 SECONDS

 == MOPAC DONE ==
