 *******************************************************************************
 ** Site#: 14399        For non-commercial use only    Version 18.184L 64BITS **
 *******************************************************************************
 ** Cite this program as: MOPAC2016, Version: 18.184L, James J. P. Stewart,   **
 ** Stewart Computational Chemistry, web: HTTP://OpenMOPAC.net. Days left:  20**
 *******************************************************************************
 **                                                                           **
 **                                MOPAC2016                                  **
 **                                                                           **
 *******************************************************************************

                              PM3 CALCULATION RESULTS

 *******************************************************************************
 *  CALCULATION DONE:                                Thu Jun 13 16:25:30 2019  *
 *  PM3        - The PM3 Hamiltonian to be used
 *  PRECISE    - CRITERIA TO BE INCREASED BY 100 TIMES
 *  NOSYM      - POINT-GROUP SYMMETRY SET TO C1
 *  THREADS=1  - MULTI-THREADING NOT USED
 *  T=         - A TIME OF 172800.0 SECONDS REQUESTED
 *  DUMP=N     - RESTART FILE WRITTEN EVERY  7200.000 SECONDS
 *******************************************************************************
pm3  precise nosym THREADS=1
 InChI=1S/C7H10/c1-2-3-4-7-5-6-7/h2,7H,1,3,5-6H2/lp4

   ATOM   CHEMICAL          X               Y               Z
  NUMBER   SYMBOL      (ANGSTROMS)     (ANGSTROMS)     (ANGSTROMS)
 
     1       C         -1.43040000  *   0.14490000  *   0.90250000  *
     2       C         -2.74360000  *  -0.51510000  *   0.52020000  *
     3       C         -2.20350000  *   0.63980000  *  -0.30780000  *
     4       C          1.04280000  *   0.17320000  *   0.45450000  *
     5       C          2.23630000  *  -0.67310000  *   0.11870000  *
     6       C          3.44390000  *  -0.12410000  *  -0.03280000  *
     7       C         -0.20300000  *  -0.69600000  *   0.57000000  *
     8       H         -1.46440000  *   0.78140000  *   1.81240000  *
     9       H         -2.66770000  *  -1.50260000  *   0.01560000  *
    10       H         -3.60440000  *  -0.23990000  *   1.16560000  *
    11       H         -1.79910000  *   0.33760000  *  -1.29800000  *
    12       H         -2.73800000  *   1.60000000  *  -0.14840000  *
    13       H          0.89310000  *   0.93020000  *  -0.34600000  *
    14       H          1.22140000  *   0.69340000  *   1.42060000  *
    15       H          2.12930000  *  -1.74780000  *  -0.00550000  *
    16       H          4.29790000  *  -0.74800000  *  -0.27570000  *
    17       H          3.58920000  *   0.94590000  *   0.08350000  *
 


          CARTESIAN COORDINATES 

    NO.       ATOM           X           Y           Z

     1         C         -1.4304      0.1449      0.9025
     2         C         -2.7436     -0.5151      0.5202
     3         C         -2.2035      0.6398     -0.3078
     4         C          1.0428      0.1732      0.4545
     5         C          2.2363     -0.6731      0.1187
     6         C          3.4439     -0.1241     -0.0328
     7         C         -0.2030     -0.6960      0.5700
     8         H         -1.4644      0.7814      1.8124
     9         H         -2.6677     -1.5026      0.0156
    10         H         -3.6044     -0.2399      1.1656
    11         H         -1.7991      0.3376     -1.2980
    12         H         -2.7380      1.6000     -0.1484
    13         H          0.8931      0.9302     -0.3460
    14         H          1.2214      0.6934      1.4206
    15         H          2.1293     -1.7478     -0.0055
    16         H          4.2979     -0.7480     -0.2757
    17         H          3.5892      0.9459      0.0835

  H: (PM3): J. J. P. STEWART, J. COMP. CHEM. 10, 209 (1989).
  C: (PM3): J. J. P. STEWART, J. COMP. CHEM. 10, 209 (1989).

           Empirical Formula: C7 H10  =    17 atoms



      MOLECULAR POINT GROUP   :   C1  


      RHF CALCULATION, NO. OF DOUBLY OCCUPIED LEVELS = 19


          Geometry optimization using EF

          DIAGONAL MATRIX USED AS START HESSIAN

 CYCLE:     1 TIME:   0.020 TIME LEFT:  2.00D  GRAD.:   110.752 HEAT:  126.4278
 CYCLE:     2 TIME:   0.031 TIME LEFT:  2.00D  GRAD.:    87.132 HEAT:  121.9418
 CYCLE:     3 TIME:   0.031 TIME LEFT:  2.00D  GRAD.:    68.929 HEAT:  120.2081
 CYCLE:     4 TIME:   0.023 TIME LEFT:  2.00D  GRAD.:    55.664 HEAT:  118.8776
 CYCLE:     5 TIME:   0.023 TIME LEFT:  2.00D  GRAD.:    95.873 HEAT:  118.8770
 CYCLE:     6 TIME:   0.020 TIME LEFT:  2.00D  GRAD.:    80.349 HEAT:  118.6330
 CYCLE:     7 TIME:   0.023 TIME LEFT:  2.00D  GRAD.:    58.688 HEAT:  117.6943
 CYCLE:     8 TIME:   0.027 TIME LEFT:  2.00D  GRAD.:    23.816 HEAT:  116.8314
 CYCLE:     9 TIME:   0.031 TIME LEFT:  2.00D  GRAD.:    22.722 HEAT:  116.7416
 CYCLE:    10 TIME:   0.023 TIME LEFT:  2.00D  GRAD.:    22.158 HEAT:  116.6594
 CYCLE:    11 TIME:   0.023 TIME LEFT:  2.00D  GRAD.:    26.053 HEAT:  116.6512
 CYCLE:    12 TIME:   0.023 TIME LEFT:  2.00D  GRAD.:    23.449 HEAT:  116.5948
 CYCLE:    13 TIME:   0.020 TIME LEFT:  2.00D  GRAD.:    18.907 HEAT:  116.5051
 CYCLE:    14 TIME:   0.023 TIME LEFT:  2.00D  GRAD.:    15.281 HEAT:  116.4358
 CYCLE:    15 TIME:   0.023 TIME LEFT:  2.00D  GRAD.:    12.022 HEAT:  116.3793
 CYCLE:    16 TIME:   0.023 TIME LEFT:  2.00D  GRAD.:    11.346 HEAT:  116.3437
 CYCLE:    17 TIME:   0.023 TIME LEFT:  2.00D  GRAD.:     8.489 HEAT:  116.3001
 CYCLE:    18 TIME:   0.023 TIME LEFT:  2.00D  GRAD.:     5.010 HEAT:  116.2635
 CYCLE:    19 TIME:   0.020 TIME LEFT:  2.00D  GRAD.:     4.510 HEAT:  116.2349
 CYCLE:    20 TIME:   0.023 TIME LEFT:  2.00D  GRAD.:     4.760 HEAT:  116.2082
 CYCLE:    21 TIME:   0.023 TIME LEFT:  2.00D  GRAD.:     5.002 HEAT:  116.1909
 CYCLE:    22 TIME:   0.023 TIME LEFT:  2.00D  GRAD.:     7.749 HEAT:  116.1761
 CYCLE:    23 TIME:   0.027 TIME LEFT:  2.00D  GRAD.:     5.226 HEAT:  116.1445
 CYCLE:    24 TIME:   0.023 TIME LEFT:  2.00D  GRAD.:     4.685 HEAT:  116.1130
 CYCLE:    25 TIME:   0.023 TIME LEFT:  2.00D  GRAD.:     4.215 HEAT:  116.0812
 CYCLE:    26 TIME:   0.023 TIME LEFT:  2.00D  GRAD.:     4.936 HEAT:  116.0126
 CYCLE:    27 TIME:   0.023 TIME LEFT:  2.00D  GRAD.:     7.479 HEAT:  115.9144
 CYCLE:    28 TIME:   0.023 TIME LEFT:  2.00D  GRAD.:    13.243 HEAT:  115.8163
 CYCLE:    29 TIME:   0.027 TIME LEFT:  2.00D  GRAD.:    11.861 HEAT:  115.7861
 CYCLE:    30 TIME:   0.023 TIME LEFT:  2.00D  GRAD.:     6.926 HEAT:  115.6575
 CYCLE:    31 TIME:   0.023 TIME LEFT:  2.00D  GRAD.:     6.412 HEAT:  115.5486
 CYCLE:    32 TIME:   0.020 TIME LEFT:  2.00D  GRAD.:     9.518 HEAT:  115.4417
 CYCLE:    33 TIME:   0.023 TIME LEFT:  2.00D  GRAD.:    11.511 HEAT:  115.3190
 CYCLE:    34 TIME:   0.023 TIME LEFT:  2.00D  GRAD.:    12.098 HEAT:  115.2153
 CYCLE:    35 TIME:   0.023 TIME LEFT:  2.00D  GRAD.:     9.293 HEAT:  115.0835
 CYCLE:    36 TIME:   0.023 TIME LEFT:  2.00D  GRAD.:     7.146 HEAT:  114.9920
 CYCLE:    37 TIME:   0.023 TIME LEFT:  2.00D  GRAD.:     6.484 HEAT:  114.8804
 CYCLE:    38 TIME:   0.020 TIME LEFT:  2.00D  GRAD.:     5.772 HEAT:  114.8255
 CYCLE:    39 TIME:   0.023 TIME LEFT:  2.00D  GRAD.:     5.910 HEAT:  114.7485
 CYCLE:    40 TIME:   0.023 TIME LEFT:  2.00D  GRAD.:     6.759 HEAT:  114.6758
 CYCLE:    41 TIME:   0.023 TIME LEFT:  2.00D  GRAD.:     6.501 HEAT:  114.6009
 CYCLE:    42 TIME:   0.023 TIME LEFT:  2.00D  GRAD.:     6.057 HEAT:  114.5304
 CYCLE:    43 TIME:   0.023 TIME LEFT:  2.00D  GRAD.:     5.512 HEAT:  114.4784
 CYCLE:    44 TIME:   0.023 TIME LEFT:  2.00D  GRAD.:     5.665 HEAT:  114.4250
 CYCLE:    45 TIME:   0.020 TIME LEFT:  2.00D  GRAD.:     4.735 HEAT:  114.3726
 CYCLE:    46 TIME:   0.023 TIME LEFT:  2.00D  GRAD.:     4.679 HEAT:  114.3326
 CYCLE:    47 TIME:   0.023 TIME LEFT:  2.00D  GRAD.:     4.544 HEAT:  114.3025
 CYCLE:    48 TIME:   0.023 TIME LEFT:  2.00D  GRAD.:     4.742 HEAT:  114.2771
 CYCLE:    49 TIME:   0.023 TIME LEFT:  2.00D  GRAD.:     3.719 HEAT:  114.2514
 CYCLE:    50 TIME:   0.023 TIME LEFT:  2.00D  GRAD.:     2.718 HEAT:  114.2308
 CYCLE:    51 TIME:   0.020 TIME LEFT:  2.00D  GRAD.:     2.584 HEAT:  114.2191
 CYCLE:    52 TIME:   0.023 TIME LEFT:  2.00D  GRAD.:     2.435 HEAT:  114.2067
 CYCLE:    53 TIME:   0.023 TIME LEFT:  2.00D  GRAD.:     2.180 HEAT:  114.1955
 CYCLE:    54 TIME:   0.023 TIME LEFT:  2.00D  GRAD.:     2.028 HEAT:  114.1845
 CYCLE:    55 TIME:   0.023 TIME LEFT:  2.00D  GRAD.:     2.511 HEAT:  114.1734
 CYCLE:    56 TIME:   0.023 TIME LEFT:  2.00D  GRAD.:     2.371 HEAT:  114.1620
 CYCLE:    57 TIME:   0.023 TIME LEFT:  2.00D  GRAD.:     2.649 HEAT:  114.1520
 CYCLE:    58 TIME:   0.020 TIME LEFT:  2.00D  GRAD.:     2.064 HEAT:  114.1458
 CYCLE:    59 TIME:   0.023 TIME LEFT:  2.00D  GRAD.:     1.684 HEAT:  114.1403
 CYCLE:    60 TIME:   0.023 TIME LEFT:  2.00D  GRAD.:     1.468 HEAT:  114.1359
 CYCLE:    61 TIME:   0.023 TIME LEFT:  2.00D  GRAD.:     1.445 HEAT:  114.1318
 CYCLE:    62 TIME:   0.023 TIME LEFT:  2.00D  GRAD.:     1.545 HEAT:  114.1268
 CYCLE:    63 TIME:   0.023 TIME LEFT:  2.00D  GRAD.:     1.531 HEAT:  114.1217
 CYCLE:    64 TIME:   0.023 TIME LEFT:  2.00D  GRAD.:     1.192 HEAT:  114.1179
 CYCLE:    65 TIME:   0.020 TIME LEFT:  2.00D  GRAD.:     0.910 HEAT:  114.1156
 CYCLE:    66 TIME:   0.031 TIME LEFT:  2.00D  GRAD.:     0.915 HEAT:  114.1136
 CYCLE:    67 TIME:   0.023 TIME LEFT:  2.00D  GRAD.:     1.007 HEAT:  114.1117
 CYCLE:    68 TIME:   0.023 TIME LEFT:  2.00D  GRAD.:     1.134 HEAT:  114.1093
 CYCLE:    69 TIME:   0.023 TIME LEFT:  2.00D  GRAD.:     1.146 HEAT:  114.1070
 CYCLE:    70 TIME:   0.020 TIME LEFT:  2.00D  GRAD.:     1.398 HEAT:  114.1039
 CYCLE:    71 TIME:   0.023 TIME LEFT:  2.00D  GRAD.:     1.733 HEAT:  114.0998
 CYCLE:    72 TIME:   0.023 TIME LEFT:  2.00D  GRAD.:     2.423 HEAT:  114.0923
 CYCLE:    73 TIME:   0.023 TIME LEFT:  2.00D  GRAD.:     3.645 HEAT:  114.0791
 CYCLE:    74 TIME:   0.023 TIME LEFT:  2.00D  GRAD.:     4.612 HEAT:  114.0538
 CYCLE:    75 TIME:   0.023 TIME LEFT:  2.00D  GRAD.:     4.453 HEAT:  114.0303
 CYCLE:    76 TIME:   0.027 TIME LEFT:  2.00D  GRAD.:     5.759 HEAT:  114.0114
 CYCLE:    77 TIME:   0.023 TIME LEFT:  2.00D  GRAD.:     5.124 HEAT:  113.9983
 CYCLE:    78 TIME:   0.023 TIME LEFT:  2.00D  GRAD.:     3.107 HEAT:  113.9758
 CYCLE:    79 TIME:   0.020 TIME LEFT:  2.00D  GRAD.:     6.709 HEAT:  113.9625
 CYCLE:    80 TIME:   0.023 TIME LEFT:  2.00D  GRAD.:     3.680 HEAT:  113.9363
 CYCLE:    81 TIME:   0.023 TIME LEFT:  2.00D  GRAD.:     2.925 HEAT:  113.8980
 CYCLE:    82 TIME:   0.023 TIME LEFT:  2.00D  GRAD.:     5.975 HEAT:  113.8562
 CYCLE:    83 TIME:   0.023 TIME LEFT:  2.00D  GRAD.:     4.097 HEAT:  113.8296
 CYCLE:    84 TIME:   0.023 TIME LEFT:  2.00D  GRAD.:     2.846 HEAT:  113.8075
 CYCLE:    85 TIME:   0.020 TIME LEFT:  2.00D  GRAD.:     4.635 HEAT:  113.8000
 CYCLE:    86 TIME:   0.023 TIME LEFT:  2.00D  GRAD.:     2.568 HEAT:  113.7923
 CYCLE:    87 TIME:   0.023 TIME LEFT:  2.00D  GRAD.:     2.207 HEAT:  113.7841
 CYCLE:    88 TIME:   0.023 TIME LEFT:  2.00D  GRAD.:     2.540 HEAT:  113.7760
 CYCLE:    89 TIME:   0.023 TIME LEFT:  2.00D  GRAD.:     2.838 HEAT:  113.7659
 CYCLE:    90 TIME:   0.023 TIME LEFT:  2.00D  GRAD.:     3.228 HEAT:  113.7525
 CYCLE:    91 TIME:   0.023 TIME LEFT:  2.00D  GRAD.:     2.391 HEAT:  113.7452
 CYCLE:    92 TIME:   0.020 TIME LEFT:  2.00D  GRAD.:     1.973 HEAT:  113.7347
 CYCLE:    93 TIME:   0.023 TIME LEFT:  2.00D  GRAD.:     2.096 HEAT:  113.7287
 CYCLE:    94 TIME:   0.023 TIME LEFT:  2.00D  GRAD.:     3.818 HEAT:  113.7353
 CYCLE:    95 TIME:   0.023 TIME LEFT:  2.00D  GRAD.:     2.310 HEAT:  113.7234
 CYCLE:    96 TIME:   0.023 TIME LEFT:  2.00D  GRAD.:     1.479 HEAT:  113.7219
 CYCLE:    97 TIME:   0.023 TIME LEFT:  2.00D  GRAD.:     0.784 HEAT:  113.7199
 CYCLE:    98 TIME:   0.023 TIME LEFT:  2.00D  GRAD.:     1.021 HEAT:  113.7182
 CYCLE:    99 TIME:   0.020 TIME LEFT:  2.00D  GRAD.:     1.117 HEAT:  113.7164
 CYCLE:   100 TIME:   0.023 TIME LEFT:  2.00D  GRAD.:     1.370 HEAT:  113.7131
 CYCLE:   101 TIME:   0.023 TIME LEFT:  2.00D  GRAD.:     1.377 HEAT:  113.7105
 CYCLE:   102 TIME:   0.023 TIME LEFT:  2.00D  GRAD.:     1.456 HEAT:  113.7081
 CYCLE:   103 TIME:   0.023 TIME LEFT:  2.00D  GRAD.:     1.202 HEAT:  113.7062
 CYCLE:   104 TIME:   0.023 TIME LEFT:  2.00D  GRAD.:     1.158 HEAT:  113.7043
 CYCLE:   105 TIME:   0.020 TIME LEFT:  2.00D  GRAD.:     1.412 HEAT:  113.7019
 CYCLE:   106 TIME:   0.023 TIME LEFT:  2.00D  GRAD.:     1.928 HEAT:  113.6983
 CYCLE:   107 TIME:   0.023 TIME LEFT:  2.00D  GRAD.:     2.510 HEAT:  113.6923
 CYCLE:   108 TIME:   0.023 TIME LEFT:  2.00D  GRAD.:     3.675 HEAT:  113.6814
 CYCLE:   109 TIME:   0.023 TIME LEFT:  2.00D  GRAD.:     3.164 HEAT:  113.6684
 CYCLE:   110 TIME:   0.023 TIME LEFT:  2.00D  GRAD.:     7.126 HEAT:  113.6434
 CYCLE:   111 TIME:   0.023 TIME LEFT:  2.00D  GRAD.:     6.872 HEAT:  113.6388
 CYCLE:   112 TIME:   0.020 TIME LEFT:  2.00D  GRAD.:     3.802 HEAT:  113.6103
 CYCLE:   113 TIME:   0.023 TIME LEFT:  2.00D  GRAD.:     5.622 HEAT:  113.6014
 CYCLE:   114 TIME:   0.023 TIME LEFT:  2.00D  GRAD.:     2.278 HEAT:  113.5908
 CYCLE:   115 TIME:   0.023 TIME LEFT:  2.00D  GRAD.:     3.839 HEAT:  113.5852
 CYCLE:   116 TIME:   0.023 TIME LEFT:  2.00D  GRAD.:     2.262 HEAT:  113.5809
 CYCLE:   117 TIME:   0.027 TIME LEFT:  2.00D  GRAD.:     1.293 HEAT:  113.5779
 CYCLE:   118 TIME:   0.023 TIME LEFT:  2.00D  GRAD.:     1.801 HEAT:  113.5762
 CYCLE:   119 TIME:   0.023 TIME LEFT:  2.00D  GRAD.:     1.136 HEAT:  113.5747
 CYCLE:   120 TIME:   0.023 TIME LEFT:  2.00D  GRAD.:     0.638 HEAT:  113.5740
 CYCLE:   121 TIME:   0.023 TIME LEFT:  2.00D  GRAD.:     0.618 HEAT:  113.5736
 CYCLE:   122 TIME:   0.020 TIME LEFT:  2.00D  GRAD.:     0.415 HEAT:  113.5732
 CYCLE:   123 TIME:   0.023 TIME LEFT:  2.00D  GRAD.:     0.401 HEAT:  113.5730
 CYCLE:   124 TIME:   0.023 TIME LEFT:  2.00D  GRAD.:     0.420 HEAT:  113.5727
 CYCLE:   125 TIME:   0.023 TIME LEFT:  2.00D  GRAD.:     0.454 HEAT:  113.5725
 CYCLE:   126 TIME:   0.023 TIME LEFT:  2.00D  GRAD.:     0.314 HEAT:  113.5723
 CYCLE:   127 TIME:   0.023 TIME LEFT:  2.00D  GRAD.:     0.276 HEAT:  113.5721
 CYCLE:   128 TIME:   0.020 TIME LEFT:  2.00D  GRAD.:     0.209 HEAT:  113.5720
 CYCLE:   129 TIME:   0.023 TIME LEFT:  2.00D  GRAD.:     0.163 HEAT:  113.5720
 CYCLE:   130 TIME:   0.023 TIME LEFT:  2.00D  GRAD.:     0.180 HEAT:  113.5720
 CYCLE:   131 TIME:   0.023 TIME LEFT:  2.00D  GRAD.:     0.042 HEAT:  113.5720

     GRADIENT =  0.04189  IS LESS THAN CUTOFF =  0.05000



 -------------------------------------------------------------------------------
 pm3  precise nosym THREADS=1
 InChI=1S/C7H10/c1-2-3-4-7-5-6-7/h2,7H,1,3,5-6H2/lp4



     GEOMETRY OPTIMISED USING EIGENVECTOR FOLLOWING (EF).     
     SCF FIELD WAS ACHIEVED                                   


                              PM3 CALCULATION
                                                       MOPAC2016 (Version: 18.184L)
                                                       Thu Jun 13 16:25:33 2019
                                                       No. of days remaining =  20




          FINAL HEAT OF FORMATION =        113.57198 KCAL/MOL =     475.18515 KJ/MOL


          TOTAL ENERGY            =       -978.88475 EV
          ELECTRONIC ENERGY       =      -4284.51723 EV  POINT GROUP:     C1  
          CORE-CORE REPULSION     =       3305.63248 EV
          COSMO AREA              =        158.21 SQUARE ANGSTROMS
          COSMO VOLUME            =        145.99 CUBIC ANGSTROMS

          GRADIENT NORM           =          0.04189 = 0.01016 PER ATOM
          IONIZATION POTENTIAL    =          8.656844 EV
          HOMO LUMO ENERGIES (EV) =         -8.657 -0.522
          NO. OF FILLED LEVELS    =         19
          MOLECULAR WEIGHT        =         94.1560

          MOLECULAR DIMENSIONS (Angstroms)

            Atom       Atom       Distance
            H    16    H    10     7.86747
            H    14    H    11     4.11059
            H    17    H     9     2.87372


          SCF CALCULATIONS        =        138
 
          WALL-CLOCK TIME         =          3.102 SECONDS
          COMPUTATION TIME        =          0.849 SECONDS




   ATOM   CHEMICAL          X               Y               Z
  NUMBER   SYMBOL      (ANGSTROMS)     (ANGSTROMS)     (ANGSTROMS)
 
     1       C         -1.31624376  *   0.35639097  *   0.60748957  *
     2       C         -2.65787791  *  -0.35082915  *   0.72411630  *
     3       C         -2.35345808  *   0.42386053  *  -0.50448640  *
     4       C          1.09625757  *  -0.11068773  *   0.87465742  *
     5       C          2.21512189  *  -0.66715493  *   0.06414183  *
     6       C          3.35242521  *  -0.01047421  *  -0.13105632  *
     7       C         -0.19343162  *  -0.50542829  *   0.32357374  *
     8       H         -1.15556114  *   1.26596766  *   1.21903235  *
     9       H         -2.68445573  *  -1.44624892  *   0.68904879  *
    10       H         -3.37975800  *   0.02594085  *   1.45689655  *
    11       H         -2.15384634  *  -0.09843392  *  -1.44755773  *
    12       H         -2.84424466  *   1.38436118  *  -0.69573396  *
    13       H          1.22822576  *   0.97622104  *   1.06565362  *
    14       H          1.09399537  *  -0.60179580  *   1.87523270  *
    15       H          2.03223703  *  -1.65561349  *  -0.37545723  *
    16       H          4.16711179  *  -0.41802736  *  -0.72135152  *
    17       H          3.55258342  *   0.97547540  *   0.27957186  *

                             CARTESIAN COORDINATES

   1    C       -1.316243758     0.356390974     0.607489566
   2    C       -2.657877915    -0.350829153     0.724116301
   3    C       -2.353458079     0.423860526    -0.504486395
   4    C        1.096257573    -0.110687725     0.874657419
   5    C        2.215121893    -0.667154934     0.064141826
   6    C        3.352425205    -0.010474213    -0.131056320
   7    C       -0.193431618    -0.505428285     0.323573742
   8    H       -1.155561139     1.265967658     1.219032346
   9    H       -2.684455734    -1.446248922     0.689048794
  10    H       -3.379758001     0.025940849     1.456896553
  11    H       -2.153846339    -0.098433925    -1.447557734
  12    H       -2.844244662     1.384361184    -0.695733965
  13    H        1.228225764     0.976221043     1.065653616
  14    H        1.093995372    -0.601795796     1.875232704
  15    H        2.032237025    -1.655613494    -0.375457233
  16    H        4.167111792    -0.418027360    -0.721351524
  17    H        3.552583419     0.975475404     0.279571864


           Empirical Formula: C7 H10  =    17 atoms



      MOLECULAR POINT GROUP   :   C1  


                  EIGENVALUES  
 -39.49091 -35.50269 -28.78100 -22.99344 -22.34531 -19.51705 -18.91438 -17.30368
 -16.46036 -15.34812 -14.71688 -14.09966 -13.20162 -12.51278 -12.30063 -12.02239
 -11.89577 -10.08440  -8.65684  -0.52194   1.23256   2.84825   2.88694   3.13099
   3.29182   3.51201   3.65570   3.88289   4.02634   4.08099   4.15069   4.41295
   4.62125   4.65704   4.81671   5.42788   5.65281   5.99431


              NET ATOMIC CHARGES AND DIPOLE CONTRIBUTIONS

  ATOM NO.   TYPE          CHARGE      No. of ELECS.   s-Pop       p-Pop       
    1          C          -0.275718        4.2757     1.19725     3.07847
    2          C          -0.080583        4.0806     1.15706     2.92353
    3          C          -0.072470        4.0725     1.15650     2.91597
    4          C          -0.155800        4.1558     1.16248     2.99332
    5          C          -0.102904        4.1029     1.19307     2.90983
    6          C          -0.186110        4.1861     1.18292     3.00319
    7          C           0.005178        3.9948     1.64036     2.35446
    8          H           0.089721        0.9103     0.91028
    9          H           0.091810        0.9082     0.90819
   10          H           0.074058        0.9259     0.92594
   11          H           0.092364        0.9076     0.90764
   12          H           0.074071        0.9259     0.92593
   13          H           0.064816        0.9352     0.93518
   14          H           0.104886        0.8951     0.89511
   15          H           0.115070        0.8849     0.88493
   16          H           0.082142        0.9179     0.91786
   17          H           0.079468        0.9205     0.92053
 DIPOLE           X         Y         Z       TOTAL
 POINT-CHG.    -1.120    -0.415    -0.121     1.201
 HYBRID         0.366     1.738     1.240     2.166
 SUM           -0.755     1.322     1.118     1.889


          ATOMIC ORBITAL ELECTRON POPULATIONS

     Atom    s        px        py        pz   
    1  C   1.19725   0.97979   1.03488   1.06380
    2  C   1.15706   0.92594   1.00045   0.99713
    3  C   1.15650   0.96780   1.01445   0.93372
    4  C   1.16248   1.00972   0.99212   0.99148
    5  C   1.19307   0.93771   0.99646   0.97566
    6  C   1.18292   0.97697   1.00251   1.02371
    7  C   1.64036   0.84471   0.99427   0.51549
    8  H   0.91028
    9  H   0.90819
   10  H   0.92594
   11  H   0.90764
   12  H   0.92593
   13  H   0.93518
   14  H   0.89511
   15  H   0.88493
   16  H   0.91786
   17  H   0.92053
 *******************************************************************************
 ** Site#: 14399        For non-commercial use only    Version 18.184L 64BITS **
 *******************************************************************************
 ** Cite this program as: MOPAC2016, Version: 18.184L, James J. P. Stewart,   **
 ** Stewart Computational Chemistry, web: HTTP://OpenMOPAC.net. Days left:  20**
 *******************************************************************************
 **                                                                           **
 **                                MOPAC2016                                  **
 **                                                                           **
 *******************************************************************************

                              PM3 CALCULATION RESULTS

 *******************************************************************************
 *  CALCULATION DONE:                                Thu Jun 13 16:25:33 2019  *
 *  PM3        - The PM3 Hamiltonian to be used
 *  OLDGEO     - PREVIOUS GEOMETRY TO BE USED
 *  PRECISE    - CRITERIA TO BE INCREASED BY 100 TIMES
 *  NOSYM      - POINT-GROUP SYMMETRY SET TO C1
 *  THREADS=1  - MULTI-THREADING NOT USED
 *  T=         - A TIME OF 172800.0 SECONDS REQUESTED
 *  DUMP=N     - RESTART FILE WRITTEN EVERY  7200.000 SECONDS
 *  THERMO     - THERMODYNAMIC QUANTITIES TO BE CALCULATED
 *******************************************************************************
oldgeo thermo nosym precise THREADS=1  pm3
 InChI=1S/C7H10/c1-2-3-4-7-5-6-7/h2,7H,1,3,5-6H2/lp4

   ATOM   CHEMICAL          X               Y               Z
  NUMBER   SYMBOL      (ANGSTROMS)     (ANGSTROMS)     (ANGSTROMS)
 
     1       C         -1.31624376  *   0.35639097  *   0.60748957  *
     2       C         -2.65787791  *  -0.35082915  *   0.72411630  *
     3       C         -2.35345808  *   0.42386053  *  -0.50448640  *
     4       C          1.09625757  *  -0.11068773  *   0.87465742  *
     5       C          2.21512189  *  -0.66715493  *   0.06414183  *
     6       C          3.35242521  *  -0.01047421  *  -0.13105632  *
     7       C         -0.19343162  *  -0.50542829  *   0.32357374  *
     8       H         -1.15556114  *   1.26596766  *   1.21903235  *
     9       H         -2.68445573  *  -1.44624892  *   0.68904879  *
    10       H         -3.37975800  *   0.02594085  *   1.45689655  *
    11       H         -2.15384634  *  -0.09843392  *  -1.44755773  *
    12       H         -2.84424466  *   1.38436118  *  -0.69573396  *
    13       H          1.22822576  *   0.97622104  *   1.06565362  *
    14       H          1.09399537  *  -0.60179580  *   1.87523270  *
    15       H          2.03223703  *  -1.65561349  *  -0.37545723  *
    16       H          4.16711179  *  -0.41802736  *  -0.72135152  *
    17       H          3.55258342  *   0.97547540  *   0.27957186  *
 


          CARTESIAN COORDINATES 

    NO.       ATOM           X           Y           Z

     1         C         -1.3162      0.3564      0.6075
     2         C         -2.6579     -0.3508      0.7241
     3         C         -2.3535      0.4239     -0.5045
     4         C          1.0963     -0.1107      0.8747
     5         C          2.2151     -0.6672      0.0641
     6         C          3.3524     -0.0105     -0.1311
     7         C         -0.1934     -0.5054      0.3236
     8         H         -1.1556      1.2660      1.2190
     9         H         -2.6845     -1.4462      0.6890
    10         H         -3.3798      0.0259      1.4569
    11         H         -2.1538     -0.0984     -1.4476
    12         H         -2.8442      1.3844     -0.6957
    13         H          1.2282      0.9762      1.0657
    14         H          1.0940     -0.6018      1.8752
    15         H          2.0322     -1.6556     -0.3755
    16         H          4.1671     -0.4180     -0.7214
    17         H          3.5526      0.9755      0.2796

  H: (PM3): J. J. P. STEWART, J. COMP. CHEM. 10, 209 (1989).
  C: (PM3): J. J. P. STEWART, J. COMP. CHEM. 10, 209 (1989).

           Empirical Formula: C7 H10  =    17 atoms



      MOLECULAR POINT GROUP   :   C1  


      RHF CALCULATION, NO. OF DOUBLY OCCUPIED LEVELS = 19



          HEAT OF FORMATION =     113.571977 KCALS/MOLE


          CARTESIAN COORDINATE DERIVATIVES

   NUMBER  ATOM         X            Y            Z

     1       C      0.007905    -0.005861    -0.005787
     2       C     -0.003658     0.004018     0.001782
     3       C     -0.007078     0.005304    -0.003500
     4       C     -0.003373     0.006105     0.000301
     5       C     -0.013913    -0.011199     0.014536
     6       C      0.005277     0.000160     0.004241
     7       C      0.010112     0.013504     0.005694
     8       H     -0.000116    -0.002658    -0.003323
     9       H     -0.000726     0.001192    -0.005811
    10       H     -0.003923    -0.001372     0.006405
    11       H      0.002928    -0.006889    -0.008049
    12       H     -0.000099    -0.004532     0.013887
    13       H     -0.001924     0.004045    -0.010674
    14       H      0.003126    -0.005851     0.001948
    15       H      0.001251     0.002436    -0.002248
    16       H      0.005652     0.001853    -0.006808
    17       H     -0.001441    -0.000255    -0.002595
 


          GRADIENT NORM =   0.04389


          TIME FOR SCF CALCULATION =    0.02

          TIME FOR DERIVATIVES     =    0.01

          MOLECULAR WEIGHT =   94.16



          ROTATIONAL CONSTANTS IN CM(-1)

          A =    0.33497439   B =    0.03561567   C =    0.03486995



           PRINCIPAL MOMENTS OF INERTIA IN UNITS OF 10**(-40)*GRAM-CM**2

          A =       83.5669   B =      785.9679   C =      802.7764


          ORIENTATION OF MOLECULE IN FORCE CALCULATION

    NO.       ATOM         X         Y         Z

     1          C       0.9854    0.2078   -1.0391
     2          C       2.5065    0.2078   -1.0391
     3          C       1.7836    1.5038   -1.0391
     4          C      -0.9048   -0.8123    0.1841
     5          C      -1.6951   -0.5546    1.4200
     6          C      -3.0185   -0.4481    1.4135
     7          C       0.3740   -0.1155    0.2280
     8          H       0.4677   -0.0793   -1.9754
     9          H       3.0366   -0.1244   -0.1388
    10          H       3.0242   -0.1425   -1.9388
    11          H       1.7781    2.1294   -0.1388
    12          H       1.7553    2.1281   -1.9388
    13          H      -1.5119   -0.6513   -0.7329
    14          H      -0.5978   -1.8837    0.1667
    15          H      -1.1079   -0.4442    2.3402
    16          H      -3.5928   -0.2611    2.3154
    17          H      -3.6220   -0.5376    0.5142


    FIRST DERIVATIVES WILL BE USED IN THE CALCULATION OF SECOND DERIVATIVES

          ESTIMATED TIME TO COMPLETE CALCULATION =        6.38 SECONDS

    FOR POINT-GROUP C1   THERE ARE   1 UNIQUE SYMMETRY FUNCTIONS.

 STEP:   1 TIME =     0.03 SECS, INTEGRAL =      0.03 TIME LEFT: 172799.94
 STEP:   2 TIME =     0.04 SECS, INTEGRAL =      0.07 TIME LEFT: 172799.90
 STEP:   3 TIME =     0.04 SECS, INTEGRAL =      0.10 TIME LEFT: 172799.87
 STEP:   4 TIME =     0.03 SECS, INTEGRAL =      0.13 TIME LEFT: 172799.84
 STEP:   5 TIME =     0.03 SECS, INTEGRAL =      0.16 TIME LEFT: 172799.80
 STEP:   6 TIME =     0.03 SECS, INTEGRAL =      0.20 TIME LEFT: 172799.77
 STEP:   7 TIME =     0.04 SECS, INTEGRAL =      0.23 TIME LEFT: 172799.74
 STEP:   8 TIME =     0.04 SECS, INTEGRAL =      0.27 TIME LEFT: 172799.70
 STEP:   9 TIME =     0.03 SECS, INTEGRAL =      0.30 TIME LEFT: 172799.67
 STEP:  10 TIME =     0.04 SECS, INTEGRAL =      0.33 TIME LEFT: 172799.64
 STEP:  11 TIME =     0.04 SECS, INTEGRAL =      0.37 TIME LEFT: 172799.60
 STEP:  12 TIME =     0.04 SECS, INTEGRAL =      0.40 TIME LEFT: 172799.57
 STEP:  13 TIME =     0.03 SECS, INTEGRAL =      0.43 TIME LEFT: 172799.54
 STEP:  14 TIME =     0.04 SECS, INTEGRAL =      0.47 TIME LEFT: 172799.50
 STEP:  15 TIME =     0.03 SECS, INTEGRAL =      0.50 TIME LEFT: 172799.47
 STEP:  16 TIME =     0.03 SECS, INTEGRAL =      0.53 TIME LEFT: 172799.44
 STEP:  17 TIME =     0.04 SECS, INTEGRAL =      0.57 TIME LEFT: 172799.40
 STEP:  18 TIME =     0.04 SECS, INTEGRAL =      0.60 TIME LEFT: 172799.37
 STEP:  19 TIME =     0.03 SECS, INTEGRAL =      0.63 TIME LEFT: 172799.34
 STEP:  20 TIME =     0.04 SECS, INTEGRAL =      0.67 TIME LEFT: 172799.30
 STEP:  21 TIME =     0.04 SECS, INTEGRAL =      0.71 TIME LEFT: 172799.26
 STEP:  22 TIME =     0.04 SECS, INTEGRAL =      0.74 TIME LEFT: 172799.23
 STEP:  23 TIME =     0.04 SECS, INTEGRAL =      0.78 TIME LEFT: 172799.19
 STEP:  24 TIME =     0.03 SECS, INTEGRAL =      0.81 TIME LEFT: 172799.16
 STEP:  25 TIME =     0.04 SECS, INTEGRAL =      0.85 TIME LEFT: 172799.12
 STEP:  26 TIME =     0.03 SECS, INTEGRAL =      0.88 TIME LEFT: 172799.09
 STEP:  27 TIME =     0.03 SECS, INTEGRAL =      0.91 TIME LEFT: 172799.06
 STEP:  28 TIME =     0.04 SECS, INTEGRAL =      0.95 TIME LEFT: 172799.02
 STEP:  29 TIME =     0.04 SECS, INTEGRAL =      0.98 TIME LEFT: 172798.99
 STEP:  30 TIME =     0.03 SECS, INTEGRAL =      1.01 TIME LEFT: 172798.96
 STEP:  31 TIME =     0.03 SECS, INTEGRAL =      1.04 TIME LEFT: 172798.93
 STEP:  32 TIME =     0.03 SECS, INTEGRAL =      1.07 TIME LEFT: 172798.89
 STEP:  33 TIME =     0.04 SECS, INTEGRAL =      1.11 TIME LEFT: 172798.86
 STEP:  34 TIME =     0.03 SECS, INTEGRAL =      1.14 TIME LEFT: 172798.83
 STEP:  35 TIME =     0.03 SECS, INTEGRAL =      1.17 TIME LEFT: 172798.80
 STEP:  36 TIME =     0.03 SECS, INTEGRAL =      1.20 TIME LEFT: 172798.77
 STEP:  37 TIME =     0.04 SECS, INTEGRAL =      1.24 TIME LEFT: 172798.73
 STEP:  38 TIME =     0.03 SECS, INTEGRAL =      1.27 TIME LEFT: 172798.70
 STEP:  39 TIME =     0.04 SECS, INTEGRAL =      1.30 TIME LEFT: 172798.66
 STEP:  40 TIME =     0.03 SECS, INTEGRAL =      1.34 TIME LEFT: 172798.63
 STEP:  41 TIME =     0.04 SECS, INTEGRAL =      1.37 TIME LEFT: 172798.60
 STEP:  42 TIME =     0.03 SECS, INTEGRAL =      1.40 TIME LEFT: 172798.57
 STEP:  43 TIME =     0.03 SECS, INTEGRAL =      1.43 TIME LEFT: 172798.54
 STEP:  44 TIME =     0.04 SECS, INTEGRAL =      1.47 TIME LEFT: 172798.50
 STEP:  45 TIME =     0.04 SECS, INTEGRAL =      1.50 TIME LEFT: 172798.46
 STEP:  46 TIME =     0.03 SECS, INTEGRAL =      1.54 TIME LEFT: 172798.43
 STEP:  47 TIME =     0.03 SECS, INTEGRAL =      1.57 TIME LEFT: 172798.40
 STEP:  48 TIME =     0.03 SECS, INTEGRAL =      1.60 TIME LEFT: 172798.37
 STEP:  49 TIME =     0.03 SECS, INTEGRAL =      1.63 TIME LEFT: 172798.34
 STEP:  50 TIME =     0.04 SECS, INTEGRAL =      1.66 TIME LEFT: 172798.30
 STEP:  51 TIME =     0.03 SECS, INTEGRAL =      1.70 TIME LEFT: 172798.27

(To convert to Hartree/Bohr^2, multiply by (10^(-21) x N x a0^2)/(4.184 x 627.51) =  0.0642)


           FORCE MATRIX IN MILLIDYNES/ANGSTROM


                  C  1       C  2       C  3       C  4       C  5       C  6
 ------------------------------------------------------------------------------
     C    1  14.695874
     C    2   4.144541  15.246962
     C    3   4.106213   5.555820  15.220866
     C    4   0.872405   0.082822   0.073578  14.704800
     C    5   0.076991   0.010808   0.016766   4.852376  18.199154
     C    6   0.026805   0.005589   0.006100   0.870441  11.061501  18.036176
     C    7   5.628149   0.796788   0.808102   5.513403   0.844826   0.050250
     H    8   4.433639   0.424012   0.427630   0.040637   0.003994   0.001770
     H    9   0.457160   4.829449   0.467227   0.008909   0.000942   0.000670
     H   10   0.507291   4.829852   0.463651   0.019805   0.001889   0.000878
     H   11   0.454750   0.467006   4.828323   0.009237   0.001692   0.001042
     H   12   0.511230   0.462918   4.830297   0.011397   0.002747   0.001395
     H   13   0.053461   0.008568   0.007738   4.285406   0.447171   0.047777
     H   14   0.060125   0.019209   0.016220   4.226407   0.413790   0.025639
     H   15   0.010280   0.001863   0.001739   0.448286   4.802714   0.444697
     H   16   0.004981   0.001179   0.001347   0.130060   0.460431   5.113395
     H   17   0.004289   0.001192   0.001247   0.097441   0.490928   5.068200


                  C  7       H  8       H  9       H 10       H 11       H 12
 ------------------------------------------------------------------------------
     C    7  10.934486
     H    8   0.502480   5.017475
     H    9   0.041828   0.037225   5.415399
     H   10   0.073261   0.020409   0.466868   5.419558
     H   11   0.044581   0.036805   0.021428   0.042393   5.413714
     H   12   0.076689   0.020554   0.042525   0.021075   0.467172   5.419243
     H   13   0.472825   0.034211   0.001099   0.001971   0.001569   0.001284
     H   14   0.257419   0.005435   0.001217   0.004293   0.001478   0.001792
     H   15   0.047400   0.001917   0.000560   0.000395   0.000587   0.000389
     H   16   0.015704   0.000385   0.000144   0.000202   0.000196   0.000212
     H   17   0.008777   0.000513   0.000166   0.000244   0.000168   0.000236


                  H 13       H 14       H 15       H 16       H 17
 ------------------------------------------------------------------
     H   13   4.941005
     H   14   0.535656   4.795629
     H   15   0.037567   0.015156   5.173418
     H   16   0.003854   0.018518   0.079262   5.503305
     H   17   0.028253   0.013246   0.118106   0.425067   5.470427


          HEAT OF FORMATION =     113.571977 KCALS/MOLE

          ZERO POINT ENERGY      90.413 KCAL/MOL


           NORMAL COORDINATE ANALYSIS (Total motion = 1 Angstrom)


   Root No.       1         2         3         4         5         6         7         8

                 1 A       2 A       3 A       4 A       5 A       6 A       7 A       8 A   

                  47.9      73.6     107.6     183.0     337.5     359.0     418.8     502.2
  
           1   -0.0025    0.0194    0.0153    0.0124    0.0182    0.0320   -0.0039   -0.0129
           2   -0.0173   -0.0280   -0.0236   -0.0139   -0.0371    0.0028   -0.0279    0.0014
           3    0.0048   -0.0058   -0.0022    0.0294   -0.0398    0.0228    0.0351   -0.0216
           4   -0.0029    0.0194    0.0146    0.0103    0.0200    0.0372   -0.0117   -0.0200
           5    0.0328    0.0199    0.0145    0.0051    0.0032    0.0193   -0.0140   -0.0114
           6   -0.0129    0.0345   -0.0199   -0.0410   -0.0159   -0.0280   -0.0096    0.0129
           7   -0.0451   -0.0214   -0.0169   -0.0067   -0.0128    0.0283   -0.0314   -0.0153
           8    0.0093   -0.0028   -0.0030   -0.0038   -0.0154    0.0105   -0.0206   -0.0037
           9    0.0239   -0.0155    0.0292   -0.0192    0.0353   -0.0111    0.0219    0.0027
          10    0.0138   -0.0227   -0.0137    0.0037    0.0037   -0.0116    0.0121    0.0401
          11   -0.0474    0.0225    0.0202    0.0390    0.0203   -0.0332    0.0001    0.0220
          12    0.0079   -0.0281   -0.0067    0.0156    0.0238   -0.0075   -0.0404   -0.0009
          13    0.0084    0.0044   -0.0034   -0.0199   -0.0090   -0.0371    0.0251   -0.0215
          14   -0.0069   -0.0173    0.0648   -0.0203   -0.0081   -0.0120    0.0025    0.0058
          15   -0.0039   -0.0022   -0.0090    0.0114    0.0233   -0.0231   -0.0440   -0.0436
          16    0.0148    0.0066   -0.0114   -0.0193   -0.0092   -0.0363    0.0285   -0.0231
          17    0.0713    0.0109   -0.0324   -0.0067   -0.0019    0.0095    0.0031    0.0000
          18   -0.0250    0.0291    0.0118   -0.0239   -0.0027    0.0419    0.0010    0.0223
          19    0.0179   -0.0041    0.0240    0.0284   -0.0160   -0.0224   -0.0244    0.0532
          20   -0.0547   -0.0122   -0.0500   -0.0029    0.0473    0.0047    0.0618   -0.0070
          21    0.0047   -0.0132   -0.0052    0.0447   -0.0349    0.0004    0.0421    0.0109
          22   -0.0038    0.0522    0.0129   -0.0137    0.0431    0.0382   -0.0104   -0.0328
          23   -0.0149   -0.0665   -0.0110   -0.0282   -0.0489   -0.0032   -0.0644    0.0096
          24    0.0047   -0.0119   -0.0047    0.0467   -0.0479    0.0192    0.0489   -0.0114
          25    0.0185    0.0055    0.0340    0.0598    0.0224    0.0835    0.0359   -0.0619
          26    0.0305    0.0582   -0.0003    0.0215   -0.0288    0.0349   -0.0126   -0.0278
          27   -0.0263    0.0568   -0.0369   -0.0645   -0.0299   -0.0506   -0.0382    0.0328
          28   -0.0016    0.0552    0.0131   -0.0281    0.0392    0.0017   -0.0501    0.0141
          29    0.0699    0.0158    0.0569    0.0045    0.0673    0.0164   -0.0024   -0.0038
          30   -0.0266    0.0567   -0.0373   -0.0632   -0.0305   -0.0483   -0.0372    0.0307
          31   -0.0551   -0.0647   -0.0224    0.0279   -0.0559    0.0598   -0.0194   -0.0424
          32   -0.0105    0.0191   -0.0318    0.0043   -0.0728    0.0153   -0.0379   -0.0068
          33    0.0377   -0.0310    0.0493   -0.0247    0.0767   -0.0146    0.0352    0.0048
          34   -0.0769   -0.0183   -0.0443   -0.0580   -0.0074   -0.0104   -0.0700    0.0156
          35    0.0281   -0.0253    0.0251   -0.0118    0.0395    0.0066   -0.0057   -0.0012
          36    0.0380   -0.0313    0.0496   -0.0232    0.0745   -0.0130    0.0345    0.0036
          37    0.0206   -0.0297   -0.0055    0.0178   -0.0129   -0.0011    0.0305    0.0757
          38   -0.0696    0.0926    0.0473    0.1076   -0.0496   -0.1085    0.0040   -0.0412
          39   -0.0005   -0.0112   -0.0072    0.0171    0.0232   -0.0252   -0.0513   -0.0333
          40    0.0104   -0.0613   -0.0671   -0.0265    0.0777    0.0387    0.0356    0.1015
          41   -0.0487    0.0126    0.0048    0.0309    0.0390   -0.0206    0.0081    0.0356
          42    0.0396   -0.0909   -0.0018   -0.0448    0.0599    0.0583   -0.0549    0.0627
          43   -0.0001    0.0246    0.0091   -0.0450   -0.0263   -0.0218    0.0526   -0.0308
          44   -0.0424   -0.0704    0.1735   -0.0839   -0.0478   -0.0031    0.0419   -0.0469
          45    0.0058   -0.0087   -0.0296    0.0343    0.0382   -0.0319   -0.0644   -0.0292
          46    0.0116    0.0287   -0.0055   -0.0477   -0.0335    0.0259    0.0741    0.0450
          47    0.1037   -0.0170   -0.0065   -0.0568   -0.0405    0.0335    0.0457   -0.0864
          48   -0.0337    0.0489    0.0103   -0.0317   -0.0103    0.0779    0.0212    0.0855
          49    0.0236   -0.0132   -0.0241    0.0087    0.0137   -0.0957   -0.0112   -0.0895
          50    0.1087    0.0641   -0.1452    0.0554    0.0420    0.0092   -0.0374    0.0832
          51   -0.0346    0.0372    0.0316   -0.0492   -0.0229    0.0830    0.0327    0.0606


   Root No.       9        10        11        12        13        14        15        16

                 9 A      10 A      11 A      12 A      13 A      14 A      15 A      16 A   

                 597.0     684.6     816.3     886.3     908.7     924.0     930.5     939.5
  
           1   -0.0015    0.0025   -0.0009    0.0034    0.0026    0.0082    0.0200   -0.0157
           2   -0.0006    0.0024   -0.0002   -0.0041    0.0016    0.0024   -0.0372   -0.0105
           3   -0.0236    0.0135    0.0044    0.0001    0.0037    0.0060    0.0001   -0.0011
           4   -0.0006   -0.0025    0.0029   -0.0278   -0.0020   -0.0043   -0.0508    0.0007
           5    0.0001   -0.0038    0.0030    0.0015   -0.0026   -0.0079    0.0040    0.0149
           6   -0.0002    0.0029    0.0038    0.0082    0.0059    0.0158   -0.0047   -0.0111
           7    0.0003   -0.0047    0.0036    0.0120   -0.0023   -0.0070    0.0244    0.0149
           8    0.0004   -0.0008   -0.0000    0.0248    0.0017    0.0043    0.0452   -0.0037
           9    0.0011   -0.0009    0.0039   -0.0083    0.0046    0.0161    0.0050   -0.0111
          10    0.0226   -0.0231   -0.0086   -0.0013    0.0112    0.0072    0.0002   -0.0180
          11   -0.0069    0.0545    0.0001    0.0049   -0.0125    0.0076   -0.0005    0.0104
          12    0.0152   -0.0172   -0.0049   -0.0020    0.0087    0.0181   -0.0020    0.0175
          13   -0.0191    0.0037    0.0014   -0.0002   -0.0034    0.0047   -0.0008    0.0090
          14   -0.0392   -0.0260    0.0003    0.0006   -0.0146    0.0059   -0.0023   -0.0072
          15    0.0017    0.0101    0.0011    0.0004    0.0078   -0.0041    0.0006   -0.0028
          16   -0.0185    0.0072    0.0022   -0.0002   -0.0059    0.0059   -0.0009    0.0147
          17    0.0093    0.0009   -0.0001   -0.0003    0.0006   -0.0032   -0.0002   -0.0099
          18    0.0059   -0.0022    0.0007    0.0012   -0.0031   -0.0225    0.0037   -0.0351
          19    0.0235   -0.0027   -0.0039    0.0053   -0.0064   -0.0035    0.0011   -0.0117
          20    0.0171   -0.0345   -0.0025   -0.0106   -0.0067   -0.0008   -0.0004   -0.0072
          21    0.0022   -0.0041    0.0162   -0.0006   -0.0126   -0.0300   -0.0003    0.0168
          22   -0.0023   -0.0117   -0.0208    0.0951    0.0187    0.0409    0.0919   -0.0338
          23   -0.0035    0.0270   -0.0122   -0.1743    0.0003    0.0180   -0.1701   -0.0318
          24   -0.0205    0.0124    0.0204    0.0017   -0.0061   -0.0198    0.0014    0.0180
          25   -0.0256   -0.0003    0.0059    0.0891    0.0354    0.0673   -0.1606   -0.0419
          26   -0.0188    0.0115   -0.1864    0.0570   -0.0046   -0.0356   -0.1240    0.0416
          27    0.0080    0.0077   -0.0741   -0.0441   -0.0187   -0.0405    0.0162    0.0263
          28    0.0241   -0.0038    0.0109   -0.1720   -0.0479   -0.1053    0.0333    0.0805
          29    0.0189   -0.0166    0.2099   -0.1039   -0.0133   -0.0233    0.0818    0.0467
          30    0.0070    0.0077   -0.0782   -0.0382   -0.0180   -0.0401    0.0137    0.0249
          31   -0.0286    0.0226   -0.1588   -0.0958   -0.0059    0.0175    0.1904    0.0208
          32   -0.0146    0.0196    0.1013   -0.0477    0.0247    0.0818    0.0734   -0.0544
          33    0.0120   -0.0160   -0.0737    0.0456   -0.0127   -0.0418   -0.0172    0.0265
          34    0.0314   -0.0341    0.1860    0.1754   -0.0075   -0.0807   -0.0855    0.0829
          35    0.0151   -0.0198   -0.1010    0.0946   -0.0222   -0.0763    0.0119    0.0477
          36    0.0108   -0.0141   -0.0779    0.0397   -0.0129   -0.0413   -0.0151    0.0250
          37    0.0250   -0.0489   -0.0059    0.0047   -0.0338   -0.0151    0.0077   -0.0515
          38    0.1155   -0.1070   -0.0190   -0.0080    0.0545    0.0257   -0.0019   -0.0047
          39    0.0321   -0.0222   -0.0094   -0.0074    0.0488    0.0354   -0.0070    0.0379
          40   -0.0362    0.2683    0.0064    0.0062    0.1437   -0.0329    0.0001   -0.0120
          41   -0.0183    0.1286    0.0035    0.0062    0.0281   -0.0031   -0.0007    0.0113
          42   -0.1059    0.0406    0.0098    0.0168   -0.1577    0.0268    0.0007    0.0384
          43   -0.0319    0.0205    0.0107    0.0015   -0.0152   -0.0442    0.0067   -0.0247
          44    0.0488   -0.0068   -0.0013   -0.0217    0.2424   -0.0677    0.0153    0.0432
          45   -0.0004   -0.0029   -0.0045    0.0020   -0.0154    0.0358   -0.0063    0.0136
          46    0.0192    0.0009   -0.0073   -0.0049    0.0063    0.1110   -0.0163    0.1672
          47    0.2379    0.1523   -0.0008    0.0113   -0.0681    0.0136    0.0018    0.0094
          48   -0.0162   -0.0383   -0.0056   -0.0043    0.0202    0.0427   -0.0068    0.0596
          49   -0.0537    0.0195    0.0127    0.0045   -0.0208   -0.0938    0.0148   -0.1153
          50   -0.1467   -0.1027   -0.0021   -0.0139    0.1448   -0.0315    0.0101    0.0478
          51    0.0455   -0.0007   -0.0064   -0.0007   -0.0073    0.0502   -0.0083    0.0507


   Root No.      17        18        19        20        21        22        23        24

                17 A      18 A      19 A      20 A      21 A      22 A      23 A      24 A   

                 968.1    1009.9    1036.6    1046.4    1122.0    1122.6    1159.9    1169.3
  
           1    0.0081   -0.0477   -0.0027    0.0382   -0.0291    0.0259   -0.0076    0.0111
           2    0.0053   -0.0306    0.0119   -0.0631   -0.0253   -0.0158   -0.0019   -0.0206
           3   -0.0017   -0.0150    0.0053    0.0036   -0.0022    0.0022    0.0144   -0.0006
           4    0.0010   -0.0107    0.0061   -0.0340    0.0175   -0.0245    0.0045    0.0297
           5   -0.0068    0.0311   -0.0018    0.0000    0.0437   -0.0250    0.0089    0.0421
           6    0.0036    0.0167   -0.0008   -0.0221    0.0216    0.0474   -0.0095    0.0091
           7   -0.0064    0.0225   -0.0040    0.0182    0.0566   -0.0074    0.0039   -0.0504
           8    0.0026   -0.0226   -0.0039    0.0326   -0.0022    0.0116   -0.0032   -0.0036
           9    0.0035    0.0183   -0.0064    0.0167   -0.0170   -0.0506   -0.0070   -0.0085
          10   -0.0070    0.0085    0.0072    0.0008   -0.0024    0.0014    0.0036   -0.0005
          11    0.0214    0.0048   -0.0169   -0.0055    0.0010   -0.0001    0.0027   -0.0001
          12   -0.0049    0.0010    0.0008    0.0010    0.0048   -0.0010    0.0337   -0.0015
          13   -0.0008   -0.0013    0.0034    0.0009   -0.0002    0.0000   -0.0051    0.0003
          14   -0.0286    0.0012    0.0516    0.0102   -0.0000    0.0001   -0.0008    0.0002
          15   -0.0009   -0.0093   -0.0022   -0.0006   -0.0083    0.0032   -0.0080    0.0003
          16    0.0017   -0.0016   -0.0072   -0.0005   -0.0001    0.0003    0.0020    0.0001
          17   -0.0290   -0.0061   -0.0537   -0.0091   -0.0004    0.0001   -0.0003   -0.0000
          18    0.0053    0.0110    0.0089    0.0011    0.0016   -0.0006   -0.0021    0.0000
          19    0.0114    0.0032   -0.0085   -0.0069    0.0055   -0.0042   -0.0454    0.0007
          20    0.0057    0.0017   -0.0043    0.0069    0.0013   -0.0016   -0.0204    0.0034
          21   -0.0035   -0.0061   -0.0003    0.0008   -0.0027    0.0010   -0.0088    0.0008
          22    0.0097   -0.0493    0.0189   -0.1141   -0.1100   -0.0351    0.0935   -0.0469
          23    0.0182   -0.0044   -0.0376    0.2180   -0.0000    0.1588    0.0489    0.0785
          24   -0.0071   -0.0225    0.0086    0.0014    0.0379   -0.0194   -0.0608    0.0011
          25    0.0118    0.1211   -0.0138   -0.0442   -0.0427    0.1203   -0.0438   -0.0798
          26   -0.0180    0.1470   -0.0283    0.1102   -0.1362   -0.0299   -0.0305   -0.1778
          27   -0.0075   -0.0216    0.0012    0.0288   -0.0101   -0.0440    0.0044   -0.0076
          28   -0.0302   -0.0465    0.0208   -0.0054   -0.1170   -0.0319    0.0128   -0.1124
          29   -0.0291    0.0906    0.0158   -0.0897   -0.0480    0.1932   -0.0144   -0.1404
          30   -0.0065   -0.0287    0.0011    0.0310   -0.0219   -0.0462    0.0045   -0.0021
          31   -0.0214    0.1700    0.0019   -0.1135   -0.1304    0.0659   -0.0312    0.1932
          32    0.0174    0.0337   -0.0244    0.0823   -0.0583   -0.1123   -0.0186   -0.0243
          33   -0.0073   -0.0239    0.0091   -0.0220    0.0234    0.0397    0.0034    0.0073
          34   -0.0341    0.0659   -0.0045    0.0729   -0.1762   -0.0308    0.0121    0.1752
          35   -0.0117   -0.0900    0.0180   -0.0213    0.0324    0.1484    0.0100    0.0202
          36   -0.0063   -0.0316    0.0095   -0.0236    0.0160    0.0494    0.0018    0.0015
          37    0.0311    0.0364   -0.0134   -0.0027   -0.0335    0.0229    0.2479   -0.0122
          38   -0.0391    0.0172    0.0209    0.0043   -0.0037    0.0067    0.1820   -0.0097
          39   -0.0395   -0.0158    0.0197    0.0042    0.0242   -0.0142   -0.0914    0.0042
          40   -0.1385    0.0041    0.0784    0.0103    0.0103   -0.0007    0.0698   -0.0032
          41   -0.0186    0.0038    0.0049   -0.0024    0.0052   -0.0009    0.0254   -0.0010
          42    0.1601    0.0076   -0.1048   -0.0261   -0.0058    0.0034    0.0644   -0.0046
          43    0.0362    0.0184   -0.0366   -0.0063    0.0282   -0.0108    0.1068   -0.0045
          44    0.1302   -0.0100   -0.1375   -0.0276   -0.0088    0.0033   -0.0178   -0.0001
          45   -0.0425   -0.0204    0.0448    0.0084   -0.0254    0.0098   -0.0744    0.0033
          46    0.0089   -0.0362    0.0115    0.0043   -0.0092    0.0049    0.0320   -0.0010
          47    0.1308    0.0342    0.2023    0.0322    0.0019   -0.0006   -0.0012    0.0001
          48   -0.0241   -0.0203   -0.0314   -0.0043   -0.0053    0.0026    0.0149   -0.0006
          49    0.0316    0.0397    0.0038    0.0002    0.0107   -0.0034    0.0259   -0.0010
          50    0.1705    0.0231    0.1713    0.0281    0.0001   -0.0001   -0.0055    0.0003
          51   -0.0346   -0.0206   -0.0209   -0.0030   -0.0062    0.0022   -0.0158    0.0007


   Root No.      25        26        27        28        29        30        31        32

                25 A      26 A      27 A      28 A      29 A      30 A      31 A      32 A   

                1170.9    1207.6    1228.9    1296.1    1314.9    1350.2    1381.7    1389.5
  
           1    0.0124   -0.0091   -0.0128    0.0017   -0.0036    0.0149    0.0017   -0.0258
           2    0.0059   -0.0052   -0.0068    0.0004   -0.0032    0.0076   -0.0003   -0.0140
           3   -0.0053   -0.0296   -0.0124   -0.0353   -0.0211   -0.0008   -0.0013    0.0258
           4   -0.0016    0.0022   -0.0005    0.0140    0.0071   -0.0060    0.0255   -0.0049
           5   -0.0149    0.0056    0.0064   -0.0146   -0.0057    0.0047   -0.0155    0.0053
           6    0.0025    0.0038   -0.0032    0.0078    0.0037    0.0003   -0.0009   -0.0039
           7   -0.0130    0.0066    0.0057   -0.0050   -0.0012    0.0009   -0.0001    0.0018
           8    0.0072   -0.0008   -0.0036    0.0198    0.0095   -0.0077   -0.0293   -0.0089
           9    0.0012    0.0037   -0.0033    0.0074    0.0038    0.0004    0.0013   -0.0037
          10   -0.0103   -0.0206   -0.0154   -0.0296   -0.0093   -0.0057   -0.0019    0.0393
          11   -0.0039   -0.0101    0.0007   -0.0084   -0.0219   -0.0210   -0.0003    0.0056
          12    0.0456   -0.0202    0.0182    0.0153   -0.0250   -0.0284    0.0017   -0.0290
          13   -0.0073   -0.0019    0.0021   -0.0112    0.0132   -0.0136    0.0006   -0.0095
          14    0.0029    0.0103   -0.0046    0.0021    0.0013    0.0050   -0.0001    0.0021
          15   -0.0281    0.0487   -0.0495   -0.0090    0.0045    0.0190   -0.0012    0.0209
          16   -0.0136   -0.0129    0.0188    0.0036    0.0058   -0.0155    0.0012   -0.0207
          17   -0.0025   -0.0031    0.0005   -0.0007   -0.0012    0.0002   -0.0001    0.0017
          18   -0.0079   -0.0216    0.0178    0.0018   -0.0016   -0.0038    0.0001   -0.0024
          19    0.0139    0.0190   -0.0013    0.0015   -0.0005    0.0158   -0.0002   -0.0038
          20    0.0059    0.0090   -0.0016    0.0007    0.0018    0.0089    0.0004   -0.0020
          21    0.0013    0.0407    0.0410    0.0164    0.0179    0.0009    0.0006   -0.0132
          22   -0.0081    0.1185    0.2247   -0.1014   -0.0318    0.0047   -0.0002    0.0433
          23   -0.0048    0.0625    0.1153   -0.0534   -0.0150    0.0039   -0.0056    0.0224
          24    0.0108   -0.1220   -0.1833    0.0393   -0.0014    0.0071    0.0014   -0.0248
          25    0.0297    0.0190   -0.0051    0.0858    0.0522   -0.0648   -0.1562    0.0606
          26    0.0134   -0.0106   -0.0163   -0.0262   -0.0209    0.0416    0.0991   -0.0520
          27   -0.0055   -0.0133   -0.0101   -0.0370   -0.0272    0.0457    0.1403   -0.0596
          28    0.0140   -0.0310   -0.0088    0.0297    0.0231   -0.0673   -0.1593    0.0925
          29    0.0100   -0.0261   -0.0148   -0.0476   -0.0321    0.0399    0.0919   -0.0380
          30    0.0014   -0.0046   -0.0014    0.0263    0.0208   -0.0450   -0.1397    0.0649
          31    0.0272   -0.0007   -0.0176    0.0227    0.0102    0.0014   -0.0014   -0.0124
          32    0.0164    0.0220    0.0046    0.0861    0.0553   -0.0751    0.1784    0.0901
          33   -0.0048   -0.0134   -0.0104   -0.0369   -0.0268    0.0445   -0.1355   -0.0681
          34    0.0162   -0.0400   -0.0177   -0.0245   -0.0151   -0.0016    0.0032    0.0162
          35    0.0112   -0.0122    0.0008    0.0509    0.0360   -0.0767    0.1752    0.1092
          36    0.0027   -0.0044   -0.0011    0.0262    0.0202   -0.0439    0.1341    0.0733
          37   -0.1815    0.0600   -0.1223    0.0560   -0.0337   -0.0466    0.0042   -0.0635
          38    0.0115   -0.0932    0.0080    0.0081    0.1750    0.1062   -0.0004    0.0084
          39    0.1655   -0.0899    0.0943   -0.0401    0.0438    0.0332   -0.0025    0.0418
          40    0.0124    0.0078    0.0089    0.0283    0.0800    0.0553    0.0007   -0.0170
          41    0.0040   -0.0054    0.0086    0.0082    0.0144    0.0048    0.0003   -0.0088
          42   -0.0082   -0.0807    0.0242   -0.0269    0.1585    0.0962   -0.0019    0.0350
          43    0.3442    0.1192   -0.1296   -0.0322   -0.0107    0.0116   -0.0017    0.0309
          44   -0.0776   -0.0160    0.0114    0.0001    0.0013   -0.0024    0.0000   -0.0010
          45   -0.2384   -0.0214    0.0283    0.0034    0.0202    0.0038    0.0002   -0.0034
          46   -0.0186    0.0390   -0.0032    0.1114   -0.1026    0.1205   -0.0047    0.0749
          47    0.0031   -0.0028    0.0006   -0.0011   -0.0024    0.0011   -0.0002    0.0043
          48   -0.0149    0.0139   -0.0005    0.0638   -0.0645    0.0774   -0.0034    0.0557
          49   -0.0035   -0.0934    0.1113    0.1230   -0.1098    0.0968   -0.0036    0.0554
          50    0.0046    0.0154   -0.0118   -0.0174    0.0214   -0.0164    0.0008   -0.0137
          51   -0.0193    0.0308   -0.0420   -0.0705    0.0684   -0.0722    0.0030   -0.0491


   Root No.      33        34        35        36        37        38        39        40

                33 A      34 A      35 A      36 A      37 A      38 A      39 A      40 A   

                1508.4    1569.9    1859.8    2900.2    2976.2    2982.1    3046.9    3082.6
  
           1   -0.0145   -0.0971    0.0022    0.0010   -0.0092   -0.0196    0.0000    0.0000
           2   -0.0089   -0.0522    0.0007    0.0004   -0.0051   -0.0109    0.0000   -0.0001
           3   -0.0436    0.0667   -0.0018    0.0006   -0.0161   -0.0348    0.0003   -0.0000
           4    0.0478    0.0746   -0.0004   -0.0001   -0.0000    0.0001    0.0000    0.0006
           5   -0.0338   -0.0659    0.0003   -0.0000   -0.0002   -0.0004   -0.0000    0.0000
           6    0.0033   -0.0061   -0.0000   -0.0001    0.0008    0.0020   -0.0000    0.0308
           7   -0.0036   -0.0175    0.0000   -0.0000   -0.0002   -0.0003    0.0000   -0.0004
           8    0.0584    0.0972   -0.0005   -0.0001    0.0001    0.0003    0.0000   -0.0007
           9    0.0036   -0.0065    0.0001   -0.0000    0.0008    0.0020    0.0000   -0.0313
          10    0.0771   -0.0398   -0.0296    0.0282   -0.0108    0.0069   -0.0014   -0.0000
          11    0.0296   -0.0169    0.0038   -0.0457   -0.0139    0.0069    0.0000    0.0000
          12   -0.0201    0.0005    0.0249    0.0238   -0.0250    0.0138   -0.0022   -0.0000
          13   -0.0016    0.0009    0.2306    0.0000    0.0010   -0.0007   -0.0406   -0.0000
          14    0.0004   -0.0000   -0.0238   -0.0005   -0.0000   -0.0000   -0.0061   -0.0000
          15    0.0098    0.0003   -0.0396   -0.0012    0.0009   -0.0006   -0.0555   -0.0000
          16   -0.0148    0.0031   -0.2016   -0.0003   -0.0003    0.0002    0.0019    0.0000
          17    0.0019   -0.0006    0.0165   -0.0001   -0.0001    0.0000    0.0006   -0.0000
          18    0.0009   -0.0012    0.0024    0.0003   -0.0003    0.0002    0.0051    0.0000
          19   -0.0739    0.0630   -0.0023   -0.0004   -0.0008   -0.0005    0.0004    0.0001
          20   -0.0374    0.0313    0.0010   -0.0014   -0.0008   -0.0002    0.0001   -0.0002
          21    0.0449   -0.0496    0.0040    0.0008   -0.0005    0.0002   -0.0007   -0.0000
          22   -0.0439    0.0612   -0.0007   -0.0053    0.1101    0.2399   -0.0012   -0.0010
          23   -0.0240    0.0316    0.0002   -0.0034    0.0618    0.1334   -0.0007    0.0024
          24   -0.0251   -0.0483    0.0002   -0.0127    0.1988    0.4235   -0.0017    0.0003
          25   -0.0253   -0.0260   -0.0001   -0.0001   -0.0018   -0.0053   -0.0001   -0.1196
          26    0.0337    0.0185    0.0002   -0.0000    0.0024    0.0057    0.0001    0.0725
          27    0.0672    0.0848   -0.0003    0.0002   -0.0051   -0.0132   -0.0002   -0.1916
          28   -0.0618    0.0247   -0.0006    0.0002    0.0031    0.0063   -0.0003    0.1108
          29    0.0152    0.0384   -0.0002    0.0001   -0.0028   -0.0065    0.0002   -0.0728
          30   -0.0769   -0.0732    0.0000   -0.0001   -0.0066   -0.0142    0.0004   -0.1825
          31    0.0163    0.0022    0.0003   -0.0000    0.0010    0.0021   -0.0000    0.0009
          32   -0.0377   -0.0323    0.0000    0.0001   -0.0029   -0.0076   -0.0003    0.1433
          33    0.0664    0.0842   -0.0002    0.0003   -0.0053   -0.0133   -0.0004    0.1962
          34   -0.0198    0.0472   -0.0005    0.0001   -0.0008   -0.0022    0.0000    0.0044
          35   -0.0601    0.0021   -0.0007   -0.0002    0.0042    0.0089    0.0001   -0.1342
          36   -0.0762   -0.0724   -0.0000    0.0003   -0.0067   -0.0143   -0.0001    0.1847
          37   -0.0559    0.0195    0.0408   -0.1940    0.2196   -0.1203    0.0147    0.0001
          38   -0.0322    0.0161   -0.0033    0.0386   -0.0767    0.0428   -0.0051   -0.0001
          39    0.0547   -0.0321   -0.0222   -0.2941    0.3183   -0.1793    0.0292    0.0002
          40   -0.0590    0.0369   -0.0013   -0.1432   -0.0814    0.0412   -0.0020    0.0001
          41   -0.0146    0.0099    0.0049    0.5290    0.2544   -0.1266    0.0035   -0.0000
          42    0.0068    0.0011    0.0100    0.0090   -0.0153    0.0082   -0.0029   -0.0000
          43    0.0284   -0.0125    0.0105    0.0087   -0.0103    0.0066    0.4166    0.0001
          44    0.0000    0.0008    0.0198   -0.0003   -0.0016    0.0011    0.0790    0.0000
          45   -0.0065    0.0071    0.1412    0.0095   -0.0130    0.0088    0.6695    0.0002
          46    0.0133    0.0012   -0.0236   -0.0016   -0.0002   -0.0000    0.0372    0.0000
          47    0.0049   -0.0017    0.0255   -0.0000   -0.0001    0.0001   -0.0137   -0.0000
          48    0.0192   -0.0028    0.1480    0.0020    0.0004   -0.0001   -0.0677   -0.0001
          49    0.0115   -0.0027   -0.0119   -0.0023    0.0025   -0.0014    0.0067   -0.0000
          50   -0.0065    0.0019   -0.0236    0.0002    0.0004   -0.0002    0.0005   -0.0000
          51   -0.0161    0.0028   -0.1571   -0.0019    0.0020   -0.0011    0.0062   -0.0000


   Root No.      41        42        43        44        45

                41 A      42 A      43 A      44 A      45 A   

                3096.9    3121.7    3123.1    3136.1    3149.7
  
           1   -0.0011   -0.0003   -0.0006    0.0000   -0.0000
           2   -0.0006    0.0004   -0.0004    0.0000   -0.0000
           3   -0.0023   -0.0000   -0.0001   -0.0000    0.0001
           4   -0.0008   -0.0159    0.0209    0.0000   -0.0000
           5    0.0000    0.0106   -0.0137   -0.0000    0.0001
           6   -0.0306    0.0006   -0.0012   -0.0000    0.0000
           7   -0.0004   -0.0009   -0.0005   -0.0000    0.0000
           8   -0.0009    0.0239    0.0204    0.0000   -0.0001
           9   -0.0300   -0.0012   -0.0012   -0.0000    0.0000
          10    0.0001   -0.0000   -0.0000   -0.0002   -0.0007
          11    0.0000    0.0000   -0.0001    0.0000    0.0002
          12    0.0001    0.0000   -0.0000    0.0005   -0.0002
          13   -0.0000   -0.0000    0.0000    0.0033   -0.0091
          14   -0.0000   -0.0000    0.0000   -0.0005   -0.0000
          15   -0.0000   -0.0000    0.0000   -0.0015   -0.0044
          16    0.0000    0.0000    0.0001   -0.0290    0.0433
          17   -0.0000    0.0000   -0.0000   -0.0072   -0.0090
          18   -0.0000    0.0000   -0.0000   -0.0618   -0.0351
          19   -0.0004    0.0000    0.0001   -0.0000    0.0001
          20   -0.0002    0.0000    0.0000    0.0000    0.0001
          21    0.0001   -0.0000   -0.0001    0.0000   -0.0001
          22    0.0155    0.0002    0.0009    0.0001   -0.0002
          23    0.0086    0.0001    0.0005    0.0000   -0.0001
          24    0.0223    0.0004    0.0022   -0.0000   -0.0002
          25    0.1196    0.0977   -0.1179   -0.0000    0.0003
          26   -0.0757   -0.0605    0.0727    0.0000   -0.0001
          27    0.1896    0.1749   -0.2124   -0.0001    0.0005
          28   -0.1087    0.0989   -0.1232   -0.0001    0.0004
          29    0.0746   -0.0670    0.0830    0.0001   -0.0003
          30    0.1768   -0.1821    0.2269    0.0001   -0.0007
          31   -0.0019    0.0004    0.0000    0.0000   -0.0000
          32    0.1403   -0.1402   -0.1108   -0.0002    0.0003
          33    0.1880   -0.2138   -0.1700   -0.0003    0.0005
          34    0.0067    0.0068    0.0051    0.0000   -0.0000
          35   -0.1280   -0.1494   -0.1206   -0.0003    0.0004
          36    0.1716    0.2279    0.1845    0.0005   -0.0007
          37   -0.0004    0.0000    0.0003   -0.0047    0.0019
          38    0.0002   -0.0000   -0.0001    0.0010   -0.0006
          39   -0.0008    0.0001    0.0005   -0.0030    0.0041
          40    0.0001    0.0000   -0.0002    0.0002    0.0001
          41   -0.0002   -0.0000    0.0006   -0.0006   -0.0014
          42    0.0000    0.0000   -0.0000    0.0003   -0.0002
          43    0.0001    0.0000   -0.0002    0.0113    0.0345
          44    0.0000   -0.0000   -0.0000    0.0010    0.0058
          45    0.0002    0.0001   -0.0002    0.0109    0.0509
          46   -0.0001   -0.0000   -0.0004   -0.1037   -0.3531
          47    0.0000    0.0000    0.0001    0.0293    0.1177
          48    0.0001    0.0000    0.0007    0.1343    0.5736
          49   -0.0001   -0.0002   -0.0003    0.4056   -0.0844
          50   -0.0000   -0.0000   -0.0000    0.0603   -0.0170
          51   -0.0001   -0.0002   -0.0005    0.6056   -0.1554


           MASS-WEIGHTED COORDINATE ANALYSIS (NORMAL COORDINATES)


   Root No.       1         2         3         4         5         6         7         8

                 1 A       2 A       3 A       4 A       5 A       6 A       7 A       8 A   

                  47.9      73.6     107.6     183.0     337.5     359.0     418.8     502.2
  
           1   -0.0174    0.1721    0.1121    0.1011    0.1429    0.2423   -0.0279   -0.1010
           2   -0.1196   -0.2478   -0.1732   -0.1139   -0.2908    0.0214   -0.1977    0.0110
           3    0.0332   -0.0513   -0.0160    0.2403   -0.3126    0.1725    0.2487   -0.1691
           4   -0.0201    0.1718    0.1068    0.0839    0.1573    0.2821   -0.0828   -0.1566
           5    0.2261    0.1760    0.1063    0.0414    0.0253    0.1465   -0.0995   -0.0890
           6   -0.0890    0.3053   -0.1459   -0.3347   -0.1250   -0.2119   -0.0681    0.1008
           7   -0.3111   -0.1892   -0.1242   -0.0548   -0.1005    0.2140   -0.2227   -0.1201
           8    0.0642   -0.0247   -0.0217   -0.0312   -0.1205    0.0797   -0.1461   -0.0290
           9    0.1653   -0.1375    0.2139   -0.1570    0.2771   -0.0843    0.1554    0.0208
          10    0.0951   -0.2006   -0.1004    0.0304    0.0287   -0.0881    0.0860    0.3143
          11   -0.3275    0.1991    0.1481    0.3184    0.1590   -0.2513    0.0011    0.1726
          12    0.0547   -0.2488   -0.0490    0.1277    0.1869   -0.0569   -0.2864   -0.0074
          13    0.0581    0.0392   -0.0248   -0.1622   -0.0704   -0.2812    0.1780   -0.1685
          14   -0.0473   -0.1529    0.4752   -0.1662   -0.0632   -0.0907    0.0180    0.0456
          15   -0.0266   -0.0199   -0.0661    0.0932    0.1826   -0.1746   -0.3121   -0.3416
          16    0.1023    0.0587   -0.0837   -0.1579   -0.0724   -0.2752    0.2023   -0.1812
          17    0.4925    0.0967   -0.2376   -0.0550   -0.0148    0.0716    0.0222    0.0000
          18   -0.1726    0.2581    0.0866   -0.1955   -0.0214    0.3175    0.0073    0.1748
          19    0.1235   -0.0364    0.1757    0.2315   -0.1252   -0.1695   -0.1730    0.4167
          20   -0.3779   -0.1080   -0.3665   -0.0234    0.3714    0.0353    0.4383   -0.0550
          21    0.0328   -0.1169   -0.0378    0.3653   -0.2741    0.0029    0.2988    0.0857
          22   -0.0076    0.1339    0.0274   -0.0324    0.0981    0.0839   -0.0214   -0.0744
          23   -0.0298   -0.1706   -0.0233   -0.0668   -0.1111   -0.0069   -0.1323    0.0219
          24    0.0095   -0.0306   -0.0100    0.1105   -0.1088    0.0420    0.1004   -0.0258
          25    0.0369    0.0140    0.0721    0.1414    0.0509    0.1833    0.0737   -0.1405
          26    0.0610    0.1492   -0.0007    0.0509   -0.0655    0.0765   -0.0259   -0.0631
          27   -0.0526    0.1458   -0.0783   -0.1525   -0.0679   -0.1110   -0.0785    0.0745
          28   -0.0032    0.1416    0.0278   -0.0665    0.0890    0.0036   -0.1029    0.0320
          29    0.1397    0.0406    0.1208    0.0108    0.1530    0.0360   -0.0049   -0.0086
          30   -0.0532    0.1455   -0.0792   -0.1495   -0.0692   -0.1061   -0.0763    0.0698
          31   -0.1103   -0.1661   -0.0475    0.0659   -0.1271    0.1312   -0.0399   -0.0961
          32   -0.0211    0.0489   -0.0675    0.0101   -0.1656    0.0336   -0.0779   -0.0154
          33    0.0754   -0.0795    0.1047   -0.0585    0.1743   -0.0319    0.0723    0.0109
          34   -0.1537   -0.0468   -0.0941   -0.1373   -0.0167   -0.0229   -0.1437    0.0354
          35    0.0561   -0.0650    0.0533   -0.0279    0.0897    0.0145   -0.0118   -0.0027
          36    0.0759   -0.0803    0.1053   -0.0550    0.1693   -0.0284    0.0709    0.0082
          37    0.0413   -0.0761   -0.0117    0.0420   -0.0292   -0.0025    0.0626    0.1718
          38   -0.1393    0.2374    0.1004    0.2545   -0.1128   -0.2382    0.0081   -0.0935
          39   -0.0011   -0.0286   -0.0153    0.0405    0.0528   -0.0552   -0.1054   -0.0755
          40    0.0208   -0.1572   -0.1425   -0.0628    0.1767    0.0849    0.0732    0.2304
          41   -0.0975    0.0322    0.0101    0.0731    0.0887   -0.0453    0.0166    0.0808
          42    0.0792   -0.2331   -0.0038   -0.1060    0.1363    0.1279   -0.1129    0.1422
          43   -0.0002    0.0630    0.0193   -0.1064   -0.0598   -0.0479    0.1080   -0.0698
          44   -0.0849   -0.1807    0.3684   -0.1985   -0.1087   -0.0068    0.0860   -0.1065
          45    0.0116   -0.0222   -0.0629    0.0812    0.0868   -0.0700   -0.1322   -0.0663
          46    0.0233    0.0735   -0.0116   -0.1128   -0.0761    0.0569    0.1521    0.1021
          47    0.2073   -0.0437   -0.0138   -0.1344   -0.0920    0.0734    0.0939   -0.1960
          48   -0.0674    0.1255    0.0218   -0.0750   -0.0233    0.1709    0.0435    0.1941
          49    0.0472   -0.0339   -0.0512    0.0205    0.0312   -0.2100   -0.0231   -0.2032
          50    0.2174    0.1644   -0.3084    0.1310    0.0955    0.0201   -0.0769    0.1887
          51   -0.0693    0.0955    0.0670   -0.1163   -0.0520    0.1821    0.0671    0.1375


   Root No.       9        10        11        12        13        14        15        16

                 9 A      10 A      11 A      12 A      13 A      14 A      15 A      16 A   

                 597.0     684.6     816.3     886.3     908.7     924.0     930.5     939.5
  
           1   -0.0127    0.0183   -0.0070    0.0286    0.0223    0.0831    0.1463   -0.1471
           2   -0.0048    0.0181   -0.0014   -0.0343    0.0136    0.0243   -0.2723   -0.0982
           3   -0.1949    0.0998    0.0348    0.0009    0.0323    0.0601    0.0010   -0.0102
           4   -0.0049   -0.0181    0.0231   -0.2307   -0.0170   -0.0433   -0.3723    0.0065
           5    0.0012   -0.0280    0.0241    0.0124   -0.0225   -0.0797    0.0290    0.1402
           6   -0.0017    0.0212    0.0299    0.0679    0.0515    0.1593   -0.0344   -0.1038
           7    0.0022   -0.0346    0.0286    0.0997   -0.0196   -0.0703    0.1784    0.1401
           8    0.0031   -0.0056   -0.0003    0.2059    0.0144    0.0430    0.3311   -0.0351
           9    0.0090   -0.0065    0.0311   -0.0686    0.0399    0.1627    0.0367   -0.1044
          10    0.1866   -0.1707   -0.0682   -0.0108    0.0974    0.0729    0.0016   -0.1690
          11   -0.0571    0.4029    0.0011    0.0409   -0.1088    0.0772   -0.0034    0.0978
          12    0.1259   -0.1274   -0.0390   -0.0163    0.0761    0.1829   -0.0149    0.1640
          13   -0.1582    0.0270    0.0110   -0.0013   -0.0300    0.0478   -0.0060    0.0850
          14   -0.3238   -0.1922    0.0023    0.0051   -0.1269    0.0594   -0.0169   -0.0676
          15    0.0139    0.0750    0.0085    0.0032    0.0680   -0.0417    0.0041   -0.0267
          16   -0.1529    0.0533    0.0174   -0.0018   -0.0512    0.0596   -0.0064    0.1378
          17    0.0772    0.0069   -0.0006   -0.0023    0.0056   -0.0327   -0.0017   -0.0926
          18    0.0490   -0.0159    0.0057    0.0100   -0.0271   -0.2270    0.0270   -0.3293
          19    0.1943   -0.0198   -0.0312    0.0440   -0.0554   -0.0353    0.0077   -0.1101
          20    0.1417   -0.2554   -0.0197   -0.0880   -0.0579   -0.0081   -0.0027   -0.0681
          21    0.0180   -0.0302    0.1280   -0.0048   -0.1093   -0.3026   -0.0019    0.1576
          22   -0.0055   -0.0251   -0.0478    0.2288    0.0472    0.1196    0.1950   -0.0919
          23   -0.0085    0.0579   -0.0281   -0.4192    0.0009    0.0526   -0.3610   -0.0864
          24   -0.0491    0.0266    0.0467    0.0042   -0.0153   -0.0579    0.0030    0.0489
          25   -0.0612   -0.0007    0.0135    0.2143    0.0894    0.1968   -0.3409   -0.1139
          26   -0.0450    0.0246   -0.4276    0.1372   -0.0116   -0.1042   -0.2632    0.1133
          27    0.0191    0.0165   -0.1700   -0.1060   -0.0471   -0.1184    0.0344    0.0717
          28    0.0578   -0.0081    0.0249   -0.4136   -0.1207   -0.3078    0.0706    0.2188
          29    0.0452   -0.0355    0.4816   -0.2500   -0.0335   -0.0682    0.1736    0.1269
          30    0.0168    0.0166   -0.1794   -0.0919   -0.0455   -0.1172    0.0291    0.0679
          31   -0.0685    0.0483   -0.3642   -0.2304   -0.0148    0.0513    0.4042    0.0566
          32   -0.0350    0.0420    0.2324   -0.1148    0.0624    0.2393    0.1557   -0.1479
          33    0.0287   -0.0343   -0.1691    0.1097   -0.0321   -0.1224   -0.0365    0.0721
          34    0.0751   -0.0730    0.4266    0.4218   -0.0190   -0.2361   -0.1814    0.2255
          35    0.0361   -0.0425   -0.2318    0.2275   -0.0560   -0.2232    0.0252    0.1299
          36    0.0259   -0.0303   -0.1788    0.0954   -0.0326   -0.1207   -0.0320    0.0681
          37    0.0599   -0.1048   -0.0135    0.0112   -0.0853   -0.0443    0.0164   -0.1401
          38    0.2766   -0.2293   -0.0435   -0.0193    0.1375    0.0752   -0.0039   -0.0128
          39    0.0767   -0.0475   -0.0215   -0.0178    0.1232    0.1036   -0.0148    0.1030
          40   -0.0866    0.5749    0.0146    0.0148    0.3625   -0.0963    0.0003   -0.0325
          41   -0.0439    0.2756    0.0081    0.0148    0.0708   -0.0090   -0.0015    0.0308
          42   -0.2536    0.0870    0.0225    0.0404   -0.3978    0.0782    0.0014    0.1045
          43   -0.0764    0.0440    0.0246    0.0035   -0.0383   -0.1293    0.0142   -0.0671
          44    0.1169   -0.0147   -0.0029   -0.0522    0.6115   -0.1981    0.0325    0.1176
          45   -0.0011   -0.0062   -0.0104    0.0048   -0.0390    0.1048   -0.0134    0.0369
          46    0.0461    0.0020   -0.0167   -0.0117    0.0159    0.3246   -0.0345    0.4546
          47    0.5697    0.3262   -0.0019    0.0272   -0.1717    0.0398    0.0038    0.0256
          48   -0.0387   -0.0820   -0.0128   -0.0103    0.0510    0.1248   -0.0144    0.1621
          49   -0.1285    0.0418    0.0290    0.0108   -0.0524   -0.2742    0.0314   -0.3136
          50   -0.3513   -0.2199   -0.0048   -0.0333    0.3653   -0.0922    0.0215    0.1299
          51    0.1089   -0.0015   -0.0146   -0.0017   -0.0183    0.1467   -0.0175    0.1378


   Root No.      17        18        19        20        21        22        23        24

                17 A      18 A      19 A      20 A      21 A      22 A      23 A      24 A   

                 968.1    1009.9    1036.6    1046.4    1122.0    1122.6    1159.9    1169.3
  
           1    0.0707   -0.3866   -0.0208    0.2791   -0.2241    0.1928   -0.0579    0.0817
           2    0.0466   -0.2482    0.0933   -0.4613   -0.1950   -0.1177   -0.0145   -0.1523
           3   -0.0152   -0.1215    0.0418    0.0265   -0.0166    0.0162    0.1103   -0.0042
           4    0.0092   -0.0870    0.0482   -0.2487    0.1352   -0.1821    0.0341    0.2192
           5   -0.0601    0.2519   -0.0144    0.0002    0.3366   -0.1863    0.0681    0.3107
           6    0.0313    0.1359   -0.0060   -0.1620    0.1664    0.3525   -0.0730    0.0672
           7   -0.0561    0.1826   -0.0315    0.1329    0.4366   -0.0553    0.0302   -0.3721
           8    0.0232   -0.1835   -0.0304    0.2384   -0.0169    0.0861   -0.0246   -0.0268
           9    0.0311    0.1482   -0.0505    0.1221   -0.1313   -0.3769   -0.0539   -0.0626
          10   -0.0611    0.0687    0.0568    0.0057   -0.0187    0.0104    0.0278   -0.0033
          11    0.1884    0.0387   -0.1330   -0.0405    0.0078   -0.0008    0.0208   -0.0004
          12   -0.0434    0.0078    0.0060    0.0071    0.0367   -0.0077    0.2578   -0.0109
          13   -0.0073   -0.0102    0.0264    0.0068   -0.0015    0.0001   -0.0394    0.0020
          14   -0.2514    0.0099    0.4049    0.0744   -0.0002    0.0005   -0.0063    0.0017
          15   -0.0077   -0.0751   -0.0176   -0.0042   -0.0643    0.0240   -0.0615    0.0023
          16    0.0148   -0.0133   -0.0563   -0.0038   -0.0010    0.0023    0.0152    0.0005
          17   -0.2551   -0.0497   -0.4216   -0.0664   -0.0029    0.0008   -0.0021   -0.0004
          18    0.0465    0.0891    0.0699    0.0079    0.0124   -0.0048   -0.0164    0.0002
          19    0.0999    0.0256   -0.0670   -0.0503    0.0422   -0.0314   -0.3476    0.0055
          20    0.0501    0.0141   -0.0341    0.0503    0.0100   -0.0115   -0.1559    0.0249
          21   -0.0310   -0.0498   -0.0022    0.0059   -0.0205    0.0071   -0.0676    0.0060
          22    0.0246   -0.1158    0.0430   -0.2417   -0.2456   -0.0756    0.2072   -0.1002
          23    0.0463   -0.0103   -0.0855    0.4619   -0.0000    0.3423    0.1084    0.1677
          24   -0.0182   -0.0528    0.0196    0.0029    0.0846   -0.0417   -0.1348    0.0024
          25    0.0301    0.2846   -0.0313   -0.0936   -0.0954    0.2593   -0.0970   -0.1707
          26   -0.0457    0.3454   -0.0644    0.2336   -0.3042   -0.0644   -0.0677   -0.3801
          27   -0.0192   -0.0509    0.0028    0.0610   -0.0226   -0.0949    0.0098   -0.0161
          28   -0.0770   -0.1092    0.0472   -0.0114   -0.2612   -0.0688    0.0284   -0.2403
          29   -0.0741    0.2129    0.0358   -0.1902   -0.1071    0.4165   -0.0320   -0.3003
          30   -0.0166   -0.0674    0.0025    0.0656   -0.0489   -0.0995    0.0100   -0.0045
          31   -0.0546    0.3994    0.0044   -0.2404   -0.2912    0.1420   -0.0692    0.4130
          32    0.0442    0.0791   -0.0555    0.1744   -0.1302   -0.2421   -0.0412   -0.0521
          33   -0.0187   -0.0562    0.0206   -0.0466    0.0522    0.0856    0.0075    0.0157
          34   -0.0868    0.1549   -0.0101    0.1544   -0.3933   -0.0663    0.0268    0.3745
          35   -0.0298   -0.2114    0.0410   -0.0450    0.0724    0.3200    0.0223    0.0433
          36   -0.0161   -0.0743    0.0216   -0.0499    0.0357    0.1065    0.0041    0.0033
          37    0.0791    0.0855   -0.0305   -0.0057   -0.0748    0.0495    0.5495   -0.0260
          38   -0.0995    0.0404    0.0475    0.0091   -0.0082    0.0145    0.4035   -0.0208
          39   -0.1005   -0.0370    0.0448    0.0089    0.0541   -0.0305   -0.2025    0.0089
          40   -0.3524    0.0096    0.1784    0.0219    0.0229   -0.0015    0.1547   -0.0069
          41   -0.0473    0.0089    0.0111   -0.0050    0.0115   -0.0019    0.0562   -0.0022
          42    0.4073    0.0178   -0.2384   -0.0553   -0.0129    0.0074    0.1427   -0.0098
          43    0.0921    0.0431   -0.0833   -0.0134    0.0629   -0.0233    0.2367   -0.0097
          44    0.3312   -0.0236   -0.3128   -0.0585   -0.0196    0.0072   -0.0395   -0.0002
          45   -0.1081   -0.0480    0.1020    0.0178   -0.0568    0.0212   -0.1649    0.0070
          46    0.0228   -0.0851    0.0263    0.0092   -0.0204    0.0105    0.0708   -0.0021
          47    0.3328    0.0804    0.4601    0.0681    0.0042   -0.0013   -0.0027    0.0002
          48   -0.0613   -0.0476   -0.0714   -0.0091   -0.0117    0.0056    0.0331   -0.0013
          49    0.0804    0.0933    0.0085    0.0004    0.0238   -0.0074    0.0575   -0.0022
          50    0.4339    0.0543    0.3896    0.0595    0.0002   -0.0003   -0.0123    0.0006
          51   -0.0881   -0.0484   -0.0475   -0.0064   -0.0139    0.0047   -0.0351    0.0014


   Root No.      25        26        27        28        29        30        31        32

                25 A      26 A      27 A      28 A      29 A      30 A      31 A      32 A   

                1170.9    1207.6    1228.9    1296.1    1314.9    1350.2    1381.7    1389.5
  
           1    0.0789   -0.0742   -0.0933    0.0160   -0.0333    0.1438    0.0126   -0.2350
           2    0.0373   -0.0428   -0.0491    0.0033   -0.0300    0.0731   -0.0025   -0.1277
           3   -0.0337   -0.2422   -0.0902   -0.3362   -0.1953   -0.0076   -0.0094    0.2355
           4   -0.0103    0.0178   -0.0033    0.1331    0.0660   -0.0584    0.1844   -0.0443
           5   -0.0943    0.0462    0.0463   -0.1391   -0.0531    0.0455   -0.1123    0.0486
           6    0.0160    0.0312   -0.0235    0.0740    0.0346    0.0032   -0.0062   -0.0356
           7   -0.0822    0.0541    0.0411   -0.0477   -0.0107    0.0086   -0.0007    0.0168
           8    0.0459   -0.0067   -0.0261    0.1887    0.0880   -0.0739   -0.2121   -0.0815
[...]
 EFF. MASS   3.7442

 VIBRATION   24   24A         ATOM PAIR      ENERGY CONTRIBUTION    RADIAL
 FREQ.      1169.27         C  2 -- H  9         +19.8% ( 50.3%)      0.4%
 T-DIPOLE    0.0731         C  3 -- H 11         +19.3% ( 49.8%)      0.3%
 TRAVEL      0.1310         C  2 -- H 10         +17.8% ( 47.8%)      0.2%
 RED. MASS   0.6284         C  3 -- H 12         +17.1% ( 46.7%)      0.2%
 EFF. MASS   3.3588

 VIBRATION   25   25A         ATOM PAIR      ENERGY CONTRIBUTION    RADIAL
 FREQ.      1170.94         C  5 -- H 15         +44.8% ( 75.6%)      3.0%
 T-DIPOLE    0.0539         C  4 -- H 13         +16.9% ( 46.4%)     26.7%
 TRAVEL      0.1391         C  4 -- C  5         +11.7% ( 38.6%)     69.1%
 RED. MASS   0.5334         C  4 -- C  7          +7.2% ( 30.3%)     22.9%
 EFF. MASS   2.9775

 VIBRATION   26   26A         ATOM PAIR      ENERGY CONTRIBUTION    RADIAL
 FREQ.      1207.62         C  4 -- C  5         +14.2% ( 48.6%)     46.8%
 T-DIPOLE    0.2407         C  5 -- C  6         +12.5% ( 45.5%)      2.0%
 TRAVEL      0.0913         C  1 -- H  8         +11.8% ( 44.1%)     18.7%
 RED. MASS   0.7537         C  5 -- H 15         +11.3% ( 43.3%)     17.2%
 EFF. MASS   6.6982         C  1 -- C  7         +10.9% ( 42.4%)     36.6%

 VIBRATION   27   27A         ATOM PAIR      ENERGY CONTRIBUTION    RADIAL
 FREQ.      1228.89         C  1 -- H  8         +30.4% ( 64.4%)      1.7%
 T-DIPOLE    0.1267         C  4 -- C  5         +13.4% ( 42.7%)     89.5%
 TRAVEL      0.1110         C  5 -- C  6         +11.8% ( 40.0%)      5.7%
 RED. MASS   0.5411         C  5 -- H 15         +11.3% ( 39.3%)     15.8%
 EFF. MASS   4.4569

 VIBRATION   28   28A         ATOM PAIR      ENERGY CONTRIBUTION    RADIAL
 FREQ.      1296.08         C  1 -- H  8         +11.2% ( 43.0%)     12.8%
 T-DIPOLE    0.2270         C  1 -- C  7          +8.8% ( 38.2%)     77.0%
 TRAVEL      0.1015         C  4 -- H 13          +8.4% ( 37.4%)      0.1%
 RED. MASS   0.4127         C  1 -- C  3          +8.2% ( 36.9%)      7.6%
 EFF. MASS   5.0536

 VIBRATION   29   29A         ATOM PAIR      ENERGY CONTRIBUTION    RADIAL
 FREQ.      1314.91         C  4 -- H 13         +21.1% ( 48.8%)      6.2%
 T-DIPOLE    0.2128         C  4 -- H 14         +19.7% ( 47.1%)      4.4%
 TRAVEL      0.1272         C  6 -- H 17          +8.5% ( 31.0%)      0.3%
 RED. MASS   0.2978         C  4 -- C  5          +8.0% ( 30.0%)     14.2%
 EFF. MASS   3.1710

 VIBRATION   30   30A         ATOM PAIR      ENERGY CONTRIBUTION    RADIAL
 FREQ.      1350.24         C  4 -- C  5         +13.2% ( 40.3%)     77.2%
 T-DIPOLE    0.2826         C  4 -- H 13         +12.6% ( 39.4%)      9.2%
 TRAVEL      0.1145         C  6 -- H 16         +12.1% ( 38.5%)      0.7%
 RED. MASS   0.3093         C  4 -- H 14         +11.6% ( 37.8%)      6.5%
 EFF. MASS   3.8066

 VIBRATION   31   31A         ATOM PAIR      ENERGY CONTRIBUTION    RADIAL
 FREQ.      1381.67         C  2 -- H  9         +22.6% ( 46.6%)      2.1%
 T-DIPOLE    0.0506         C  2 -- H 10         +22.2% ( 46.1%)      2.6%
 TRAVEL      0.1664         C  3 -- H 11         +21.3% ( 45.2%)      2.0%
 RED. MASS   0.2582         C  3 -- H 12         +20.4% ( 44.2%)      2.8%
 EFF. MASS   1.7620

 VIBRATION   32   32A         ATOM PAIR      ENERGY CONTRIBUTION    RADIAL
 FREQ.      1389.46         C  4 -- C  5         +13.4% ( 47.9%)     91.1%
 T-DIPOLE    0.4027         C  4 -- H 13         +11.6% ( 44.6%)      0.2%
 TRAVEL      0.0934         C  4 -- H 14          +9.2% ( 39.7%)      0.7%
 RED. MASS   0.7690         C  4 -- C  7          +9.0% ( 39.3%)     77.5%
 EFF. MASS   5.5653

 VIBRATION   33   33A         ATOM PAIR      ENERGY CONTRIBUTION    RADIAL
 FREQ.      1508.42         C  4 -- C  7         +21.8% ( 69.8%)     83.9%
 T-DIPOLE    1.7505         C  1 -- C  7         +13.0% ( 53.9%)     98.0%
 TRAVEL      0.0647         C  2 -- C  3         +10.6% ( 48.7%)    100.0%
 RED. MASS   2.2010         C  4 -- H 13          +7.8% ( 41.8%)      2.1%
 EFF. MASS  10.6879

 VIBRATION   34   34A         ATOM PAIR      ENERGY CONTRIBUTION    RADIAL
 FREQ.      1569.86         C  1 -- C  2         +16.3% ( 64.4%)     84.3%
 T-DIPOLE    2.7133         C  1 -- C  3         +16.1% ( 64.0%)     83.9%
 TRAVEL      0.0611         C  1 -- C  7         +15.2% ( 62.2%)     77.1%
 RED. MASS   2.6327         C  2 -- C  3         +15.1% ( 62.0%)    100.0%
 EFF. MASS  11.5031

 VIBRATION   35   35A         ATOM PAIR      ENERGY CONTRIBUTION    RADIAL
 FREQ.      1859.84         C  5 -- C  6         +45.3% ( 99.4%)     99.0%
 T-DIPOLE    0.4242         C  4 -- C  5         +16.7% ( 60.3%)     53.1%
 TRAVEL      0.0554         C  5 -- H 15         +15.4% ( 57.9%)      4.4%
 RED. MASS   5.2857         C  6 -- H 17         +11.0% ( 49.0%)     11.1%
 EFF. MASS  11.7963         C  6 -- H 16         +10.8% ( 48.6%)     12.7%

 VIBRATION   36   36A         ATOM PAIR      ENERGY CONTRIBUTION    RADIAL
 FREQ.      2900.21         C  4 -- H 14         +67.6% ( 84.9%)     98.3%
 T-DIPOLE    0.2960         C  4 -- H 13         +30.4% ( 56.9%)     93.6%
 TRAVEL      0.1242         C  4 -- C  7          +1.0% ( 10.3%)      0.6%
 RED. MASS   0.5817         C  4 -- C  5          +1.0% ( 10.3%)      0.1%
 EFF. MASS   1.5077

 VIBRATION   37   37A         ATOM PAIR      ENERGY CONTRIBUTION    RADIAL
 FREQ.      2976.20         C  4 -- H 13         +54.0% ( 73.1%)     99.2%
 T-DIPOLE    0.2809         C  4 -- H 14         +23.7% ( 48.5%)     93.9%
 TRAVEL      0.1315         C  1 -- H  8         +20.3% ( 44.8%)    100.0%
 RED. MASS   0.3853         C  4 -- C  5          +0.5% (  7.2%)     30.9%
 EFF. MASS   1.3106

 VIBRATION   38   38A         ATOM PAIR      ENERGY CONTRIBUTION    RADIAL
 FREQ.      2982.12         C  1 -- H  8         +77.7% ( 89.1%)    100.0%
 T-DIPOLE    0.1113         C  4 -- H 13         +14.1% ( 37.9%)     99.4%
 TRAVEL      0.1264         C  4 -- H 14          +4.9% ( 22.4%)     91.8%
 RED. MASS   0.6114         C  1 -- C  2          +0.9% (  9.7%)     20.9%
 EFF. MASS   1.4160

 VIBRATION   39   39A         ATOM PAIR      ENERGY CONTRIBUTION    RADIAL
 FREQ.      3046.85         C  5 -- H 15         +96.1% ( 99.4%)    100.0%
 T-DIPOLE    0.3316         C  5 -- C  6          +1.4% ( 12.2%)     32.1%
 TRAVEL      0.1213         C  4 -- C  5          +1.4% ( 11.8%)     13.5%
 RED. MASS   0.9095         C  6 -- H 16          +0.9% (  9.8%)     95.3%
 EFF. MASS   1.5047

 VIBRATION   40   40A         ATOM PAIR      ENERGY CONTRIBUTION    RADIAL
 FREQ.      3082.60         C  3 -- H 11         +26.2% ( 53.1%)     97.4%
 T-DIPOLE    0.0536         C  2 -- H  9         +25.1% ( 51.9%)     97.3%
 TRAVEL      0.1183         C  3 -- H 12         +23.4% ( 50.1%)     96.7%
 RED. MASS   0.2615         C  2 -- H 10         +22.8% ( 49.5%)     96.7%
 EFF. MASS   1.5628

 VIBRATION   41   41A         ATOM PAIR      ENERGY CONTRIBUTION    RADIAL
 FREQ.      3096.90         C  2 -- H  9         +26.4% ( 52.9%)     97.7%
 T-DIPOLE    0.3259         C  3 -- H 11         +25.9% ( 52.4%)     97.8%
 TRAVEL      0.1185         C  2 -- H 10         +23.2% ( 49.6%)     96.9%
 RED. MASS   0.2608         C  3 -- H 12         +21.9% ( 48.2%)     96.8%
 EFF. MASS   1.5497

 VIBRATION   42   42A         ATOM PAIR      ENERGY CONTRIBUTION    RADIAL
 FREQ.      3121.70         C  3 -- H 12         +31.9% ( 56.1%)     96.8%
 T-DIPOLE    0.2532         C  3 -- H 11         +27.9% ( 52.4%)     95.7%
 TRAVEL      0.1306         C  2 -- H 10         +20.3% ( 44.8%)     96.7%
 RED. MASS   0.2536         C  2 -- H  9         +18.7% ( 42.9%)     96.0%
 EFF. MASS   1.2656

 VIBRATION   43   43A         ATOM PAIR      ENERGY CONTRIBUTION    RADIAL
 FREQ.      3123.11         C  2 -- H 10         +31.7% ( 56.1%)     96.6%
 T-DIPOLE    0.1896         C  2 -- H  9         +27.5% ( 52.3%)     95.4%
 TRAVEL      0.1271         C  3 -- H 12         +21.0% ( 45.7%)     96.6%
 RED. MASS   0.2546         C  3 -- H 11         +17.7% ( 41.9%)     95.1%
 EFF. MASS   1.3374

 VIBRATION   44   44A         ATOM PAIR      ENERGY CONTRIBUTION    RADIAL
 FREQ.      3136.05         C  6 -- H 17         +91.4% ( 97.4%)     99.9%
 T-DIPOLE    0.1896         C  6 -- H 16          +7.2% ( 27.4%)     72.7%
 TRAVEL      0.1182         C  5 -- C  6          +1.3% ( 11.7%)     21.6%
 RED. MASS   0.8480
 EFF. MASS   1.5391

 VIBRATION   45   45A         ATOM PAIR      ENERGY CONTRIBUTION    RADIAL
 FREQ.      3149.69         C  6 -- H 16         +91.4% ( 96.2%)     99.7%
 T-DIPOLE    0.2824         C  6 -- H 17          +6.2% ( 25.0%)     44.0%
 TRAVEL      0.1209         C  5 -- C  6          +1.6% ( 12.7%)     74.0%
 RED. MASS   0.8121         C  5 -- H 15          +0.8% (  9.0%)     95.2%
 EFF. MASS   1.4635

      SYMMETRY NUMBER FOR POINT-GROUP C1  =  1


          SYSTEM IS A GROUND STATE



 InChI=1S/C7H10/c1-2-3-4-7-5-6-7/h2,7H,1,3,5-6H2/lp4


          MOLECULE IS NOT LINEAR

          THERE ARE 45 GENUINE VIBRATIONS IN THIS SYSTEM
          THIS THERMODYNAMICS CALCULATION IS LIMITED TO
          MOLECULES WHICH HAVE NO INTERNAL ROTATIONS




                    CALCULATED THERMODYNAMIC PROPERTIES
                                          *
   TEMP. (K)   PARTITION FUNCTION   H.O.F.    ENTHALPY  HEAT CAPACITY ENTROPY
                                   KCAL/MOL   CAL/MOLE    CAL/K/MOL  CAL/K/MOL


 298.00  VIB.     0.1655D+03                  3204.8608    22.3059    20.9076
         ROT.     0.2590D+06                   888.2813     2.9808    27.7508
         INT.     0.4288D+08                  4093.1421    25.2867    48.6584
         TRA.     0.8833D+27                  1480.4688     4.9680    39.5363
         TOT.                      113.572    5573.6110    30.2547    88.1947

 200.00  VIB.     0.2815D+02                  1445.5446    13.8938    13.8601
         ROT.     0.1424D+06                   596.1620     2.9808    26.5621
         INT.     0.4009D+07                  2041.7066    16.8746    40.4222
         TRA.     0.4856D+27                   993.6033     4.9680    37.5551
         TOT.                      111.034    3035.3098    21.8426    77.9773

 210.00  VIB.     0.3375D+02                  1588.2781    14.6574    14.5563
         ROT.     0.1532D+06                   625.9700     2.9808    26.7075
         INT.     0.5172D+07                  2214.2481    17.6382    41.2639
         TRA.     0.5225D+27                  1043.2834     4.9680    37.7975
         TOT.                      111.256    3257.5315    22.6062    79.0614

 220.00  VIB.     0.4045D+02                  1738.7825    15.4478    15.2563
         ROT.     0.1643D+06                   655.7781     2.9808    26.8462
         INT.     0.6646D+07                  2394.5606    18.4286    42.1025
         TRA.     0.5603D+27                  1092.9636     4.9680    38.0286
         TOT.                      111.486    3487.5242    23.3967    80.1312

 230.00  VIB.     0.4846D+02                  1897.3200    16.2638    15.9609
         ROT.     0.1756D+06                   685.5862     2.9808    26.9787
         INT.     0.8511D+07                  2582.9062    19.2446    42.9396
         TRA.     0.5989D+27                  1142.6437     4.9680    38.2495
         TOT.                      111.724    3725.5500    24.2126    81.1891

 240.00  VIB.     0.5804D+02                  2064.1369    17.1034    16.6708
         ROT.     0.1872D+06                   715.3943     2.9808    27.1056
         INT.     0.1087D+08                  2779.5312    20.0842    43.7763
         TRA.     0.6384D+27                  1192.3239     4.9680    38.4609
         TOT.                      111.970    3971.8551    25.0522    82.2373

 250.00  VIB.     0.6950D+02                  2239.4584    17.9643    17.3864
         ROT.     0.1990D+06                   745.2024     2.9808    27.2272
         INT.     0.1383D+08                  2984.6609    20.9451    44.6136
         TRA.     0.6787D+27                  1242.0041     4.9680    38.6637
         TOT.                      112.225    4226.6649    25.9131    83.2773

 260.00  VIB.     0.8324D+02                  2423.4848    18.8439    18.1080
         ROT.     0.2111D+06                   775.0105     2.9808    27.3442
         INT.     0.1757D+08                  3198.4953    21.8247    45.4522
         TRA.     0.7198D+27                  1291.6842     4.9680    38.8586
         TOT.                      112.489    4490.1796    26.7927    84.3107

 270.00  VIB.     0.9971D+02                  2616.3888    19.7393    18.8359
         ROT.     0.2234D+06                   804.8186     2.9808    27.4567
         INT.     0.2227D+08                  3421.2074    22.7201    46.2926
         TRA.     0.7618D+27                  1341.3644     4.9680    39.0461
         TOT.                      112.761    4762.5718    27.6881    85.3386

 280.00  VIB.     0.1195D+03                  2818.3143    20.6477    19.5702
         ROT.     0.2359D+06                   834.6267     2.9808    27.5651
         INT.     0.2818D+08                  3652.9410    23.6285    47.1352
         TRA.     0.8045D+27                  1391.0445     4.9680    39.2267
         TOT.                      113.042    5043.9856    28.5965    86.3620

 290.00  VIB.     0.1432D+03                  3029.3757    21.5660    20.3107
         ROT.     0.2487D+06                   864.4348     2.9808    27.6697
         INT.     0.3560D+08                  3893.8105    24.5468    47.9804
         TRA.     0.8479D+27                  1440.7247     4.9680    39.4011
         TOT.                      113.333    5334.5352    29.5148    87.3815

 300.00  VIB.     0.1717D+03                  3249.6581    22.4914    21.0574
         ROT.     0.2616D+06                   894.2429     2.9808    27.7707
         INT.     0.4492D+08                  4143.9010    25.4722    48.8281
         TRA.     0.8922D+27                  1490.4049     4.9680    39.5695
         TOT.                      113.633    5634.3059    30.4403    88.3977

 310.00  VIB.     0.2059D+03                  3479.2186    23.4212    21.8101
         ROT.     0.2748D+06                   924.0510     2.9808    27.8685
         INT.     0.5659D+08                  4403.2696    26.4020    49.6785
         TRA.     0.9372D+27                  1540.0850     4.9680    39.7324
         TOT.                      113.942    5943.3547    31.3700    89.4109

 320.00  VIB.     0.2471D+03                  3718.0873    24.3526    22.5684
         ROT.     0.2882D+06                   953.8591     2.9808    27.9631
         INT.     0.7123D+08                  4671.9464    27.3335    50.5315
         TRA.     0.9829D+27                  1589.7652     4.9680    39.8901
         TOT.                      114.260    6261.7116    32.3015    90.4216

 330.00  VIB.     0.2968D+03                  3966.2692    25.2834    23.3320
         ROT.     0.3019D+06                   983.6672     2.9808    28.0548
         INT.     0.8958D+08                  4949.9364    28.2642    51.3868
         TRA.     0.1029D+28                  1639.4454     4.9680    40.0430
         TOT.                      114.588    6589.3818    33.2323    91.4298

 340.00  VIB.     0.3566D+03                  4223.7461    26.2113    24.1006
         ROT.     0.3157D+06                  1013.4753     2.9808    28.1438
         INT.     0.1126D+09                  5237.2214    29.1921    52.2444
         TRA.     0.1076D+28                  1689.1255     4.9680    40.1913
         TOT.                      114.925    6926.3470    34.1601    92.4357

 350.00  VIB.     0.4287D+03                  4490.4789    27.1343    24.8737
         ROT.     0.3297D+06                  1043.2834     2.9808    28.2302
         INT.     0.1413D+09                  5533.7623    30.1151    53.1039
         TRA.     0.1124D+28                  1738.8057     4.9680    40.3353
         TOT.                      115.271    7272.5680    35.0831    93.4392

 360.00  VIB.     0.5156D+03                  4766.4094    28.0506    25.6510
         ROT.     0.3439D+06                  1073.0915     2.9808    28.3142
         INT.     0.1774D+09                  5839.5009    31.0314    53.9651
         TRA.     0.1173D+28                  1788.4859     4.9680    40.4753
         TOT.                      115.626    7627.9868    35.9994    94.4404

 370.00  VIB.     0.6207D+03                  5051.4629    28.9586    26.4319
         ROT.     0.3584D+06                  1102.8996     2.9808    28.3958
         INT.     0.2224D+09                  6154.3625    31.9394    54.8278
         TRA.     0.1222D+28                  1838.1660     4.9680    40.6114
         TOT.                      115.991    7992.5285    36.9074    95.4392

 380.00  VIB.     0.7475D+03                  5345.5498    29.8571    27.2161
         ROT.     0.3730D+06                  1132.7077     2.9808    28.4753
         INT.     0.2788D+09                  6478.2575    32.8379    55.6915
         TRA.     0.1272D+28                  1887.8462     4.9680    40.7439
         TOT.                      116.364    8366.1037    37.8059    96.4354

 390.00  VIB.     0.9009D+03                  5648.5681    30.7447    28.0032
         ROT.     0.3878D+06                  1162.5158     2.9808    28.5528
         INT.     0.3494D+09                  6811.0839    33.7255    56.5560
         TRA.     0.1322D+28                  1937.5263     4.9680    40.8729
         TOT.                      116.747    8748.6103    38.6935    97.4289

 400.00  VIB.     0.1086D+04                  5960.4050    31.6206    28.7927
         ROT.     0.4028D+06                  1192.3239     2.9808    28.6282
         INT.     0.4376D+09                  7152.7289    34.6014    57.4209
         TRA.     0.1374D+28                  1987.2065     4.9680    40.9987
         TOT.                      117.138    9139.9354    39.5695    98.4196

   *: NOTE: HEATS OF FORMATION ARE RELATIVE TO THE
            ELEMENTS IN THEIR STANDARD STATE AT 298K
              (=  Standard Enthalpy of Formation).

            Hvib:  Zero-point energy is not included.
                   frequencies of less than zero cm-1 are not included.
            Hrot = (3/2)RT
            Htra = (3/2)RT + pV = (5/2)RT

            Heat capacity is Cp, not Cv

          For more information, see: HTTP://OpenMOPAC.net/Manual/thermochemistry.html


           FORCE CONSTANT IN CARTESIAN COORDINATES (Millidynes/A)

    ATOM   CHEMICAL       X               Y               Z
   NUMBER   SYMBOL  FORCE CONSTANT  FORCE CONSTANT  FORCE CONSTANT

      1       C        8.773076        5.218828        9.845154
      2       C        9.173892        6.815522        8.781769
      3       C        4.302635       11.649915        8.765182
      4       C        9.680265        6.852735        8.630890
      5       C       15.551371        2.591461        8.883123
      6       C       15.396716        2.202000        8.870833
      7       C        6.952578        2.309812        6.039478
      8       H        1.684732        0.868224        3.709183
      9       H        1.789477        1.018394        3.817504
     10       H        1.728211        1.055754        3.836930
     11       H        0.537188        2.272382        3.814434
     12       H        0.528905        2.253722        3.837174
     13       H        2.021691        0.707677        3.488110
     14       H        0.744483        4.408605        0.576410
     15       H        1.956544        0.417556        3.850718
     16       H        1.993994        0.487661        3.998775
     17       H        2.142456        0.382442        3.939425

 **********************
 *                    *
 * JOB ENDED NORMALLY *
 *                    *
 **********************



 TOTAL JOB TIME:             8.40 SECONDS

 == MOPAC DONE ==
