 *******************************************************************************
 ** Site#: 14399        For non-commercial use only    Version 18.184L 64BITS **
 *******************************************************************************
 ** Cite this program as: MOPAC2016, Version: 18.184L, James J. P. Stewart,   **
 ** Stewart Computational Chemistry, web: HTTP://OpenMOPAC.net. Days left:  20**
 *******************************************************************************
 **                                                                           **
 **                                MOPAC2016                                  **
 **                                                                           **
 *******************************************************************************

                              PM3 CALCULATION RESULTS

 *******************************************************************************
 *  CALCULATION DONE:                                Thu Jun 13 15:45:57 2019  *
 *  PM3        - The PM3 Hamiltonian to be used
 *  PRECISE    - CRITERIA TO BE INCREASED BY 100 TIMES
 *  NOSYM      - POINT-GROUP SYMMETRY SET TO C1
 *  THREADS=1  - MULTI-THREADING NOT USED
 *  T=         - A TIME OF 172800.0 SECONDS REQUESTED
 *  DUMP=N     - RESTART FILE WRITTEN EVERY  7200.000 SECONDS
 *******************************************************************************
pm3  precise nosym THREADS=1
 InChI=1S/C9H12/c1-2-6-9-7-4-3-5-8-9/h3-5,7-8H,2,6H2,1H3

   ATOM   CHEMICAL          X               Y               Z
  NUMBER   SYMBOL      (ANGSTROMS)     (ANGSTROMS)     (ANGSTROMS)
 
     1       C         -1.91340000  *   0.17720000  *   0.03810000  *
     2       C         -0.81680000  *  -0.89280000  *   0.09940000  *
     3       C         -3.30040000  *  -0.44750000  *   0.15730000  *
     4       C          0.55230000  *  -0.26940000  *   0.00650000  *
     5       C          1.40470000  *  -0.24870000  *   1.12400000  *
     6       C          0.99560000  *   0.28740000  *  -1.20580000  *
     7       C          2.67570000  *   0.32720000  *   1.03040000  *
     8       C          3.10640000  *   0.88270000  *  -0.17740000  *
     9       C          2.26740000  *   0.86200000  *  -1.29470000  *
    10       H         -1.85270000  *   0.72920000  *  -0.92490000  *
    11       H         -1.77250000  *   0.90310000  *   0.86870000  *
    12       H         -0.91760000  *  -1.46050000  *   1.05080000  *
    13       H         -0.94440000  *  -1.61660000  *  -0.73510000  *
    14       H         -3.40230000  *  -0.97980000  *   1.12700000  *
    15       H         -4.07240000  *   0.34910000  *   0.10710000  *
    16       H         -3.47370000  *  -1.16310000  *  -0.67450000  *
    17       H          1.08570000  *  -0.67310000  *   2.06790000  *
    18       H          3.32700000  *   0.34290000  *   1.89470000  *
    19       H          4.09050000  *   1.32770000  *  -0.24790000  *
    20       H          2.60300000  *   1.29000000  *  -2.23040000  *
    21       H          0.35800000  *   0.27300000  *  -2.08100000  *
 


          CARTESIAN COORDINATES 

    NO.       ATOM           X           Y           Z

     1         C         -1.9134      0.1772      0.0381
     2         C         -0.8168     -0.8928      0.0994
     3         C         -3.3004     -0.4475      0.1573
     4         C          0.5523     -0.2694      0.0065
     5         C          1.4047     -0.2487      1.1240
     6         C          0.9956      0.2874     -1.2058
     7         C          2.6757      0.3272      1.0304
     8         C          3.1064      0.8827     -0.1774
     9         C          2.2674      0.8620     -1.2947
    10         H         -1.8527      0.7292     -0.9249
    11         H         -1.7725      0.9031      0.8687
    12         H         -0.9176     -1.4605      1.0508
    13         H         -0.9444     -1.6166     -0.7351
    14         H         -3.4023     -0.9798      1.1270
    15         H         -4.0724      0.3491      0.1071
    16         H         -3.4737     -1.1631     -0.6745
    17         H          1.0857     -0.6731      2.0679
    18         H          3.3270      0.3429      1.8947
    19         H          4.0905      1.3277     -0.2479
    20         H          2.6030      1.2900     -2.2304
    21         H          0.3580      0.2730     -2.0810

  H: (PM3): J. J. P. STEWART, J. COMP. CHEM. 10, 209 (1989).
  C: (PM3): J. J. P. STEWART, J. COMP. CHEM. 10, 209 (1989).

           Empirical Formula: C9 H12  =    21 atoms



      MOLECULAR POINT GROUP   :   C1  


      RHF CALCULATION, NO. OF DOUBLY OCCUPIED LEVELS = 24


          Geometry optimization using EF

          DIAGONAL MATRIX USED AS START HESSIAN

 CYCLE:     1 TIME:   0.031 TIME LEFT:  2.00D  GRAD.:    60.627 HEAT:  5.388316
 CYCLE:     2 TIME:   0.051 TIME LEFT:  2.00D  GRAD.:    54.565 HEAT:  4.875510
 CYCLE:     3 TIME:   0.020 TIME LEFT:  2.00D  GRAD.:    30.337 HEAT:  4.349717
 CYCLE:     4 TIME:   0.031 TIME LEFT:  2.00D  GRAD.:    36.040 HEAT:  4.293595
 CYCLE:     5 TIME:   0.027 TIME LEFT:  2.00D  GRAD.:    14.240 HEAT:  4.085548
 CYCLE:     6 TIME:   0.031 TIME LEFT:  2.00D  GRAD.:    11.628 HEAT:  4.052870
 CYCLE:     7 TIME:   0.027 TIME LEFT:  2.00D  GRAD.:     7.242 HEAT:  4.020443
 CYCLE:     8 TIME:   0.027 TIME LEFT:  2.00D  GRAD.:    10.094 HEAT:  4.003054
 CYCLE:     9 TIME:   0.043 TIME LEFT:  2.00D  GRAD.:     6.871 HEAT:  3.983243
 CYCLE:    10 TIME:   0.035 TIME LEFT:  2.00D  GRAD.:     3.462 HEAT:  3.970657
 CYCLE:    11 TIME:   0.027 TIME LEFT:  2.00D  GRAD.:     4.148 HEAT:  3.962655
 CYCLE:    12 TIME:   0.020 TIME LEFT:  2.00D  GRAD.:     4.527 HEAT:  3.952574
 CYCLE:    13 TIME:   0.039 TIME LEFT:  2.00D  GRAD.:     5.869 HEAT:  3.951379
 CYCLE:    14 TIME:   0.039 TIME LEFT:  2.00D  GRAD.:     6.077 HEAT:  3.947946
 CYCLE:    15 TIME:   0.027 TIME LEFT:  2.00D  GRAD.:     6.651 HEAT:  3.947606
 CYCLE:    16 TIME:   0.027 TIME LEFT:  2.00D  GRAD.:     5.779 HEAT:  3.943924
 CYCLE:    17 TIME:   0.031 TIME LEFT:  2.00D  GRAD.:     6.430 HEAT:  3.943631
 CYCLE:    18 TIME:   0.027 TIME LEFT:  2.00D  GRAD.:     4.041 HEAT:  3.935854
 CYCLE:    19 TIME:   0.031 TIME LEFT:  2.00D  GRAD.:     4.493 HEAT:  3.934668
 CYCLE:    20 TIME:   0.027 TIME LEFT:  2.00D  GRAD.:     2.105 HEAT:  3.928937
 CYCLE:    21 TIME:   0.027 TIME LEFT:  2.00D  GRAD.:     3.104 HEAT:  3.928808
 CYCLE:    22 TIME:   0.027 TIME LEFT:  2.00D  GRAD.:     3.398 HEAT:  3.926788
 CYCLE:    23 TIME:   0.031 TIME LEFT:  2.00D  GRAD.:     2.164 HEAT:  3.923407
 CYCLE:    24 TIME:   0.027 TIME LEFT:  2.00D  GRAD.:     1.971 HEAT:  3.921529
 CYCLE:    25 TIME:   0.031 TIME LEFT:  2.00D  GRAD.:     2.657 HEAT:  3.920833
 CYCLE:    26 TIME:   0.023 TIME LEFT:  2.00D  GRAD.:     1.592 HEAT:  3.918975
 CYCLE:    27 TIME:   0.031 TIME LEFT:  2.00D  GRAD.:     2.238 HEAT:  3.919107
 CYCLE:    28 TIME:   0.027 TIME LEFT:  2.00D  GRAD.:     0.884 HEAT:  3.917373
 CYCLE:    29 TIME:   0.031 TIME LEFT:  2.00D  GRAD.:     1.496 HEAT:  3.917211
 CYCLE:    30 TIME:   0.031 TIME LEFT:  2.00D  GRAD.:     0.721 HEAT:  3.916159
 CYCLE:    31 TIME:   0.035 TIME LEFT:  2.00D  GRAD.:     0.805 HEAT:  3.915102
 CYCLE:    32 TIME:   0.027 TIME LEFT:  2.00D  GRAD.:     0.861 HEAT:  3.914275
 CYCLE:    33 TIME:   0.023 TIME LEFT:  2.00D  GRAD.:     0.719 HEAT:  3.913508
 CYCLE:    34 TIME:   0.031 TIME LEFT:  2.00D  GRAD.:     0.811 HEAT:  3.912581
 CYCLE:    35 TIME:   0.027 TIME LEFT:  2.00D  GRAD.:     0.872 HEAT:  3.911665
 CYCLE:    36 TIME:   0.031 TIME LEFT:  2.00D  GRAD.:     0.931 HEAT:  3.910045
 CYCLE:    37 TIME:   0.027 TIME LEFT:  2.00D  GRAD.:     0.912 HEAT:  3.907834
 CYCLE:    38 TIME:   0.035 TIME LEFT:  2.00D  GRAD.:     1.208 HEAT:  3.904492
 CYCLE:    39 TIME:   0.027 TIME LEFT:  2.00D  GRAD.:     1.252 HEAT:  3.901548
 CYCLE:    40 TIME:   0.027 TIME LEFT:  2.00D  GRAD.:     1.322 HEAT:  3.898054
 CYCLE:    41 TIME:   0.031 TIME LEFT:  2.00D  GRAD.:     0.997 HEAT:  3.896226
 CYCLE:    42 TIME:   0.023 TIME LEFT:  2.00D  GRAD.:     1.055 HEAT:  3.892984
 CYCLE:    43 TIME:   0.031 TIME LEFT:  2.00D  GRAD.:     1.040 HEAT:  3.890178
 CYCLE:    44 TIME:   0.027 TIME LEFT:  2.00D  GRAD.:     0.934 HEAT:  3.887727
 CYCLE:    45 TIME:   0.031 TIME LEFT:  2.00D  GRAD.:     0.703 HEAT:  3.886361
 CYCLE:    46 TIME:   0.027 TIME LEFT:  2.00D  GRAD.:     0.617 HEAT:  3.885516
 CYCLE:    47 TIME:   0.031 TIME LEFT:  2.00D  GRAD.:     0.517 HEAT:  3.884782
 CYCLE:    48 TIME:   0.027 TIME LEFT:  2.00D  GRAD.:     0.536 HEAT:  3.883875
 CYCLE:    49 TIME:   0.027 TIME LEFT:  2.00D  GRAD.:     0.630 HEAT:  3.882902
 CYCLE:    50 TIME:   0.031 TIME LEFT:  2.00D  GRAD.:     0.652 HEAT:  3.882114
 CYCLE:    51 TIME:   0.027 TIME LEFT:  2.00D  GRAD.:     0.670 HEAT:  3.881171
 CYCLE:    52 TIME:   0.027 TIME LEFT:  2.00D  GRAD.:     0.760 HEAT:  3.880041
 CYCLE:    53 TIME:   0.027 TIME LEFT:  2.00D  GRAD.:     0.952 HEAT:  3.878160
 CYCLE:    54 TIME:   0.031 TIME LEFT:  2.00D  GRAD.:     1.220 HEAT:  3.875888
 CYCLE:    55 TIME:   0.027 TIME LEFT:  2.00D  GRAD.:     1.052 HEAT:  3.873358
 CYCLE:    56 TIME:   0.027 TIME LEFT:  2.00D  GRAD.:     1.015 HEAT:  3.871262
 CYCLE:    57 TIME:   0.027 TIME LEFT:  2.00D  GRAD.:     0.837 HEAT:  3.869376
 CYCLE:    58 TIME:   0.031 TIME LEFT:  2.00D  GRAD.:     0.833 HEAT:  3.868380
 CYCLE:    59 TIME:   0.027 TIME LEFT:  2.00D  GRAD.:     0.436 HEAT:  3.867499
 CYCLE:    60 TIME:   0.031 TIME LEFT:  2.00D  GRAD.:     0.278 HEAT:  3.867086
 CYCLE:    61 TIME:   0.027 TIME LEFT:  2.00D  GRAD.:     0.269 HEAT:  3.866935
 CYCLE:    62 TIME:   0.027 TIME LEFT:  2.00D  GRAD.:     0.242 HEAT:  3.866787
 CYCLE:    63 TIME:   0.027 TIME LEFT:  2.00D  GRAD.:     0.234 HEAT:  3.866623
 CYCLE:    64 TIME:   0.031 TIME LEFT:  2.00D  GRAD.:     0.247 HEAT:  3.866493
 CYCLE:    65 TIME:   0.027 TIME LEFT:  2.00D  GRAD.:     0.197 HEAT:  3.866408
 CYCLE:    66 TIME:   0.027 TIME LEFT:  2.00D  GRAD.:     0.195 HEAT:  3.866316
 CYCLE:    67 TIME:   0.027 TIME LEFT:  2.00D  GRAD.:     0.192 HEAT:  3.866235
 CYCLE:    68 TIME:   0.031 TIME LEFT:  2.00D  GRAD.:     0.221 HEAT:  3.866097
 CYCLE:    69 TIME:   0.027 TIME LEFT:  2.00D  GRAD.:     0.368 HEAT:  3.865879
 CYCLE:    70 TIME:   0.031 TIME LEFT:  2.00D  GRAD.:     0.302 HEAT:  3.865751
 CYCLE:    71 TIME:   0.027 TIME LEFT:  2.00D  GRAD.:     0.785 HEAT:  3.865811
 CYCLE:    72 TIME:   0.027 TIME LEFT:  2.00D  GRAD.:     0.311 HEAT:  3.865216
 CYCLE:    73 TIME:   0.027 TIME LEFT:  2.00D  GRAD.:     0.267 HEAT:  3.865072
 CYCLE:    74 TIME:   0.027 TIME LEFT:  2.00D  GRAD.:     0.371 HEAT:  3.863943
 CYCLE:    75 TIME:   0.035 TIME LEFT:  2.00D  GRAD.:     0.478 HEAT:  3.863209
 CYCLE:    76 TIME:   0.031 TIME LEFT:  2.00D  GRAD.:     0.473 HEAT:  3.862531
 CYCLE:    77 TIME:   0.027 TIME LEFT:  2.00D  GRAD.:     0.455 HEAT:  3.861988
 CYCLE:    78 TIME:   0.027 TIME LEFT:  2.00D  GRAD.:     0.401 HEAT:  3.861591
 CYCLE:    79 TIME:   0.031 TIME LEFT:  2.00D  GRAD.:     0.486 HEAT:  3.860798
 CYCLE:    80 TIME:   0.027 TIME LEFT:  2.00D  GRAD.:     0.307 HEAT:  3.860529
 CYCLE:    81 TIME:   0.027 TIME LEFT:  2.00D  GRAD.:     0.226 HEAT:  3.860159
 CYCLE:    82 TIME:   0.035 TIME LEFT:  2.00D  GRAD.:     0.201 HEAT:  3.860067
 CYCLE:    83 TIME:   0.031 TIME LEFT:  2.00D  GRAD.:     0.174 HEAT:  3.859834
 CYCLE:    84 TIME:   0.027 TIME LEFT:  2.00D  GRAD.:     0.235 HEAT:  3.859725
 CYCLE:    85 TIME:   0.027 TIME LEFT:  2.00D  GRAD.:     0.152 HEAT:  3.859676
 CYCLE:    86 TIME:   0.031 TIME LEFT:  2.00D  GRAD.:     0.094 HEAT:  3.859623
 CYCLE:    87 TIME:   0.027 TIME LEFT:  2.00D  GRAD.:     0.046 HEAT:  3.859616

     GRADIENT =  0.04600  IS LESS THAN CUTOFF =  0.05000



 -------------------------------------------------------------------------------
 pm3  precise nosym THREADS=1
 InChI=1S/C9H12/c1-2-6-9-7-4-3-5-8-9/h3-5,7-8H,2,6H2,1H3



     GEOMETRY OPTIMISED USING EIGENVECTOR FOLLOWING (EF).     
     SCF FIELD WAS ACHIEVED                                   


                              PM3 CALCULATION
                                                       MOPAC2016 (Version: 18.184L)
                                                       Thu Jun 13 15:45:59 2019
                                                       No. of days remaining =  20




          FINAL HEAT OF FORMATION =          3.85962 KCAL/MOL =      16.14863 KJ/MOL


          TOTAL ENERGY            =      -1251.58852 EV
          ELECTRONIC ENERGY       =      -6398.71522 EV  POINT GROUP:     C1  
          CORE-CORE REPULSION     =       5147.12671 EV
          COSMO AREA              =        175.57 SQUARE ANGSTROMS
          COSMO VOLUME            =        173.13 CUBIC ANGSTROMS

          GRADIENT NORM           =          0.04600 = 0.01004 PER ATOM
          IONIZATION POTENTIAL    =          9.516539 EV
          HOMO LUMO ENERGIES (EV) =         -9.517  0.364
          NO. OF FILLED LEVELS    =         24
          MOLECULAR WEIGHT        =        120.1938

          MOLECULAR DIMENSIONS (Angstroms)

            Atom       Atom       Distance
            H    19    H    15     8.20040
            H    20    H    17     4.44025
            H    13    H    11     2.83691


          SCF CALCULATIONS        =         97
 
          WALL-CLOCK TIME         =          2.617 SECONDS
          COMPUTATION TIME        =          1.219 SECONDS




   ATOM   CHEMICAL          X               Y               Z
  NUMBER   SYMBOL      (ANGSTROMS)     (ANGSTROMS)     (ANGSTROMS)
 
     1       C         -1.88590653  *   0.17491804  *   0.15913025  *
     2       C         -0.80989161  *  -0.89152070  *   0.00159801  *
     3       C         -3.26697248  *  -0.43827385  *   0.20665211  *
     4       C          0.55019243  *  -0.27474344  *  -0.05219721  *
     5       C          1.32426226  *  -0.17176796  *   1.10432685  *
     6       C          1.05362502  *   0.20718883  *  -1.26179045  *
     7       C          2.58809317  *   0.40538458  *   1.04972173  *
     8       C          3.08631204  *   0.88302596  *  -0.15761428  *
     9       C          2.31746062  *   0.78352263  *  -1.31259649  *
    10       H         -1.81838108  *   0.89923692  *  -0.67686561  *
    11       H         -1.69830810  *   0.76306451  *   1.07902808  *
    12       H         -0.86926094  *  -1.61644690  *   0.83842249  *
    13       H         -0.99239059  *  -1.48195770  *  -0.91896296  *
    14       H         -3.37230782  *  -1.13508481  *   1.04891410  *
    15       H         -4.04026993  *   0.33219026  *   0.31958553  *
    16       H         -3.49373653  *  -0.99901787  *  -0.70998807  *
    17       H          0.93404442  *  -0.54729078  *   2.05703517  *
    18       H          3.19158246  *   0.48319839  *   1.95984937  *
    19       H          4.08189145  *   1.33618784  *  -0.19911669  *
    20       H          2.70777087  *   1.15913312  *  -2.26398017  *
    21       H          0.44741715  *   0.12995016  *  -2.17147213  *

                             CARTESIAN COORDINATES

   1    C       -1.885906531     0.174918044     0.159130249
   2    C       -0.809891607    -0.891520695     0.001598013
   3    C       -3.266972484    -0.438273850     0.206652108
   4    C        0.550192430    -0.274743445    -0.052197210
   5    C        1.324262257    -0.171767962     1.104326854
   6    C        1.053625018     0.207188828    -1.261790446
   7    C        2.588093170     0.405384581     1.049721728
   8    C        3.086312035     0.883025957    -0.157614284
   9    C        2.317460620     0.783522633    -1.312596495
  10    H       -1.818381079     0.899236919    -0.676865615
  11    H       -1.698308104     0.763064512     1.079028076
  12    H       -0.869260941    -1.616446902     0.838422495
  13    H       -0.992390586    -1.481957702    -0.918962962
  14    H       -3.372307817    -1.135084808     1.048914103
  15    H       -4.040269928     0.332190264     0.319585527
  16    H       -3.493736527    -0.999017872    -0.709988066
  17    H        0.934044416    -0.547290775     2.057035173
  18    H        3.191582458     0.483198393     1.959849366
  19    H        4.081891453     1.336187843    -0.199116694
  20    H        2.707770866     1.159133118    -2.263980174
  21    H        0.447417154     0.129950158    -2.171472125


           Empirical Formula: C9 H12  =    21 atoms



      MOLECULAR POINT GROUP   :   C1  


                  EIGENVALUES  
 -40.47121 -36.10620 -30.20044 -29.61348 -25.31194 -21.68462 -21.51420 -20.33854
 -17.90928 -16.78661 -15.57732 -15.42758 -14.89923 -14.64963 -14.58522 -13.40856
 -13.04922 -12.94510 -12.40347 -12.30385 -12.24552 -11.48267  -9.72357  -9.51654
   0.36412   0.43661   2.81323   3.17768   3.43689   3.47929   3.60916   3.72166
   3.79388   3.96340   4.02547   4.04277   4.18089   4.32432   4.37528   4.86716
   4.87716   4.95361   5.06664   5.19910   5.31121   5.36524   6.17776   6.37568


              NET ATOMIC CHARGES AND DIPOLE CONTRIBUTIONS

  ATOM NO.   TYPE          CHARGE      No. of ELECS.   s-Pop       p-Pop       
    1          C          -0.096697        4.0967     1.15856     2.93814
    2          C          -0.056176        4.0562     1.14936     2.90682
    3          C          -0.109923        4.1099     1.13843     2.97149
    4          C          -0.077740        4.0777     1.18379     2.89395
    5          C          -0.099181        4.0992     1.17890     2.92028
    6          C          -0.099898        4.0999     1.17874     2.92115
    7          C          -0.100201        4.1002     1.17887     2.92133
    8          C          -0.106149        4.1061     1.17923     2.92691
    9          C          -0.099863        4.0999     1.17875     2.92111
   10          H           0.052084        0.9479     0.94792
   11          H           0.052467        0.9475     0.94753
   12          H           0.054998        0.9450     0.94500
   13          H           0.055433        0.9446     0.94457
   14          H           0.037662        0.9623     0.96234
   15          H           0.038300        0.9617     0.96170
   16          H           0.037578        0.9624     0.96242
   17          H           0.105527        0.8945     0.89447
   18          H           0.101874        0.8981     0.89813
   19          H           0.102354        0.8976     0.89765
   20          H           0.101893        0.8981     0.89811
   21          H           0.105658        0.8943     0.89434
 DIPOLE           X         Y         Z       TOTAL
 POINT-CHG.    -0.220    -0.025     0.014     0.222
 HYBRID         0.005     0.004    -0.001     0.007
 SUM           -0.214    -0.021     0.012     0.216


          ATOMIC ORBITAL ELECTRON POPULATIONS

     Atom    s        px        py        pz   
    1  C   1.15856   0.94301   0.97367   1.02145
    2  C   1.14936   0.91957   0.96692   1.02033
    3  C   1.13843   0.96138   1.00098   1.00913
    4  C   1.18379   0.95942   0.98759   0.94693
    5  C   1.17890   0.95359   0.99833   0.96835
    6  C   1.17874   0.96261   0.99175   0.96680
    7  C   1.17887   0.96174   0.98820   0.97139
    8  C   1.17923   0.98524   0.99881   0.94287
    9  C   1.17875   0.95436   0.99281   0.97394
   10  H   0.94792
   11  H   0.94753
   12  H   0.94500
   13  H   0.94457
   14  H   0.96234
   15  H   0.96170
   16  H   0.96242
   17  H   0.89447
   18  H   0.89813
   19  H   0.89765
   20  H   0.89811
   21  H   0.89434
 *******************************************************************************
 ** Site#: 14399        For non-commercial use only    Version 18.184L 64BITS **
 *******************************************************************************
 ** Cite this program as: MOPAC2016, Version: 18.184L, James J. P. Stewart,   **
 ** Stewart Computational Chemistry, web: HTTP://OpenMOPAC.net. Days left:  20**
 *******************************************************************************
 **                                                                           **
 **                                MOPAC2016                                  **
 **                                                                           **
 *******************************************************************************

                              PM3 CALCULATION RESULTS

 *******************************************************************************
 *  CALCULATION DONE:                                Thu Jun 13 15:45:59 2019  *
 *  PM3        - The PM3 Hamiltonian to be used
 *  OLDGEO     - PREVIOUS GEOMETRY TO BE USED
 *  PRECISE    - CRITERIA TO BE INCREASED BY 100 TIMES
 *  NOSYM      - POINT-GROUP SYMMETRY SET TO C1
 *  THREADS=1  - MULTI-THREADING NOT USED
 *  T=         - A TIME OF 172800.0 SECONDS REQUESTED
 *  DUMP=N     - RESTART FILE WRITTEN EVERY  7200.000 SECONDS
 *  THERMO     - THERMODYNAMIC QUANTITIES TO BE CALCULATED
 *******************************************************************************
oldgeo thermo nosym precise THREADS=1  pm3
 InChI=1S/C9H12/c1-2-6-9-7-4-3-5-8-9/h3-5,7-8H,2,6H2,1H3

   ATOM   CHEMICAL          X               Y               Z
  NUMBER   SYMBOL      (ANGSTROMS)     (ANGSTROMS)     (ANGSTROMS)
 
     1       C         -1.88590653  *   0.17491804  *   0.15913025  *
     2       C         -0.80989161  *  -0.89152070  *   0.00159801  *
     3       C         -3.26697248  *  -0.43827385  *   0.20665211  *
     4       C          0.55019243  *  -0.27474344  *  -0.05219721  *
     5       C          1.32426226  *  -0.17176796  *   1.10432685  *
     6       C          1.05362502  *   0.20718883  *  -1.26179045  *
     7       C          2.58809317  *   0.40538458  *   1.04972173  *
     8       C          3.08631204  *   0.88302596  *  -0.15761428  *
     9       C          2.31746062  *   0.78352263  *  -1.31259649  *
    10       H         -1.81838108  *   0.89923692  *  -0.67686561  *
    11       H         -1.69830810  *   0.76306451  *   1.07902808  *
    12       H         -0.86926094  *  -1.61644690  *   0.83842249  *
    13       H         -0.99239059  *  -1.48195770  *  -0.91896296  *
    14       H         -3.37230782  *  -1.13508481  *   1.04891410  *
    15       H         -4.04026993  *   0.33219026  *   0.31958553  *
    16       H         -3.49373653  *  -0.99901787  *  -0.70998807  *
    17       H          0.93404442  *  -0.54729078  *   2.05703517  *
    18       H          3.19158246  *   0.48319839  *   1.95984937  *
    19       H          4.08189145  *   1.33618784  *  -0.19911669  *
    20       H          2.70777087  *   1.15913312  *  -2.26398017  *
    21       H          0.44741715  *   0.12995016  *  -2.17147213  *
 


          CARTESIAN COORDINATES 

    NO.       ATOM           X           Y           Z

     1         C         -1.8859      0.1749      0.1591
     2         C         -0.8099     -0.8915      0.0016
     3         C         -3.2670     -0.4383      0.2067
     4         C          0.5502     -0.2747     -0.0522
     5         C          1.3243     -0.1718      1.1043
     6         C          1.0536      0.2072     -1.2618
     7         C          2.5881      0.4054      1.0497
     8         C          3.0863      0.8830     -0.1576
     9         C          2.3175      0.7835     -1.3126
    10         H         -1.8184      0.8992     -0.6769
    11         H         -1.6983      0.7631      1.0790
    12         H         -0.8693     -1.6164      0.8384
    13         H         -0.9924     -1.4820     -0.9190
    14         H         -3.3723     -1.1351      1.0489
    15         H         -4.0403      0.3322      0.3196
    16         H         -3.4937     -0.9990     -0.7100
    17         H          0.9340     -0.5473      2.0570
    18         H          3.1916      0.4832      1.9598
    19         H          4.0819      1.3362     -0.1991
    20         H          2.7078      1.1591     -2.2640
    21         H          0.4474      0.1300     -2.1715

  H: (PM3): J. J. P. STEWART, J. COMP. CHEM. 10, 209 (1989).
  C: (PM3): J. J. P. STEWART, J. COMP. CHEM. 10, 209 (1989).

           Empirical Formula: C9 H12  =    21 atoms



      MOLECULAR POINT GROUP   :   C1  


      RHF CALCULATION, NO. OF DOUBLY OCCUPIED LEVELS = 24



          HEAT OF FORMATION =       3.859615 KCALS/MOLE


          CARTESIAN COORDINATE DERIVATIVES

   NUMBER  ATOM         X            Y            Z

     1       C      0.010530     0.001274     0.000254
     2       C     -0.003488     0.002766    -0.001629
     3       C     -0.004381     0.005260     0.002736
     4       C      0.001462    -0.003810     0.003977
     5       C     -0.000623    -0.002738    -0.002425
     6       C     -0.005992    -0.008542    -0.003995
     7       C      0.004940     0.001449     0.006187
     8       C      0.005282     0.001839    -0.000437
     9       C      0.009035    -0.010816    -0.004119
    10       H      0.004454    -0.001564    -0.005369
    11       H      0.006768     0.002720     0.003745
    12       H      0.006231     0.001315     0.005052
    13       H      0.003116     0.000263    -0.009963
    14       H      0.004852    -0.008488     0.001766
    15       H     -0.006928    -0.009133     0.004884
    16       H     -0.008255     0.020561    -0.000597
    17       H     -0.004984     0.000630     0.001822
    18       H     -0.008265    -0.001335     0.004033
    19       H      0.001835    -0.001306    -0.005352
    20       H     -0.003923     0.009582     0.000982
    21       H     -0.011665     0.000073    -0.001552
 


          GRADIENT NORM =   0.04589


          TIME FOR SCF CALCULATION =    0.02

          TIME FOR DERIVATIVES     =    0.01

          MOLECULAR WEIGHT =  120.19



          ROTATIONAL CONSTANTS IN CM(-1)

          A =    0.14569104   B =    0.02915192   C =    0.02596873



           PRINCIPAL MOMENTS OF INERTIA IN UNITS OF 10**(-40)*GRAM-CM**2

          A =      192.1379   B =      960.2378   C =     1077.9414


          ORIENTATION OF MOLECULE IN FORCE CALCULATION

    NO.       ATOM         X         Y         Z

     1          C      -1.7510    1.5670   -0.0119
     2          C      -0.2279    1.5670   -0.0119
     3          C      -2.3022    2.9748   -0.0119
     4          C       0.3067    0.1715   -0.0039
     5          C       0.6618   -0.4546   -1.1994
     6          C       0.4500   -0.5170    1.2020
     7          C       1.1562   -1.7541   -1.1871
     8          C       1.2986   -2.4360    0.0166
     9          C       0.9446   -1.8160    1.2104
    10          H      -2.1240    1.0110    0.8712
    11          H      -2.1254    1.0112   -0.8941
    12          H       0.1512    2.1177   -0.8964
    13          H       0.1518    2.1208    0.8704
    14          H      -1.9759    3.5378   -0.8965
    15          H      -3.3996    2.9719   -0.0113
    16          H      -1.9750    3.5387    0.8719
    17          H       0.5505    0.0804   -2.1493
    18          H       1.4339   -2.2406   -2.1277
    19          H       1.6889   -3.4586    0.0247
    20          H       1.0557   -2.3511    2.1590
    21          H       0.1699   -0.0290    2.1424


    FIRST DERIVATIVES WILL BE USED IN THE CALCULATION OF SECOND DERIVATIVES

          ESTIMATED TIME TO COMPLETE CALCULATION =        8.86 SECONDS

    FOR POINT-GROUP C1   THERE ARE   1 UNIQUE SYMMETRY FUNCTIONS.

 STEP:   1 TIME =     0.05 SECS, INTEGRAL =      0.05 TIME LEFT: 172799.91
 STEP:   2 TIME =     0.05 SECS, INTEGRAL =      0.10 TIME LEFT: 172799.87
 STEP:   3 TIME =     0.04 SECS, INTEGRAL =      0.14 TIME LEFT: 172799.82
 STEP:   4 TIME =     0.05 SECS, INTEGRAL =      0.19 TIME LEFT: 172799.77
 STEP:   5 TIME =     0.05 SECS, INTEGRAL =      0.25 TIME LEFT: 172799.72
 STEP:   6 TIME =     0.04 SECS, INTEGRAL =      0.29 TIME LEFT: 172799.68
 STEP:   7 TIME =     0.04 SECS, INTEGRAL =      0.33 TIME LEFT: 172799.63
 STEP:   8 TIME =     0.04 SECS, INTEGRAL =      0.37 TIME LEFT: 172799.59
 STEP:   9 TIME =     0.04 SECS, INTEGRAL =      0.41 TIME LEFT: 172799.55
 STEP:  10 TIME =     0.04 SECS, INTEGRAL =      0.45 TIME LEFT: 172799.52
 STEP:  11 TIME =     0.04 SECS, INTEGRAL =      0.49 TIME LEFT: 172799.47
 STEP:  12 TIME =     0.04 SECS, INTEGRAL =      0.54 TIME LEFT: 172799.43
 STEP:  13 TIME =     0.04 SECS, INTEGRAL =      0.58 TIME LEFT: 172799.39
 STEP:  14 TIME =     0.06 SECS, INTEGRAL =      0.64 TIME LEFT: 172799.33
 STEP:  15 TIME =     0.05 SECS, INTEGRAL =      0.68 TIME LEFT: 172799.28
 STEP:  16 TIME =     0.04 SECS, INTEGRAL =      0.73 TIME LEFT: 172799.24
 STEP:  17 TIME =     0.04 SECS, INTEGRAL =      0.77 TIME LEFT: 172799.20
 STEP:  18 TIME =     0.04 SECS, INTEGRAL =      0.81 TIME LEFT: 172799.16
 STEP:  19 TIME =     0.04 SECS, INTEGRAL =      0.85 TIME LEFT: 172799.12
 STEP:  20 TIME =     0.04 SECS, INTEGRAL =      0.89 TIME LEFT: 172799.07
 STEP:  21 TIME =     0.04 SECS, INTEGRAL =      0.93 TIME LEFT: 172799.04
 STEP:  22 TIME =     0.04 SECS, INTEGRAL =      0.97 TIME LEFT: 172799.00
 STEP:  23 TIME =     0.06 SECS, INTEGRAL =      1.03 TIME LEFT: 172798.94
 STEP:  24 TIME =     0.05 SECS, INTEGRAL =      1.07 TIME LEFT: 172798.89
 STEP:  25 TIME =     0.04 SECS, INTEGRAL =      1.11 TIME LEFT: 172798.85
 STEP:  26 TIME =     0.04 SECS, INTEGRAL =      1.16 TIME LEFT: 172798.81
 STEP:  27 TIME =     0.04 SECS, INTEGRAL =      1.20 TIME LEFT: 172798.77
 STEP:  28 TIME =     0.04 SECS, INTEGRAL =      1.24 TIME LEFT: 172798.73
 STEP:  29 TIME =     0.04 SECS, INTEGRAL =      1.28 TIME LEFT: 172798.69
 STEP:  30 TIME =     0.04 SECS, INTEGRAL =      1.32 TIME LEFT: 172798.65
 STEP:  31 TIME =     0.04 SECS, INTEGRAL =      1.36 TIME LEFT: 172798.61
 STEP:  32 TIME =     0.04 SECS, INTEGRAL =      1.39 TIME LEFT: 172798.57
 STEP:  33 TIME =     0.05 SECS, INTEGRAL =      1.45 TIME LEFT: 172798.52
 STEP:  34 TIME =     0.05 SECS, INTEGRAL =      1.50 TIME LEFT: 172798.47
 STEP:  35 TIME =     0.04 SECS, INTEGRAL =      1.54 TIME LEFT: 172798.43
 STEP:  36 TIME =     0.04 SECS, INTEGRAL =      1.57 TIME LEFT: 172798.39
 STEP:  37 TIME =     0.04 SECS, INTEGRAL =      1.61 TIME LEFT: 172798.35
 STEP:  38 TIME =     0.04 SECS, INTEGRAL =      1.65 TIME LEFT: 172798.31
 STEP:  39 TIME =     0.04 SECS, INTEGRAL =      1.69 TIME LEFT: 172798.27
 STEP:  40 TIME =     0.04 SECS, INTEGRAL =      1.73 TIME LEFT: 172798.23
 STEP:  41 TIME =     0.04 SECS, INTEGRAL =      1.77 TIME LEFT: 172798.20
 STEP:  42 TIME =     0.04 SECS, INTEGRAL =      1.81 TIME LEFT: 172798.16
 STEP:  43 TIME =     0.05 SECS, INTEGRAL =      1.86 TIME LEFT: 172798.10
 STEP:  44 TIME =     0.05 SECS, INTEGRAL =      1.91 TIME LEFT: 172798.05
 STEP:  45 TIME =     0.05 SECS, INTEGRAL =      1.96 TIME LEFT: 172798.01
 STEP:  46 TIME =     0.04 SECS, INTEGRAL =      2.00 TIME LEFT: 172797.96
 STEP:  47 TIME =     0.04 SECS, INTEGRAL =      2.04 TIME LEFT: 172797.93
 STEP:  48 TIME =     0.04 SECS, INTEGRAL =      2.08 TIME LEFT: 172797.89
 STEP:  49 TIME =     0.04 SECS, INTEGRAL =      2.12 TIME LEFT: 172797.85
 STEP:  50 TIME =     0.08 SECS, INTEGRAL =      2.20 TIME LEFT: 172797.77
 STEP:  51 TIME =     0.05 SECS, INTEGRAL =      2.25 TIME LEFT: 172797.71
 STEP:  52 TIME =     0.05 SECS, INTEGRAL =      2.30 TIME LEFT: 172797.66
 STEP:  53 TIME =     0.05 SECS, INTEGRAL =      2.35 TIME LEFT: 172797.62
 STEP:  54 TIME =     0.04 SECS, INTEGRAL =      2.39 TIME LEFT: 172797.57
 STEP:  55 TIME =     0.04 SECS, INTEGRAL =      2.43 TIME LEFT: 172797.54
 STEP:  56 TIME =     0.04 SECS, INTEGRAL =      2.47 TIME LEFT: 172797.49
 STEP:  57 TIME =     0.04 SECS, INTEGRAL =      2.51 TIME LEFT: 172797.45
 STEP:  58 TIME =     0.04 SECS, INTEGRAL =      2.55 TIME LEFT: 172797.41
 STEP:  59 TIME =     0.05 SECS, INTEGRAL =      2.60 TIME LEFT: 172797.37
 STEP:  60 TIME =     0.04 SECS, INTEGRAL =      2.64 TIME LEFT: 172797.32
 STEP:  61 TIME =     0.04 SECS, INTEGRAL =      2.68 TIME LEFT: 172797.29
 STEP:  62 TIME =     0.04 SECS, INTEGRAL =      2.72 TIME LEFT: 172797.25
 STEP:  63 TIME =     0.04 SECS, INTEGRAL =      2.76 TIME LEFT: 172797.21

(To convert to Hartree/Bohr^2, multiply by (10^(-21) x N x a0^2)/(4.184 x 627.51) =  0.0642)


           FORCE MATRIX IN MILLIDYNES/ANGSTROM


                  C  1       C  2       C  3       C  4       C  5       C  6
 ------------------------------------------------------------------------------
     C    1  14.326843
     C    2   4.064202  14.654954
     C    3   4.474996   0.663806  14.375354
     C    4   0.684902   4.744479   0.053586  17.663617
     C    5   0.031211   0.697830   0.004347   6.883086  17.523440
     C    6   0.038963   0.699961   0.004206   6.840737   2.298032  17.514875
     C    7   0.013504   0.095270   0.003208   2.390305   7.092949   1.710270
     C    8   0.004289   0.012633   0.001200   1.786380   2.410531   2.411660
     C    9   0.012815   0.094944   0.003281   2.387400   1.706984   7.128916
     H   10   4.458048   0.442928   0.436403   0.028662   0.001927   0.005543
     H   11   4.470002   0.442505   0.436175   0.025771   0.004177   0.002184
     H   12   0.447328   4.436912   0.026981   0.443422   0.050270   0.040432
     H   13   0.449401   4.434641   0.026972   0.437518   0.036646   0.044211
     H   14   0.463167   0.023612   4.722735   0.001746   0.000821   0.001067
     H   15   0.448839   0.051524   4.755055   0.009647   0.001742   0.001695
     H   16   0.463129   0.023620   4.722142   0.001493   0.001348   0.001335
     H   17   0.007461   0.046170   0.001561   0.446434   4.831457   0.082163
     H   18   0.000988   0.007790   0.000499   0.090123   0.434288   0.010912
     H   19   0.001285   0.008364   0.000558   0.007613   0.085942   0.085673
     H   20   0.000895   0.007801   0.000406   0.090986   0.010295   0.435227
     H   21   0.009337   0.045169   0.001947   0.447226   0.082662   4.830975


                  C  7       C  8       C  9       H 10       H 11       H 12
 ------------------------------------------------------------------------------
     C    7  17.445948
     C    8   7.101914  17.358981
     C    9   2.401033   7.079607  17.451528
     H   10   0.000908   0.000831   0.000863   5.072377
     H   11   0.001034   0.000766   0.001265   0.570520   5.083450
     H   12   0.003456   0.001836   0.009195   0.046168   0.024281   5.044439
     H   13   0.009901   0.002850   0.005172   0.024304   0.046194   0.565248
     H   14   0.000772   0.000340   0.001333   0.047541   0.024443   0.018697
     H   15   0.000919   0.000701   0.000992   0.029895   0.029861   0.001802
     H   16   0.001265   0.000458   0.001131   0.024289   0.047603   0.001560
     H   17   0.434652   0.088461   0.009602   0.000623   0.002879   0.029511
     H   18   4.865575   0.436405   0.088087   0.000154   0.000256   0.000529
     H   19   0.435847   4.868879   0.435427   0.000201   0.000200   0.000404
     H   20   0.087714   0.435491   4.866263   0.000310   0.000184   0.001198
     H   21   0.009982   0.088960   0.434927   0.005758   0.000609   0.002547


                  H 13       H 14       H 15       H 16       H 17       H 18
 ------------------------------------------------------------------------------
     H   13   5.040933
     H   14   0.001525   5.466376
     H   15   0.001746   0.573792   5.490785
     H   16   0.018823   0.576930   0.573906   5.466026
     H   17   0.003124   0.000312   0.000288   0.000377   5.202184
     H   18   0.001059   0.000163   0.000167   0.000060   0.041675   5.229173
     H   19   0.000564   0.000117   0.000178   0.000065   0.006613   0.040850
     H   20   0.000505   0.000084   0.000152   0.000149   0.007587   0.006634
     H   21   0.025261   0.000480   0.000364   0.000296   0.006628   0.007575


                  H 19       H 20       H 21
 ------------------------------------------
     H   19   5.236018
     H   20   0.040791   5.229811
     H   21   0.006691   0.041684   5.202662


          HEAT OF FORMATION =       3.859615 KCALS/MOLE

          ZERO POINT ENERGY     114.961 KCAL/MOL


           NORMAL COORDINATE ANALYSIS (Total motion = 1 Angstrom)


   Root No.       1         2         3         4         5         6         7         8

                 1 A       2 A       3 A       4 A       5 A       6 A       7 A       8 A   

                  42.5      84.1     115.0     200.7     276.2     339.6     365.3     369.8
  
           1    0.0006   -0.0005   -0.0243    0.0001    0.0467   -0.0113   -0.0028   -0.0056
           2    0.0003    0.0009    0.0249    0.0002   -0.0003   -0.0627   -0.0001   -0.0014
           3   -0.0231    0.0639   -0.0013   -0.0304    0.0020    0.0000    0.0070    0.0142
           4    0.0006   -0.0005   -0.0253    0.0000    0.0443   -0.0154   -0.0024   -0.0047
           5    0.0005   -0.0004   -0.0200    0.0000    0.0197   -0.0174   -0.0009   -0.0017
           6    0.0434    0.0116   -0.0004    0.0078    0.0064   -0.0006    0.0255    0.0539
           7    0.0005    0.0006    0.0266    0.0002   -0.0069    0.0751   -0.0003    0.0007
           8    0.0002    0.0013    0.0460    0.0002   -0.0256   -0.0336    0.0012    0.0016
           9   -0.0414   -0.0533    0.0009    0.0056    0.0001   -0.0000   -0.0004   -0.0004
          10   -0.0002   -0.0007   -0.0379   -0.0003   -0.0069   -0.0008    0.0010    0.0017
          11    0.0001   -0.0005   -0.0250   -0.0001    0.0009    0.0039   -0.0000    0.0002
          12    0.0251    0.0050   -0.0016    0.0070   -0.0032    0.0010   -0.0200   -0.0421
          13   -0.0296    0.0061   -0.0247   -0.0009   -0.0431   -0.0129    0.0498   -0.0098
          14    0.0070    0.0093   -0.0192    0.0032   -0.0097    0.0198    0.0100   -0.0222
          15    0.0124    0.0018   -0.0009    0.0052   -0.0073   -0.0080   -0.0111   -0.0339
          16    0.0288   -0.0067   -0.0236    0.0006   -0.0451   -0.0149   -0.0447    0.0185
          17   -0.0073   -0.0102   -0.0222   -0.0034   -0.0077    0.0178   -0.0090    0.0242
          18    0.0171    0.0001   -0.0017    0.0050   -0.0041    0.0083   -0.0197   -0.0306
          19   -0.0297    0.0071    0.0228   -0.0010   -0.0140   -0.0123   -0.0408    0.0277
          20    0.0071    0.0096   -0.0012    0.0033    0.0017    0.0229   -0.0265   -0.0127
          21   -0.0078   -0.0064    0.0012    0.0008   -0.0015   -0.0059   -0.0027    0.0050
          22   -0.0002    0.0008    0.0538    0.0001    0.0355   -0.0077   -0.0016   -0.0030
          23   -0.0003   -0.0001    0.0083   -0.0001    0.0240    0.0339   -0.0012   -0.0016
          24   -0.0153   -0.0112    0.0029   -0.0013    0.0053    0.0001    0.0072    0.0151
          25    0.0290   -0.0064    0.0242    0.0011   -0.0150   -0.0121    0.0422   -0.0249
          26   -0.0076   -0.0102   -0.0043   -0.0034    0.0046    0.0217    0.0263    0.0129
          27   -0.0031   -0.0081    0.0007    0.0007    0.0006    0.0055    0.0057    0.0010
          28   -0.0383    0.0292   -0.0436   -0.0163    0.0612   -0.0179   -0.0150   -0.0332
          29   -0.0036    0.0837    0.0362   -0.0275   -0.0127   -0.0567   -0.0008   -0.0035
          30   -0.0422    0.1286   -0.0026   -0.0546    0.0013    0.0003    0.0015    0.0010
          31    0.0395   -0.0310   -0.0425    0.0163    0.0665   -0.0188    0.0075    0.0186
          32    0.0041   -0.0815    0.0395    0.0280   -0.0128   -0.0572    0.0018    0.0032
          33   -0.0422    0.1287   -0.0026   -0.0547    0.0007    0.0005    0.0016    0.0010
          34    0.0391   -0.0311   -0.0127    0.0220    0.0550   -0.0299    0.0125    0.0268
          35    0.0235   -0.0094   -0.0261    0.0111    0.0209   -0.0079    0.0383    0.0786
          36    0.0742   -0.0073    0.0007    0.0245    0.0126   -0.0017    0.0571    0.1193
          37   -0.0379    0.0307   -0.0134   -0.0218    0.0487   -0.0289   -0.0183   -0.0386
          38   -0.0224    0.0081   -0.0286   -0.0110    0.0059   -0.0058   -0.0396   -0.0807
          39    0.0742   -0.0074    0.0003    0.0245    0.0125   -0.0012    0.0574    0.1200
          40    0.0351   -0.0341    0.0490   -0.1932   -0.0317    0.1204    0.0011    0.0033
          41    0.0025   -0.0862    0.0362   -0.0535   -0.0135   -0.0586   -0.0050   -0.0111
          42   -0.0272   -0.1219    0.0028   -0.0994   -0.0011   -0.0002   -0.0039   -0.0077
          43    0.0005    0.0006    0.0266    0.0003   -0.0070    0.0762   -0.0003    0.0008
          44    0.0002    0.0021    0.0869    0.0003   -0.0742    0.0523    0.0037    0.0080
          45   -0.0846   -0.0097   -0.0010    0.2471    0.0006    0.0003   -0.0008   -0.0000
          46   -0.0342    0.0361    0.0459    0.1934   -0.0309    0.1210    0.0007    0.0046
          47   -0.0019    0.0882    0.0321    0.0539   -0.0107   -0.0585    0.0059    0.0107
          48   -0.0272   -0.1220    0.0027   -0.0997   -0.0007   -0.0002   -0.0039   -0.0077
          49   -0.0532    0.0110   -0.0443   -0.0016   -0.0793   -0.0237    0.1335   -0.0328
          50    0.0135    0.0165   -0.0257    0.0064   -0.0222    0.0253    0.0315   -0.0508
          51    0.0188    0.0052   -0.0023    0.0071   -0.0099   -0.0036   -0.0084   -0.0464
          52   -0.0526    0.0128    0.0383   -0.0018   -0.0217   -0.0150   -0.1144    0.0701
          53    0.0129    0.0178    0.0066    0.0062   -0.0038    0.0169   -0.0666   -0.0213
          54   -0.0175   -0.0089    0.0017   -0.0009   -0.0009   -0.0034   -0.0038    0.0217
          55    0.0001    0.0014    0.0977    0.0002    0.0981    0.0009   -0.0047   -0.0082
          56   -0.0003    0.0000    0.0250   -0.0001    0.0478    0.0372   -0.0023   -0.0034
          57   -0.0312   -0.0175    0.0057   -0.0045    0.0131    0.0003    0.0172    0.0375
          58    0.0522   -0.0117    0.0413    0.0022   -0.0230   -0.0126    0.1172   -0.0657
          59   -0.0134   -0.0181    0.0008   -0.0061    0.0022    0.0155    0.0666    0.0226
          60   -0.0091   -0.0120    0.0016   -0.0010    0.0001    0.0018    0.0195    0.0110
          61    0.0524   -0.0123   -0.0423    0.0015   -0.0830   -0.0259   -0.1240    0.0483
          62   -0.0138   -0.0176   -0.0315   -0.0067   -0.0180    0.0224   -0.0291    0.0556
          63    0.0275    0.0023   -0.0025    0.0070   -0.0099    0.0026   -0.0325   -0.0371


   Root No.       9        10        11        12        13        14        15        16

                 9 A      10 A      11 A      12 A      13 A      14 A      15 A      16 A   

                 492.3     597.5     632.8     665.5     782.3     789.1     850.1     876.4
  
           1   -0.0259    0.0063    0.0015   -0.0085   -0.0079    0.0018   -0.0002   -0.0146
           2   -0.0048    0.0146    0.0003    0.0028   -0.0024    0.0006   -0.0001   -0.0061
           3   -0.0002   -0.0001   -0.0037   -0.0001    0.0063    0.0264    0.0000   -0.0003
           4   -0.0179    0.0070    0.0003   -0.0009    0.0019   -0.0005   -0.0000    0.0053
           5    0.0117   -0.0556    0.0008   -0.0186    0.0007   -0.0003    0.0008    0.0563
           6    0.0004    0.0001   -0.0138    0.0010    0.0057    0.0181   -0.0006    0.0009
           7   -0.0007   -0.0157    0.0006   -0.0088   -0.0043    0.0010   -0.0000   -0.0085
           8    0.0103    0.0124   -0.0003    0.0119    0.0055   -0.0013   -0.0001   -0.0027
           9   -0.0000   -0.0001   -0.0005   -0.0001    0.0002    0.0016   -0.0001   -0.0002
          10    0.0562    0.0124   -0.0000    0.0725    0.0377   -0.0089   -0.0003   -0.0102
          11    0.0342   -0.0460    0.0006    0.0075    0.0086   -0.0022    0.0001    0.0025
          12    0.0047   -0.0005   -0.0349    0.0056    0.0028   -0.0022   -0.0004   -0.0008
          13    0.0126    0.0190   -0.0190   -0.0129   -0.0088    0.0025    0.0302   -0.0008
          14   -0.0023    0.0085    0.0665   -0.0077   -0.0071    0.0012    0.0114   -0.0239
          15    0.0092   -0.0293   -0.0621   -0.0149   -0.0073   -0.0033    0.0025   -0.0031
          16    0.0140    0.0138    0.0312   -0.0144   -0.0100    0.0014   -0.0299   -0.0004
          17   -0.0009    0.0071   -0.0627   -0.0097   -0.0074    0.0020   -0.0117   -0.0236
          18   -0.0095    0.0315   -0.0622    0.0087    0.0015   -0.0055   -0.0033    0.0019
          19   -0.0326   -0.0164   -0.0330    0.0258   -0.0127    0.0032    0.0297    0.0166
          20   -0.0220    0.0013    0.0665    0.0087   -0.0090    0.0009    0.0111   -0.0223
          21    0.0041   -0.0301    0.0715   -0.0102   -0.0091    0.0015    0.0027   -0.0420
          22    0.0505   -0.0006   -0.0024   -0.0226   -0.0260    0.0056    0.0002   -0.0051
          23   -0.0031    0.0563   -0.0015    0.0121   -0.0009    0.0001    0.0005    0.0435
          24    0.0046    0.0014    0.0399   -0.0010   -0.0018    0.0014    0.0005    0.0007
          25   -0.0314   -0.0216    0.0194    0.0240   -0.0146    0.0025   -0.0295    0.0095
          26   -0.0207    0.0001   -0.0707    0.0067   -0.0091    0.0032   -0.0117   -0.0247
          27   -0.0111    0.0267    0.0715    0.0165    0.0062   -0.0022   -0.0022    0.0431
          28   -0.0313   -0.0081    0.0125   -0.0194   -0.0360   -0.0930    0.0005    0.0088
          29   -0.0010    0.0237    0.0035    0.0085   -0.0274   -0.1114    0.0010   -0.0211
          30   -0.0010   -0.0002    0.0030   -0.0015   -0.0233   -0.0898    0.0009   -0.0008
          31   -0.0306   -0.0075   -0.0087   -0.0166    0.0134    0.0979   -0.0003    0.0098
          32   -0.0002    0.0242   -0.0034    0.0110    0.0271    0.1116   -0.0017   -0.0242
          33   -0.0002   -0.0005    0.0030   -0.0014   -0.0222   -0.0902    0.0011    0.0017
          34   -0.0410    0.0223   -0.0112   -0.0150   -0.0358   -0.0846    0.0012   -0.0114
          35    0.0223   -0.0634    0.0056   -0.0156   -0.0110   -0.0644    0.0031    0.0682
          36   -0.0031    0.0018   -0.0169   -0.0032   -0.0187   -0.0618    0.0016    0.0010
          37   -0.0416    0.0233    0.0123   -0.0131    0.0090    0.0904   -0.0012   -0.0119
          38    0.0312   -0.0672   -0.0036   -0.0044    0.0326    0.0588   -0.0011    0.0776
          39   -0.0016    0.0005   -0.0172   -0.0029   -0.0186   -0.0621    0.0014   -0.0052
          40    0.0148   -0.0368   -0.0018   -0.0111    0.0063    0.0209    0.0001    0.0398
          41    0.0023    0.0234    0.0038    0.0132   -0.0127   -0.0677    0.0007   -0.0254
          42    0.0002   -0.0001    0.0013   -0.0000   -0.0082   -0.0359    0.0005    0.0018
          43   -0.0004   -0.0167    0.0006   -0.0092   -0.0043    0.0010   -0.0000   -0.0068
          44    0.0421   -0.0247   -0.0019    0.0115    0.0196   -0.0047    0.0008    0.0887
          45    0.0002    0.0001    0.0015    0.0000   -0.0075   -0.0327    0.0005    0.0008
          46    0.0151   -0.0366    0.0012   -0.0109   -0.0033   -0.0216    0.0009    0.0412
          47    0.0023    0.0234   -0.0036    0.0138    0.0187    0.0662   -0.0015   -0.0286
          48   -0.0004   -0.0002    0.0015   -0.0007   -0.0090   -0.0358    0.0005   -0.0006
          49   -0.0201    0.0420    0.0004   -0.2095    0.0325   -0.0018   -0.2009    0.0537
          50   -0.0248    0.0464    0.0382   -0.0697    0.0099   -0.0068   -0.0732    0.0041
          51    0.0005   -0.0107   -0.0801   -0.0268   -0.0027   -0.0075   -0.0180    0.0065
          52   -0.1325   -0.0555   -0.0227    0.0093    0.1724   -0.0349   -0.1983    0.0040
          53   -0.0534   -0.0447    0.0388   -0.0134    0.0509   -0.0164   -0.0769   -0.0721
          54   -0.0094   -0.0176    0.0886   -0.0037    0.0143   -0.0008   -0.0190   -0.0216
          55    0.1266    0.0417    0.0082   -0.1496    0.1728   -0.0366   -0.0021   -0.0763
          56    0.0260    0.0722    0.0017   -0.0364    0.0748   -0.0160   -0.0004    0.0163
          57    0.0127    0.0058   -0.0612   -0.0146    0.0183   -0.0001    0.0002   -0.0066
          58   -0.1338   -0.0581    0.0041    0.0081    0.1732   -0.0372    0.1965   -0.0014
          59   -0.0508   -0.0444   -0.0435   -0.0126    0.0544   -0.0046    0.0735   -0.0740
          60   -0.0159    0.0057    0.0883    0.0076    0.0201   -0.0021    0.0194    0.0182
          61   -0.0205    0.0402    0.0241   -0.2101    0.0324   -0.0033    0.2013    0.0481
          62   -0.0228    0.0472   -0.0311   -0.0691    0.0144    0.0047    0.0730    0.0017
          63   -0.0084    0.0186   -0.0804   -0.0186    0.0027   -0.0085    0.0214    0.0029


   Root No.      17        18        19        20        21        22        23        24

                17 A      18 A      19 A      20 A      21 A      22 A      23 A      24 A   

                 906.2     940.6     960.3     979.2    1018.4    1030.3    1047.0    1103.4
  
           1    0.0001    0.0071   -0.0167    0.0001   -0.0017    0.0007   -0.0000    0.0012
           2   -0.0000    0.0056   -0.0071    0.0001   -0.0033    0.0008   -0.0002    0.0010
           3   -0.0118    0.0002    0.0002    0.0003   -0.0032   -0.0194    0.0013   -0.0027
           4    0.0001   -0.0124    0.0364   -0.0006    0.0022   -0.0000   -0.0067   -0.0010
           5   -0.0015    0.0163   -0.0015    0.0006   -0.0014    0.0003    0.0231   -0.0012
           6    0.0377    0.0019   -0.0004   -0.0004    0.0047    0.0307   -0.0015   -0.0017
           7    0.0001    0.0092   -0.0424    0.0007    0.0017   -0.0007    0.0064   -0.0007
           8    0.0002   -0.0074    0.0016   -0.0001    0.0037   -0.0008    0.0004   -0.0006
           9   -0.0174   -0.0018   -0.0004   -0.0001    0.0026    0.0146   -0.0009   -0.0003
          10    0.0002   -0.0409   -0.0038   -0.0000    0.0180   -0.0065   -0.0045   -0.0002
          11   -0.0004   -0.0059   -0.0129    0.0001    0.0035   -0.0031   -0.0114    0.0012
          12    0.0004   -0.0037   -0.0008   -0.0002    0.0028    0.0067   -0.0016    0.0079
          13   -0.0009    0.0381    0.0053    0.0426   -0.0273    0.0061    0.0047   -0.0062
          14   -0.0005    0.0074    0.0089    0.0158   -0.0081    0.0028    0.0142    0.0166
          15   -0.0069    0.0105   -0.0073    0.0034   -0.0106   -0.0110   -0.0506   -0.0101
          16   -0.0020    0.0394    0.0031   -0.0427   -0.0283    0.0052   -0.0035    0.0080
          17    0.0006    0.0076    0.0080   -0.0162   -0.0087    0.0020    0.0113   -0.0172
          18   -0.0067   -0.0032    0.0092   -0.0042    0.0017   -0.0090    0.0527   -0.0127
          19    0.0010    0.0078   -0.0020   -0.0427    0.0389   -0.0042   -0.0057    0.0029
          20   -0.0012   -0.0061    0.0077   -0.0167    0.0162   -0.0019    0.0002   -0.0037
          21   -0.0007   -0.0125    0.0122   -0.0046    0.0064   -0.0040    0.0210   -0.0136
          22    0.0020   -0.0423   -0.0031   -0.0002   -0.0426    0.0045    0.0071   -0.0015
          23   -0.0005   -0.0025   -0.0145    0.0003   -0.0197    0.0014   -0.0104    0.0017
          24    0.0017   -0.0038   -0.0009    0.0004   -0.0037    0.0030    0.0000    0.0097
          25   -0.0005    0.0053    0.0011    0.0431    0.0393   -0.0048   -0.0028   -0.0007
          26    0.0031   -0.0062    0.0081    0.0161    0.0163   -0.0006    0.0016    0.0050
          27   -0.0033    0.0130   -0.0114    0.0045   -0.0002   -0.0056   -0.0210   -0.0148
          28   -0.0666    0.0069    0.0092   -0.0009    0.0066    0.0846    0.0027    0.0223
          29    0.0968    0.0060   -0.0255    0.0007   -0.0001    0.0030   -0.0064   -0.0072
          30    0.0225    0.0011   -0.0025    0.0002    0.0026    0.0193   -0.0014    0.0008
          31    0.0650    0.0265    0.0140    0.0003   -0.0244   -0.0790    0.0124   -0.0159
          32   -0.0958   -0.0059   -0.0267   -0.0001    0.0008   -0.0038   -0.0056    0.0075
          33    0.0226   -0.0015    0.0016    0.0003    0.0042    0.0190   -0.0008    0.0002
          34   -0.0802   -0.0149    0.0764   -0.0008    0.0071    0.1065   -0.0418   -0.0230
          35   -0.0864    0.0120   -0.0239    0.0026   -0.0191   -0.1626    0.0533    0.0126
          36   -0.0528   -0.0025    0.0034    0.0009   -0.0041   -0.0253    0.0021   -0.0034
          37    0.0797    0.0085    0.0862   -0.0025   -0.0340   -0.1061   -0.0335    0.0250
          38    0.0830    0.0105   -0.0317    0.0004    0.0371    0.1654    0.0391   -0.0190
          39   -0.0530   -0.0033   -0.0038    0.0008   -0.0039   -0.0271    0.0000   -0.0026
          40   -0.0493   -0.0064    0.0821   -0.0014   -0.0047    0.0285   -0.0086    0.0026
          41    0.1262    0.0078   -0.0575    0.0015   -0.0019   -0.0668    0.0110   -0.0029
          42    0.0490    0.0027    0.0053    0.0002   -0.0034   -0.0180    0.0005   -0.0009
          43    0.0001    0.0094   -0.0394    0.0007    0.0013   -0.0006    0.0064   -0.0006
          44   -0.0016   -0.0367    0.2406   -0.0037   -0.0125    0.0050   -0.0251    0.0038
          45    0.0533    0.0042    0.0007    0.0002   -0.0034   -0.0177    0.0012   -0.0019
          46    0.0473    0.0020    0.0841   -0.0010   -0.0143   -0.0228   -0.0054    0.0019
          47   -0.1247   -0.0138   -0.0622    0.0003    0.0221    0.0615    0.0032   -0.0015
          48    0.0491    0.0051   -0.0039    0.0003   -0.0036   -0.0181    0.0016   -0.0009
          49    0.0127   -0.1566   -0.0299   -0.1850    0.0866   -0.0065    0.0181   -0.0553
          50   -0.0045   -0.0606   -0.0055   -0.0662    0.0236   -0.0252   -0.0721    0.1418
          51   -0.0111   -0.0047   -0.0117   -0.0161   -0.0064   -0.0260   -0.1023    0.0645
          52    0.0017   -0.0256   -0.0151    0.1881   -0.1300    0.0236    0.0467    0.0267
          53   -0.0107   -0.0259    0.0092    0.0690   -0.0615   -0.0217   -0.1224   -0.0793
          54    0.0042   -0.0125    0.0081    0.0191   -0.0032    0.0140    0.0996    0.0333
          55   -0.0107    0.1968    0.0408   -0.0003    0.1504   -0.0159   -0.0022   -0.0249
          56   -0.0053    0.0889    0.0020    0.0002    0.0537   -0.0063   -0.0159   -0.0050
          57    0.0088    0.0210    0.0022    0.0010    0.0178    0.0183   -0.0006    0.2680
          58   -0.0068   -0.0268   -0.0163   -0.1874   -0.1307    0.0044    0.0657   -0.0302
          59    0.0131   -0.0251    0.0060   -0.0707   -0.0517    0.0299   -0.1196    0.0755
          60    0.0028    0.0066   -0.0110   -0.0174   -0.0187    0.0100   -0.0971    0.0291
          61    0.0063   -0.1550   -0.0279    0.1866    0.0828   -0.0185   -0.0005    0.0509
          62    0.0124   -0.0615   -0.0041    0.0650    0.0278    0.0111   -0.0826   -0.1590
          63   -0.0107   -0.0253    0.0067    0.0217    0.0158   -0.0213    0.1040    0.0715


   Root No.      25        26        27        28        29        30        31        32

                25 A      26 A      27 A      28 A      29 A      30 A      31 A      32 A   

                1110.1    1125.7    1129.8    1133.8    1139.0    1155.0    1155.8    1225.7
  
           1    0.0099    0.0261    0.0024   -0.0006    0.0385    0.0006   -0.0003   -0.0043
           2   -0.0168   -0.0219   -0.0019   -0.0061    0.0591    0.0004    0.0015    0.0015
           3    0.0002    0.0022    0.0241   -0.0448   -0.0039    0.0013   -0.0014   -0.0001
           4   -0.0060   -0.0197   -0.0019    0.0007   -0.0502   -0.0005   -0.0015   -0.0056
           5    0.0090   -0.0190   -0.0016   -0.0001   -0.0123   -0.0014    0.0072    0.0031
           6   -0.0003   -0.0030    0.0140    0.0297    0.0024    0.0013    0.0012   -0.0068
           7   -0.0031   -0.0126   -0.0011    0.0000   -0.0118   -0.0004    0.0011    0.0018
           8    0.0212    0.0323    0.0028    0.0060   -0.0418   -0.0002   -0.0012    0.0009
           9   -0.0001    0.0011   -0.0414    0.0184    0.0016   -0.0007    0.0005    0.0005
          10    0.0005   -0.0022   -0.0005    0.0000    0.0116    0.0009   -0.0006   -0.0003
          11   -0.0204    0.0100    0.0008    0.0013    0.0031    0.0008   -0.0013    0.0027
          12   -0.0008    0.0003    0.0003   -0.0051    0.0006   -0.0104   -0.0022    0.0194
          13    0.0004   -0.0001    0.0003    0.0003   -0.0046   -0.0015    0.0034   -0.0078
          14    0.0090   -0.0072   -0.0011   -0.0017   -0.0001    0.0033   -0.0024    0.0178
          15   -0.0215    0.0184    0.0019    0.0054   -0.0050    0.0038   -0.0174    0.0084
          16   -0.0028    0.0027    0.0002   -0.0005   -0.0058    0.0008    0.0003    0.0041
          17    0.0065   -0.0053    0.0001    0.0008    0.0005   -0.0030   -0.0033   -0.0164
          18    0.0219   -0.0186   -0.0015    0.0014    0.0049   -0.0015    0.0183    0.0132
          19    0.0022   -0.0024   -0.0002    0.0003    0.0020   -0.0010    0.0000   -0.0032
          20   -0.0047    0.0043    0.0000   -0.0018   -0.0019    0.0011    0.0020    0.0112
          21   -0.0105    0.0084    0.0009    0.0036   -0.0023    0.0050   -0.0107   -0.0114
          22    0.0118   -0.0083   -0.0006   -0.0007    0.0017   -0.0008    0.0020    0.0029
          23   -0.0296    0.0217    0.0020    0.0021   -0.0059    0.0012   -0.0050   -0.0018
          24    0.0003   -0.0001   -0.0008   -0.0016   -0.0004    0.0033    0.0004   -0.0227
          25    0.0000   -0.0007   -0.0002   -0.0008    0.0012    0.0008   -0.0023    0.0058
          26   -0.0045    0.0043    0.0007    0.0020   -0.0013   -0.0015    0.0016   -0.0129
          27    0.0101   -0.0083   -0.0005    0.0016    0.0033    0.0017    0.0124   -0.0069
          28    0.0580    0.1049    0.1900    0.1248    0.0985   -0.0009    0.0050    0.0113
          29   -0.0541   -0.0823   -0.1859    0.0088    0.0613   -0.0007    0.0010   -0.0101
          30   -0.0027   -0.0022   -0.0115    0.0174    0.0213    0.0000    0.0004   -0.0006
          31    0.0592    0.1466   -0.1665   -0.1117    0.0795    0.0032   -0.0019    0.0189
          32   -0.0534   -0.1007    0.1689   -0.0360    0.0567    0.0018   -0.0007   -0.0134
          33    0.0022    0.0005   -0.0112    0.0206   -0.0181   -0.0006    0.0007   -0.0009
          34   -0.0635   -0.0252   -0.0220   -0.1705   -0.0951    0.0117   -0.0168    0.0065
          35    0.0561   -0.0238   -0.0143    0.0486    0.0019   -0.0128    0.0071    0.0184
          36    0.0034   -0.0072   -0.0006   -0.0142   -0.0089   -0.0005   -0.0043    0.0087
          37   -0.0625   -0.0557    0.0149    0.1771   -0.0637   -0.0108   -0.0050    0.0422
          38    0.0544   -0.0169    0.0102   -0.0565   -0.0110    0.0095    0.0042   -0.0502
          39   -0.0036    0.0101    0.0010   -0.0124    0.0084   -0.0008    0.0035    0.0067
          40   -0.0150   -0.0088   -0.0461    0.0198    0.0905    0.0000    0.0018   -0.0000
          41    0.0352    0.0408    0.1341   -0.0609   -0.1119    0.0016   -0.0038   -0.0016
          42    0.0037    0.0067    0.0269   -0.0199   -0.0065    0.0007   -0.0009   -0.0016
          43   -0.0029   -0.0115   -0.0010   -0.0002   -0.0072   -0.0003    0.0012    0.0021
          44    0.0227    0.0673    0.0060   -0.0005    0.0687    0.0016   -0.0040   -0.0117
          45    0.0001    0.0004    0.0323   -0.0301   -0.0026    0.0014   -0.0008   -0.0018
          46   -0.0145   -0.0099    0.0446   -0.0347    0.0861    0.0017    0.0003    0.0001
          47    0.0344    0.0447   -0.1265    0.0844   -0.0995   -0.0033    0.0004    0.0010
          48   -0.0035   -0.0065    0.0257   -0.0217    0.0029    0.0007   -0.0003    0.0004
          49   -0.0470    0.0305    0.0070    0.0019    0.0083    0.0210    0.0707    0.0619
          50    0.1038   -0.0680   -0.0184   -0.0101    0.0194   -0.0507   -0.1685   -0.1427
          51    0.0349   -0.0174   -0.0083    0.0012    0.0040   -0.0298   -0.1204   -0.0890
          52   -0.0145    0.0069    0.0008   -0.0032   -0.0007   -0.0574   -0.0622    0.0344
          53    0.0503   -0.0252   -0.0023    0.0097    0.0007    0.1763    0.1984   -0.1041
          54   -0.0450    0.0275    0.0024   -0.0032   -0.0049   -0.1007   -0.1326    0.0584
          55    0.0105   -0.0081    0.0004    0.0013    0.0037   -0.0246   -0.0009   -0.0095
          56   -0.0322    0.0235    0.0024    0.0028   -0.0058   -0.0059   -0.0047   -0.0057
          57    0.0095   -0.0069   -0.0132   -0.0232   -0.0097    0.2704    0.0265    0.1185
          58   -0.0223    0.0110    0.0006    0.0110   -0.0011    0.0924   -0.0621   -0.0440
          59    0.0489   -0.0230   -0.0014   -0.0259   -0.0008   -0.2143    0.1412    0.0999
          60    0.0441   -0.0263   -0.0020   -0.0156    0.0042   -0.1280    0.1004    0.0625
          61   -0.0378    0.0262   -0.0013   -0.0006    0.0069   -0.0257    0.0446   -0.0436
          62    0.0961   -0.0653    0.0069    0.0061    0.0275    0.0895   -0.1600    0.1497
          63   -0.0326    0.0176   -0.0054   -0.0011   -0.0046   -0.0585    0.1142   -0.0853


   Root No.      33        34        35        36        37        38        39        40

                33 A      34 A      35 A      36 A      37 A      38 A      39 A      40 A   

                1239.2    1327.9    1379.0    1387.7    1406.7    1408.6    1411.5    1416.8
  
           1   -0.0288    0.0436    0.0012    0.0060    0.0440    0.0003    0.0114    0.0084
           2    0.0133   -0.0284    0.0158    0.0028    0.0080   -0.0003   -0.0001   -0.0178
           3    0.0005    0.0001    0.0000    0.0000    0.0000   -0.0014    0.0000   -0.0001
           4   -0.0326   -0.0154    0.0270    0.0025   -0.0397   -0.0002   -0.0063   -0.0056
           5    0.0141   -0.0042   -0.0082    0.0036    0.0145    0.0001    0.0033   -0.0340
           6    0.0009    0.0003    0.0003   -0.0060    0.0000   -0.0001    0.0000    0.0001
           7    0.0105   -0.0064   -0.0070   -0.0016   -0.0004   -0.0008   -0.0363   -0.0137
           8    0.0035   -0.0060    0.0225    0.0038    0.0062    0.0001   -0.0050    0.0311
           9   -0.0002   -0.0000   -0.0001    0.0015   -0.0001   -0.0409    0.0005    0.0001
          10    0.0066   -0.0125   -0.0086   -0.0093    0.0097   -0.0001    0.0015   -0.0067
          11    0.0175    0.0385    0.0172   -0.0014   -0.0149   -0.0001   -0.0027    0.0140
          12   -0.0013   -0.0008   -0.0042    0.0969   -0.0011    0.0011   -0.0003    0.0011
          13   -0.0028   -0.0069   -0.0048    0.0328    0.0029    0.0005    0.0005   -0.0037
          14    0.0035    0.0184    0.0132   -0.0747   -0.0093   -0.0012   -0.0015    0.0088
          15   -0.0137   -0.0050    0.0039   -0.0462   -0.0036   -0.0004   -0.0006    0.0043
          16   -0.0067   -0.0074   -0.0022   -0.0256    0.0034   -0.0004    0.0007   -0.0038
          17    0.0088    0.0170    0.0075    0.0797   -0.0126    0.0012   -0.0024    0.0115
          18    0.0079    0.0048   -0.0003   -0.0441    0.0048   -0.0004    0.0010   -0.0054
          19    0.0043    0.0061    0.0031   -0.0250   -0.0011   -0.0005   -0.0002    0.0011
          20   -0.0078   -0.0096   -0.0051    0.0798   -0.0010    0.0014   -0.0003    0.0004
          21   -0.0105   -0.0258   -0.0118   -0.0516    0.0148   -0.0007    0.0028   -0.0138
          22    0.0046    0.0088    0.0048   -0.0078   -0.0043   -0.0001   -0.0008    0.0038
          23   -0.0135   -0.0227   -0.0115   -0.0048    0.0117   -0.0000    0.0022   -0.0104
          24    0.0044   -0.0003   -0.0038    0.0974   -0.0016    0.0012   -0.0004    0.0015
          25    0.0006    0.0008   -0.0014    0.0340   -0.0002    0.0006   -0.0000   -0.0002
          26   -0.0043   -0.0091   -0.0002   -0.0780    0.0035   -0.0014    0.0007   -0.0029
          27    0.0131    0.0267    0.0156   -0.0471   -0.0130   -0.0007   -0.0023    0.0122
          28    0.0930   -0.0724   -0.0425   -0.0210   -0.1204   -0.0021   -0.0424    0.0049
          29   -0.0686    0.0570   -0.0871   -0.0273   -0.0937    0.0012   -0.0272    0.0403
          30    0.0017    0.0041   -0.0722   -0.0261   -0.1153   -0.0024   -0.0340    0.0303
          31    0.0942   -0.0722   -0.0422   -0.0257   -0.1199    0.0010   -0.0423    0.0042
          32   -0.0679    0.0572   -0.0870   -0.0247   -0.0936   -0.0004   -0.0272    0.0403
          33   -0.0017   -0.0040    0.0722    0.0268    0.1154   -0.0026    0.0341   -0.0302
          34    0.1560    0.0239   -0.0765   -0.0520    0.0763   -0.0063    0.0115    0.0566
          35   -0.1023   -0.0753   -0.0570    0.0337    0.0272    0.0051    0.0031    0.1242
          36    0.0086   -0.0243   -0.0649   -0.0045    0.0494   -0.0003    0.0061    0.1085
          37    0.1413    0.0202   -0.0797    0.0137    0.0747    0.0069    0.0109    0.0600
          38   -0.0853   -0.0708   -0.0519   -0.0740    0.0289   -0.0047    0.0037    0.1206
          39   -0.0112    0.0239    0.0638    0.0374   -0.0500   -0.0007   -0.0063   -0.1080
          40    0.0047   -0.0314    0.0370   -0.0024   -0.0253    0.2504    0.2120    0.0441
          41   -0.0088    0.0579   -0.0840   -0.0120   -0.0364   -0.0463    0.1309   -0.0769
          42   -0.0074    0.0254   -0.0422   -0.0087   -0.0331    0.0508    0.1661   -0.0377
          43    0.0129   -0.0114   -0.0012   -0.0008   -0.0031   -0.0001   -0.0118   -0.0069
          44   -0.0763    0.1096   -0.0829   -0.0079    0.0399   -0.0029   -0.1590   -0.0813
          45    0.0007   -0.0000    0.0009   -0.0142    0.0006    0.4119   -0.0051   -0.0008
          46    0.0049   -0.0313    0.0361    0.0124   -0.0260   -0.2423    0.2181    0.0450
          47   -0.0100    0.0577   -0.0838   -0.0138   -0.0363    0.0504    0.1295   -0.0769
          48    0.0079   -0.0254    0.0425    0.0050    0.0333    0.0454   -0.1676    0.0375
          49   -0.0068    0.0052    0.0017    0.0108   -0.0034    0.0002   -0.0008    0.0085
          50    0.0427   -0.0040   -0.0069   -0.0243    0.0131   -0.0006    0.0026   -0.0211
          51    0.0062   -0.0223   -0.0095   -0.0154    0.0108    0.0000    0.0020   -0.0142
          52    0.0006    0.0168    0.0094   -0.0030   -0.0092    0.0001   -0.0016    0.0087
          53    0.0057   -0.0403   -0.0249    0.0113    0.0250   -0.0002    0.0044   -0.0223
          54   -0.0205   -0.0113   -0.0020   -0.0104    0.0013    0.0003    0.0003   -0.0020
          55    0.0073    0.0100    0.0050   -0.0006   -0.0049   -0.0001   -0.0009    0.0046
          56   -0.0146   -0.0264   -0.0137   -0.0032    0.0139   -0.0000    0.0025   -0.0122
          57   -0.0192   -0.0012   -0.0002    0.0225   -0.0015    0.0010   -0.0003    0.0006
          58    0.0114    0.0152    0.0082    0.0064   -0.0086   -0.0002   -0.0016    0.0082
          59   -0.0285   -0.0421   -0.0235   -0.0144    0.0246    0.0003    0.0045   -0.0224
          60    0.0002    0.0109    0.0037   -0.0081   -0.0025    0.0003   -0.0004    0.0024
          61    0.0088    0.0018    0.0007   -0.0104   -0.0011   -0.0002   -0.0004    0.0050
          62   -0.0054   -0.0074   -0.0093    0.0272    0.0125    0.0007    0.0024   -0.0195
          63    0.0218    0.0233    0.0107   -0.0114   -0.0108    0.0000   -0.0021    0.0136


   Root No.      41        42        43        44        45        46        47        48

                41 A      42 A      43 A      44 A      45 A      46 A      47 A      48 A   

                1436.5    1543.8    1607.8    1783.9    1802.6    2943.5    2960.0    3024.9
  
           1   -0.0180   -0.0005   -0.0026   -0.0001   -0.0012   -0.0001    0.0003   -0.0019
           2    0.0385   -0.0002    0.0031    0.0004   -0.0003   -0.0002    0.0005   -0.0038
           3   -0.0001    0.0008   -0.0001   -0.0005    0.0001    0.0202   -0.0391   -0.0002
           4    0.0147    0.0018    0.0201   -0.0010   -0.0063   -0.0000   -0.0000    0.0201
           5   -0.0347    0.0000   -0.0443    0.0002    0.0175   -0.0001   -0.0001    0.0300
           6    0.0001   -0.0112    0.0003    0.0082   -0.0001   -0.0400   -0.0200   -0.0002
           7    0.0144    0.0000   -0.0011    0.0000    0.0006    0.0000   -0.0000    0.0005
           8   -0.0365    0.0001   -0.0003   -0.0001   -0.0002    0.0000   -0.0000    0.0002
           9   -0.0000   -0.0002    0.0000    0.0000   -0.0000   -0.0013    0.0020    0.0000
          10   -0.0054   -0.0065   -0.0406    0.0124    0.0330    0.0000    0.0000   -0.0002
          11    0.0123   -0.0023    0.1035    0.0031   -0.0851   -0.0000   -0.0000    0.0003
          12    0.0002    0.0766   -0.0008   -0.1396   -0.0003   -0.0002   -0.0002   -0.0000
          13   -0.0043   -0.0189    0.0114   -0.0204   -0.0491   -0.0002   -0.0001   -0.0001
          14    0.0102    0.0567   -0.0166    0.0353    0.1177    0.0004    0.0003    0.0008
          15    0.0065   -0.0262   -0.0507    0.0735    0.0444    0.0000   -0.0000   -0.0015
          16   -0.0035    0.0231    0.0026    0.0080   -0.0412    0.0001    0.0001   -0.0002
          17    0.0115   -0.0546   -0.0193   -0.0397    0.1203   -0.0003   -0.0003    0.0005
          18   -0.0067   -0.0260    0.0512    0.0737   -0.0453    0.0001   -0.0001    0.0012
          19    0.0010    0.0239    0.0170   -0.0069    0.0381    0.0000    0.0000   -0.0000
          20    0.0009   -0.0571   -0.0571    0.0369   -0.1099   -0.0000   -0.0000    0.0001
          21   -0.0138   -0.0239    0.0487   -0.0754    0.0370    0.0000    0.0000    0.0003
          22    0.0042   -0.0063   -0.0195   -0.0121   -0.0178   -0.0000   -0.0000   -0.0000
          23   -0.0112   -0.0020    0.0512   -0.0041    0.0470   -0.0000    0.0000    0.0000
          24    0.0004    0.0733    0.0008    0.1409   -0.0001    0.0000    0.0000    0.0000
          25   -0.0010   -0.0197    0.0257    0.0191    0.0448   -0.0000   -0.0000    0.0000
          26   -0.0009    0.0583   -0.0551   -0.0315   -0.1089    0.0000    0.0000    0.0001
          27    0.0133   -0.0244   -0.0490   -0.0740   -0.0357   -0.0000    0.0000   -0.0002
          28    0.0062   -0.0020    0.0087   -0.0002   -0.0017    0.0517   -0.1066    0.0151
          29   -0.0881   -0.0004   -0.0063    0.0011    0.0012    0.0802   -0.1553    0.0236
          30   -0.0603   -0.0001   -0.0008   -0.0002    0.0006   -0.1249    0.2407   -0.0422
          31    0.0059    0.0027    0.0084   -0.0001   -0.0016   -0.0500    0.1024    0.0161
          32   -0.0882    0.0004   -0.0063   -0.0008    0.0013   -0.0776    0.1490    0.0251
          33    0.0602   -0.0010    0.0008    0.0002   -0.0005   -0.1199    0.2288    0.0445
          34   -0.0004   -0.0146   -0.0071    0.0162    0.0010   -0.1052   -0.0557   -0.1262
          35    0.0846    0.0372    0.0083   -0.0358   -0.0021   -0.1529   -0.0763   -0.1810
          36    0.0594    0.0050    0.0178   -0.0093   -0.0069    0.2391    0.1184    0.3353
          37    0.0021    0.0086   -0.0069   -0.0121    0.0001    0.1060    0.0564   -0.1258
          38    0.0823   -0.0320    0.0090    0.0312   -0.0017    0.1542    0.0773   -0.1809
          39   -0.0591    0.0060   -0.0176   -0.0087    0.0065    0.2398    0.1193   -0.3328
          40   -0.0410    0.0008   -0.0002   -0.0004   -0.0002   -0.0032    0.0065   -0.0003
          41    0.0743   -0.0002    0.0003    0.0001    0.0000   -0.0042    0.0057   -0.0020
          42    0.0398   -0.0001    0.0007    0.0001   -0.0002    0.0081   -0.0135    0.0030
          43    0.0075    0.0000   -0.0014    0.0000    0.0008   -0.0001    0.0003   -0.0018
          44    0.0794   -0.0004    0.0025    0.0003   -0.0014   -0.0000    0.0001   -0.0005
          45    0.0006    0.0011    0.0000   -0.0002    0.0001   -0.0003    0.0004    0.0000
          46   -0.0419   -0.0007   -0.0002    0.0002   -0.0003    0.0032   -0.0065   -0.0004
          47    0.0746   -0.0001    0.0003   -0.0001   -0.0002    0.0041   -0.0056   -0.0021
          48   -0.0397    0.0002   -0.0007    0.0001    0.0003    0.0080   -0.0132   -0.0032
          49    0.0079    0.0180   -0.0362    0.0145    0.0185    0.0000   -0.0001    0.0016
          50   -0.0207   -0.0275    0.0923   -0.0464   -0.0352    0.0003   -0.0002   -0.0084
          51   -0.0125   -0.0878    0.0062    0.0318   -0.0536    0.0015    0.0016    0.0165
          52    0.0093   -0.0014   -0.0277    0.0216   -0.0035    0.0000    0.0000    0.0009
          53   -0.0243    0.0260    0.0811   -0.0475    0.0218   -0.0000   -0.0001   -0.0015
          54   -0.0006   -0.0855   -0.0331   -0.0336   -0.0492   -0.0001   -0.0001   -0.0031
          55    0.0049    0.0113   -0.0229    0.0052   -0.0211   -0.0000    0.0000    0.0003
          56   -0.0132    0.0031    0.0607    0.0008    0.0557    0.0000    0.0000   -0.0008
          57    0.0007   -0.1272   -0.0012   -0.0572   -0.0004   -0.0000    0.0000    0.0000
          58    0.0089    0.0165   -0.0334   -0.0150   -0.0121    0.0000   -0.0000    0.0003
          59   -0.0240   -0.0225    0.0800    0.0486    0.0198   -0.0000    0.0001   -0.0014
          60    0.0014   -0.0853    0.0312   -0.0349    0.0494    0.0001   -0.0001    0.0026
          61    0.0050   -0.0016   -0.0352   -0.0200    0.0084    0.0001   -0.0002    0.0037
          62   -0.0198    0.0299    0.0934    0.0441   -0.0373   -0.0010    0.0004   -0.0061
          63    0.0123   -0.0872   -0.0085    0.0300    0.0556   -0.0001    0.0022   -0.0132


   Root No.      49        50        51        52        53        54        55        56

                49 A      50 A      51 A      52 A      53 A      54 A      55 A      56 A   

                3036.8    3052.5    3053.2    3061.4    3068.7    3078.2    3080.2    3084.6
  
           1   -0.0193   -0.0002   -0.0002   -0.0001   -0.0001   -0.0001    0.0000   -0.0018
           2   -0.0289   -0.0003   -0.0003   -0.0001   -0.0001   -0.0001    0.0000   -0.0026
           3   -0.0011    0.0001    0.0001    0.0000    0.0001   -0.0030   -0.0000   -0.0000
           4   -0.0031   -0.0001    0.0004    0.0003   -0.0000   -0.0000   -0.0001    0.0002
           5   -0.0038   -0.0003    0.0009    0.0007   -0.0000   -0.0000   -0.0003   -0.0003
           6   -0.0001   -0.0001   -0.0001   -0.0000   -0.0000    0.0002    0.0000   -0.0000
           7    0.0041    0.0000    0.0000    0.0000    0.0000   -0.0004    0.0000   -0.0440
           8    0.0011    0.0000    0.0000    0.0000    0.0000   -0.0002    0.0000   -0.0183
           9    0.0002   -0.0001   -0.0000   -0.0000   -0.0001   -0.0543   -0.0001    0.0004
          10   -0.0002   -0.0002    0.0002    0.0004   -0.0001    0.0000   -0.0003   -0.0000
          11    0.0001    0.0001   -0.0006   -0.0010   -0.0000   -0.0000    0.0008    0.0000
          12   -0.0000    0.0016    0.0002   -0.0000    0.0012   -0.0000   -0.0000    0.0000
          13   -0.0000   -0.0027    0.0014    0.0017   -0.0018    0.0000   -0.0012   -0.0000
          14   -0.0001    0.0134   -0.0072   -0.0082    0.0077   -0.0000    0.0051    0.0000
          15    0.0001   -0.0246    0.0138    0.0141   -0.0117    0.0001   -0.0074   -0.0000
          16   -0.0002    0.0056    0.0053    0.0042    0.0039   -0.0000   -0.0026    0.0000
          17    0.0003   -0.0097   -0.0091   -0.0075   -0.0072    0.0000    0.0048   -0.0000
          18    0.0006   -0.0192   -0.0187   -0.0140   -0.0117    0.0001    0.0075   -0.0000
          19   -0.0000   -0.0036    0.0033   -0.0030    0.0068   -0.0000    0.0049    0.0000
          20   -0.0000    0.0059   -0.0057    0.0059   -0.0122    0.0000   -0.0084   -0.0000
          21    0.0000    0.0134   -0.0115    0.0081   -0.0223    0.0001   -0.0177   -0.0000
          22   -0.0000    0.0006   -0.0039    0.0093   -0.0000   -0.0000    0.0092    0.0000
          23    0.0000   -0.0014    0.0102   -0.0243   -0.0005    0.0001   -0.0242   -0.0000
          24   -0.0000   -0.0007   -0.0002    0.0002    0.0021   -0.0000    0.0002   -0.0000
          25   -0.0000    0.0008    0.0015   -0.0015   -0.0029   -0.0000    0.0018   -0.0000
          26    0.0001   -0.0046   -0.0075    0.0060    0.0134    0.0000   -0.0095    0.0000
          27   -0.0002    0.0096    0.0143   -0.0077   -0.0225   -0.0001    0.0181   -0.0000
          28    0.1161    0.0013    0.0012    0.0006    0.0004   -0.0062   -0.0001    0.0084
          29    0.1709    0.0021    0.0020    0.0011    0.0007   -0.0141   -0.0002    0.0162
          30   -0.3148   -0.0037   -0.0036   -0.0020   -0.0013    0.0160    0.0004   -0.0271
          31    0.1219    0.0007    0.0010    0.0005    0.0002    0.0070    0.0000    0.0086
          32    0.1793    0.0009    0.0015    0.0008    0.0002    0.0153   -0.0000    0.0164
          33    0.3276    0.0018    0.0028    0.0015    0.0004    0.0181   -0.0000    0.0275
          34    0.0160    0.0016   -0.0033   -0.0024    0.0004   -0.0003    0.0007    0.0008
          35    0.0217    0.0016   -0.0040   -0.0028    0.0003    0.0013    0.0006   -0.0001
          36   -0.0415   -0.0043    0.0087    0.0064   -0.0011   -0.0015   -0.0018   -0.0008
          37    0.0166    0.0007   -0.0030   -0.0021   -0.0000    0.0003    0.0006    0.0009
          38    0.0224    0.0013   -0.0037   -0.0026    0.0002   -0.0013    0.0005   -0.0000
          39    0.0422    0.0017   -0.0082   -0.0059   -0.0001   -0.0014    0.0016    0.0008
          40   -0.0038   -0.0003   -0.0001   -0.0001   -0.0002   -0.1390   -0.0003    0.0525
          41   -0.0072   -0.0004   -0.0002   -0.0002   -0.0003   -0.2213   -0.0004    0.1102
          42    0.0136    0.0007    0.0003    0.0003    0.0006    0.3372    0.0006   -0.1977
          43   -0.0391   -0.0005   -0.0003   -0.0003   -0.0003    0.0040   -0.0002    0.4213
          44   -0.0037   -0.0000   -0.0001   -0.0000   -0.0000    0.0000    0.0000    0.0029
          45    0.0001   -0.0000   -0.0000   -0.0000   -0.0000   -0.0284   -0.0001   -0.0000
          46   -0.0047    0.0002    0.0000    0.0000    0.0001    0.1404    0.0003    0.0506
          47   -0.0084    0.0002   -0.0000   -0.0000    0.0001    0.2238    0.0004    0.1070
          48   -0.0157    0.0003   -0.0000   -0.0001    0.0002    0.3408    0.0007    0.1924
          49   -0.0003    0.0322   -0.0174   -0.0187    0.0161   -0.0001    0.0098    0.0000
          50    0.0009   -0.1563    0.0848    0.0898   -0.0762    0.0005   -0.0462   -0.0001
          51   -0.0017    0.2817   -0.1535   -0.1592    0.1332   -0.0009    0.0804    0.0001
          52    0.0000    0.0448   -0.0392    0.0307   -0.0754    0.0003   -0.0547   -0.0000
          53   -0.0000   -0.0779    0.0686   -0.0548    0.1325   -0.0005    0.0956    0.0001
          54   -0.0000   -0.1544    0.1333   -0.1000    0.2547   -0.0009    0.1871    0.0002
          55    0.0001   -0.0065    0.0450   -0.1077   -0.0016    0.0004   -0.1001   -0.0001
          56   -0.0002    0.0165   -0.1183    0.2830    0.0052   -0.0011    0.2630    0.0003
          57   -0.0000    0.0017    0.0011   -0.0022   -0.0034    0.0000   -0.0020   -0.0000
          58    0.0002   -0.0123   -0.0191    0.0124    0.0305    0.0001   -0.0220    0.0000
          59   -0.0011    0.0607    0.0923   -0.0567   -0.1456   -0.0003    0.1070   -0.0001
          60    0.0019   -0.1107   -0.1651    0.0952    0.2568    0.0006   -0.1918    0.0001
          61    0.0016   -0.0652   -0.0619   -0.0468   -0.0401    0.0002    0.0245   -0.0001
          62   -0.0033    0.1132    0.1073    0.0819    0.0705   -0.0004   -0.0431    0.0001
          63   -0.0065    0.2217    0.2109    0.1576    0.1335   -0.0007   -0.0811    0.0003


   Root No.      57

                57 A   

                3181.3
  
           1   -0.0004
           2    0.0003
           3   -0.0000
           4   -0.0000
           5   -0.0002
           6    0.0000
           7   -0.0108
           8    0.0222
           9   -0.0000
          10    0.0000
          11    0.0000
          12   -0.0000
          13   -0.0000
          14   -0.0000
          15   -0.0000
          16   -0.0000
          17   -0.0000
          18    0.0000
          19    0.0000
          20   -0.0000
          21   -0.0000
          22    0.0000
          23   -0.0000
          24   -0.0000
          25   -0.0000
          26    0.0000
          27    0.0000
          28    0.0005
          29    0.0023
          30   -0.0024
[...]
                            C  4 -- C  6         +11.7% ( 60.7%)    100.0%

 VIBRATION   37   37A         ATOM PAIR      ENERGY CONTRIBUTION    RADIAL
 FREQ.      1406.70         C  1 -- H 10         +17.7% ( 50.7%)      3.6%
 T-DIPOLE    0.0279         C  1 -- H 11         +17.6% ( 50.6%)      3.6%
 TRAVEL      0.0987         C  1 -- C  2         +15.9% ( 48.0%)     99.4%
 RED. MASS   0.6043         C  2 -- H 12          +8.8% ( 35.7%)      1.0%
 EFF. MASS   4.9162

 VIBRATION   38   38A         ATOM PAIR      ENERGY CONTRIBUTION    RADIAL
 FREQ.      1408.62         C  3 -- H 15         +52.8% ( 62.6%)      0.0%
 T-DIPOLE    0.0430         C  3 -- H 14         +21.7% ( 40.1%)     10.4%
 TRAVEL      0.1764         C  3 -- H 16         +20.4% ( 38.9%)     11.5%
 RED. MASS   0.4124         C  1 -- C  3          +4.8% ( 19.0%)      0.0%
 EFF. MASS   1.5386

 VIBRATION   39   39A         ATOM PAIR      ENERGY CONTRIBUTION    RADIAL
 FREQ.      1411.49         C  3 -- H 16         +38.6% ( 55.1%)      1.0%
 T-DIPOLE    0.0487         C  3 -- H 14         +37.5% ( 54.3%)      1.2%
 TRAVEL      0.1664         C  3 -- H 15         +11.4% ( 29.9%)     38.7%
 RED. MASS   0.3745         C  1 -- C  3          +6.2% ( 22.1%)      7.1%
 EFF. MASS   1.7260

 VIBRATION   40   40A         ATOM PAIR      ENERGY CONTRIBUTION    RADIAL
 FREQ.      1416.84         C  2 -- H 12         +16.5% ( 47.6%)      4.7%
 T-DIPOLE    0.0450         C  2 -- H 13         +16.2% ( 47.2%)      4.8%
 TRAVEL      0.1045         C  3 -- H 16          +8.8% ( 34.7%)      3.1%
 RED. MASS   0.3852         C  3 -- H 14          +8.7% ( 34.7%)      3.1%
 EFF. MASS   4.3569

 VIBRATION   41   41A         ATOM PAIR      ENERGY CONTRIBUTION    RADIAL
 FREQ.      1436.47         C  1 -- C  3         +14.0% ( 49.5%)     99.9%
 T-DIPOLE    0.1116         C  1 -- C  2         +10.9% ( 43.7%)     16.7%
 TRAVEL      0.0869         C  1 -- H 11          +9.1% ( 39.9%)      2.7%
 RED. MASS   0.7171         C  1 -- H 10          +9.1% ( 39.9%)      2.8%
 EFF. MASS   6.2091

 VIBRATION   42   42A         ATOM PAIR      ENERGY CONTRIBUTION    RADIAL
 FREQ.      1543.80         C  5 -- C  7         +13.1% ( 53.3%)    100.0%
 T-DIPOLE    0.4917         C  6 -- C  9         +13.0% ( 53.1%)    100.0%
 TRAVEL      0.0633         C  4 -- C  5         +11.3% ( 49.7%)     24.0%
 RED. MASS   1.5241         C  4 -- C  6         +11.3% ( 49.6%)     25.3%
 EFF. MASS  10.8922         C  7 -- C  8         +10.6% ( 48.1%)     21.8%
                            C  8 -- C  9         +10.6% ( 48.0%)     21.5%

 VIBRATION   43   43A         ATOM PAIR      ENERGY CONTRIBUTION    RADIAL
 FREQ.      1607.84         C  4 -- C  6         +15.0% ( 57.0%)     61.5%
 T-DIPOLE    0.5133         C  4 -- C  5         +15.0% ( 57.0%)     61.5%
 TRAVEL      0.0616         C  2 -- C  4         +14.3% ( 55.5%)     99.9%
 RED. MASS   2.0069         C  8 -- C  9          +9.6% ( 45.5%)     65.2%
 EFF. MASS  11.0611

 VIBRATION   44   44A         ATOM PAIR      ENERGY CONTRIBUTION    RADIAL
 FREQ.      1783.86         C  7 -- C  8         +15.3% ( 54.1%)     88.2%
 T-DIPOLE    0.0426         C  8 -- C  9         +15.1% ( 53.7%)     87.4%
 TRAVEL      0.0565         C  4 -- C  5         +15.0% ( 53.7%)     88.7%
 RED. MASS   2.4461         C  4 -- C  6         +14.9% ( 53.5%)     88.7%
 EFF. MASS  11.8415

 VIBRATION   45   45A         ATOM PAIR      ENERGY CONTRIBUTION    RADIAL
 FREQ.      1802.63         C  6 -- C  9         +16.6% ( 56.9%)     99.9%
 T-DIPOLE    0.2353         C  5 -- C  7         +16.5% ( 56.6%)     99.8%
 TRAVEL      0.0562         C  4 -- C  5         +11.9% ( 48.1%)     45.2%
 RED. MASS   2.2788         C  4 -- C  6         +11.8% ( 48.0%)     43.9%
 EFF. MASS  11.8293

 VIBRATION   46   46A         ATOM PAIR      ENERGY CONTRIBUTION    RADIAL
 FREQ.      2943.52         C  2 -- H 13         +38.8% ( 64.9%)     96.4%
 T-DIPOLE    0.0279         C  2 -- H 12         +38.5% ( 64.6%)     96.4%
 TRAVEL      0.1213         C  1 -- H 10         +10.4% ( 33.6%)     96.5%
 RED. MASS   0.3495         C  1 -- H 11          +9.7% ( 32.4%)     96.0%
 EFF. MASS   1.5564

 VIBRATION   47   47A         ATOM PAIR      ENERGY CONTRIBUTION    RADIAL
 FREQ.      2959.96         C  1 -- H 10         +40.4% ( 65.9%)     96.8%
 T-DIPOLE    0.0354         C  1 -- H 11         +37.1% ( 63.1%)     96.3%
 TRAVEL      0.1218         C  2 -- H 13         +10.1% ( 32.9%)     96.8%
 RED. MASS   0.3476         C  2 -- H 12          +9.9% ( 32.6%)     96.7%
 EFF. MASS   1.5347

 VIBRATION   48   48A         ATOM PAIR      ENERGY CONTRIBUTION    RADIAL
 FREQ.      3024.86         C  2 -- H 12         +48.7% ( 68.8%)     97.7%
 T-DIPOLE    0.0502         C  2 -- H 13         +48.1% ( 68.4%)     97.6%
 TRAVEL      0.1322         C  1 -- H 11          +0.9% (  9.2%)     98.2%
 RED. MASS   0.4665         C  1 -- H 10          +0.8% (  8.6%)     97.6%
 EFF. MASS   1.2747

 VIBRATION   49   49A         ATOM PAIR      ENERGY CONTRIBUTION    RADIAL
 FREQ.      3036.77         C  1 -- H 11         +50.3% ( 69.9%)     97.9%
 T-DIPOLE    0.0252         C  1 -- H 10         +46.0% ( 66.8%)     97.4%
 TRAVEL      0.1320         C  2 -- H 13          +0.8% (  9.0%)     97.2%
 RED. MASS   0.4619         C  2 -- H 12          +0.8% (  8.8%)     97.1%
 EFF. MASS   1.2737

 VIBRATION   50   50A         ATOM PAIR      ENERGY CONTRIBUTION    RADIAL
 FREQ.      3052.51         C  5 -- H 17         +46.4% ( 69.2%)    100.0%
 T-DIPOLE    0.1772         C  6 -- H 21         +29.3% ( 55.0%)    100.0%
 TRAVEL      0.1216         C  7 -- H 18         +14.2% ( 38.2%)    100.0%
 RED. MASS   0.3220         C  9 -- H 20          +7.1% ( 27.1%)     99.9%
 EFF. MASS   1.4934

 VIBRATION   51   51A         ATOM PAIR      ENERGY CONTRIBUTION    RADIAL
 FREQ.      3053.17         C  6 -- H 21         +34.8% ( 59.9%)    100.0%
 T-DIPOLE    0.1997         C  9 -- H 20         +21.0% ( 46.6%)    100.0%
 TRAVEL      0.1211         C  5 -- H 17         +18.0% ( 43.2%)    100.0%
 RED. MASS   0.2224         C  7 -- H 18         +14.0% ( 38.0%)    100.0%
 EFF. MASS   1.5066

 VIBRATION   52   52A         ATOM PAIR      ENERGY CONTRIBUTION    RADIAL
 FREQ.      3061.37         C  8 -- H 19         +47.9% ( 70.3%)    100.0%
 T-DIPOLE    0.2880         C  5 -- H 17         +17.6% ( 42.6%)    100.0%
 TRAVEL      0.1206         C  6 -- H 21         +17.6% ( 42.6%)    100.0%
 RED. MASS   0.2968         C  7 -- H 18          +7.3% ( 27.4%)     99.7%
 EFF. MASS   1.5145

 VIBRATION   53   53A         ATOM PAIR      ENERGY CONTRIBUTION    RADIAL
 FREQ.      3068.71         C  7 -- H 18         +38.0% ( 62.6%)    100.0%
 T-DIPOLE    0.5586         C  9 -- H 20         +37.9% ( 62.5%)    100.0%
 TRAVEL      0.1194         C  6 -- H 21         +10.5% ( 32.9%)     99.9%
 RED. MASS   0.3076         C  5 -- H 17         +10.2% ( 32.5%)     99.9%
 EFF. MASS   1.5422

 VIBRATION   54   54A         ATOM PAIR      ENERGY CONTRIBUTION    RADIAL
 FREQ.      3078.18         C  3 -- H 16         +49.4% ( 72.5%)     97.1%
 T-DIPOLE    0.0090         C  3 -- H 14         +48.4% ( 71.8%)     97.0%
 TRAVEL      0.1208         C  1 -- C  3          +1.0% ( 10.2%)      0.0%
 RED. MASS   0.5060         C  3 -- H 15          +0.9% ( 10.0%)      0.1%
 EFF. MASS   1.5010

 VIBRATION   55   55A         ATOM PAIR      ENERGY CONTRIBUTION    RADIAL
 FREQ.      3080.23         C  8 -- H 19         +39.6% ( 63.8%)    100.0%
 T-DIPOLE    0.3404         C  9 -- H 20         +24.4% ( 50.0%)    100.0%
 TRAVEL      0.1170         C  7 -- H 18         +23.6% ( 49.2%)    100.0%
 RED. MASS   0.2762         C  6 -- H 21          +4.5% ( 21.6%)     99.9%
 EFF. MASS   1.6004

 VIBRATION   56   56A         ATOM PAIR      ENERGY CONTRIBUTION    RADIAL
 FREQ.      3084.63         C  3 -- H 15         +61.5% ( 80.8%)     98.7%
 T-DIPOLE    0.0118         C  3 -- H 14         +19.0% ( 44.9%)     86.3%
 TRAVEL      0.1206         C  3 -- H 16         +17.9% ( 43.7%)     85.4%
 RED. MASS   0.4740         C  1 -- C  3          +1.0% ( 10.3%)      0.0%
 EFF. MASS   1.5028

 VIBRATION   57   57A         ATOM PAIR      ENERGY CONTRIBUTION    RADIAL
 FREQ.      3181.26         C  3 -- H 15         +36.8% ( 58.4%)     97.6%
 T-DIPOLE    0.0240         C  3 -- H 14         +31.5% ( 54.0%)     96.8%
 TRAVEL      0.1365         C  3 -- H 16         +31.4% ( 53.9%)     96.8%
 RED. MASS   0.3285         C  1 -- C  3          +0.3% (  5.1%)     99.5%
 EFF. MASS   1.1369

      SYMMETRY NUMBER FOR POINT-GROUP C1  =  1


          SYSTEM IS A GROUND STATE



 InChI=1S/C9H12/c1-2-6-9-7-4-3-5-8-9/h3-5,7-8H,2,6H2,1H3


          MOLECULE IS NOT LINEAR

          THERE ARE 57 GENUINE VIBRATIONS IN THIS SYSTEM
          THIS THERMODYNAMICS CALCULATION IS LIMITED TO
          MOLECULES WHICH HAVE NO INTERNAL ROTATIONS




                    CALCULATED THERMODYNAMIC PROPERTIES
                                          *
   TEMP. (K)   PARTITION FUNCTION   H.O.F.    ENTHALPY  HEAT CAPACITY ENTROPY
                                   KCAL/MOL   CAL/MOLE    CAL/K/MOL  CAL/K/MOL


 298.00  VIB.     0.2301D+03                  3696.7376    26.9357    23.2127
         ROT.     0.5031D+06                   888.2813     2.9808    29.0698
         INT.     0.1158D+09                  4585.0189    29.9165    52.2826
         TRA.     0.1274D+28                  1480.4688     4.9680    40.2640
         TOT.                        3.860    6065.4877    34.8845    92.5466

 200.00  VIB.     0.3103D+02                  1594.5671    16.3277    14.7991
         ROT.     0.2766D+06                   596.1620     2.9808    27.8812
         INT.     0.8584D+07                  2190.7290    19.3085    42.6803
         TRA.     0.7004D+27                   993.6033     4.9680    38.2829
         TOT.                        0.978    3184.3323    24.2765    80.9632

 210.00  VIB.     0.3794D+02                  1762.6588    17.2959    15.6190
         ROT.     0.2976D+06                   625.9700     2.9808    28.0266
         INT.     0.1129D+08                  2388.6288    20.2768    43.6456
         TRA.     0.7536D+27                  1043.2834     4.9680    38.5253
         TOT.                        1.226    3431.9122    25.2448    82.1709

 220.00  VIB.     0.4641D+02                  1940.5911    18.2957    16.4466
         ROT.     0.3191D+06                   655.7781     2.9808    28.1653
         INT.     0.1481D+08                  2596.3692    21.2765    44.6119
         TRA.     0.8081D+27                  1092.9636     4.9680    38.7564
         TOT.                        1.483    3689.3328    26.2445    83.3683

 230.00  VIB.     0.5680D+02                  2128.6737    19.3257    17.2825
         ROT.     0.3411D+06                   685.5862     2.9808    28.2978
         INT.     0.1938D+08                  2814.2600    22.3065    45.5803
         TRA.     0.8638D+27                  1142.6437     4.9680    38.9773
         TOT.                        1.751    3956.9037    27.2746    84.5575

 240.00  VIB.     0.6958D+02                  2327.2003    20.3841    18.1273
         ROT.     0.3636D+06                   715.3943     2.9808    28.4246
         INT.     0.2530D+08                  3042.5946    23.3649    46.5519
         TRA.     0.9207D+27                  1192.3239     4.9680    39.1887
         TOT.                        2.029    4234.9185    28.3329    85.7406

 250.00  VIB.     0.8530D+02                  2536.4421    21.4683    18.9813
         ROT.     0.3866D+06                   745.2024     2.9808    28.5463
         INT.     0.3297D+08                  3281.6445    24.4491    47.5276
         TRA.     0.9789D+27                  1242.0041     4.9680    39.3915
         TOT.                        2.318    4523.6486    29.4172    86.9191

 260.00  VIB.     0.1047D+03                  2756.6436    22.5755    19.8448
         ROT.     0.4100D+06                   775.0105     2.9808    28.6632
         INT.     0.4292D+08                  3531.6541    25.5564    48.5080
         TRA.     0.1038D+28                  1291.6842     4.9680    39.5863
         TOT.                        2.617    4823.3383    30.5244    88.0943

 270.00  VIB.     0.1286D+03                  2988.0190    23.7026    20.7179
         ROT.     0.4339D+06                   804.8186     2.9808    28.7757
         INT.     0.5579D+08                  3792.8377    26.6834    49.4936
         TRA.     0.1099D+28                  1341.3644     4.9680    39.7738
         TOT.                        2.928    5134.2021    31.6514    89.2674

 280.00  VIB.     0.1581D+03                  3230.7505    24.8462    21.6005
         ROT.     0.4582D+06                   834.6267     2.9808    28.8841
         INT.     0.7246D+08                  4065.3772    27.8270    50.4846
         TRA.     0.1160D+28                  1391.0445     4.9680    39.9545
         TOT.                        3.251    5456.4217    32.7950    90.4391

 290.00  VIB.     0.1947D+03                  3484.9866    26.0030    22.4925
         ROT.     0.4830D+06                   864.4348     2.9808    28.9887
         INT.     0.9402D+08                  4349.4214    28.9838    51.4812
         TRA.     0.1223D+28                  1440.7247     4.9680    40.1289
         TOT.                        3.584    5790.1461    33.9518    91.6101

 300.00  VIB.     0.2400D+03                  3750.8429    27.1697    23.3937
         ROT.     0.5081D+06                   894.2429     2.9808    29.0898
         INT.     0.1219D+09                  4645.0858    30.1505    52.4835
         TRA.     0.1287D+28                  1490.4049     4.9680    40.2973
         TOT.                        3.930    6135.4907    35.1185    92.7808

 310.00  VIB.     0.2961D+03                  4028.4023    28.3431    24.3037
         ROT.     0.5338D+06                   924.0510     2.9808    29.1875
         INT.     0.1581D+09                  4952.4533    31.3239    53.4912
         TRA.     0.1352D+28                  1540.0850     4.9680    40.4602
         TOT.                        4.287    6492.5384    36.2919    93.9514

 320.00  VIB.     0.3659D+03                  4317.7163    29.5201    25.2221
         ROT.     0.5598D+06                   953.8591     2.9808    29.2822
         INT.     0.2048D+09                  5271.5754    32.5009    54.5043
         TRA.     0.1418D+28                  1589.7652     4.9680    40.6179
         TOT.                        4.655    6861.3406    37.4689    95.1222

 330.00  VIB.     0.4527D+03                  4618.8067    30.6979    26.1486
         ROT.     0.5862D+06                   983.6672     2.9808    29.3739
         INT.     0.2654D+09                  5602.4739    33.6787    55.5224
         TRA.     0.1485D+28                  1639.4454     4.9680    40.7708
         TOT.                        5.036    7241.9193    38.6467    96.2932

 340.00  VIB.     0.5607D+03                  4931.6675    31.8738    27.0825
         ROT.     0.6131D+06                  1013.4753     2.9808    29.4629
         INT.     0.3438D+09                  5945.1428    34.8546    56.5453
         TRA.     0.1553D+28                  1689.1255     4.9680    40.9191
         TOT.                        5.428    7634.2684    39.8226    97.4644

 350.00  VIB.     0.6955D+03                  5256.2674    33.0453    28.0233
         ROT.     0.6403D+06                  1043.2834     2.9808    29.5493
         INT.     0.4453D+09                  6299.5509    36.0261    57.5726
         TRA.     0.1622D+28                  1738.8057     4.9680    41.0631
         TOT.                        5.832    8038.3565    40.9941    98.6357

 360.00  VIB.     0.8636D+03                  5592.5518    34.2103    28.9706
         ROT.     0.6680D+06                  1073.0915     2.9808    29.6332
         INT.     0.5769D+09                  6665.6433    37.1911    58.6038
         TRA.     0.1692D+28                  1788.4859     4.9680    41.2031
         TOT.                        6.248    8454.1292    42.1591    99.8069

 370.00  VIB.     0.1074D+04                  5940.4451    35.3668    29.9237
         ROT.     0.6960D+06                  1102.8996     2.9808    29.7149
         INT.     0.7473D+09                  7043.3447    38.3476    59.6386
         TRA.     0.1762D+28                  1838.1660     4.9680    41.3392
         TOT.                        6.676    8881.5107    43.3156   100.9778

 380.00  VIB.     0.1337D+04                  6299.8533    36.5130    30.8821
         ROT.     0.7244D+06                  1132.7077     2.9808    29.7944
         INT.     0.9682D+09                  7432.5610    39.4938    60.6765
         TRA.     0.1834D+28                  1887.8462     4.9680    41.4717
         TOT.                        7.115    9320.4072    44.4618   102.1482

 390.00  VIB.     0.1666D+04                  6670.6662    37.6475    31.8452
         ROT.     0.7532D+06                  1162.5158     2.9808    29.8718
         INT.     0.1255D+10                  7833.1820    40.6283    61.7171
         TRA.     0.1907D+28                  1937.5263     4.9680    41.6007
         TOT.                        7.565    9770.7083    45.5963   103.3178

 400.00  VIB.     0.2078D+04                  7052.7592    38.7689    32.8126
         ROT.     0.7823D+06                  1192.3239     2.9808    29.9473
         INT.     0.1626D+10                  8245.0831    41.7497    62.7599
         TRA.     0.1981D+28                  1987.2065     4.9680    41.7265
         TOT.                        8.026   10232.2896    46.7177   104.4864

   *: NOTE: HEATS OF FORMATION ARE RELATIVE TO THE
            ELEMENTS IN THEIR STANDARD STATE AT 298K
              (=  Standard Enthalpy of Formation).

            Hvib:  Zero-point energy is not included.
                   frequencies of less than zero cm-1 are not included.
            Hrot = (3/2)RT
            Htra = (3/2)RT + pV = (5/2)RT

            Heat capacity is Cp, not Cv

          For more information, see: HTTP://OpenMOPAC.net/Manual/thermochemistry.html


           FORCE CONSTANT IN CARTESIAN COORDINATES (Millidynes/A)

    ATOM   CHEMICAL       X               Y               Z
   NUMBER   SYMBOL  FORCE CONSTANT  FORCE CONSTANT  FORCE CONSTANT

      1       C        8.070643        8.546266        8.190234
      2       C        7.922111        8.996473        8.422304
      3       C        8.446582        8.257200        8.192526
      4       C        4.279775       11.028783       12.247030
      5       C        3.720580       11.226601       11.980100
      6       C        3.707223       11.284575       11.917471
      7       C        3.670342       11.018649       12.124675
      8       C        3.658896       10.919798       12.094677
      9       C        3.693441       11.025515       12.108859
     10       H        1.177511        1.713790        3.506570
     11       H        1.179615        1.717447        3.511165
     12       H        1.185698        1.709667        3.494261
     13       H        1.182770        1.707410        3.480435
     14       H        1.130533        1.865071        3.782132
     15       H        5.398874        0.728331        0.667078
     16       H        1.133127        1.868256        3.776179
     17       H        0.451303        1.754329        4.059220
     18       H        0.693492        1.577852        4.007485
     19       H        0.971419        4.560050        0.756145
     20       H        0.454062        1.760263        4.064307
     21       H        0.689625        1.578896        3.993824

 **********************
 *                    *
 * JOB ENDED NORMALLY *
 *                    *
 **********************



 TOTAL JOB TIME:             8.80 SECONDS

 == MOPAC DONE ==
