 *******************************************************************************
 ** Site#: 14399        For non-commercial use only    Version 18.184L 64BITS **
 *******************************************************************************
 ** Cite this program as: MOPAC2016, Version: 18.184L, James J. P. Stewart,   **
 ** Stewart Computational Chemistry, web: HTTP://OpenMOPAC.net. Days left:  20**
 *******************************************************************************
 **                                                                           **
 **                                MOPAC2016                                  **
 **                                                                           **
 *******************************************************************************

                              PM3 CALCULATION RESULTS

 *******************************************************************************
 *  CALCULATION DONE:                                Thu Jun 13 15:49:01 2019  *
 *  PM3        - The PM3 Hamiltonian to be used
 *  PRECISE    - CRITERIA TO BE INCREASED BY 100 TIMES
 *  NOSYM      - POINT-GROUP SYMMETRY SET TO C1
 *  THREADS=1  - MULTI-THREADING NOT USED
 *  T=         - A TIME OF 172800.0 SECONDS REQUESTED
 *  DUMP=N     - RESTART FILE WRITTEN EVERY  7200.000 SECONDS
 *******************************************************************************
pm3  precise nosym THREADS=1
 InChI=1S/C10H10/c1-2-3-7-10-8-5-4-6-9-10/h3-6,8-9H,1,7H2

   ATOM   CHEMICAL          X               Y               Z
  NUMBER   SYMBOL      (ANGSTROMS)     (ANGSTROMS)     (ANGSTROMS)
 
     1       C          0.40950000  *  -1.10530000  *   0.99750000  *
     2       C         -0.55840000  *  -0.31620000  *   0.15420000  *
     3       C         -0.82080000  *   1.03400000  *   0.44290000  *
     4       C         -1.20490000  *  -0.92490000  *  -0.93510000  *
     5       C         -1.71560000  *   1.76200000  *  -0.34770000  *
     6       C         -2.09910000  *  -0.19310000  *  -1.72270000  *
     7       C         -2.35420000  *   1.14920000  *  -1.42930000  *
     8       C          1.65480000  *  -1.42760000  *   0.22780000  *
     9       C          3.30850000  *   0.45670000  *  -0.49300000  *
    10       C          2.48520000  *  -0.48590000  *  -0.13300000  *
    11       H          0.68580000  *  -0.54740000  *   1.91920000  *
    12       H         -0.07880000  *  -2.04990000  *   1.32020000  *
    13       H         -0.33060000  *   1.52410000  *   1.27490000  *
    14       H         -1.01440000  *  -1.96430000  *  -1.17290000  *
    15       H         -1.91320000  *   2.80210000  *  -0.12230000  *
    16       H         -2.59390000  *  -0.66670000  *  -2.56080000  *
    17       H         -3.04620000  *   1.71450000  *  -2.04000000  *
    18       H          1.88670000  *  -2.45720000  *  -0.01100000  *
    19       H          4.34720000  *   0.22400000  *  -0.68350000  *
    20       H          2.95220000  *   1.47200000  *  -0.60120000  *
 


          CARTESIAN COORDINATES 

    NO.       ATOM           X           Y           Z

     1         C          0.4095     -1.1053      0.9975
     2         C         -0.5584     -0.3162      0.1542
     3         C         -0.8208      1.0340      0.4429
     4         C         -1.2049     -0.9249     -0.9351
     5         C         -1.7156      1.7620     -0.3477
     6         C         -2.0991     -0.1931     -1.7227
     7         C         -2.3542      1.1492     -1.4293
     8         C          1.6548     -1.4276      0.2278
     9         C          3.3085      0.4567     -0.4930
    10         C          2.4852     -0.4859     -0.1330
    11         H          0.6858     -0.5474      1.9192
    12         H         -0.0788     -2.0499      1.3202
    13         H         -0.3306      1.5241      1.2749
    14         H         -1.0144     -1.9643     -1.1729
    15         H         -1.9132      2.8021     -0.1223
    16         H         -2.5939     -0.6667     -2.5608
    17         H         -3.0462      1.7145     -2.0400
    18         H          1.8867     -2.4572     -0.0110
    19         H          4.3472      0.2240     -0.6835
    20         H          2.9522      1.4720     -0.6012

  H: (PM3): J. J. P. STEWART, J. COMP. CHEM. 10, 209 (1989).
  C: (PM3): J. J. P. STEWART, J. COMP. CHEM. 10, 209 (1989).

           Empirical Formula: C10 H10  =    20 atoms



      MOLECULAR POINT GROUP   :   C1  


      RHF CALCULATION, NO. OF DOUBLY OCCUPIED LEVELS = 25


          Geometry optimization using EF

          DIAGONAL MATRIX USED AS START HESSIAN

 CYCLE:     1 TIME:   0.023 TIME LEFT:  2.00D  GRAD.:    74.057 HEAT:  95.82988
 CYCLE:     2 TIME:   0.039 TIME LEFT:  2.00D  GRAD.:   127.861 HEAT:  95.06504
 CYCLE:     3 TIME:   0.027 TIME LEFT:  2.00D  GRAD.:    69.823 HEAT:  89.57993
 CYCLE:     4 TIME:   0.027 TIME LEFT:  2.00D  GRAD.:   165.905 HEAT:  89.53682
 CYCLE:     5 TIME:   0.023 TIME LEFT:  2.00D  GRAD.:    60.002 HEAT:  84.02853
 CYCLE:     6 TIME:   0.023 TIME LEFT:  2.00D  GRAD.:   142.698 HEAT:  83.09114
 CYCLE:     7 TIME:   0.020 TIME LEFT:  2.00D  GRAD.:   119.342 HEAT:  78.08267
 CYCLE:     8 TIME:   0.031 TIME LEFT:  2.00D  GRAD.:   142.961 HEAT:  78.03589
 CYCLE:     9 TIME:   0.027 TIME LEFT:  2.00D  GRAD.:   135.520 HEAT:  75.52531
 CYCLE:    10 TIME:   0.031 TIME LEFT:  2.00D  GRAD.:    81.952 HEAT:  72.62360
 CYCLE:    11 TIME:   0.027 TIME LEFT:  2.00D  GRAD.:    31.390 HEAT:  71.46152
 CYCLE:    12 TIME:   0.020 TIME LEFT:  2.00D  GRAD.:    48.013 HEAT:  71.10414
 CYCLE:    13 TIME:   0.023 TIME LEFT:  2.00D  GRAD.:    42.514 HEAT:  70.53216
 CYCLE:    14 TIME:   0.023 TIME LEFT:  2.00D  GRAD.:    40.057 HEAT:  69.95970
 CYCLE:    15 TIME:   0.023 TIME LEFT:  2.00D  GRAD.:    34.507 HEAT:  69.20113
 CYCLE:    16 TIME:   0.031 TIME LEFT:  2.00D  GRAD.:    49.384 HEAT:  69.10375
 CYCLE:    17 TIME:   0.027 TIME LEFT:  2.00D  GRAD.:    31.608 HEAT:  68.70668
 CYCLE:    18 TIME:   0.027 TIME LEFT:  2.00D  GRAD.:    26.219 HEAT:  68.52553
 CYCLE:    19 TIME:   0.023 TIME LEFT:  2.00D  GRAD.:    27.964 HEAT:  68.49217
 CYCLE:    20 TIME:   0.023 TIME LEFT:  2.00D  GRAD.:    18.971 HEAT:  68.32295
 CYCLE:    21 TIME:   0.023 TIME LEFT:  2.00D  GRAD.:    16.826 HEAT:  68.20950
 CYCLE:    22 TIME:   0.020 TIME LEFT:  2.00D  GRAD.:    20.439 HEAT:  68.13310
 CYCLE:    23 TIME:   0.023 TIME LEFT:  2.00D  GRAD.:    10.710 HEAT:  68.01976
 CYCLE:    24 TIME:   0.023 TIME LEFT:  2.00D  GRAD.:    21.045 HEAT:  68.00859
 CYCLE:    25 TIME:   0.023 TIME LEFT:  2.00D  GRAD.:    10.778 HEAT:  67.87422
 CYCLE:    26 TIME:   0.023 TIME LEFT:  2.00D  GRAD.:    22.759 HEAT:  67.86381
 CYCLE:    27 TIME:   0.023 TIME LEFT:  2.00D  GRAD.:    12.067 HEAT:  67.72644
 CYCLE:    28 TIME:   0.031 TIME LEFT:  2.00D  GRAD.:    15.659 HEAT:  67.70320
 CYCLE:    29 TIME:   0.020 TIME LEFT:  2.00D  GRAD.:     6.958 HEAT:  67.60349
 CYCLE:    30 TIME:   0.031 TIME LEFT:  2.00D  GRAD.:    10.516 HEAT:  67.59397
 CYCLE:    31 TIME:   0.066 TIME LEFT:  2.00D  GRAD.:     4.009 HEAT:  67.53665
 CYCLE:    32 TIME:   0.023 TIME LEFT:  2.00D  GRAD.:     3.587 HEAT:  67.50078
 CYCLE:    33 TIME:   0.023 TIME LEFT:  2.00D  GRAD.:     4.037 HEAT:  67.46650
 CYCLE:    34 TIME:   0.020 TIME LEFT:  2.00D  GRAD.:     3.618 HEAT:  67.44042
 CYCLE:    35 TIME:   0.023 TIME LEFT:  2.00D  GRAD.:     3.203 HEAT:  67.42916
 CYCLE:    36 TIME:   0.023 TIME LEFT:  2.00D  GRAD.:     6.766 HEAT:  67.41794
 CYCLE:    37 TIME:   0.023 TIME LEFT:  2.00D  GRAD.:     4.608 HEAT:  67.39124
 CYCLE:    38 TIME:   0.023 TIME LEFT:  2.00D  GRAD.:     3.398 HEAT:  67.36451
 CYCLE:    39 TIME:   0.023 TIME LEFT:  2.00D  GRAD.:     3.789 HEAT:  67.33622
 CYCLE:    40 TIME:   0.023 TIME LEFT:  2.00D  GRAD.:     3.883 HEAT:  67.31297
 CYCLE:    41 TIME:   0.020 TIME LEFT:  2.00D  GRAD.:     2.986 HEAT:  67.29147
 CYCLE:    42 TIME:   0.023 TIME LEFT:  2.00D  GRAD.:     2.950 HEAT:  67.27591
 CYCLE:    43 TIME:   0.023 TIME LEFT:  2.00D  GRAD.:     2.407 HEAT:  67.26385
 CYCLE:    44 TIME:   0.023 TIME LEFT:  2.00D  GRAD.:     2.320 HEAT:  67.25254
 CYCLE:    45 TIME:   0.023 TIME LEFT:  2.00D  GRAD.:     2.099 HEAT:  67.24348
 CYCLE:    46 TIME:   0.023 TIME LEFT:  2.00D  GRAD.:     1.737 HEAT:  67.23606
 CYCLE:    47 TIME:   0.020 TIME LEFT:  2.00D  GRAD.:     1.753 HEAT:  67.23103
 CYCLE:    48 TIME:   0.023 TIME LEFT:  2.00D  GRAD.:     1.722 HEAT:  67.22537
 CYCLE:    49 TIME:   0.023 TIME LEFT:  2.00D  GRAD.:     1.780 HEAT:  67.21927
 CYCLE:    50 TIME:   0.023 TIME LEFT:  2.00D  GRAD.:     1.828 HEAT:  67.21309
 CYCLE:    51 TIME:   0.023 TIME LEFT:  2.00D  GRAD.:     1.705 HEAT:  67.20723
 CYCLE:    52 TIME:   0.023 TIME LEFT:  2.00D  GRAD.:     1.345 HEAT:  67.20297
 CYCLE:    53 TIME:   0.023 TIME LEFT:  2.00D  GRAD.:     1.033 HEAT:  67.19979
 CYCLE:    54 TIME:   0.020 TIME LEFT:  2.00D  GRAD.:     1.078 HEAT:  67.19710
 CYCLE:    55 TIME:   0.023 TIME LEFT:  2.00D  GRAD.:     1.227 HEAT:  67.19415
 CYCLE:    56 TIME:   0.023 TIME LEFT:  2.00D  GRAD.:     1.249 HEAT:  67.19128
 CYCLE:    57 TIME:   0.023 TIME LEFT:  2.00D  GRAD.:     1.235 HEAT:  67.18787
 CYCLE:    58 TIME:   0.023 TIME LEFT:  2.00D  GRAD.:     1.199 HEAT:  67.18577
 CYCLE:    59 TIME:   0.023 TIME LEFT:  2.00D  GRAD.:     2.065 HEAT:  67.17926
 CYCLE:    60 TIME:   0.023 TIME LEFT:  2.00D  GRAD.:     1.726 HEAT:  67.17598
 CYCLE:    61 TIME:   0.020 TIME LEFT:  2.00D  GRAD.:     2.918 HEAT:  67.16318
 CYCLE:    62 TIME:   0.023 TIME LEFT:  2.00D  GRAD.:     1.902 HEAT:  67.15835
 CYCLE:    63 TIME:   0.023 TIME LEFT:  2.00D  GRAD.:     1.387 HEAT:  67.14989
 CYCLE:    64 TIME:   0.023 TIME LEFT:  2.00D  GRAD.:     1.456 HEAT:  67.14575
 CYCLE:    65 TIME:   0.023 TIME LEFT:  2.00D  GRAD.:     1.791 HEAT:  67.13942
 CYCLE:    66 TIME:   0.023 TIME LEFT:  2.00D  GRAD.:     1.484 HEAT:  67.13607
 CYCLE:    67 TIME:   0.020 TIME LEFT:  2.00D  GRAD.:     5.220 HEAT:  67.10653
 CYCLE:    68 TIME:   0.023 TIME LEFT:  2.00D  GRAD.:     4.497 HEAT:  67.08638
 CYCLE:    69 TIME:   0.023 TIME LEFT:  2.00D  GRAD.:     6.155 HEAT:  67.04209
 CYCLE:    70 TIME:   0.023 TIME LEFT:  2.00D  GRAD.:     6.663 HEAT:  67.02664
 CYCLE:    71 TIME:   0.023 TIME LEFT:  2.00D  GRAD.:     5.301 HEAT:  67.00492
 CYCLE:    72 TIME:   0.023 TIME LEFT:  2.00D  GRAD.:     4.211 HEAT:  66.96529
 CYCLE:    73 TIME:   0.023 TIME LEFT:  2.00D  GRAD.:     5.951 HEAT:  66.91430
 CYCLE:    74 TIME:   0.020 TIME LEFT:  2.00D  GRAD.:     6.772 HEAT:  66.84726
 CYCLE:    75 TIME:   0.023 TIME LEFT:  2.00D  GRAD.:     6.575 HEAT:  66.76432
 CYCLE:    76 TIME:   0.023 TIME LEFT:  2.00D  GRAD.:     6.993 HEAT:  66.67289
 CYCLE:    77 TIME:   0.023 TIME LEFT:  2.00D  GRAD.:     9.853 HEAT:  66.61162
 CYCLE:    78 TIME:   0.031 TIME LEFT:  2.00D  GRAD.:    12.574 HEAT:  66.59193
 CYCLE:    79 TIME:   0.023 TIME LEFT:  2.00D  GRAD.:     6.146 HEAT:  66.54805
 CYCLE:    80 TIME:   0.023 TIME LEFT:  2.00D  GRAD.:     3.170 HEAT:  66.52424
 CYCLE:    81 TIME:   0.023 TIME LEFT:  2.00D  GRAD.:     3.626 HEAT:  66.50285
 CYCLE:    82 TIME:   0.023 TIME LEFT:  2.00D  GRAD.:     3.500 HEAT:  66.47064
 CYCLE:    83 TIME:   0.023 TIME LEFT:  2.00D  GRAD.:     6.621 HEAT:  66.43862
 CYCLE:    84 TIME:   0.023 TIME LEFT:  2.00D  GRAD.:     5.276 HEAT:  66.39801
 CYCLE:    85 TIME:   0.023 TIME LEFT:  2.00D  GRAD.:     5.616 HEAT:  66.35709
 CYCLE:    86 TIME:   0.023 TIME LEFT:  2.00D  GRAD.:     7.224 HEAT:  66.32364
 CYCLE:    87 TIME:   0.035 TIME LEFT:  2.00D  GRAD.:     5.322 HEAT:  66.30841
 CYCLE:    88 TIME:   0.027 TIME LEFT:  2.00D  GRAD.:     4.801 HEAT:  66.29223
 CYCLE:    89 TIME:   0.020 TIME LEFT:  2.00D  GRAD.:     2.170 HEAT:  66.27797
 CYCLE:    90 TIME:   0.023 TIME LEFT:  2.00D  GRAD.:     2.979 HEAT:  66.26426
 CYCLE:    91 TIME:   0.023 TIME LEFT:  2.00D  GRAD.:     2.286 HEAT:  66.24917
 CYCLE:    92 TIME:   0.023 TIME LEFT:  2.00D  GRAD.:     2.796 HEAT:  66.22985
 CYCLE:    93 TIME:   0.023 TIME LEFT:  2.00D  GRAD.:     3.118 HEAT:  66.20678
 CYCLE:    94 TIME:   0.023 TIME LEFT:  2.00D  GRAD.:     4.581 HEAT:  66.18446
 CYCLE:    95 TIME:   0.020 TIME LEFT:  2.00D  GRAD.:     3.606 HEAT:  66.16981
 CYCLE:    96 TIME:   0.023 TIME LEFT:  2.00D  GRAD.:     5.721 HEAT:  66.16463
 CYCLE:    97 TIME:   0.027 TIME LEFT:  2.00D  GRAD.:     5.266 HEAT:  66.15470
 CYCLE:    98 TIME:   0.020 TIME LEFT:  2.00D  GRAD.:     2.968 HEAT:  66.14067
 CYCLE:    99 TIME:   0.023 TIME LEFT:  2.00D  GRAD.:     2.054 HEAT:  66.13179
 CYCLE:   100 TIME:   0.023 TIME LEFT:  2.00D  GRAD.:     2.376 HEAT:  66.12494
 CYCLE:   101 TIME:   0.023 TIME LEFT:  2.00D  GRAD.:     3.362 HEAT:  66.11667
 CYCLE:   102 TIME:   0.020 TIME LEFT:  2.00D  GRAD.:     2.403 HEAT:  66.11123
 CYCLE:   103 TIME:   0.023 TIME LEFT:  2.00D  GRAD.:     2.356 HEAT:  66.10692
 CYCLE:   104 TIME:   0.023 TIME LEFT:  2.00D  GRAD.:     1.381 HEAT:  66.10186
 CYCLE:   105 TIME:   0.023 TIME LEFT:  2.00D  GRAD.:     1.523 HEAT:  66.09861
 CYCLE:   106 TIME:   0.023 TIME LEFT:  2.00D  GRAD.:     1.411 HEAT:  66.09677
 CYCLE:   107 TIME:   0.023 TIME LEFT:  2.00D  GRAD.:     0.992 HEAT:  66.09497
 CYCLE:   108 TIME:   0.023 TIME LEFT:  2.00D  GRAD.:     1.536 HEAT:  66.09332
 CYCLE:   109 TIME:   0.020 TIME LEFT:  2.00D  GRAD.:     0.851 HEAT:  66.09215
 CYCLE:   110 TIME:   0.031 TIME LEFT:  2.00D  GRAD.:     1.025 HEAT:  66.09095
 CYCLE:   111 TIME:   0.023 TIME LEFT:  2.00D  GRAD.:     0.853 HEAT:  66.09002
 CYCLE:   112 TIME:   0.020 TIME LEFT:  2.00D  GRAD.:     0.653 HEAT:  66.08957
 CYCLE:   113 TIME:   0.023 TIME LEFT:  2.00D  GRAD.:     0.393 HEAT:  66.08916
 CYCLE:   114 TIME:   0.023 TIME LEFT:  2.00D  GRAD.:     0.327 HEAT:  66.08899
 CYCLE:   115 TIME:   0.023 TIME LEFT:  2.00D  GRAD.:     0.354 HEAT:  66.08876
 CYCLE:   116 TIME:   0.023 TIME LEFT:  2.00D  GRAD.:     0.287 HEAT:  66.08859
 CYCLE:   117 TIME:   0.023 TIME LEFT:  2.00D  GRAD.:     0.345 HEAT:  66.08828
 CYCLE:   118 TIME:   0.023 TIME LEFT:  2.00D  GRAD.:     0.242 HEAT:  66.08818
 CYCLE:   119 TIME:   0.023 TIME LEFT:  2.00D  GRAD.:     0.275 HEAT:  66.08799
 CYCLE:   120 TIME:   0.020 TIME LEFT:  2.00D  GRAD.:     0.375 HEAT:  66.08784
 CYCLE:   121 TIME:   0.023 TIME LEFT:  2.00D  GRAD.:     0.337 HEAT:  66.08776
 CYCLE:   122 TIME:   0.023 TIME LEFT:  2.00D  GRAD.:     0.418 HEAT:  66.08787
 CYCLE:   123 TIME:   0.023 TIME LEFT:  2.00D  GRAD.:     0.235 HEAT:  66.08764
 CYCLE:   124 TIME:   0.023 TIME LEFT:  2.00D  GRAD.:     0.224 HEAT:  66.08760
 CYCLE:   125 TIME:   0.023 TIME LEFT:  2.00D  GRAD.:     0.538 HEAT:  66.08741
 CYCLE:   126 TIME:   0.023 TIME LEFT:  2.00D  GRAD.:     0.356 HEAT:  66.08704
 CYCLE:   127 TIME:   0.020 TIME LEFT:  2.00D  GRAD.:     0.504 HEAT:  66.08643
 CYCLE:   128 TIME:   0.023 TIME LEFT:  2.00D  GRAD.:     0.851 HEAT:  66.08546
 CYCLE:   129 TIME:   0.023 TIME LEFT:  2.00D  GRAD.:     1.162 HEAT:  66.08392
 CYCLE:   130 TIME:   0.023 TIME LEFT:  2.00D  GRAD.:     1.616 HEAT:  66.08081
 CYCLE:   131 TIME:   0.023 TIME LEFT:  2.00D  GRAD.:     1.582 HEAT:  66.07778
 CYCLE:   132 TIME:   0.023 TIME LEFT:  2.00D  GRAD.:     1.243 HEAT:  66.07297
 CYCLE:   133 TIME:   0.020 TIME LEFT:  2.00D  GRAD.:     1.392 HEAT:  66.07160
 CYCLE:   134 TIME:   0.023 TIME LEFT:  2.00D  GRAD.:     1.368 HEAT:  66.06996
 CYCLE:   135 TIME:   0.023 TIME LEFT:  2.00D  GRAD.:     0.974 HEAT:  66.06812
 CYCLE:   136 TIME:   0.023 TIME LEFT:  2.00D  GRAD.:     0.925 HEAT:  66.06692
 CYCLE:   137 TIME:   0.023 TIME LEFT:  2.00D  GRAD.:     1.361 HEAT:  66.06383
 CYCLE:   138 TIME:   0.023 TIME LEFT:  2.00D  GRAD.:     1.312 HEAT:  66.06203
 CYCLE:   139 TIME:   0.023 TIME LEFT:  2.00D  GRAD.:     2.207 HEAT:  66.06009
 CYCLE:   140 TIME:   0.020 TIME LEFT:  2.00D  GRAD.:     1.260 HEAT:  66.05689
 CYCLE:   141 TIME:   0.035 TIME LEFT:  2.00D  GRAD.:     1.148 HEAT:  66.05526
 CYCLE:   142 TIME:   0.023 TIME LEFT:  2.00D  GRAD.:     0.577 HEAT:  66.05391
 CYCLE:   143 TIME:   0.023 TIME LEFT:  2.00D  GRAD.:     0.550 HEAT:  66.05317
 CYCLE:   144 TIME:   0.023 TIME LEFT:  2.00D  GRAD.:     0.395 HEAT:  66.05272
 CYCLE:   145 TIME:   0.023 TIME LEFT:  2.00D  GRAD.:     0.346 HEAT:  66.05252
 CYCLE:   146 TIME:   0.020 TIME LEFT:  2.00D  GRAD.:     0.175 HEAT:  66.05244
 CYCLE:   147 TIME:   0.023 TIME LEFT:  2.00D  GRAD.:     0.297 HEAT:  66.05243
 CYCLE:   148 TIME:   0.023 TIME LEFT:  2.00D  GRAD.:     0.155 HEAT:  66.05237
 CYCLE:   149 TIME:   0.023 TIME LEFT:  2.00D  GRAD.:     0.157 HEAT:  66.05234
 CYCLE:   150 TIME:   0.023 TIME LEFT:  2.00D  GRAD.:     0.112 HEAT:  66.05231
 CYCLE:   151 TIME:   0.023 TIME LEFT:  2.00D  GRAD.:     0.261 HEAT:  66.05227
 CYCLE:   152 TIME:   0.020 TIME LEFT:  2.00D  GRAD.:     0.089 HEAT:  66.05223
 CYCLE:   153 TIME:   0.023 TIME LEFT:  2.00D  GRAD.:     0.077 HEAT:  66.05222
 CYCLE:   154 TIME:   0.023 TIME LEFT:  2.00D  GRAD.:     0.043 HEAT:  66.05222

     GRADIENT =  0.04259  IS LESS THAN CUTOFF =  0.05000



 -------------------------------------------------------------------------------
 pm3  precise nosym THREADS=1
 InChI=1S/C10H10/c1-2-3-7-10-8-5-4-6-9-10/h3-6,8-9H,1,7H2



     GEOMETRY OPTIMISED USING EIGENVECTOR FOLLOWING (EF).     
     SCF FIELD WAS ACHIEVED                                   


                              PM3 CALCULATION
                                                       MOPAC2016 (Version: 18.184L)
                                                       Thu Jun 13 15:49:05 2019
                                                       No. of days remaining =  20




          FINAL HEAT OF FORMATION =         66.05222 KCAL/MOL =     276.36247 KJ/MOL


          TOTAL ENERGY            =      -1336.86664 EV
          ELECTRONIC ENERGY       =      -6702.57615 EV  POINT GROUP:     C1  
          CORE-CORE REPULSION     =       5365.70950 EV
          COSMO AREA              =        186.64 SQUARE ANGSTROMS
          COSMO VOLUME            =        183.19 CUBIC ANGSTROMS

          GRADIENT NORM           =          0.04259 = 0.00952 PER ATOM
          IONIZATION POTENTIAL    =          9.538096 EV
          HOMO LUMO ENERGIES (EV) =         -9.538  0.292
          NO. OF FILLED LEVELS    =         25
          MOLECULAR WEIGHT        =        130.1890

          MOLECULAR DIMENSIONS (Angstroms)

            Atom       Atom       Distance
            H    19    H    17     9.22298
            H    15    H    14     4.53419
            H    20    H    12     2.79750


          SCF CALCULATIONS        =        168
 
          WALL-CLOCK TIME         =          3.742 SECONDS
          COMPUTATION TIME        =          1.459 SECONDS




   ATOM   CHEMICAL          X               Y               Z
  NUMBER   SYMBOL      (ANGSTROMS)     (ANGSTROMS)     (ANGSTROMS)
 
     1       C          0.59011573  *  -0.71356945  *   0.66274692  *
     2       C         -0.61416007  *  -0.14245711  *  -0.01678064  *
     3       C         -0.93633346  *   1.20638584  *   0.13585216  *
     4       C         -1.42453322  *  -0.95850700  *  -0.80842982  *
     5       C         -2.05798281  *   1.73168442  *  -0.49664300  *
     6       C         -2.54460030  *  -0.42992885  *  -1.43886454  *
     7       C         -2.86289732  *   0.91546962  *  -1.28373292  *
     8       C          1.71540170  *  -0.88167522  *  -0.30253766  *
     9       C          4.15471714  *  -0.16828158  *   0.23887473  *
    10       C          2.93700479  *  -0.52149833  *  -0.02786207  *
    11       H          0.88949328  *  -0.07773803  *   1.51946620  *
    12       H          0.34428804  *  -1.70669854  *   1.09160020  *
    13       H         -0.30424119  *   1.85320205  *   0.75484396  *
    14       H         -1.17302774  *  -2.01808777  *  -0.93076204  *
    15       H         -2.30660445  *   2.79083453  *  -0.37388105  *
    16       H         -3.17721557  *  -1.07423131  *  -2.05794474  *
    17       H         -3.74571103  *   1.33058042  *  -1.78035291  *
    18       H          1.47839152  *  -1.33287990  *  -1.27427217  *
    19       H          4.86430294  *  -0.84118947  *   0.71253061  *
    20       H          4.53695663  *   0.82113134  *   0.00304793  *

                             CARTESIAN COORDINATES

   1    C        0.590115726    -0.713569452     0.662746920
   2    C       -0.614160072    -0.142457107    -0.016780642
   3    C       -0.936333462     1.206385841     0.135852159
   4    C       -1.424533222    -0.958507003    -0.808429823
   5    C       -2.057982812     1.731684418    -0.496642996
   6    C       -2.544600302    -0.429928846    -1.438864540
   7    C       -2.862897318     0.915469621    -1.283732916
   8    C        1.715401702    -0.881675216    -0.302537656
   9    C        4.154717145    -0.168281575     0.238874725
  10    C        2.937004789    -0.521498331    -0.027862073
  11    H        0.889493276    -0.077738027     1.519466204
  12    H        0.344288040    -1.706698542     1.091600202
  13    H       -0.304241188     1.853202051     0.754843956
  14    H       -1.173027742    -2.018087769    -0.930762043
  15    H       -2.306604449     2.790834525    -0.373881046
  16    H       -3.177215570    -1.074231312    -2.057944737
  17    H       -3.745711035     1.330580421    -1.780352914
  18    H        1.478391517    -1.332879898    -1.274272169
  19    H        4.864302937    -0.841189468     0.712530609
  20    H        4.536956632     0.821131343     0.003047934


           Empirical Formula: C10 H10  =    20 atoms



      MOLECULAR POINT GROUP   :   C1  


                  EIGENVALUES  
 -40.26177 -35.46192 -31.35100 -29.65355 -27.39884 -23.70794 -21.68009 -20.48726
 -17.97086 -17.91218 -16.69463 -16.05180 -15.31465 -15.18319 -15.00708 -14.64007
 -14.36569 -13.07830 -12.95024 -12.54874 -12.25603 -10.36716  -9.80747  -9.75563
  -9.53810   0.29185   0.40323   1.03858   1.13053   2.77862   3.00766   3.21013
   3.44456   3.45716   3.61281   3.71100   3.91597   3.98084   4.12822   4.27579
   4.66407   4.93855   4.99947   5.04833   5.13517   5.26546   5.32016   6.13222
   6.33020   6.50818


              NET ATOMIC CHARGES AND DIPOLE CONTRIBUTIONS

  ATOM NO.   TYPE          CHARGE      No. of ELECS.   s-Pop       p-Pop       
    1          C          -0.005416        4.0054     1.13278     2.87263
    2          C          -0.077848        4.0778     1.18326     2.89459
    3          C          -0.095212        4.0952     1.17895     2.91626
    4          C          -0.101164        4.1012     1.17850     2.92267
    5          C          -0.100065        4.1001     1.17906     2.92100
    6          C          -0.099476        4.0995     1.17869     2.92079
    7          C          -0.104625        4.1046     1.17931     2.92532
    8          C          -0.083207        4.0832     1.16226     2.92095
    9          C          -0.090551        4.0906     1.14659     2.94396
   10          C          -0.185732        4.1857     1.21419     2.97154
   11          H           0.060519        0.9395     0.93948
   12          H           0.060580        0.9394     0.93942
   13          H           0.106654        0.8933     0.89335
   14          H           0.105385        0.8946     0.89461
   15          H           0.102390        0.8976     0.89761
   16          H           0.102296        0.8977     0.89770
   17          H           0.102664        0.8973     0.89734
   18          H           0.115063        0.8849     0.88494
   19          H           0.093516        0.9065     0.90648
   20          H           0.094227        0.9058     0.90577
 DIPOLE           X         Y         Z       TOTAL
 POINT-CHG.    -0.012    -0.044     0.152     0.159
 HYBRID         0.049     0.001    -0.052     0.072
 SUM            0.037    -0.042     0.100     0.114


          ATOMIC ORBITAL ELECTRON POPULATIONS

     Atom    s        px        py        pz   
    1  C   1.13278   0.91430   1.00349   0.95485
    2  C   1.18326   0.96217   0.95017   0.98225
    3  C   1.17895   0.97313   0.94772   0.99541
    4  C   1.17850   0.96012   0.98241   0.98013
    5  C   1.17906   0.96025   0.98242   0.97834
    6  C   1.17869   0.97164   0.95784   0.99131
    7  C   1.17931   0.98717   0.94938   0.98876
    8  C   1.16226   0.90789   1.01964   0.99343
    9  C   1.14659   0.92492   1.00109   1.01794
   10  C   1.21419   0.97105   1.00450   0.99599
   11  H   0.93948
   12  H   0.93942
   13  H   0.89335
   14  H   0.89461
   15  H   0.89761
   16  H   0.89770
   17  H   0.89734
   18  H   0.88494
   19  H   0.90648
   20  H   0.90577
 *******************************************************************************
 ** Site#: 14399        For non-commercial use only    Version 18.184L 64BITS **
 *******************************************************************************
 ** Cite this program as: MOPAC2016, Version: 18.184L, James J. P. Stewart,   **
 ** Stewart Computational Chemistry, web: HTTP://OpenMOPAC.net. Days left:  20**
 *******************************************************************************
 **                                                                           **
 **                                MOPAC2016                                  **
 **                                                                           **
 *******************************************************************************

                              PM3 CALCULATION RESULTS

 *******************************************************************************
 *  CALCULATION DONE:                                Thu Jun 13 15:49:05 2019  *
 *  PM3        - The PM3 Hamiltonian to be used
 *  OLDGEO     - PREVIOUS GEOMETRY TO BE USED
 *  PRECISE    - CRITERIA TO BE INCREASED BY 100 TIMES
 *  NOSYM      - POINT-GROUP SYMMETRY SET TO C1
 *  THREADS=1  - MULTI-THREADING NOT USED
 *  T=         - A TIME OF 172800.0 SECONDS REQUESTED
 *  DUMP=N     - RESTART FILE WRITTEN EVERY  7200.000 SECONDS
 *  THERMO     - THERMODYNAMIC QUANTITIES TO BE CALCULATED
 *******************************************************************************
oldgeo thermo nosym precise THREADS=1  pm3
 InChI=1S/C10H10/c1-2-3-7-10-8-5-4-6-9-10/h3-6,8-9H,1,7H2

   ATOM   CHEMICAL          X               Y               Z
  NUMBER   SYMBOL      (ANGSTROMS)     (ANGSTROMS)     (ANGSTROMS)
 
     1       C          0.59011573  *  -0.71356945  *   0.66274692  *
     2       C         -0.61416007  *  -0.14245711  *  -0.01678064  *
     3       C         -0.93633346  *   1.20638584  *   0.13585216  *
     4       C         -1.42453322  *  -0.95850700  *  -0.80842982  *
     5       C         -2.05798281  *   1.73168442  *  -0.49664300  *
     6       C         -2.54460030  *  -0.42992885  *  -1.43886454  *
     7       C         -2.86289732  *   0.91546962  *  -1.28373292  *
     8       C          1.71540170  *  -0.88167522  *  -0.30253766  *
     9       C          4.15471714  *  -0.16828158  *   0.23887473  *
    10       C          2.93700479  *  -0.52149833  *  -0.02786207  *
    11       H          0.88949328  *  -0.07773803  *   1.51946620  *
    12       H          0.34428804  *  -1.70669854  *   1.09160020  *
    13       H         -0.30424119  *   1.85320205  *   0.75484396  *
    14       H         -1.17302774  *  -2.01808777  *  -0.93076204  *
    15       H         -2.30660445  *   2.79083453  *  -0.37388105  *
    16       H         -3.17721557  *  -1.07423131  *  -2.05794474  *
    17       H         -3.74571103  *   1.33058042  *  -1.78035291  *
    18       H          1.47839152  *  -1.33287990  *  -1.27427217  *
    19       H          4.86430294  *  -0.84118947  *   0.71253061  *
    20       H          4.53695663  *   0.82113134  *   0.00304793  *
 


          CARTESIAN COORDINATES 

    NO.       ATOM           X           Y           Z

     1         C          0.5901     -0.7136      0.6627
     2         C         -0.6142     -0.1425     -0.0168
     3         C         -0.9363      1.2064      0.1359
     4         C         -1.4245     -0.9585     -0.8084
     5         C         -2.0580      1.7317     -0.4966
     6         C         -2.5446     -0.4299     -1.4389
     7         C         -2.8629      0.9155     -1.2837
     8         C          1.7154     -0.8817     -0.3025
     9         C          4.1547     -0.1683      0.2389
    10         C          2.9370     -0.5215     -0.0279
    11         H          0.8895     -0.0777      1.5195
    12         H          0.3443     -1.7067      1.0916
    13         H         -0.3042      1.8532      0.7548
    14         H         -1.1730     -2.0181     -0.9308
    15         H         -2.3066      2.7908     -0.3739
    16         H         -3.1772     -1.0742     -2.0579
    17         H         -3.7457      1.3306     -1.7804
    18         H          1.4784     -1.3329     -1.2743
    19         H          4.8643     -0.8412      0.7125
    20         H          4.5370      0.8211      0.0030

  H: (PM3): J. J. P. STEWART, J. COMP. CHEM. 10, 209 (1989).
  C: (PM3): J. J. P. STEWART, J. COMP. CHEM. 10, 209 (1989).

           Empirical Formula: C10 H10  =    20 atoms



      MOLECULAR POINT GROUP   :   C1  


      RHF CALCULATION, NO. OF DOUBLY OCCUPIED LEVELS = 25



          HEAT OF FORMATION =      66.052216 KCALS/MOLE


          CARTESIAN COORDINATE DERIVATIVES

   NUMBER  ATOM         X            Y            Z

     1       C     -0.001915    -0.004160     0.006302
     2       C      0.000601    -0.009671    -0.000957
     3       C      0.001193     0.007756    -0.001526
     4       C     -0.000472    -0.001143     0.005702
     5       C      0.001105     0.001327     0.003108
     6       C      0.005990    -0.006477    -0.001390
     7       C     -0.000152    -0.000712    -0.000816
     8       C     -0.001079    -0.008865    -0.002906
     9       C     -0.005406     0.006511    -0.007375
    10       C     -0.016389     0.014158     0.013530
    11       H     -0.000901     0.002717    -0.001672
    12       H      0.000628    -0.003448    -0.004541
    13       H      0.005997    -0.000128    -0.002636
    14       H     -0.004095     0.000731     0.001544
    15       H     -0.001530     0.001466     0.004348
    16       H      0.000247     0.003074    -0.004904
    17       H     -0.003992     0.001984    -0.000968
    18       H     -0.000365     0.009763    -0.004353
    19       H      0.015849    -0.006673    -0.002644
    20       H      0.004686    -0.008210     0.002154
 


          GRADIENT NORM =   0.04369


          TIME FOR SCF CALCULATION =    0.03

          TIME FOR DERIVATIVES     =    0.01

          MOLECULAR WEIGHT =  130.19



          ROTATIONAL CONSTANTS IN CM(-1)

          A =    0.12541992   B =    0.02172271   C =    0.01988130



           PRINCIPAL MOMENTS OF INERTIA IN UNITS OF 10**(-40)*GRAM-CM**2

          A =      223.1924   B =     1288.6409   C =     1407.9954


          ORIENTATION OF MOLECULE IN FORCE CALCULATION

    NO.       ATOM         X         Y         Z

     1          C      -1.2658   -0.1154   -0.5741
     2          C       0.2303   -0.1154   -0.5741
     3          C       0.9352    1.0886   -0.5741
     4          C       0.9306   -1.3232   -0.5751
     5          C       2.3259    1.0828   -0.5759
     6          C       2.3204   -1.3249   -0.5770
     7          C       3.0197   -0.1223   -0.5776
     8          C      -1.7973   -0.4160    0.7873
     9          C      -3.7345    0.9333    1.8732
    10          C      -2.7680    0.2637    1.3289
    11          H      -1.6532    0.8523   -0.9502
    12          H      -1.6418   -0.8877   -1.2761
    13          H       0.3921    2.0405   -0.5723
    14          H       0.3793   -2.2703   -0.5741
    15          H       2.8746    2.0302   -0.5758
    16          H       2.8649   -2.2747   -0.5785
    17          H       4.1144   -0.1249   -0.5796
    18          H      -1.3374   -1.2505    1.3314
    19          H      -4.7777    0.6604    1.7394
    20          H      -3.5574    1.8059    2.4960


    FIRST DERIVATIVES WILL BE USED IN THE CALCULATION OF SECOND DERIVATIVES

          ESTIMATED TIME TO COMPLETE CALCULATION =       10.31 SECONDS

    FOR POINT-GROUP C1   THERE ARE   1 UNIQUE SYMMETRY FUNCTIONS.

 STEP:   1 TIME =     0.05 SECS, INTEGRAL =      0.05 TIME LEFT: 172799.91
 STEP:   2 TIME =     0.05 SECS, INTEGRAL =      0.09 TIME LEFT: 172799.86
 STEP:   3 TIME =     0.05 SECS, INTEGRAL =      0.14 TIME LEFT: 172799.82
 STEP:   4 TIME =     0.05 SECS, INTEGRAL =      0.19 TIME LEFT: 172799.77
 STEP:   5 TIME =     0.05 SECS, INTEGRAL =      0.23 TIME LEFT: 172799.72
 STEP:   6 TIME =     0.05 SECS, INTEGRAL =      0.28 TIME LEFT: 172799.68
 STEP:   7 TIME =     0.05 SECS, INTEGRAL =      0.33 TIME LEFT: 172799.63
 STEP:   8 TIME =     0.04 SECS, INTEGRAL =      0.37 TIME LEFT: 172799.59
 STEP:   9 TIME =     0.05 SECS, INTEGRAL =      0.42 TIME LEFT: 172799.54
 STEP:  10 TIME =     0.05 SECS, INTEGRAL =      0.46 TIME LEFT: 172799.49
 STEP:  11 TIME =     0.05 SECS, INTEGRAL =      0.52 TIME LEFT: 172799.44
 STEP:  12 TIME =     0.05 SECS, INTEGRAL =      0.56 TIME LEFT: 172799.39
 STEP:  13 TIME =     0.05 SECS, INTEGRAL =      0.61 TIME LEFT: 172799.35
 STEP:  14 TIME =     0.05 SECS, INTEGRAL =      0.66 TIME LEFT: 172799.30
 STEP:  15 TIME =     0.05 SECS, INTEGRAL =      0.70 TIME LEFT: 172799.25
 STEP:  16 TIME =     0.05 SECS, INTEGRAL =      0.75 TIME LEFT: 172799.21
 STEP:  17 TIME =     0.05 SECS, INTEGRAL =      0.80 TIME LEFT: 172799.16
 STEP:  18 TIME =     0.05 SECS, INTEGRAL =      0.84 TIME LEFT: 172799.11
 STEP:  19 TIME =     0.05 SECS, INTEGRAL =      0.89 TIME LEFT: 172799.07
 STEP:  20 TIME =     0.05 SECS, INTEGRAL =      0.94 TIME LEFT: 172799.02
 STEP:  21 TIME =     0.05 SECS, INTEGRAL =      0.99 TIME LEFT: 172798.97
 STEP:  22 TIME =     0.05 SECS, INTEGRAL =      1.04 TIME LEFT: 172798.92
 STEP:  23 TIME =     0.05 SECS, INTEGRAL =      1.08 TIME LEFT: 172798.88
 STEP:  24 TIME =     0.04 SECS, INTEGRAL =      1.12 TIME LEFT: 172798.83
 STEP:  25 TIME =     0.05 SECS, INTEGRAL =      1.17 TIME LEFT: 172798.79
 STEP:  26 TIME =     0.05 SECS, INTEGRAL =      1.22 TIME LEFT: 172798.74
 STEP:  27 TIME =     0.04 SECS, INTEGRAL =      1.26 TIME LEFT: 172798.70
 STEP:  28 TIME =     0.05 SECS, INTEGRAL =      1.31 TIME LEFT: 172798.65
 STEP:  29 TIME =     0.05 SECS, INTEGRAL =      1.36 TIME LEFT: 172798.60
 STEP:  30 TIME =     0.05 SECS, INTEGRAL =      1.40 TIME LEFT: 172798.55
 STEP:  31 TIME =     0.05 SECS, INTEGRAL =      1.45 TIME LEFT: 172798.51
 STEP:  32 TIME =     0.04 SECS, INTEGRAL =      1.49 TIME LEFT: 172798.46
 STEP:  33 TIME =     0.05 SECS, INTEGRAL =      1.54 TIME LEFT: 172798.42
 STEP:  34 TIME =     0.05 SECS, INTEGRAL =      1.59 TIME LEFT: 172798.37
 STEP:  35 TIME =     0.04 SECS, INTEGRAL =      1.63 TIME LEFT: 172798.33
 STEP:  36 TIME =     0.05 SECS, INTEGRAL =      1.68 TIME LEFT: 172798.28
 STEP:  37 TIME =     0.05 SECS, INTEGRAL =      1.72 TIME LEFT: 172798.23
 STEP:  38 TIME =     0.05 SECS, INTEGRAL =      1.77 TIME LEFT: 172798.19
 STEP:  39 TIME =     0.05 SECS, INTEGRAL =      1.82 TIME LEFT: 172798.14
 STEP:  40 TIME =     0.05 SECS, INTEGRAL =      1.87 TIME LEFT: 172798.09
 STEP:  41 TIME =     0.04 SECS, INTEGRAL =      1.91 TIME LEFT: 172798.05
 STEP:  42 TIME =     0.05 SECS, INTEGRAL =      1.96 TIME LEFT: 172798.00
 STEP:  43 TIME =     0.05 SECS, INTEGRAL =      2.00 TIME LEFT: 172797.95
 STEP:  44 TIME =     0.05 SECS, INTEGRAL =      2.05 TIME LEFT: 172797.91
 STEP:  45 TIME =     0.05 SECS, INTEGRAL =      2.10 TIME LEFT: 172797.86
 STEP:  46 TIME =     0.05 SECS, INTEGRAL =      2.15 TIME LEFT: 172797.81
 STEP:  47 TIME =     0.04 SECS, INTEGRAL =      2.19 TIME LEFT: 172797.77
 STEP:  48 TIME =     0.05 SECS, INTEGRAL =      2.24 TIME LEFT: 172797.72
 STEP:  49 TIME =     0.04 SECS, INTEGRAL =      2.28 TIME LEFT: 172797.68
 STEP:  50 TIME =     0.04 SECS, INTEGRAL =      2.32 TIME LEFT: 172797.63
 STEP:  51 TIME =     0.05 SECS, INTEGRAL =      2.37 TIME LEFT: 172797.59
 STEP:  52 TIME =     0.05 SECS, INTEGRAL =      2.42 TIME LEFT: 172797.54
 STEP:  53 TIME =     0.04 SECS, INTEGRAL =      2.46 TIME LEFT: 172797.50
 STEP:  54 TIME =     0.05 SECS, INTEGRAL =      2.51 TIME LEFT: 172797.45
 STEP:  55 TIME =     0.05 SECS, INTEGRAL =      2.55 TIME LEFT: 172797.40
 STEP:  56 TIME =     0.05 SECS, INTEGRAL =      2.61 TIME LEFT: 172797.35
 STEP:  57 TIME =     0.05 SECS, INTEGRAL =      2.66 TIME LEFT: 172797.30
 STEP:  58 TIME =     0.05 SECS, INTEGRAL =      2.70 TIME LEFT: 172797.25
 STEP:  59 TIME =     0.05 SECS, INTEGRAL =      2.75 TIME LEFT: 172797.21
 STEP:  60 TIME =     0.05 SECS, INTEGRAL =      2.80 TIME LEFT: 172797.16

(To convert to Hartree/Bohr^2, multiply by (10^(-21) x N x a0^2)/(4.184 x 627.51) =  0.0642)


           FORCE MATRIX IN MILLIDYNES/ANGSTROM


                  C  1       C  2       C  3       C  4       C  5       C  6
 ------------------------------------------------------------------------------
     C    1  14.894607
     C    2   4.686775  17.693769
     C    3   0.702214   6.914124  17.524494
     C    4   0.698839   6.847421   2.298763  17.515339
     C    5   0.095478   2.356240   7.084519   1.712155  17.439407
     C    6   0.093175   2.344257   1.691122   7.138671   2.383017  17.488291
     C    7   0.010934   1.754638   2.413822   2.411941   7.098963   7.098881
     C    8   4.731580   0.735014   0.026494   0.052145   0.016034   0.013296
     C    9   0.070693   0.013238   0.003296   0.002270   0.003505   0.002790
     C   10   0.925335   0.040399   0.004914   0.005899   0.004356   0.006384
     H   11   4.466667   0.439791   0.053237   0.042186   0.002650   0.008666
     H   12   4.402114   0.440234   0.033791   0.039418   0.010445   0.006981
     H   13   0.046419   0.446027   4.830913   0.082680   0.433791   0.009880
     H   14   0.044489   0.447684   0.082967   4.830566   0.010288   0.435599
     H   15   0.007670   0.091036   0.434502   0.010146   4.865113   0.088671
     H   16   0.007675   0.091444   0.009906   0.435056   0.088302   4.866181
     H   17   0.008501   0.008325   0.088662   0.087788   0.437033   0.435663
     H   18   0.441594   0.025109   0.002256   0.007321   0.001706   0.001897
     H   19   0.075566   0.008879   0.001317   0.001103   0.000858   0.001476
     H   20   0.073288   0.008520   0.001369   0.001193   0.000734   0.001217


                  C  7       C  8       C  9       C 10       H 11       H 12
 ------------------------------------------------------------------------------
     C    7  17.348235
     C    8   0.006968  18.291382
     C    9   0.001590   0.779323  18.161932
     C   10   0.001910  11.485999  11.877820  24.899688
     H   11   0.001351   0.456047   0.004765   0.041041   5.056559
     H   12   0.003700   0.416632   0.009158   0.028758   0.554453   4.983250
     H   13   0.089176   0.004801   0.000841   0.001547   0.029793   0.003412
     H   14   0.089988   0.009555   0.000741   0.003007   0.002177   0.020821
     H   15   0.437469   0.001435   0.000756   0.000666   0.000480   0.001009
     H   16   0.435775   0.000971   0.000711   0.000592   0.001287   0.000544
     H   17   4.868167   0.001491   0.000505   0.001013   0.000293   0.000700
     H   18   0.001424   4.742429   0.042085   0.444558   0.037931   0.013480
     H   19   0.000827   0.046170   5.026146   0.478466   0.001802   0.010217
     H   20   0.000953   0.046863   5.029182   0.479167   0.001364   0.009202


                  H 13       H 14       H 15       H 16       H 17       H 18
 ------------------------------------------------------------------------------
     H   13   5.200071
     H   14   0.006616   5.202721
     H   15   0.041972   0.007788   5.228017
     H   16   0.007782   0.041951   0.006840   5.229201
     H   17   0.006831   0.006877   0.041513   0.041131   5.235184
     H   18   0.000897   0.004974   0.000375   0.000667   0.000360   5.121396
     H   19   0.000376   0.000320   0.000167   0.000116   0.000231   0.065945
     H   20   0.000712   0.000468   0.000223   0.000270   0.000265   0.063373


                  H 19       H 20
 ------------------------------
     H   19   5.403953
     H   20   0.404984   5.405154


          HEAT OF FORMATION =      66.052216 KCALS/MOLE

          ZERO POINT ENERGY     103.317 KCAL/MOL


           NORMAL COORDINATE ANALYSIS (Total motion = 1 Angstrom)


   Root No.       1         2         3         4         5         6         7         8

                 1 A       2 A       3 A       4 A       5 A       6 A       7 A       8 A   

                  40.4      67.0     138.9     203.1     275.0     352.9     360.9     377.0
  
           1   -0.0084   -0.0085   -0.0050    0.0065   -0.0034    0.0006    0.0002    0.0016
           2   -0.0448    0.0163   -0.0068   -0.0166   -0.0058    0.0251    0.0010    0.0467
           3   -0.0143   -0.0331   -0.0109   -0.0315   -0.0340    0.0002   -0.0001    0.0005
           4   -0.0085   -0.0083   -0.0053    0.0099   -0.0078   -0.0005    0.0001   -0.0001
           5   -0.0217    0.0119   -0.0065   -0.0198    0.0098   -0.0251   -0.0002   -0.0328
           6   -0.0062   -0.0213   -0.0405    0.0079    0.0057   -0.0010   -0.0007   -0.0085
           7   -0.0274   -0.0027   -0.0076    0.0029   -0.0111   -0.0127    0.0001   -0.0159
           8   -0.0107    0.0084   -0.0053   -0.0152    0.0098   -0.0184   -0.0001   -0.0243
           9    0.0241   -0.0380   -0.0276    0.0151    0.0425    0.0041    0.0601    0.0023
          10    0.0102   -0.0140   -0.0046    0.0232   -0.0209    0.0090   -0.0002    0.0097
          11   -0.0109    0.0083   -0.0060   -0.0126    0.0029   -0.0196   -0.0003   -0.0273
          12   -0.0257    0.0187   -0.0414    0.0148    0.0401   -0.0032   -0.0589    0.0095
          13   -0.0272   -0.0025   -0.0078    0.0027   -0.0115   -0.0152   -0.0002   -0.0198
          14    0.0111    0.0013   -0.0037   -0.0013   -0.0004    0.0025    0.0001    0.0032
          15    0.0353   -0.0096    0.0194    0.0002    0.0142   -0.0066   -0.0581    0.0099
          16    0.0102   -0.0143   -0.0044    0.0243   -0.0229    0.0112    0.0001    0.0129
          17    0.0110    0.0013   -0.0040    0.0004   -0.0051    0.0016   -0.0001    0.0011
          18   -0.0151    0.0479    0.0050   -0.0014    0.0120    0.0075    0.0592    0.0018
          19   -0.0086   -0.0084   -0.0064    0.0149   -0.0211   -0.0027   -0.0001   -0.0052
          20    0.0220   -0.0020   -0.0030    0.0057   -0.0060    0.0100   -0.0001    0.0120
          21    0.0156    0.0353    0.0463   -0.0180   -0.0368   -0.0011   -0.0007   -0.0083
          22   -0.0070   -0.0080    0.0395   -0.0346    0.0391   -0.0097    0.0034    0.0189
          23   -0.0202   -0.0214    0.0456    0.0451    0.0150   -0.0050    0.0030    0.0189
          24   -0.0082   -0.0410    0.0187   -0.0366   -0.0160   -0.0115    0.0017   -0.0000
          25    0.0455    0.0462   -0.0133   -0.0205    0.0185   -0.0111    0.0024    0.0093
          26    0.0493   -0.0091   -0.0244   -0.0175   -0.0212   -0.0099    0.0020    0.0059
          27   -0.0010    0.0396    0.0110    0.0682   -0.0168   -0.0079    0.0011   -0.0026
          28    0.0186    0.0169    0.0182   -0.0323    0.0419    0.0467   -0.0089   -0.0211
          29    0.0137   -0.0164    0.0207    0.0428    0.0088    0.0430   -0.0086   -0.0292
          30   -0.0049   -0.0033    0.0114   -0.0290   -0.0089    0.0297   -0.0058   -0.0124
          31   -0.0205   -0.0059   -0.0163    0.0205   -0.0184    0.0372    0.0014    0.0529
          32   -0.0590    0.0275   -0.0226   -0.0336   -0.0223    0.0574    0.0017    0.0933
          33   -0.0383   -0.0066   -0.0391   -0.0884   -0.0590    0.0427    0.0006    0.0629
          34    0.0046   -0.0056   -0.0252    0.0262    0.0117   -0.0312   -0.0026   -0.0572
          35   -0.0665    0.0367   -0.0367   -0.0490   -0.0308    0.0718    0.0015    0.1123
          36    0.0028   -0.0568    0.0330   -0.0066   -0.0142   -0.0331    0.0008   -0.0379
          37   -0.0426    0.0022   -0.0097   -0.0049   -0.0104   -0.0246   -0.0004   -0.0318
          38   -0.0195    0.0113   -0.0065   -0.0196    0.0099   -0.0248   -0.0007   -0.0328
          39    0.0392   -0.0709   -0.0435    0.0248    0.0787    0.0142    0.1632    0.0086
          40    0.0253   -0.0194   -0.0031    0.0338   -0.0302    0.0204    0.0005    0.0236
          41   -0.0197    0.0114   -0.0069   -0.0187    0.0081   -0.0258   -0.0007   -0.0347
          42   -0.0492    0.0298   -0.0683    0.0245    0.0749   -0.0098   -0.1605    0.0269
          43   -0.0422    0.0021   -0.0089   -0.0072   -0.0037   -0.0289   -0.0002   -0.0375
          44    0.0198   -0.0013   -0.0031    0.0044   -0.0050    0.0103    0.0001    0.0132
          45    0.0594   -0.0212    0.0395   -0.0011    0.0234   -0.0160   -0.1592    0.0267
          46    0.0252   -0.0189   -0.0030    0.0328   -0.0266    0.0257    0.0003    0.0324
          47    0.0196   -0.0014   -0.0032    0.0051   -0.0071    0.0098   -0.0001    0.0121
          48   -0.0306    0.0814    0.0135   -0.0043    0.0198    0.0191    0.1610    0.0047
          49   -0.0085   -0.0084   -0.0063    0.0149   -0.0213   -0.0027   -0.0001   -0.0052
          50    0.0390   -0.0074   -0.0014    0.0159   -0.0116    0.0237   -0.0001    0.0295
          51    0.0241    0.0599    0.0955   -0.0415   -0.0996   -0.0026   -0.0025   -0.0239
          52   -0.0271   -0.0216    0.0895   -0.0508    0.0788   -0.0793    0.0184    0.0749
          53   -0.0297   -0.0514    0.0932    0.0527    0.0429   -0.0783    0.0175    0.0558
          54   -0.0060   -0.0751    0.0502   -0.0085   -0.0057   -0.0656    0.0110    0.0089
          55    0.0353    0.0360    0.0019   -0.0205    0.0319    0.0139   -0.0027   -0.0052
          56    0.0828    0.0239   -0.0979   -0.0445   -0.0827   -0.0417    0.0087    0.0298
          57    0.0106    0.0525    0.0412    0.1229    0.0026   -0.1471    0.0284    0.0677
          58    0.0801    0.0834   -0.0587   -0.0091   -0.0212   -0.1168    0.0235    0.0695
          59    0.0481   -0.0344    0.0065   -0.0427    0.0067   -0.0508    0.0101    0.0293
          60   -0.0092    0.0647   -0.0196    0.1006   -0.0454    0.0775   -0.0159   -0.0515


   Root No.       9        10        11        12        13        14        15        16

                 9 A      10 A      11 A      12 A      13 A      14 A      15 A      16 A   

                 472.2     522.6     576.3     616.1     632.9     663.9     777.4     844.2
  
           1    0.0292   -0.0315    0.0019    0.0376    0.0014   -0.0173    0.0004   -0.0174
           2    0.0054    0.0058    0.0041   -0.0014   -0.0126    0.0063    0.0072   -0.0276
           3    0.0113   -0.0280   -0.0263   -0.0063   -0.0035   -0.0053    0.0030   -0.0209
           4    0.0161   -0.0187    0.0030    0.0369    0.0017   -0.0191   -0.0061    0.0026
           5   -0.0031   -0.0017   -0.0017    0.0004   -0.0345   -0.0022   -0.0009    0.0008
           6    0.0631    0.0247    0.0024    0.0139   -0.0033    0.0634    0.0441    0.0072
           7   -0.0130    0.0055   -0.0035    0.0007    0.0686   -0.0025   -0.0043    0.0096
           8    0.0111   -0.0154    0.0002    0.0239   -0.0617   -0.0160   -0.0074    0.0088
           9    0.0059    0.0118    0.0100   -0.0140    0.0018   -0.0145   -0.0133    0.0027
          10   -0.0105    0.0069    0.0031    0.0013   -0.0686   -0.0036   -0.0039    0.0079
          11   -0.0168    0.0117   -0.0036   -0.0230   -0.0638    0.0083    0.0026    0.0003
          12    0.0064    0.0103    0.0106   -0.0148    0.0022   -0.0140   -0.0137    0.0024
          13   -0.0172    0.0085   -0.0042   -0.0035    0.0734   -0.0010   -0.0048    0.0123
          14    0.0108   -0.0117   -0.0011    0.0224    0.0723   -0.0126   -0.0092    0.0187
          15   -0.0338   -0.0178   -0.0121    0.0138   -0.0020    0.0236   -0.0177   -0.0024
          16   -0.0140    0.0105    0.0030   -0.0029   -0.0730   -0.0018   -0.0038    0.0081
          17   -0.0110    0.0108   -0.0045   -0.0234    0.0701    0.0144    0.0089   -0.0161
          18   -0.0338   -0.0192   -0.0112    0.0133   -0.0017    0.0238   -0.0176   -0.0029
          19   -0.0330    0.0276   -0.0032   -0.0396   -0.0018    0.0198    0.0101   -0.0178
          20    0.0011    0.0002   -0.0007   -0.0002    0.0401    0.0013    0.0006   -0.0010
          21    0.0425    0.0217    0.0125   -0.0137    0.0019   -0.0142   -0.0296   -0.0055
          22    0.0156   -0.0195    0.0161   -0.0200   -0.0006    0.0103    0.0012   -0.0146
          23    0.0025   -0.0033    0.0420    0.0042   -0.0001    0.0094    0.0066   -0.0201
          24   -0.0061   -0.0214   -0.0096   -0.0207    0.0004   -0.0019   -0.0072   -0.0031
          25    0.0147   -0.0037   -0.0072   -0.0109   -0.0007    0.0073    0.0047   -0.0002
          26   -0.0135    0.0080    0.0067    0.0115    0.0003   -0.0057   -0.0032    0.0105
          27   -0.0017   -0.0039   -0.0032    0.0033    0.0001   -0.0047   -0.0029    0.0083
          28    0.0088    0.0109   -0.0124   -0.0022   -0.0005    0.0040    0.0031   -0.0019
          29    0.0153   -0.0106   -0.0417   -0.0166   -0.0030   -0.0026   -0.0029    0.0042
          30   -0.0419    0.0427    0.0433    0.0449    0.0041   -0.0079   -0.0006    0.0036
          31    0.0425   -0.0191   -0.0097    0.0496    0.0090   -0.0181    0.0001    0.0137
          32    0.0104    0.0119   -0.0348   -0.0088   -0.0188   -0.0032   -0.0076    0.0297
          33    0.0085   -0.0237   -0.1086   -0.0355   -0.0238   -0.0284   -0.0335    0.0879
          34    0.0473   -0.0149    0.0185    0.0747   -0.0039   -0.0007    0.0349   -0.0361
          35    0.0145    0.0170   -0.0622   -0.0116   -0.0263   -0.0091   -0.0160    0.0747
          36   -0.0086   -0.0482    0.0356   -0.0158    0.0131    0.0024    0.0091   -0.1198
          37   -0.0278    0.0178   -0.0075   -0.0203    0.0349    0.0070   -0.0022    0.0104
          38    0.0029   -0.0084   -0.0022    0.0120   -0.0808   -0.0102   -0.0064    0.0094
          39   -0.0341    0.0026    0.0210   -0.0639    0.0101   -0.1992    0.0394   -0.0186
          40   -0.0226    0.0211    0.0032   -0.0202   -0.0374    0.0115    0.0022   -0.0016
          41   -0.0097    0.0035   -0.0038   -0.0106   -0.0817   -0.0006   -0.0011    0.0060
          42   -0.0344   -0.0006    0.0223   -0.0654    0.0097   -0.2007    0.0389   -0.0167
          43   -0.0091   -0.0038   -0.0042    0.0200    0.0439   -0.0177   -0.0167    0.0363
          44    0.0058   -0.0044   -0.0012    0.0087    0.0892   -0.0030   -0.0025    0.0055
          45   -0.1226   -0.0730   -0.0478    0.0434   -0.0061   -0.0013    0.2091    0.0202
          46   -0.0016    0.0007    0.0062    0.0203   -0.0409   -0.0129   -0.0109    0.0203
          47   -0.0035    0.0050   -0.0026   -0.0100    0.0883    0.0081    0.0046   -0.0096
          48   -0.1234   -0.0757   -0.0460    0.0425   -0.0063   -0.0019    0.2089    0.0222
          49   -0.0328    0.0276   -0.0031   -0.0395   -0.0020    0.0195    0.0104   -0.0176
          50    0.0030    0.0015    0.0040    0.0004   -0.0614    0.0008    0.0015   -0.0062
          51    0.1185    0.0613    0.0393   -0.0567    0.0078   -0.1422    0.2155    0.0367
          52    0.0058    0.0449    0.0319   -0.0136   -0.0023    0.0340    0.0104    0.1526
          53    0.0117    0.0249    0.0182   -0.0050   -0.0001    0.0219    0.0065    0.1519
          54    0.0157   -0.0312   -0.0559   -0.0376    0.0023   -0.0027   -0.0145    0.1188
          55    0.0156    0.0108   -0.0268   -0.0048   -0.0014    0.0041    0.0052    0.0064
          56   -0.0287   -0.0936    0.1599   -0.0367    0.0068    0.0250   -0.0022    0.0255
          57    0.0249    0.0852   -0.1582    0.0491   -0.0074   -0.0393   -0.0068   -0.0840
          58    0.0229   -0.0450    0.0313   -0.0359    0.0001    0.0197    0.0081   -0.0489
          59   -0.0269    0.1169   -0.0746    0.0875   -0.0012   -0.0375   -0.0041   -0.0315
          60    0.0145   -0.1457    0.1011   -0.0960    0.0020    0.0361   -0.0030    0.0803


   Root No.      17        18        19        20        21        22        23        24

                17 A      18 A      19 A      20 A      21 A      22 A      23 A      24 A   

                 849.3     885.9     918.3     937.2     968.1     978.3     989.4    1017.5
  
           1   -0.0001    0.0499    0.0061    0.0094    0.0074   -0.0004    0.0018    0.0026
           2    0.0001   -0.0194   -0.0314   -0.0020    0.0337   -0.0010   -0.0078    0.0067
           3    0.0000    0.0023   -0.0173   -0.0007    0.0172   -0.0006   -0.0100    0.0012
           4   -0.0001    0.0090    0.0022    0.0036    0.0047   -0.0001    0.0029    0.0049
           5   -0.0003    0.0002   -0.0006   -0.0002    0.0022    0.0001   -0.0003    0.0004
           6    0.0007   -0.0057   -0.0063   -0.0277   -0.0220    0.0007    0.0031   -0.0222
           7    0.0000   -0.0206   -0.0018   -0.0028   -0.0030   -0.0000   -0.0016   -0.0026
           8   -0.0005    0.0030    0.0067    0.0041   -0.0019    0.0008    0.0039    0.0085
           9    0.0320   -0.0075    0.0131    0.0288    0.0103   -0.0453   -0.0011    0.0325
          10    0.0000   -0.0212   -0.0028   -0.0030   -0.0024    0.0001   -0.0015   -0.0029
          11   -0.0000    0.0028    0.0046   -0.0015   -0.0111    0.0003   -0.0022   -0.0096
          12   -0.0328   -0.0076    0.0136    0.0291    0.0113    0.0448   -0.0008    0.0315
          13   -0.0000   -0.0243   -0.0010   -0.0035   -0.0047    0.0003   -0.0011   -0.0023
          14    0.0000   -0.0395   -0.0027   -0.0053   -0.0073    0.0002   -0.0022   -0.0051
          15    0.0321    0.0025   -0.0010    0.0031    0.0080    0.0445   -0.0023   -0.0449
          16    0.0000   -0.0267   -0.0048   -0.0036   -0.0011   -0.0002   -0.0019   -0.0017
          17    0.0000    0.0413    0.0062    0.0059    0.0025    0.0002    0.0031    0.0044
          18   -0.0320    0.0023   -0.0008    0.0023    0.0057   -0.0462   -0.0022   -0.0440
          19    0.0000    0.0400    0.0042    0.0054    0.0054   -0.0002    0.0030    0.0048
          20    0.0002   -0.0006   -0.0012   -0.0003    0.0015   -0.0004   -0.0002    0.0001
          21    0.0003    0.0083   -0.0132   -0.0299   -0.0175    0.0015    0.0037    0.0483
          22    0.0004   -0.0078    0.0139    0.0074   -0.0276    0.0009    0.0099   -0.0047
          23    0.0006   -0.0021    0.0100    0.0046   -0.0287    0.0006    0.0009   -0.0080
          24   -0.0001   -0.0125    0.0086    0.0059   -0.0128    0.0006    0.0086   -0.0005
          25    0.0001    0.0002   -0.0297    0.0164   -0.0120    0.0002   -0.0092   -0.0021
          26   -0.0002    0.0080   -0.0188    0.0180   -0.0089    0.0002    0.0555   -0.0010
          27   -0.0001    0.0090   -0.0099    0.0132   -0.0139    0.0005   -0.0606    0.0013
          28    0.0000   -0.0039    0.0146   -0.0190    0.0185   -0.0005   -0.0051    0.0015
          29   -0.0001   -0.0058    0.0158   -0.0169    0.0178   -0.0004   -0.0173    0.0032
          30   -0.0001    0.0097    0.0159   -0.0102    0.0096   -0.0003    0.0212   -0.0000
          31    0.0005    0.0960    0.0590    0.0156   -0.0688    0.0027    0.0147   -0.0117
          32    0.0006    0.0156    0.0253    0.0023   -0.0264    0.0007    0.0030   -0.0037
          33    0.0004    0.0423    0.0688    0.0041   -0.0534    0.0006    0.0043   -0.0095
          34   -0.0011    0.0868   -0.0430   -0.0277    0.0921   -0.0035    0.0068   -0.0125
          35    0.0005    0.0353    0.0576   -0.0024   -0.0519    0.0014    0.0140   -0.0121
          36    0.0004   -0.0764   -0.0864    0.0197    0.0638   -0.0018   -0.0366    0.0297
          37    0.0010   -0.0111    0.0061    0.0006   -0.0104   -0.0015   -0.0001    0.0056
          38    0.0006    0.0087    0.0117    0.0065   -0.0061   -0.0005    0.0049    0.0138
          39   -0.2152    0.0397   -0.0622   -0.1265   -0.0421    0.1987    0.0048   -0.1010
          40   -0.0026   -0.0203   -0.0086   -0.0016    0.0081    0.0045   -0.0019    0.0078
          41    0.0016    0.0020    0.0081   -0.0024   -0.0177   -0.0024   -0.0021   -0.0162
          42    0.2165    0.0400   -0.0619   -0.1266   -0.0481   -0.1946    0.0045   -0.0959
          43   -0.0008   -0.0593    0.0044   -0.0044   -0.0179    0.0021    0.0015    0.0079
          44    0.0005   -0.0207   -0.0058   -0.0050   -0.0001   -0.0009   -0.0037   -0.0111
          45   -0.2144   -0.0149    0.0008   -0.0253   -0.0396   -0.1950    0.0090    0.1509
          46    0.0004   -0.0699   -0.0175   -0.0087    0.0112   -0.0004   -0.0032    0.0120
          47   -0.0001    0.0182   -0.0006    0.0033    0.0095   -0.0004    0.0025    0.0120
          48    0.2141   -0.0146    0.0009   -0.0213   -0.0293    0.2021    0.0094    0.1476
          49    0.0000    0.0399    0.0044    0.0058    0.0057   -0.0002    0.0031    0.0048
          50    0.0005   -0.0044   -0.0085   -0.0013    0.0117   -0.0019   -0.0026    0.0024
          51   -0.0017   -0.0507    0.0744    0.1585    0.0813   -0.0060   -0.0154   -0.1633
          52   -0.0020    0.0420   -0.0692   -0.0374    0.1111   -0.0024    0.0171    0.0174
          53   -0.0015    0.0714   -0.0479   -0.0316    0.0849   -0.0032   -0.0360    0.0090
          54   -0.0012    0.0590   -0.0104   -0.0118    0.0446   -0.0026   -0.0521    0.0071
          55   -0.0000    0.0073   -0.0751    0.0489   -0.0330    0.0005    0.0113   -0.0047
          56   -0.0003    0.0033    0.1170   -0.0836    0.0454   -0.0003   -0.1906    0.0093
          57    0.0008   -0.0457    0.0875   -0.0534    0.0527   -0.0015    0.2712    0.0007
          58    0.0009   -0.0467    0.1289   -0.1134    0.0787   -0.0021   -0.0159    0.0017
          59    0.0001    0.0144   -0.0221    0.0397   -0.0474    0.0017   -0.1870    0.0026
          60   -0.0007    0.0129   -0.0445    0.0161    0.0167   -0.0011    0.2823   -0.0043


   Root No.      25        26        27        28        29        30        31        32

                25 A      26 A      27 A      28 A      29 A      30 A      31 A      32 A   

                1029.6    1044.0    1084.2    1102.8    1112.7    1141.4    1154.3    1155.3
  
           1   -0.0008    0.0220    0.0044   -0.0012    0.0161    0.0020    0.0043    0.0049
           2    0.0157   -0.0031   -0.0020   -0.0019   -0.0022   -0.0367   -0.0007    0.0032
           3   -0.0222    0.0124   -0.0073   -0.0061    0.0068    0.0512   -0.0006   -0.0011
           4   -0.0041   -0.0116    0.0078    0.0024   -0.0257   -0.0028   -0.0009   -0.0007
           5    0.0073   -0.0017   -0.0027    0.0080   -0.0012    0.0047    0.0084   -0.0070
           6   -0.0047   -0.0101    0.0045    0.0015   -0.0060   -0.0060   -0.0004   -0.0008
           7    0.0026    0.0122   -0.0010    0.0180    0.0124    0.0032   -0.0052   -0.0023
           8   -0.0204   -0.0503    0.0023   -0.0093   -0.0315   -0.0086   -0.0112   -0.0130
           9    0.0025    0.0062   -0.0018   -0.0010    0.0016    0.0030    0.0001    0.0004
          10    0.0028    0.0120   -0.0006   -0.0198    0.0097   -0.0016    0.0016   -0.0041
          11   -0.0007    0.0534    0.0026   -0.0146    0.0325    0.0024    0.0096    0.0151
          12    0.0020    0.0068   -0.0020   -0.0000    0.0015    0.0031    0.0005    0.0005
          13    0.0014    0.0029   -0.0008   -0.0045   -0.0079    0.0026   -0.0004    0.0024
          14    0.0007    0.0221    0.0044   -0.0138   -0.0150   -0.0052   -0.0093   -0.0068
          15   -0.0025   -0.0045    0.0006    0.0003   -0.0005   -0.0003   -0.0001   -0.0002
          16    0.0017    0.0034   -0.0002    0.0054   -0.0064   -0.0021    0.0028    0.0018
          17   -0.0088   -0.0206   -0.0019   -0.0156    0.0147   -0.0004    0.0043    0.0120
          18   -0.0029   -0.0048    0.0009   -0.0001   -0.0004   -0.0004   -0.0002   -0.0002
          19   -0.0039   -0.0141    0.0079    0.0038   -0.0448   -0.0050   -0.0035   -0.0033
          20    0.0026   -0.0004   -0.0004    0.0100    0.0004    0.0016   -0.0029    0.0018
          21    0.0026    0.0038   -0.0005   -0.0001    0.0004    0.0002    0.0000    0.0001
          22    0.0286   -0.0084    0.0139    0.0008    0.0012   -0.0078    0.0003    0.0005
          23   -0.0081    0.0053   -0.0328   -0.0032   -0.0048    0.0449   -0.0022   -0.0036
          24    0.0314   -0.0118    0.0172    0.0041    0.0026   -0.0475    0.0009    0.0026
          25   -0.0132    0.0041   -0.0227   -0.0004   -0.0029    0.0051   -0.0007   -0.0007
          26    0.0092   -0.0013    0.0107    0.0003    0.0016   -0.0027    0.0004    0.0005
          27    0.0152   -0.0065    0.0197    0.0002    0.0020   -0.0037    0.0004    0.0005
          28   -0.0102    0.0033   -0.0051   -0.0002   -0.0000   -0.0006    0.0002    0.0002
          29    0.0038   -0.0038    0.0167   -0.0003    0.0017   -0.0001    0.0000    0.0001
          30   -0.0073    0.0063   -0.0152    0.0003   -0.0011   -0.0001    0.0001    0.0001
          31   -0.1796    0.0662    0.0804    0.0161    0.1072   -0.1621    0.0230    0.0179
          32   -0.0332    0.0074    0.0058   -0.0001    0.0141   -0.0206    0.0015   -0.0006
          33    0.0349   -0.0058   -0.0616   -0.0176   -0.0411    0.2686   -0.0151   -0.0268
          34    0.2804    0.0190   -0.0640   -0.0185    0.0595    0.0324   -0.0078    0.0069
          35    0.0271   -0.0058   -0.0065   -0.0011   -0.0062   -0.0145    0.0022    0.0045
          36   -0.1877    0.0171    0.0333    0.0013   -0.0111    0.0134    0.0018   -0.0049
          37   -0.0308   -0.0651   -0.0291    0.1502    0.1638    0.0083   -0.0321   -0.1902
          38   -0.0406   -0.0960   -0.0131    0.0645    0.0515   -0.0070   -0.0267   -0.1218
          39   -0.0069   -0.0214    0.0047    0.0043   -0.0048   -0.0084   -0.0007   -0.0027
          40    0.0067   -0.0732   -0.0427   -0.1791    0.1346   -0.0180   -0.1633   -0.1134
          41   -0.0032    0.1046    0.0266    0.0759   -0.0367    0.0118    0.1072    0.0795
          42   -0.0075   -0.0241    0.0063   -0.0013   -0.0036   -0.0105   -0.0031   -0.0027
          43   -0.0415   -0.1193   -0.0329   -0.0893    0.0698    0.0145   -0.0769    0.2695
          44    0.0251    0.0928    0.0232    0.0362   -0.0617   -0.0124    0.0326   -0.1625
          45    0.0073    0.0125   -0.0008   -0.0008    0.0002    0.0001    0.0002    0.0001
          46    0.0101   -0.1278   -0.0499    0.0825    0.0684    0.0433    0.2845    0.0383
          47   -0.0045   -0.0956   -0.0303    0.0292    0.0595    0.0260    0.1658    0.0353
          48    0.0079    0.0138   -0.0015    0.0007   -0.0000    0.0005    0.0004    0.0004
          49   -0.0042   -0.0159    0.0080    0.0047   -0.0477   -0.0051   -0.0034   -0.0019
          50    0.0156   -0.0012   -0.0045    0.2772    0.0198    0.0437   -0.2434    0.1342
          51   -0.0076   -0.0102    0.0010    0.0003   -0.0002   -0.0001   -0.0000    0.0001
          52   -0.0204   -0.0175    0.2171   -0.0154    0.0370    0.1292    0.0004   -0.0031
          53   -0.0657    0.0306   -0.0775   -0.0004   -0.0084    0.0011   -0.0002   -0.0000
          54   -0.0157    0.0342   -0.2127    0.0220   -0.0309   -0.2275    0.0043    0.0115
          55   -0.0209    0.0074   -0.0457   -0.0006   -0.0062    0.0133   -0.0019   -0.0021
          56    0.0342   -0.0163    0.0769    0.0007    0.0098   -0.0210    0.0031    0.0035
          57    0.0055    0.0038    0.0328    0.0012    0.0072   -0.0203    0.0029    0.0033
          58   -0.0573    0.0182   -0.0843   -0.0018   -0.0119    0.0288   -0.0042   -0.0046
          59    0.0302   -0.0127    0.0372   -0.0001    0.0040   -0.0050    0.0010    0.0011
          60    0.0015    0.0044    0.0069    0.0012    0.0022   -0.0095    0.0009    0.0011


   Root No.      33        34        35        36        37        38        39        40

                33 A      34 A      35 A      36 A      37 A      38 A      39 A      40 A   

                1217.8    1227.2    1286.5    1370.2    1393.1    1407.6    1522.4    1544.3
  
           1   -0.0163    0.0075    0.0215    0.0307    0.0060    0.0570   -0.0428   -0.0026
           2   -0.0028    0.0076    0.0083    0.0082   -0.0094   -0.0038   -0.0038   -0.0116
           3    0.0135   -0.0054   -0.0365   -0.0382    0.0122    0.0214    0.0545    0.0042
           4   -0.0067    0.0033    0.0323   -0.0430   -0.0020   -0.0330   -0.0032   -0.0015
           5   -0.0105   -0.0129    0.0007    0.0054    0.1053   -0.0053   -0.0053    0.0766
           6   -0.0077    0.0037    0.0085    0.0048   -0.0011    0.0017   -0.0017   -0.0003
           7   -0.0126   -0.0113    0.0130   -0.0271   -0.0908   -0.0167    0.0062    0.0592
           8    0.0040   -0.0120   -0.0131   -0.0055   -0.0490   -0.0063    0.0125   -0.0250
           9    0.0017   -0.0009   -0.0019   -0.0011    0.0004   -0.0001    0.0007   -0.0000
          10    0.0043    0.0157    0.0161   -0.0194    0.0904   -0.0265    0.0123   -0.0566
          11   -0.0118   -0.0053    0.0084   -0.0004   -0.0472    0.0106   -0.0083   -0.0274
          12    0.0017   -0.0006   -0.0018   -0.0010    0.0001   -0.0001    0.0008    0.0001
          13   -0.0020   -0.0109   -0.0116    0.0102    0.0945   -0.0019    0.0100   -0.0595
          14    0.0117    0.0029   -0.0219    0.0274   -0.0551    0.0293   -0.0104   -0.0254
          15   -0.0002    0.0002    0.0000   -0.0001   -0.0002    0.0001    0.0002    0.0000
          16    0.0099    0.0072   -0.0093    0.0040   -0.0924    0.0086    0.0027    0.0604
          17   -0.0021    0.0095    0.0219   -0.0322   -0.0542   -0.0233    0.0138   -0.0235
          18   -0.0003    0.0000    0.0001   -0.0001    0.0000    0.0001    0.0002   -0.0000
          19    0.0089   -0.0045   -0.0218    0.0269   -0.0013    0.0227   -0.0119   -0.0009
          20    0.0100    0.0172    0.0029    0.0053    0.1051   -0.0055   -0.0052    0.0735
          21    0.0001   -0.0000   -0.0000   -0.0000    0.0000   -0.0001   -0.0000    0.0000
          22   -0.0125    0.0088   -0.0047    0.0111   -0.0022    0.0041    0.0940    0.0036
          23    0.0092   -0.0048   -0.0129   -0.0144    0.0025   -0.0039   -0.0373   -0.0004
          24    0.0163   -0.0123    0.0200   -0.0002   -0.0013   -0.0089   -0.0925   -0.0048
          25    0.0041   -0.0015   -0.0172   -0.0192    0.0021   -0.0087   -0.0808   -0.0031
          26   -0.0031    0.0012    0.0115    0.0133   -0.0015    0.0062    0.0565    0.0022
          27   -0.0016    0.0004    0.0103    0.0109   -0.0013    0.0047    0.0448    0.0017
          28   -0.0065    0.0050   -0.0120   -0.0037    0.0002   -0.0004    0.0122    0.0006
          29    0.0055   -0.0041    0.0101    0.0028   -0.0006    0.0001   -0.0101   -0.0007
          30    0.0004   -0.0008    0.0049    0.0026    0.0004    0.0023   -0.0046   -0.0000
          31    0.0716   -0.0790   -0.1261    0.0538    0.0392   -0.1509    0.0565    0.0440
          32    0.0033   -0.0090   -0.0212    0.0791   -0.0197   -0.1321   -0.0064    0.0039
          33   -0.0616    0.0435    0.0367    0.1563   -0.0740   -0.1468   -0.0612   -0.0049
          34    0.0903   -0.0196   -0.1041    0.0495   -0.0867   -0.1404    0.0312   -0.0272
          35    0.0173   -0.0182    0.0044   -0.1291    0.0733    0.1681    0.0107    0.0082
          36   -0.0675    0.0377    0.0340    0.1230   -0.0352   -0.0923   -0.0078   -0.0045
          37    0.0654    0.1198    0.0141    0.0160   -0.0291    0.0411   -0.0200   -0.0336
          38    0.0493    0.0610   -0.0161    0.0221   -0.0135    0.0275   -0.0011   -0.0875
          39   -0.0050    0.0037    0.0063    0.0034   -0.0000    0.0010   -0.0022   -0.0006
          40   -0.0865   -0.1007   -0.0016    0.0183    0.0326    0.0320   -0.0229    0.0259
          41    0.0392    0.0620    0.0216   -0.0254   -0.0126   -0.0247    0.0122   -0.0852
          42   -0.0066    0.0009    0.0060    0.0034   -0.0003    0.0013   -0.0024    0.0006
          43    0.0559    0.0751   -0.0244    0.0569    0.0098    0.0487   -0.0252    0.0229
          44   -0.0205   -0.0471   -0.0183    0.0053   -0.0064    0.0045    0.0092   -0.0842
          45   -0.0005   -0.0001    0.0008    0.0005    0.0001   -0.0001   -0.0003   -0.0002
          46   -0.0481   -0.0836   -0.0394    0.0521   -0.0111    0.0487   -0.0211   -0.0275
          47   -0.0361   -0.0417    0.0083   -0.0098   -0.0079   -0.0048    0.0025   -0.0846
          48   -0.0002    0.0005    0.0007    0.0004    0.0003   -0.0001   -0.0002   -0.0000
          49    0.0098   -0.0052   -0.0250    0.0314   -0.0016    0.0267   -0.0141   -0.0016
          50   -0.0577   -0.0849   -0.0082   -0.0015    0.0305   -0.0021    0.0088   -0.1254
          51    0.0001   -0.0000    0.0001    0.0001    0.0001   -0.0002   -0.0002   -0.0001
          52    0.0364   -0.0262    0.0265    0.0021    0.0006    0.0094   -0.0566   -0.0025
          53   -0.0105    0.0083   -0.0168   -0.0090    0.0033    0.0017   -0.0068    0.0001
          54   -0.0550    0.0369   -0.0113    0.0187   -0.0029   -0.0024    0.0975    0.0018
          55    0.0395   -0.0279    0.0390    0.0055   -0.0000    0.0003   -0.0309   -0.0013
          56   -0.0879    0.0650   -0.1314   -0.0539    0.0038   -0.0202   -0.0988   -0.0033
          57   -0.0689    0.0504   -0.0958   -0.0372    0.0039   -0.0115   -0.0710   -0.0027
          58    0.1141   -0.0840    0.1656    0.0655   -0.0064    0.0230    0.1168    0.0041
          59   -0.0185    0.0127   -0.0109    0.0044   -0.0005    0.0042    0.0401    0.0014
          60   -0.0190    0.0133   -0.0191   -0.0022   -0.0004   -0.0015    0.0210    0.0011


   Root No.      41        42        43        44        45        46        47        48

                41 A      42 A      43 A      44 A      45 A      46 A      47 A      48 A   

                1606.7    1784.2    1802.5    2261.7    2943.1    3019.8    3034.8    3052.2
  
           1   -0.0484    0.0005    0.0177    0.0027   -0.0024    0.0213    0.0047   -0.0005
           2   -0.0006    0.0084    0.0001   -0.0004   -0.0579   -0.0114   -0.0054    0.0002
           3    0.0076   -0.0006    0.0001   -0.0063   -0.0146    0.0286    0.0057   -0.0005
           4    0.1091    0.0009   -0.0906    0.0026   -0.0002    0.0005   -0.0001    0.0004
           5    0.0009   -0.1410   -0.0054    0.0004   -0.0004    0.0000   -0.0001    0.0015
           6   -0.0015    0.0003    0.0007   -0.0015   -0.0001   -0.0000    0.0002   -0.0000
           7   -0.0196    0.0368    0.1285   -0.0005    0.0007    0.0008    0.0004    0.0159
           8   -0.0508    0.0734    0.0474   -0.0004    0.0000   -0.0014   -0.0006   -0.0291
           9    0.0003   -0.0000   -0.0002    0.0000   -0.0001    0.0001    0.0000   -0.0000
          10   -0.0197   -0.0440    0.1272   -0.0002   -0.0005    0.0003   -0.0007   -0.0074
          11    0.0505    0.0750   -0.0427    0.0002    0.0001    0.0010   -0.0009   -0.0129
          12    0.0003    0.0000   -0.0003   -0.0000   -0.0000    0.0000    0.0001    0.0000
          13   -0.0580    0.0405   -0.1157    0.0001   -0.0001    0.0001    0.0001    0.0086
          14    0.0472   -0.0765    0.0347   -0.0001    0.0000    0.0003    0.0002    0.0168
          15    0.0002   -0.0001    0.0002    0.0000   -0.0000    0.0000    0.0000   -0.0000
          16   -0.0592   -0.0322   -0.1201    0.0001    0.0000    0.0001   -0.0001   -0.0022
          17   -0.0497   -0.0731   -0.0389    0.0001   -0.0000   -0.0001    0.0003    0.0051
          18    0.0001    0.0001    0.0001    0.0000   -0.0000    0.0000    0.0000    0.0000
          19    0.0539   -0.0018    0.0506   -0.0001   -0.0000    0.0000   -0.0000   -0.0046
          20    0.0029    0.1411    0.0043   -0.0000    0.0001    0.0000   -0.0000   -0.0006
          21   -0.0001    0.0000   -0.0001    0.0000    0.0000   -0.0000    0.0000    0.0000
          22    0.0082    0.0006    0.0000   -0.1150   -0.0006   -0.0043    0.0291   -0.0003
          23   -0.0023   -0.0007    0.0005    0.0707    0.0015    0.0066   -0.0481    0.0004
          24   -0.0077    0.0002   -0.0007    0.0779   -0.0016   -0.0033    0.0270   -0.0003
          25   -0.0048   -0.0004   -0.0006   -0.1053    0.0001   -0.0001    0.0006    0.0000
          26    0.0034    0.0002    0.0004    0.0727   -0.0001    0.0001   -0.0006    0.0000
          27    0.0027    0.0002    0.0003    0.0594   -0.0001    0.0000   -0.0002    0.0000
          28    0.0012    0.0002    0.0006    0.2276   -0.0007    0.0008   -0.0052    0.0000
          29   -0.0008   -0.0000   -0.0005   -0.1573    0.0002   -0.0006    0.0035   -0.0000
          30   -0.0016   -0.0003   -0.0000   -0.1292    0.0005   -0.0003    0.0032   -0.0000
          31    0.0119   -0.0409   -0.0037   -0.0113   -0.1425   -0.1464   -0.0360    0.0024
          32    0.0157   -0.0094   -0.0067    0.0045    0.3398    0.4070    0.1032   -0.0093
          33   -0.0059    0.0024    0.0002    0.0088   -0.1420   -0.1338   -0.0385    0.0029
          34    0.0084    0.0298    0.0003    0.0036    0.1736   -0.1103   -0.0159    0.0016
          35   -0.0129   -0.0089    0.0051    0.0094    0.3518   -0.2704   -0.0438    0.0039
          36   -0.0048   -0.0003   -0.0002   -0.0041    0.3221   -0.2141   -0.0304    0.0032
          37    0.0974   -0.0479   -0.0404    0.0005    0.0001   -0.0081   -0.0039   -0.1865
          38    0.0059    0.0338   -0.0526    0.0001    0.0027    0.0163    0.0074    0.3320
          39   -0.0009    0.0003    0.0005   -0.0001    0.0002    0.0001    0.0001    0.0007
          40    0.0993    0.0489   -0.0364    0.0006   -0.0012   -0.0052    0.0060    0.0864
          41   -0.0090    0.0288    0.0574    0.0001    0.0007   -0.0101    0.0111    0.1505
          42   -0.0008   -0.0002    0.0002   -0.0002   -0.0003    0.0001    0.0003   -0.0001
          43    0.0848   -0.0527    0.0206    0.0000   -0.0001   -0.0016   -0.0012   -0.1101
          44   -0.0328   -0.0325   -0.0501   -0.0000   -0.0001   -0.0029   -0.0022   -0.1940
          45   -0.0003    0.0001    0.0000   -0.0001    0.0000   -0.0000    0.0000   -0.0000
          46    0.0858    0.0502    0.0243   -0.0000    0.0000   -0.0010    0.0018    0.0322
          47    0.0302   -0.0361    0.0494    0.0000    0.0000    0.0018   -0.0033   -0.0589
          48   -0.0002    0.0000   -0.0000   -0.0001    0.0000    0.0000   -0.0000   -0.0001
          49    0.0638   -0.0027    0.0601    0.0000    0.0001   -0.0007    0.0002    0.0531
          50   -0.0021   -0.0575   -0.0016    0.0000   -0.0000    0.0000    0.0000    0.0016
          51   -0.0001   -0.0000    0.0002   -0.0000    0.0000   -0.0000   -0.0000   -0.0001
          52   -0.0103    0.0012    0.0014   -0.0426    0.0117    0.0416   -0.2954    0.0028
          53   -0.0007   -0.0004    0.0005    0.0875   -0.0212   -0.0742    0.5442   -0.0051
          54    0.0103    0.0006   -0.0015   -0.0626    0.0106    0.0480   -0.3612    0.0033
          55   -0.0025   -0.0002   -0.0004   -0.1165    0.0008   -0.0005    0.0010   -0.0000
          56   -0.0039   -0.0004   -0.0004   -0.0324    0.0004   -0.0002   -0.0000    0.0000
          57   -0.0044   -0.0002    0.0002   -0.0164   -0.0002    0.0001    0.0002   -0.0000
          58    0.0052    0.0003    0.0002    0.0222   -0.0002    0.0001    0.0000   -0.0000
          59    0.0020    0.0002    0.0008    0.0973   -0.0010    0.0005   -0.0008   -0.0002
          60    0.0027    0.0002   -0.0002    0.0695   -0.0003    0.0001   -0.0006   -0.0002


   Root No.      49        50        51        52        53        54

                49 A      50 A      51 A      52 A      53 A      54 A   

                3053.1    3061.2    3068.5    3080.1    3119.7    3125.0
  
           1    0.0005    0.0005   -0.0000   -0.0002   -0.0001   -0.0000
           2   -0.0003   -0.0002   -0.0000    0.0001    0.0001   -0.0000
           3    0.0005    0.0004   -0.0000   -0.0001    0.0002   -0.0000
           4   -0.0007   -0.0010   -0.0000    0.0009    0.0000   -0.0000
           5    0.0006   -0.0000    0.0012   -0.0000   -0.0000    0.0000
           6    0.0000    0.0000    0.0000   -0.0000   -0.0000    0.0000
           7   -0.0041   -0.0083    0.0076    0.0051   -0.0000    0.0000
           8    0.0081    0.0140   -0.0113   -0.0073    0.0000   -0.0000
           9    0.0000    0.0000   -0.0000   -0.0000    0.0000    0.0000
          10   -0.0135   -0.0085   -0.0082    0.0054   -0.0000   -0.0000
          11   -0.0245   -0.0142   -0.0120    0.0077   -0.0000   -0.0000
          12    0.0000    0.0000    0.0000   -0.0000   -0.0000   -0.0000
          13   -0.0049    0.0069   -0.0136   -0.0094    0.0000    0.0000
          14   -0.0086    0.0088   -0.0224   -0.0177    0.0000    0.0000
          15   -0.0000    0.0000   -0.0000   -0.0000   -0.0000    0.0000
          16   -0.0092    0.0059    0.0135   -0.0097    0.0000    0.0000
          17    0.0175   -0.0072   -0.0223    0.0183   -0.0000   -0.0000
          18    0.0000   -0.0000   -0.0000    0.0000    0.0000   -0.0000
          19    0.0111   -0.0261   -0.0012   -0.0260    0.0001   -0.0000
          20   -0.0003   -0.0000    0.0021    0.0000    0.0000   -0.0000
          21   -0.0000    0.0000    0.0000    0.0000    0.0000    0.0000
          22   -0.0003   -0.0001   -0.0001    0.0000   -0.0006   -0.0001
          23    0.0005    0.0002    0.0001   -0.0000    0.0005   -0.0001
          24   -0.0003   -0.0001   -0.0001    0.0000    0.0004   -0.0001
          25   -0.0000    0.0000   -0.0000   -0.0000   -0.0369   -0.0421
          26   -0.0000    0.0000    0.0000    0.0000    0.0236   -0.0412
          27   -0.0000    0.0000    0.0000    0.0000    0.0194   -0.0273
          28    0.0001    0.0000    0.0000   -0.0000    0.0065   -0.0005
          29   -0.0000   -0.0000   -0.0000    0.0000   -0.0045   -0.0001
          30   -0.0000   -0.0000   -0.0000   -0.0000   -0.0037   -0.0001
          31   -0.0021   -0.0017    0.0002    0.0004    0.0000   -0.0000
          32    0.0072    0.0065   -0.0015   -0.0020   -0.0001    0.0001
          33   -0.0022   -0.0020    0.0004    0.0006    0.0001   -0.0000
          34   -0.0013   -0.0011    0.0002    0.0002   -0.0003    0.0000
          35   -0.0050   -0.0039    0.0000    0.0011   -0.0007    0.0001
          36   -0.0035   -0.0027    0.0002    0.0007   -0.0007   -0.0000
          37    0.0490    0.0905   -0.0751   -0.0459    0.0002   -0.0001
          38   -0.0879   -0.1581    0.1292    0.0787   -0.0004    0.0001
          39   -0.0002   -0.0003    0.0003    0.0002    0.0000    0.0000
          40    0.1589    0.0937    0.0810   -0.0495    0.0001    0.0001
          41    0.2779    0.1609    0.1370   -0.0833    0.0002    0.0001
          42   -0.0001   -0.0001   -0.0001    0.0000    0.0000   -0.0000
          43    0.0582   -0.0659    0.1487    0.1069   -0.0003   -0.0002
          44    0.1001   -0.1082    0.2554    0.1867   -0.0005   -0.0003
          45    0.0000    0.0000    0.0000    0.0000    0.0000    0.0000
          46    0.1149   -0.0547   -0.1469    0.1100   -0.0003   -0.0001
          47   -0.2027    0.0898    0.2547   -0.1941    0.0005    0.0001
          48   -0.0003    0.0001    0.0004   -0.0003    0.0000   -0.0000
          49   -0.1292    0.3038    0.0135    0.2822   -0.0008    0.0001
          50    0.0010   -0.0006   -0.0034   -0.0006   -0.0000   -0.0000
          51    0.0002   -0.0006   -0.0000   -0.0005    0.0000   -0.0000
          52    0.0030    0.0012    0.0008   -0.0003   -0.0004    0.0000
          53   -0.0053   -0.0020   -0.0013    0.0005    0.0006   -0.0000
          54    0.0033    0.0012    0.0008   -0.0002   -0.0004    0.0000
          55   -0.0000   -0.0001    0.0001    0.0007    0.4586    0.4369
[...]
 EFF. MASS   3.1435

 VIBRATION   34   34A         ATOM PAIR      ENERGY CONTRIBUTION    RADIAL
 FREQ.      1227.23         C  3 -- H 13         +15.6% ( 46.2%)      0.3%
 T-DIPOLE    0.0145         C  4 -- H 14         +12.9% ( 42.1%)      0.2%
 TRAVEL      0.1468         C  7 -- H 17          +8.6% ( 34.4%)      0.5%
 RED. MASS   0.1474         C  6 -- H 16          +7.5% ( 32.0%)      0.7%
 EFF. MASS   2.5505

 VIBRATION   35   35A         ATOM PAIR      ENERGY CONTRIBUTION    RADIAL
 FREQ.      1286.53         C  1 -- H 11         +11.3% ( 45.2%)      1.2%
 T-DIPOLE    0.0824         C  1 -- C  8          +9.9% ( 42.4%)     98.1%
 TRAVEL      0.0911         C  9 -- H 19          +9.3% ( 41.0%)      2.2%
 RED. MASS   0.4541         C  9 -- H 20          +9.3% ( 41.0%)      2.2%
 EFF. MASS   6.3183

 VIBRATION   36   36A         ATOM PAIR      ENERGY CONTRIBUTION    RADIAL
 FREQ.      1370.16         C  1 -- C  2         +13.7% ( 50.9%)     74.5%
 T-DIPOLE    0.2490         C  1 -- H 12         +12.0% ( 47.6%)      1.1%
 TRAVEL      0.0815         C  1 -- H 11         +11.9% ( 47.5%)      1.4%
 RED. MASS   0.6616         C  6 -- C  7          +6.9% ( 36.1%)    100.0%
 EFF. MASS   7.4070

 VIBRATION   37   37A         ATOM PAIR      ENERGY CONTRIBUTION    RADIAL
 FREQ.      1393.15         C  5 -- C  7         +12.3% ( 62.2%)    100.0%
 T-DIPOLE    0.0830         C  3 -- C  5         +12.3% ( 62.1%)     99.9%
 TRAVEL      0.0645         C  6 -- C  7         +12.0% ( 61.4%)    100.0%
 RED. MASS   1.8695         C  4 -- C  6         +12.0% ( 61.4%)     99.8%
 EFF. MASS  11.6347         C  2 -- C  3         +11.6% ( 60.3%)    100.0%
                            C  2 -- C  4         +11.5% ( 60.1%)    100.0%

 VIBRATION   38   38A         ATOM PAIR      ENERGY CONTRIBUTION    RADIAL
 FREQ.      1407.57         C  1 -- H 11         +20.7% ( 57.3%)      4.6%
 T-DIPOLE    0.1659         C  1 -- H 12         +19.4% ( 55.4%)      5.0%
 TRAVEL      0.0913         C  1 -- C  2         +14.8% ( 48.5%)     95.4%
 RED. MASS   0.7077         C  1 -- C  8          +8.0% ( 35.6%)      2.1%
 EFF. MASS   5.7482

 VIBRATION   39   39A         ATOM PAIR      ENERGY CONTRIBUTION    RADIAL
 FREQ.      1522.39         C  1 -- C  8         +22.5% ( 76.1%)     74.8%
 T-DIPOLE    0.1281         C  8 -- H 18         +17.6% ( 67.3%)      0.6%
 TRAVEL      0.0636         C  8 -- C 10         +14.0% ( 59.9%)     82.3%
 RED. MASS   3.6330         C  9 -- C 10         +13.5% ( 59.0%)     99.9%
 EFF. MASS  10.9551         C  9 -- H 19         +10.9% ( 53.0%)      9.4%
                            C  9 -- H 20         +10.9% ( 53.0%)      9.4%

 VIBRATION   40   40A         ATOM PAIR      ENERGY CONTRIBUTION    RADIAL
 FREQ.      1544.31         C  3 -- C  5         +12.8% ( 52.8%)    100.0%
 T-DIPOLE    0.4978         C  4 -- C  6         +12.6% ( 52.4%)     99.9%
 TRAVEL      0.0633         C  2 -- C  3         +11.4% ( 49.9%)     23.2%
 RED. MASS   1.5247         C  2 -- C  4         +11.4% ( 49.8%)     28.0%
 EFF. MASS  10.8956         C  5 -- C  7         +10.8% ( 48.4%)     24.1%
                            C  6 -- C  7         +10.7% ( 48.2%)     21.3%

 VIBRATION   41   41A         ATOM PAIR      ENERGY CONTRIBUTION    RADIAL
 FREQ.      1606.73         C  2 -- C  3         +14.9% ( 56.9%)     62.5%
 T-DIPOLE    0.4677         C  2 -- C  4         +14.8% ( 56.6%)     60.7%
 TRAVEL      0.0616         C  1 -- C  2         +14.1% ( 55.3%)     99.7%
 RED. MASS   1.9688         C  6 -- C  7          +9.7% ( 45.8%)     67.3%
 EFF. MASS  11.0604

 VIBRATION   42   42A         ATOM PAIR      ENERGY CONTRIBUTION    RADIAL
 FREQ.      1784.23         C  5 -- C  7         +15.4% ( 54.4%)     89.5%
 T-DIPOLE    0.0523         C  2 -- C  4         +15.4% ( 54.4%)     90.0%
 TRAVEL      0.0565         C  2 -- C  3         +14.9% ( 53.5%)     87.4%
 RED. MASS   2.4476         C  6 -- C  7         +14.6% ( 53.0%)     85.8%
 EFF. MASS  11.8435

 VIBRATION   43   43A         ATOM PAIR      ENERGY CONTRIBUTION    RADIAL
 FREQ.      1802.53         C  4 -- C  6         +16.8% ( 57.2%)    100.0%
 T-DIPOLE    0.2321         C  3 -- C  5         +16.4% ( 56.5%)     99.7%
 TRAVEL      0.0562         C  2 -- C  3         +12.1% ( 48.4%)     48.0%
 RED. MASS   2.2854         C  2 -- C  4         +11.5% ( 47.2%)     41.0%
 EFF. MASS  11.8302

 VIBRATION   44   44A         ATOM PAIR      ENERGY CONTRIBUTION    RADIAL
 FREQ.      2261.71         C  8 -- C 10         +42.8% ( 85.9%)     99.8%
 T-DIPOLE    0.4416         C  9 -- C 10         +41.3% ( 84.4%)    100.0%
 TRAVEL      0.0502         C  1 -- C  8          +4.5% ( 27.7%)     41.9%
 RED. MASS   5.8368         C  8 -- H 18          +4.4% ( 27.5%)      4.1%
 EFF. MASS  11.8454

 VIBRATION   45   45A         ATOM PAIR      ENERGY CONTRIBUTION    RADIAL
 FREQ.      2943.07         C  1 -- H 12         +59.7% ( 80.2%)     97.5%
 T-DIPOLE    0.0651         C  1 -- H 11         +37.7% ( 63.8%)     95.0%
 TRAVEL      0.1217         C  1 -- C  8          +1.2% ( 11.3%)      0.0%
 RED. MASS   0.5421         C  1 -- C  2          +1.2% ( 11.2%)      0.1%
 EFF. MASS   1.5469

 VIBRATION   46   46A         ATOM PAIR      ENERGY CONTRIBUTION    RADIAL
 FREQ.      3019.83         C  1 -- H 11         +58.9% ( 75.8%)     98.7%
 T-DIPOLE    0.0567         C  1 -- H 12         +36.6% ( 59.8%)     95.8%
 TRAVEL      0.1315         C  8 -- H 18          +3.0% ( 17.0%)     99.9%
 RED. MASS   0.4771         C  1 -- C  8          +0.7% (  8.4%)     28.0%
 EFF. MASS   1.2904

 VIBRATION   47   47A         ATOM PAIR      ENERGY CONTRIBUTION    RADIAL
 FREQ.      3034.77         C  8 -- H 18         +94.3% ( 98.3%)    100.0%
 T-DIPOLE    0.3265         C  1 -- H 11          +2.3% ( 15.4%)     99.5%
 TRAVEL      0.1213         C  8 -- C 10          +1.5% ( 12.5%)     41.2%
 RED. MASS   0.8727         C  1 -- C  8          +1.3% ( 11.4%)     13.0%
 EFF. MASS   1.5106

 VIBRATION   48   48A         ATOM PAIR      ENERGY CONTRIBUTION    RADIAL
 FREQ.      3052.17         C  3 -- H 13         +60.6% ( 79.1%)    100.0%
 T-DIPOLE    0.1772         C  5 -- H 15         +20.8% ( 46.4%)    100.0%
 TRAVEL      0.1215         C  4 -- H 14         +12.6% ( 36.0%)    100.0%
 RED. MASS   0.4216         C  6 -- H 16          +1.9% ( 13.9%)     99.8%
 EFF. MASS   1.4964

 VIBRATION   49   49A         ATOM PAIR      ENERGY CONTRIBUTION    RADIAL
 FREQ.      3053.08         C  4 -- H 14         +50.5% ( 72.2%)    100.0%
 T-DIPOLE    0.2002         C  6 -- H 16         +26.8% ( 52.6%)    100.0%
 TRAVEL      0.1212         C  7 -- H 17          +8.3% ( 29.2%)    100.0%
 RED. MASS   0.3357         C  5 -- H 15          +6.6% ( 26.2%)    100.0%
 EFF. MASS   1.5042

 VIBRATION   50   50A         ATOM PAIR      ENERGY CONTRIBUTION    RADIAL
 FREQ.      3061.20         C  7 -- H 17         +47.8% ( 70.2%)    100.0%
 T-DIPOLE    0.2872         C  4 -- H 14         +17.9% ( 43.0%)    100.0%
 TRAVEL      0.1206         C  3 -- H 13         +17.2% ( 42.1%)    100.0%
 RED. MASS   0.2959         C  5 -- H 15          +8.3% ( 29.3%)     99.8%
 EFF. MASS   1.5145

 VIBRATION   51   51A         ATOM PAIR      ENERGY CONTRIBUTION    RADIAL
 FREQ.      3068.51         C  5 -- H 15         +38.1% ( 62.7%)    100.0%
 T-DIPOLE    0.5626         C  6 -- H 16         +37.7% ( 62.4%)    100.0%
 TRAVEL      0.1194         C  4 -- H 14         +11.0% ( 33.7%)    100.0%
 RED. MASS   0.3072         C  3 -- H 13          +9.7% ( 31.7%)     99.9%
 EFF. MASS   1.5425

 VIBRATION   52   52A         ATOM PAIR      ENERGY CONTRIBUTION    RADIAL
 FREQ.      3080.07         C  7 -- H 17         +39.7% ( 63.9%)    100.0%
 T-DIPOLE    0.3608         C  6 -- H 16         +24.8% ( 50.5%)    100.0%
 TRAVEL      0.1170         C  5 -- H 15         +23.1% ( 48.7%)    100.0%
 RED. MASS   0.2768         C  4 -- H 14          +4.7% ( 21.9%)     99.9%
 EFF. MASS   1.6004

 VIBRATION   53   53A         ATOM PAIR      ENERGY CONTRIBUTION    RADIAL
 FREQ.      3119.66         C  9 -- H 19         +51.9% ( 72.1%)     95.6%
 T-DIPOLE    0.3616         C  9 -- H 20         +46.3% ( 68.1%)     94.6%
 TRAVEL      0.1236         C  9 -- C 10          +1.8% ( 13.4%)     99.9%
 RED. MASS   0.4873
 EFF. MASS   1.4155

 VIBRATION   54   54A         ATOM PAIR      ENERGY CONTRIBUTION    RADIAL
 FREQ.      3124.97         C  9 -- H 20         +52.1% ( 73.9%)     97.4%
 T-DIPOLE    0.2268         C  9 -- H 19         +46.7% ( 70.0%)     96.8%
 TRAVEL      0.1163         C  9 -- C 10          +1.2% ( 11.2%)      0.1%
 RED. MASS   0.5348
 EFF. MASS   1.5951

      SYMMETRY NUMBER FOR POINT-GROUP C1  =  1


          SYSTEM IS A GROUND STATE



 InChI=1S/C10H10/c1-2-3-7-10-8-5-4-6-9-10/h3-6,8-9H,1,7H2


          MOLECULE IS NOT LINEAR

          THERE ARE 54 GENUINE VIBRATIONS IN THIS SYSTEM
          THIS THERMODYNAMICS CALCULATION IS LIMITED TO
          MOLECULES WHICH HAVE NO INTERNAL ROTATIONS




                    CALCULATED THERMODYNAMIC PROPERTIES
                                          *
   TEMP. (K)   PARTITION FUNCTION   H.O.F.    ENTHALPY  HEAT CAPACITY ENTROPY
                                   KCAL/MOL   CAL/MOLE    CAL/K/MOL  CAL/K/MOL


 298.00  VIB.     0.2869D+03                  3899.4368    28.6937    24.3312
         ROT.     0.7179D+06                   888.2813     2.9808    29.7764
         INT.     0.2060D+09                  4787.7181    31.6745    54.1076
         TRA.     0.1436D+28                  1480.4688     4.9680    40.5022
         TOT.                       66.052    6268.1870    36.6425    94.6097

 200.00  VIB.     0.3525D+02                  1647.6866    17.4458    15.3175
         ROT.     0.3947D+06                   596.1620     2.9808    28.5877
         INT.     0.1391D+08                  2243.8485    20.4266    43.9053
         TRA.     0.7896D+27                   993.6033     4.9680    38.5210
         TOT.                       63.021    3237.4518    25.3946    82.4263

 210.00  VIB.     0.4339D+02                  1827.5267    18.5261    16.1948
         ROT.     0.4247D+06                   625.9700     2.9808    28.7332
         INT.     0.1843D+08                  2453.4967    21.5069    44.9279
         TRA.     0.8496D+27                  1043.2834     4.9680    38.7634
         TOT.                       63.281    3496.7801    26.4749    83.6913

 220.00  VIB.     0.5349D+02                  2018.2833    19.6288    17.0820
         ROT.     0.4554D+06                   655.7781     2.9808    28.8718
         INT.     0.2436D+08                  2674.0614    22.6096    45.9538
         TRA.     0.9110D+27                  1092.9636     4.9680    38.9945
         TOT.                       63.551    3767.0250    27.5776    84.9483

 230.00  VIB.     0.6602D+02                  2220.1691    20.7515    17.9792
         ROT.     0.4868D+06                   685.5862     2.9808    29.0043
         INT.     0.3214D+08                  2905.7554    23.7323    46.9835
         TRA.     0.9738D+27                  1142.6437     4.9680    39.2154
         TOT.                       63.832    4048.3991    28.7004    86.1989

 240.00  VIB.     0.8160D+02                  2433.3720    21.8917    18.8864
         ROT.     0.5188D+06                   715.3943     2.9808    29.1312
         INT.     0.4234D+08                  3148.7663    24.8725    48.0176
         TRA.     0.1038D+28                  1192.3239     4.9680    39.4268
         TOT.                       64.125    4341.0902    29.8405    87.4444

 250.00  VIB.     0.1010D+03                  2658.0516    23.0464    19.8035
         ROT.     0.5516D+06                   745.2024     2.9808    29.2529
         INT.     0.5571D+08                  3403.2541    26.0272    49.0563
         TRA.     0.1103D+28                  1242.0041     4.9680    39.6296
         TOT.                       64.429    4645.2581    30.9952    88.6859

 260.00  VIB.     0.1252D+03                  2894.3377    24.2125    20.7300
         ROT.     0.5850D+06                   775.0105     2.9808    29.3698
         INT.     0.7324D+08                  3669.3482    27.1933    50.0998
         TRA.     0.1170D+28                  1291.6842     4.9680    39.8245
         TOT.                       64.745    4961.0324    32.1613    89.9243

 270.00  VIB.     0.1554D+03                  3142.3289    25.3869    21.6658
         ROT.     0.6191D+06                   804.8186     2.9808    29.4823
         INT.     0.9622D+08                  3947.1475    28.3677    51.1481
         TRA.     0.1239D+28                  1341.3644     4.9680    40.0120
         TOT.                       65.073    5288.5119    33.3357    91.1600

 280.00  VIB.     0.1932D+03                  3402.0930    26.5666    22.6104
         ROT.     0.6538D+06                   834.6267     2.9808    29.5907
         INT.     0.1263D+09                  4236.7198    29.5474    52.2011
         TRA.     0.1308D+28                  1391.0445     4.9680    40.1926
         TOT.                       65.412    5627.7643    34.5154    92.3937

 290.00  VIB.     0.2405D+03                  3673.6674    27.7485    23.5633
         ROT.     0.6892D+06                   864.4348     2.9808    29.6953
         INT.     0.1658D+09                  4538.1023    30.7293    53.2585
         TRA.     0.1379D+28                  1440.7247     4.9680    40.3670
         TOT.                       65.763    5978.8270    35.6973    93.6255

 300.00  VIB.     0.2999D+03                  3957.0604    28.9298    24.5239
         ROT.     0.7251D+06                   894.2429     2.9808    29.7963
         INT.     0.2174D+09                  4851.3033    31.9106    54.3202
         TRA.     0.1451D+28                  1490.4049     4.9680    40.5354
         TOT.                       66.126    6341.7082    36.8786    94.8556

 310.00  VIB.     0.3744D+03                  4252.2527    30.1079    25.4917
         ROT.     0.7617D+06                   924.0510     2.9808    29.8941
         INT.     0.2852D+09                  5176.3037    33.0887    55.3858
         TRA.     0.1524D+28                  1540.0850     4.9680    40.6983
         TOT.                       66.500    6716.3887    38.0567    96.0841

 320.00  VIB.     0.4681D+03                  4559.1998    31.2804    26.4661
         ROT.     0.7988D+06                   953.8591     2.9808    29.9887
         INT.     0.3739D+09                  5513.0589    34.2612    56.4548
         TRA.     0.1598D+28                  1589.7652     4.9680    40.8560
         TOT.                       66.887    7102.8241    39.2292    97.3109

 330.00  VIB.     0.5860D+03                  4877.8339    32.4450    27.4465
         ROT.     0.8366D+06                   983.6672     2.9808    30.0804
         INT.     0.4902D+09                  5861.5011    35.4258    57.5270
         TRA.     0.1674D+28                  1639.4454     4.9680    41.0089
         TOT.                       67.285    7500.9465    40.3938    98.5359

 340.00  VIB.     0.7347D+03                  5208.0661    33.5997    28.4323
         ROT.     0.8749D+06                  1013.4753     2.9808    30.1694
         INT.     0.6427D+09                  6221.5414    36.5805    58.6017
         TRA.     0.1750D+28                  1689.1255     4.9680    41.1572
         TOT.                       67.695    7910.6669    41.5485    99.7589

 350.00  VIB.     0.9222D+03                  5549.7889    34.7428    29.4228
         ROT.     0.9137D+06                  1043.2834     2.9808    30.2558
         INT.     0.8427D+09                  6593.0723    37.7236    59.6786
         TRA.     0.1828D+28                  1738.8057     4.9680    41.3012
         TOT.                       68.116    8331.8780    42.6916   100.9798

 360.00  VIB.     0.1159D+04                  5902.8786    35.8728    30.4174
         ROT.     0.9532D+06                  1073.0915     2.9808    30.3398
         INT.     0.1105D+10                  6975.9701    38.8536    60.7572
         TRA.     0.1907D+28                  1788.4859     4.9680    41.4412
         TOT.                       68.548    8764.4559    43.8216   102.1984

 370.00  VIB.     0.1459D+04                  6267.1970    36.9884    31.4155
         ROT.     0.9932D+06                  1102.8996     2.9808    30.4215
         INT.     0.1449D+10                  7370.0966    39.9692    61.8370
         TRA.     0.1987D+28                  1838.1660     4.9680    41.5773
         TOT.                       68.992    9208.2626    44.9372   103.4143

 380.00  VIB.     0.1837D+04                  6642.5941    38.0884    32.4166
         ROT.     0.1034D+07                  1132.7077     2.9808    30.5010
         INT.     0.1899D+10                  7775.3018    41.0692    62.9175
         TRA.     0.2068D+28                  1887.8462     4.9680    41.7098
         TOT.                       69.447    9663.1480    46.0372   104.6273

 390.00  VIB.     0.2317D+04                  7028.9098    39.1719    33.4200
         ROT.     0.1075D+07                  1162.5158     2.9808    30.5784
         INT.     0.2491D+10                  8191.4256    42.1528    63.9984
         TRA.     0.2150D+28                  1937.5263     4.9680    41.8388
         TOT.                       69.913   10128.9519    47.1208   105.8372

 400.00  VIB.     0.2925D+04                  7425.9756    40.2383    34.4252
         ROT.     0.1116D+07                  1192.3239     2.9808    30.6539
         INT.     0.3266D+10                  8618.2995    43.2191    65.0791
         TRA.     0.2233D+28                  1987.2065     4.9680    41.9646
         TOT.                       70.390   10605.5060    48.1871   107.0437

   *: NOTE: HEATS OF FORMATION ARE RELATIVE TO THE
            ELEMENTS IN THEIR STANDARD STATE AT 298K
              (=  Standard Enthalpy of Formation).

            Hvib:  Zero-point energy is not included.
                   frequencies of less than zero cm-1 are not included.
            Hrot = (3/2)RT
            Htra = (3/2)RT + pV = (5/2)RT

            Heat capacity is Cp, not Cv

          For more information, see: HTTP://OpenMOPAC.net/Manual/thermochemistry.html


           FORCE CONSTANT IN CARTESIAN COORDINATES (Millidynes/A)

    ATOM   CHEMICAL       X               Y               Z
   NUMBER   SYMBOL  FORCE CONSTANT  FORCE CONSTANT  FORCE CONSTANT

      1       C        8.890807        8.466711        8.417066
      2       C       12.256564       12.429521        2.880292
      3       C       12.484421       12.071055        2.349159
      4       C       12.556479       11.983189        2.348330
      5       C       12.230375       12.208807        2.341382
      6       C       12.290635       12.218410        2.339843
      7       C       12.140408       12.169840        2.337951
      8       C       10.031078        8.015446        8.869223
      9       C       12.614466        8.199114        5.485870
     10       C       14.508580        7.836687        5.998634
     11       H        1.234506        4.023420        1.140041
     12       H        1.140192        2.816412        2.267032
     13       H        1.834895        4.072760        0.356056
     14       H        1.862212        4.042741        0.353955
     15       H        1.864728        4.056152        0.355334
     16       H        1.847610        4.074204        0.355420
     17       H        5.167671        0.758948        0.354898
     18       H        1.274567        3.068306        1.741950
     19       H        4.975703        0.816873        0.484473
     20       H        0.746090        3.569745        1.970984

 **********************
 *                    *
 * JOB ENDED NORMALLY *
 *                    *
 **********************



 TOTAL JOB TIME:            11.02 SECONDS

 == MOPAC DONE ==
