 *******************************************************************************
 ** Site#: 14399        For non-commercial use only    Version 18.184L 64BITS **
 *******************************************************************************
 ** Cite this program as: MOPAC2016, Version: 18.184L, James J. P. Stewart,   **
 ** Stewart Computational Chemistry, web: HTTP://OpenMOPAC.net. Days left:  20**
 *******************************************************************************
 **                                                                           **
 **                                MOPAC2016                                  **
 **                                                                           **
 *******************************************************************************

                              PM3 CALCULATION RESULTS

 *******************************************************************************
 *  CALCULATION DONE:                                Thu Jun 13 15:56:08 2019  *
 *  PM3        - The PM3 Hamiltonian to be used
 *  PRECISE    - CRITERIA TO BE INCREASED BY 100 TIMES
 *  NOSYM      - POINT-GROUP SYMMETRY SET TO C1
 *  THREADS=1  - MULTI-THREADING NOT USED
 *  T=         - A TIME OF 172800.0 SECONDS REQUESTED
 *  DUMP=N     - RESTART FILE WRITTEN EVERY  7200.000 SECONDS
 *******************************************************************************
pm3  precise nosym THREADS=1
 InChI=1S/C9H10/c1-2-5-9-7-3-6-8(9)4-1/h1-2,4-6,9H,3,7H2

   ATOM   CHEMICAL          X               Y               Z
  NUMBER   SYMBOL      (ANGSTROMS)     (ANGSTROMS)     (ANGSTROMS)
 
     1       C         -0.22270000  *  -0.61300000  *  -0.57720000  *
     2       C         -1.59320000  *  -0.82720000  *   0.07230000  *
     3       C         -2.18000000  *   0.58310000  *   0.23110000  *
     4       C          0.06430000  *   0.81890000  *  -0.29480000  *
     5       C         -1.00310000  *   1.48330000  *   0.10040000  *
     6       C          0.87370000  *  -1.50520000  *  -0.04160000  *
     7       C          1.44280000  *   1.30890000  *  -0.17310000  *
     8       C          2.10930000  *  -1.02730000  *   0.18230000  *
     9       C          2.41690000  *   0.41760000  *   0.04160000  *
    10       H         -0.30170000  *  -0.75640000  *  -1.67720000  *
    11       H         -2.24530000  *  -1.46550000  *  -0.56250000  *
    12       H         -1.48500000  *  -1.29750000  *   1.07560000  *
    13       H         -2.65380000  *   0.70360000  *   1.22880000  *
    14       H         -2.91400000  *   0.80600000  *  -0.57280000  *
    15       H          0.68920000  *  -2.56770000  *   0.05710000  *
    16       H         -0.98870000  *   2.51520000  *   0.42780000  *
    17       H          1.65940000  *   2.36990000  *  -0.18130000  *
    18       H          3.43520000  *   0.75850000  *   0.17710000  *
    19       H          2.89660000  *  -1.70510000  *   0.48640000  *
 


          CARTESIAN COORDINATES 

    NO.       ATOM           X           Y           Z

     1         C         -0.2227     -0.6130     -0.5772
     2         C         -1.5932     -0.8272      0.0723
     3         C         -2.1800      0.5831      0.2311
     4         C          0.0643      0.8189     -0.2948
     5         C         -1.0031      1.4833      0.1004
     6         C          0.8737     -1.5052     -0.0416
     7         C          1.4428      1.3089     -0.1731
     8         C          2.1093     -1.0273      0.1823
     9         C          2.4169      0.4176      0.0416
    10         H         -0.3017     -0.7564     -1.6772
    11         H         -2.2453     -1.4655     -0.5625
    12         H         -1.4850     -1.2975      1.0756
    13         H         -2.6538      0.7036      1.2288
    14         H         -2.9140      0.8060     -0.5728
    15         H          0.6892     -2.5677      0.0571
    16         H         -0.9887      2.5152      0.4278
    17         H          1.6594      2.3699     -0.1813
    18         H          3.4352      0.7585      0.1771
    19         H          2.8966     -1.7051      0.4864

  H: (PM3): J. J. P. STEWART, J. COMP. CHEM. 10, 209 (1989).
  C: (PM3): J. J. P. STEWART, J. COMP. CHEM. 10, 209 (1989).

           Empirical Formula: C9 H10  =    19 atoms



      MOLECULAR POINT GROUP   :   C1  


      RHF CALCULATION, NO. OF DOUBLY OCCUPIED LEVELS = 23


          Geometry optimization using EF

          DIAGONAL MATRIX USED AS START HESSIAN

 CYCLE:     1 TIME:   0.020 TIME LEFT:  2.00D  GRAD.:   103.646 HEAT:  42.59160
 CYCLE:     2 TIME:   0.043 TIME LEFT:  2.00D  GRAD.:    53.080 HEAT:  40.63439
 CYCLE:     3 TIME:   0.020 TIME LEFT:  2.00D  GRAD.:    64.909 HEAT:  40.42523
 CYCLE:     4 TIME:   0.023 TIME LEFT:  2.00D  GRAD.:    35.185 HEAT:  39.55329
 CYCLE:     5 TIME:   0.023 TIME LEFT:  2.00D  GRAD.:    49.871 HEAT:  39.53082
 CYCLE:     6 TIME:   0.027 TIME LEFT:  2.00D  GRAD.:    29.611 HEAT:  39.05724
 CYCLE:     7 TIME:   0.031 TIME LEFT:  2.00D  GRAD.:    19.319 HEAT:  38.81218
 CYCLE:     8 TIME:   0.020 TIME LEFT:  2.00D  GRAD.:    25.934 HEAT:  38.74182
 CYCLE:     9 TIME:   0.031 TIME LEFT:  2.00D  GRAD.:    15.743 HEAT:  38.59217
 CYCLE:    10 TIME:   0.023 TIME LEFT:  2.00D  GRAD.:    19.692 HEAT:  38.56290
 CYCLE:    11 TIME:   0.020 TIME LEFT:  2.00D  GRAD.:    11.779 HEAT:  38.42459
 CYCLE:    12 TIME:   0.047 TIME LEFT:  2.00D  GRAD.:    11.825 HEAT:  38.39220
 CYCLE:    13 TIME:   0.023 TIME LEFT:  2.00D  GRAD.:     7.667 HEAT:  38.34551
 CYCLE:    14 TIME:   0.023 TIME LEFT:  2.00D  GRAD.:    10.759 HEAT:  38.31372
 CYCLE:    15 TIME:   0.023 TIME LEFT:  2.00D  GRAD.:     8.496 HEAT:  38.26781
 CYCLE:    16 TIME:   0.023 TIME LEFT:  2.00D  GRAD.:    10.840 HEAT:  38.22635
 CYCLE:    17 TIME:   0.023 TIME LEFT:  2.00D  GRAD.:    14.100 HEAT:  38.19490
 CYCLE:    18 TIME:   0.020 TIME LEFT:  2.00D  GRAD.:     6.712 HEAT:  38.13371
 CYCLE:    19 TIME:   0.023 TIME LEFT:  2.00D  GRAD.:    10.103 HEAT:  38.13222
 CYCLE:    20 TIME:   0.023 TIME LEFT:  2.00D  GRAD.:     7.235 HEAT:  38.09853
 CYCLE:    21 TIME:   0.023 TIME LEFT:  2.00D  GRAD.:     8.662 HEAT:  38.09708
 CYCLE:    22 TIME:   0.023 TIME LEFT:  2.00D  GRAD.:     4.479 HEAT:  38.07249
 CYCLE:    23 TIME:   0.020 TIME LEFT:  2.00D  GRAD.:     4.582 HEAT:  38.06776
 CYCLE:    24 TIME:   0.023 TIME LEFT:  2.00D  GRAD.:     2.174 HEAT:  38.05726
 CYCLE:    25 TIME:   0.023 TIME LEFT:  2.00D  GRAD.:     2.934 HEAT:  38.04962
 CYCLE:    26 TIME:   0.023 TIME LEFT:  2.00D  GRAD.:     4.075 HEAT:  38.04276
 CYCLE:    27 TIME:   0.023 TIME LEFT:  2.00D  GRAD.:     3.121 HEAT:  38.03625
 CYCLE:    28 TIME:   0.023 TIME LEFT:  2.00D  GRAD.:     1.721 HEAT:  38.03054
 CYCLE:    29 TIME:   0.023 TIME LEFT:  2.00D  GRAD.:     2.084 HEAT:  38.02587
 CYCLE:    30 TIME:   0.023 TIME LEFT:  2.00D  GRAD.:     1.885 HEAT:  38.02063
 CYCLE:    31 TIME:   0.020 TIME LEFT:  2.00D  GRAD.:     1.505 HEAT:  38.01587
 CYCLE:    32 TIME:   0.023 TIME LEFT:  2.00D  GRAD.:     1.395 HEAT:  38.01358
 CYCLE:    33 TIME:   0.031 TIME LEFT:  2.00D  GRAD.:     1.369 HEAT:  38.01168
 CYCLE:    34 TIME:   0.020 TIME LEFT:  2.00D  GRAD.:     0.752 HEAT:  38.00998
 CYCLE:    35 TIME:   0.023 TIME LEFT:  2.00D  GRAD.:     0.742 HEAT:  38.00882
 CYCLE:    36 TIME:   0.023 TIME LEFT:  2.00D  GRAD.:     0.826 HEAT:  38.00756
 CYCLE:    37 TIME:   0.023 TIME LEFT:  2.00D  GRAD.:     0.630 HEAT:  38.00682
 CYCLE:    38 TIME:   0.023 TIME LEFT:  2.00D  GRAD.:     0.361 HEAT:  38.00640
 CYCLE:    39 TIME:   0.023 TIME LEFT:  2.00D  GRAD.:     0.410 HEAT:  38.00609
 CYCLE:    40 TIME:   0.023 TIME LEFT:  2.00D  GRAD.:     0.502 HEAT:  38.00576
 CYCLE:    41 TIME:   0.020 TIME LEFT:  2.00D  GRAD.:     0.415 HEAT:  38.00542
 CYCLE:    42 TIME:   0.023 TIME LEFT:  2.00D  GRAD.:     0.317 HEAT:  38.00513
 CYCLE:    43 TIME:   0.023 TIME LEFT:  2.00D  GRAD.:     0.347 HEAT:  38.00484
 CYCLE:    44 TIME:   0.023 TIME LEFT:  2.00D  GRAD.:     0.462 HEAT:  38.00443
 CYCLE:    45 TIME:   0.023 TIME LEFT:  2.00D  GRAD.:     0.531 HEAT:  38.00391
 CYCLE:    46 TIME:   0.023 TIME LEFT:  2.00D  GRAD.:     0.442 HEAT:  38.00332
 CYCLE:    47 TIME:   0.020 TIME LEFT:  2.00D  GRAD.:     0.353 HEAT:  38.00306
 CYCLE:    48 TIME:   0.023 TIME LEFT:  2.00D  GRAD.:     0.451 HEAT:  38.00268
 CYCLE:    49 TIME:   0.023 TIME LEFT:  2.00D  GRAD.:     0.286 HEAT:  38.00251
 CYCLE:    50 TIME:   0.023 TIME LEFT:  2.00D  GRAD.:     0.204 HEAT:  38.00229
 CYCLE:    51 TIME:   0.023 TIME LEFT:  2.00D  GRAD.:     0.113 HEAT:  38.00224
 CYCLE:    52 TIME:   0.023 TIME LEFT:  2.00D  GRAD.:     0.067 HEAT:  38.00222
 CYCLE:    53 TIME:   0.023 TIME LEFT:  2.00D  GRAD.:     0.048 HEAT:  38.00221

     GRADIENT =  0.04834  IS LESS THAN CUTOFF =  0.05000



 -------------------------------------------------------------------------------
 pm3  precise nosym THREADS=1
 InChI=1S/C9H10/c1-2-5-9-7-3-6-8(9)4-1/h1-2,4-6,9H,3,7H2



     GEOMETRY OPTIMISED USING EIGENVECTOR FOLLOWING (EF).     
     SCF FIELD WAS ACHIEVED                                   


                              PM3 CALCULATION
                                                       MOPAC2016 (Version: 18.184L)
                                                       Thu Jun 13 15:56:09 2019
                                                       No. of days remaining =  20




          FINAL HEAT OF FORMATION =         38.00221 KCAL/MOL =     159.00124 KJ/MOL


          TOTAL ENERGY            =      -1219.44259 EV
          ELECTRONIC ENERGY       =      -6260.99292 EV  POINT GROUP:     C1  
          CORE-CORE REPULSION     =       5041.55033 EV
          COSMO AREA              =        160.14 SQUARE ANGSTROMS
          COSMO VOLUME            =        158.51 CUBIC ANGSTROMS

          GRADIENT NORM           =          0.04834 = 0.01109 PER ATOM
          IONIZATION POTENTIAL    =          8.559429 EV
          HOMO LUMO ENERGIES (EV) =         -8.559 -0.161
          NO. OF FILLED LEVELS    =         23
          MOLECULAR WEIGHT        =        118.1780

          MOLECULAR DIMENSIONS (Angstroms)

            Atom       Atom       Distance
            H    19    H    14     6.45982
            H    17    H    11     5.03467
            H    10    H    13     3.28442


          SCF CALCULATIONS        =         61
 
          WALL-CLOCK TIME         =          1.328 SECONDS
          COMPUTATION TIME        =          0.467 SECONDS




   ATOM   CHEMICAL          X               Y               Z
  NUMBER   SYMBOL      (ANGSTROMS)     (ANGSTROMS)     (ANGSTROMS)
 
     1       C         -0.19463636  *  -0.59887659  *  -0.53666193  *
     2       C         -1.60628102  *  -0.83485432  *   0.02913031  *
     3       C         -2.19903387  *   0.57194512  *   0.22545902  *
     4       C          0.08722967  *   0.84603001  *  -0.20998589  *
     5       C         -1.02558330  *   1.49876588  *   0.16479919  *
     6       C          0.87842518  *  -1.49298804  *  -0.02213065  *
     7       C          1.46312336  *   1.29572834  *  -0.20367221  *
     8       C          2.11481246  *  -1.01791285  *   0.19525106  *
     9       C          2.43521801  *   0.38617231  *  -0.00463768  *
    10       H         -0.20840315  *  -0.71889408  *  -1.64906965  *
    11       H         -2.22142315  *  -1.45139346  *  -0.64885844  *
    12       H         -1.56169660  *  -1.38588648  *   0.98631068  *
    13       H         -2.73401255  *   0.66951947  *   1.18720951  *
    14       H         -2.93311538  *   0.82218491  *  -0.56323401  *
    15       H          0.62259283  *  -2.54530152  *   0.13625881  *
    16       H         -1.10782582  *   2.55221117  *   0.42922306  *
    17       H          1.66653366  *   2.36441571  *  -0.31974723  *
    18       H          3.48998989  *   0.67608346  *   0.03192876  *
    19       H          2.92297030  *  -1.67340920  *   0.53567598  *

                             CARTESIAN COORDINATES

   1    C       -0.194636355    -0.598876589    -0.536661927
   2    C       -1.606281022    -0.834854319     0.029130312
   3    C       -2.199033870     0.571945119     0.225459024
   4    C        0.087229674     0.846030011    -0.209985894
   5    C       -1.025583304     1.498765879     0.164799193
   6    C        0.878425184    -1.492988039    -0.022130652
   7    C        1.463123361     1.295728339    -0.203672212
   8    C        2.114812464    -1.017912848     0.195251055
   9    C        2.435218014     0.386172307    -0.004637682
  10    H       -0.208403149    -0.718894077    -1.649069654
  11    H       -2.221423148    -1.451393459    -0.648858444
  12    H       -1.561696603    -1.385886477     0.986310676
  13    H       -2.734012553     0.669519466     1.187209512
  14    H       -2.933115382     0.822184909    -0.563234005
  15    H        0.622592831    -2.545301520     0.136258814
  16    H       -1.107825816     2.552211166     0.429223063
  17    H        1.666533658     2.364415710    -0.319747233
  18    H        3.489989890     0.676083455     0.031928763
  19    H        2.922970300    -1.673409204     0.535675977


           Empirical Formula: C9 H10  =    19 atoms



      MOLECULAR POINT GROUP   :   C1  


                  EIGENVALUES  
 -41.48310 -35.04761 -30.82742 -27.21246 -26.09388 -21.37125 -20.60503 -19.45492
 -17.34390 -17.28262 -16.11621 -15.37696 -14.72843 -14.32402 -13.67247 -13.26184
 -13.00127 -12.60892 -12.39761 -11.86327 -11.39015 -10.19726  -8.55943  -0.16068
   1.27660   2.25517   3.23285   3.29112   3.43503   3.55641   3.61993   3.76441
   3.81413   4.08247   4.09708   4.16416   4.28145   4.48802   4.84011   4.98526
   5.03975   5.34985   5.45776   5.69561   6.21417   6.28241


              NET ATOMIC CHARGES AND DIPOLE CONTRIBUTIONS

  ATOM NO.   TYPE          CHARGE      No. of ELECS.   s-Pop       p-Pop       
    1          C          -0.012534        4.0125     1.15712     2.85541
    2          C          -0.090600        4.0906     1.16745     2.92315
    3          C          -0.062866        4.0629     1.15408     2.90879
    4          C          -0.102333        4.1023     1.18890     2.91343
    5          C          -0.137632        4.1376     1.19950     2.93813
    6          C          -0.121760        4.1218     1.19644     2.92532
    7          C          -0.076247        4.0762     1.17382     2.90243
    8          C          -0.116786        4.1168     1.17995     2.93684
    9          C          -0.100405        4.1004     1.18135     2.91906
   10          H           0.078245        0.9218     0.92175
   11          H           0.050870        0.9491     0.94913
   12          H           0.055639        0.9444     0.94436
   13          H           0.056106        0.9439     0.94389
   14          H           0.056276        0.9437     0.94372
   15          H           0.102836        0.8972     0.89716
   16          H           0.114467        0.8855     0.88553
   17          H           0.104955        0.8950     0.89505
   18          H           0.100756        0.8992     0.89924
   19          H           0.101014        0.8990     0.89899
 DIPOLE           X         Y         Z       TOTAL
 POINT-CHG.    -0.323    -0.136    -0.003     0.350
 HYBRID         0.000    -0.006     0.002     0.006
 SUM           -0.323    -0.142    -0.002     0.353


          ATOMIC ORBITAL ELECTRON POPULATIONS

     Atom    s        px        py        pz   
    1  C   1.15712   0.93478   0.92607   0.99456
    2  C   1.16745   0.94830   0.96466   1.01019
    3  C   1.15408   0.96149   0.93767   1.00963
    4  C   1.18890   0.94326   0.95933   1.01084
    5  C   1.19950   0.95019   0.98501   1.00294
    6  C   1.19644   0.95165   0.98312   0.99056
    7  C   1.17382   0.92428   0.97796   1.00019
    8  C   1.17995   0.96684   0.95412   1.01588
    9  C   1.18135   0.97765   0.93991   1.00150
   10  H   0.92175
   11  H   0.94913
   12  H   0.94436
   13  H   0.94389
   14  H   0.94372
   15  H   0.89716
   16  H   0.88553
   17  H   0.89505
   18  H   0.89924
   19  H   0.89899
 *******************************************************************************
 ** Site#: 14399        For non-commercial use only    Version 18.184L 64BITS **
 *******************************************************************************
 ** Cite this program as: MOPAC2016, Version: 18.184L, James J. P. Stewart,   **
 ** Stewart Computational Chemistry, web: HTTP://OpenMOPAC.net. Days left:  20**
 *******************************************************************************
 **                                                                           **
 **                                MOPAC2016                                  **
 **                                                                           **
 *******************************************************************************

                              PM3 CALCULATION RESULTS

 *******************************************************************************
 *  CALCULATION DONE:                                Thu Jun 13 15:56:09 2019  *
 *  PM3        - The PM3 Hamiltonian to be used
 *  OLDGEO     - PREVIOUS GEOMETRY TO BE USED
 *  PRECISE    - CRITERIA TO BE INCREASED BY 100 TIMES
 *  NOSYM      - POINT-GROUP SYMMETRY SET TO C1
 *  THREADS=1  - MULTI-THREADING NOT USED
 *  T=         - A TIME OF 172800.0 SECONDS REQUESTED
 *  DUMP=N     - RESTART FILE WRITTEN EVERY  7200.000 SECONDS
 *  THERMO     - THERMODYNAMIC QUANTITIES TO BE CALCULATED
 *******************************************************************************
oldgeo thermo nosym precise THREADS=1  pm3
 InChI=1S/C9H10/c1-2-5-9-7-3-6-8(9)4-1/h1-2,4-6,9H,3,7H2

   ATOM   CHEMICAL          X               Y               Z
  NUMBER   SYMBOL      (ANGSTROMS)     (ANGSTROMS)     (ANGSTROMS)
 
     1       C         -0.19463636  *  -0.59887659  *  -0.53666193  *
     2       C         -1.60628102  *  -0.83485432  *   0.02913031  *
     3       C         -2.19903387  *   0.57194512  *   0.22545902  *
     4       C          0.08722967  *   0.84603001  *  -0.20998589  *
     5       C         -1.02558330  *   1.49876588  *   0.16479919  *
     6       C          0.87842518  *  -1.49298804  *  -0.02213065  *
     7       C          1.46312336  *   1.29572834  *  -0.20367221  *
     8       C          2.11481246  *  -1.01791285  *   0.19525106  *
     9       C          2.43521801  *   0.38617231  *  -0.00463768  *
    10       H         -0.20840315  *  -0.71889408  *  -1.64906965  *
    11       H         -2.22142315  *  -1.45139346  *  -0.64885844  *
    12       H         -1.56169660  *  -1.38588648  *   0.98631068  *
    13       H         -2.73401255  *   0.66951947  *   1.18720951  *
    14       H         -2.93311538  *   0.82218491  *  -0.56323401  *
    15       H          0.62259283  *  -2.54530152  *   0.13625881  *
    16       H         -1.10782582  *   2.55221117  *   0.42922306  *
    17       H          1.66653366  *   2.36441571  *  -0.31974723  *
    18       H          3.48998989  *   0.67608346  *   0.03192876  *
    19       H          2.92297030  *  -1.67340920  *   0.53567598  *
 


          CARTESIAN COORDINATES 

    NO.       ATOM           X           Y           Z

     1         C         -0.1946     -0.5989     -0.5367
     2         C         -1.6063     -0.8349      0.0291
     3         C         -2.1990      0.5719      0.2255
     4         C          0.0872      0.8460     -0.2100
     5         C         -1.0256      1.4988      0.1648
     6         C          0.8784     -1.4930     -0.0221
     7         C          1.4631      1.2957     -0.2037
     8         C          2.1148     -1.0179      0.1953
     9         C          2.4352      0.3862     -0.0046
    10         H         -0.2084     -0.7189     -1.6491
    11         H         -2.2214     -1.4514     -0.6489
    12         H         -1.5617     -1.3859      0.9863
    13         H         -2.7340      0.6695      1.1872
    14         H         -2.9331      0.8222     -0.5632
    15         H          0.6226     -2.5453      0.1363
    16         H         -1.1078      2.5522      0.4292
    17         H          1.6665      2.3644     -0.3197
    18         H          3.4900      0.6761      0.0319
    19         H          2.9230     -1.6734      0.5357

  H: (PM3): J. J. P. STEWART, J. COMP. CHEM. 10, 209 (1989).
  C: (PM3): J. J. P. STEWART, J. COMP. CHEM. 10, 209 (1989).

           Empirical Formula: C9 H10  =    19 atoms



      MOLECULAR POINT GROUP   :   C1  


      RHF CALCULATION, NO. OF DOUBLY OCCUPIED LEVELS = 23



          HEAT OF FORMATION =      38.002209 KCALS/MOLE


          CARTESIAN COORDINATE DERIVATIVES

   NUMBER  ATOM         X            Y            Z

     1       C      0.001435    -0.002001    -0.009635
     2       C      0.007849    -0.004543     0.000068
     3       C     -0.002944     0.001531     0.003389
     4       C     -0.012249    -0.004663    -0.001603
     5       C      0.019276     0.006470     0.006507
     6       C      0.007246     0.001097     0.004480
     7       C      0.011558     0.003923     0.003993
     8       C     -0.008853     0.011441    -0.004662
     9       C      0.009742    -0.001874    -0.002682
    10       H      0.017299     0.006616     0.005879
    11       H     -0.009218    -0.005166    -0.002494
    12       H      0.008953    -0.004377     0.005372
    13       H     -0.008529    -0.006841    -0.003553
    14       H     -0.014986    -0.001502    -0.006237
    15       H      0.007101    -0.001369     0.003044
    16       H     -0.012449     0.008968     0.003868
    17       H     -0.000033    -0.002585    -0.001417
    18       H     -0.007405    -0.000584    -0.004659
    19       H     -0.013793    -0.004540     0.000343
 


          GRADIENT NORM =   0.05513


          TIME FOR SCF CALCULATION =    0.02

          TIME FOR DERIVATIVES     =    0.01

          MOLECULAR WEIGHT =  118.18



          ROTATIONAL CONSTANTS IN CM(-1)

          A =    0.11324443   B =    0.05212306   C =    0.03762037



           PRINCIPAL MOMENTS OF INERTIA IN UNITS OF 10**(-40)*GRAM-CM**2

          A =      247.1890   B =      537.0516   C =      744.0855


          ORIENTATION OF MOLECULE IN FORCE CALCULATION

    NO.       ATOM         X         Y         Z

     1          C       0.2614   -0.6110    0.6206
     2          C       1.8004   -0.6110    0.6206
     3          C       2.2006    0.8752    0.6206
     4          C      -0.0986    0.7844    0.1764
     5          C       0.9599    1.6106    0.2213
     6          C      -0.3966   -1.6402   -0.2300
     7          C      -1.4272    1.0199   -0.3476
     8          C      -1.5236   -1.3514   -0.8994
     9          C      -2.1062   -0.0197   -0.8674
    10          H      -0.1165   -0.7643    1.6626
    11          H       2.2100   -1.1491    1.4929
    12          H       2.1959   -1.1304   -0.2714
    13          H       3.0299    1.0847   -0.0787
    14          H       2.5456    1.2078    1.6176
    15          H       0.0577   -2.6356   -0.2562
    16          H       0.9710    2.6725   -0.0210
    17          H      -1.8203    2.0408   -0.3418
    18          H      -3.1047    0.1077   -1.2971
    19          H      -2.0392   -2.1104   -1.4967


    FIRST DERIVATIVES WILL BE USED IN THE CALCULATION OF SECOND DERIVATIVES

          ESTIMATED TIME TO COMPLETE CALCULATION =        8.02 SECONDS

    FOR POINT-GROUP C1   THERE ARE   1 UNIQUE SYMMETRY FUNCTIONS.

 STEP:   1 TIME =     0.04 SECS, INTEGRAL =      0.04 TIME LEFT: 172799.93
 STEP:   2 TIME =     0.04 SECS, INTEGRAL =      0.08 TIME LEFT: 172799.88
 STEP:   3 TIME =     0.04 SECS, INTEGRAL =      0.12 TIME LEFT: 172799.84
 STEP:   4 TIME =     0.04 SECS, INTEGRAL =      0.17 TIME LEFT: 172799.80
 STEP:   5 TIME =     0.04 SECS, INTEGRAL =      0.21 TIME LEFT: 172799.76
 STEP:   6 TIME =     0.04 SECS, INTEGRAL =      0.25 TIME LEFT: 172799.72
 STEP:   7 TIME =     0.04 SECS, INTEGRAL =      0.29 TIME LEFT: 172799.68
 STEP:   8 TIME =     0.04 SECS, INTEGRAL =      0.32 TIME LEFT: 172799.64
 STEP:   9 TIME =     0.04 SECS, INTEGRAL =      0.36 TIME LEFT: 172799.60
 STEP:  10 TIME =     0.04 SECS, INTEGRAL =      0.41 TIME LEFT: 172799.56
 STEP:  11 TIME =     0.04 SECS, INTEGRAL =      0.45 TIME LEFT: 172799.52
 STEP:  12 TIME =     0.04 SECS, INTEGRAL =      0.48 TIME LEFT: 172799.48
 STEP:  13 TIME =     0.04 SECS, INTEGRAL =      0.52 TIME LEFT: 172799.44
 STEP:  14 TIME =     0.04 SECS, INTEGRAL =      0.56 TIME LEFT: 172799.40
 STEP:  15 TIME =     0.04 SECS, INTEGRAL =      0.61 TIME LEFT: 172799.36
 STEP:  16 TIME =     0.04 SECS, INTEGRAL =      0.65 TIME LEFT: 172799.32
 STEP:  17 TIME =     0.04 SECS, INTEGRAL =      0.69 TIME LEFT: 172799.27
 STEP:  18 TIME =     0.04 SECS, INTEGRAL =      0.73 TIME LEFT: 172799.23
 STEP:  19 TIME =     0.04 SECS, INTEGRAL =      0.77 TIME LEFT: 172799.20
 STEP:  20 TIME =     0.04 SECS, INTEGRAL =      0.81 TIME LEFT: 172799.16
 STEP:  21 TIME =     0.04 SECS, INTEGRAL =      0.85 TIME LEFT: 172799.11
 STEP:  22 TIME =     0.04 SECS, INTEGRAL =      0.89 TIME LEFT: 172799.07
 STEP:  23 TIME =     0.04 SECS, INTEGRAL =      0.93 TIME LEFT: 172799.03
 STEP:  24 TIME =     0.04 SECS, INTEGRAL =      0.97 TIME LEFT: 172798.99
 STEP:  25 TIME =     0.04 SECS, INTEGRAL =      1.01 TIME LEFT: 172798.95
 STEP:  26 TIME =     0.04 SECS, INTEGRAL =      1.05 TIME LEFT: 172798.91
 STEP:  27 TIME =     0.04 SECS, INTEGRAL =      1.09 TIME LEFT: 172798.87
 STEP:  28 TIME =     0.04 SECS, INTEGRAL =      1.14 TIME LEFT: 172798.83
 STEP:  29 TIME =     0.04 SECS, INTEGRAL =      1.18 TIME LEFT: 172798.79
 STEP:  30 TIME =     0.04 SECS, INTEGRAL =      1.22 TIME LEFT: 172798.75
 STEP:  31 TIME =     0.04 SECS, INTEGRAL =      1.26 TIME LEFT: 172798.71
 STEP:  32 TIME =     0.04 SECS, INTEGRAL =      1.30 TIME LEFT: 172798.66
 STEP:  33 TIME =     0.04 SECS, INTEGRAL =      1.34 TIME LEFT: 172798.62
 STEP:  34 TIME =     0.04 SECS, INTEGRAL =      1.39 TIME LEFT: 172798.58
 STEP:  35 TIME =     0.04 SECS, INTEGRAL =      1.43 TIME LEFT: 172798.54
 STEP:  36 TIME =     0.04 SECS, INTEGRAL =      1.46 TIME LEFT: 172798.50
 STEP:  37 TIME =     0.04 SECS, INTEGRAL =      1.50 TIME LEFT: 172798.46
 STEP:  38 TIME =     0.04 SECS, INTEGRAL =      1.54 TIME LEFT: 172798.42
 STEP:  39 TIME =     0.04 SECS, INTEGRAL =      1.58 TIME LEFT: 172798.38
 STEP:  40 TIME =     0.04 SECS, INTEGRAL =      1.62 TIME LEFT: 172798.34
 STEP:  41 TIME =     0.04 SECS, INTEGRAL =      1.66 TIME LEFT: 172798.30
 STEP:  42 TIME =     0.04 SECS, INTEGRAL =      1.70 TIME LEFT: 172798.26
 STEP:  43 TIME =     0.04 SECS, INTEGRAL =      1.74 TIME LEFT: 172798.22
 STEP:  44 TIME =     0.04 SECS, INTEGRAL =      1.78 TIME LEFT: 172798.18
 STEP:  45 TIME =     0.04 SECS, INTEGRAL =      1.82 TIME LEFT: 172798.14
 STEP:  46 TIME =     0.04 SECS, INTEGRAL =      1.87 TIME LEFT: 172798.10
 STEP:  47 TIME =     0.04 SECS, INTEGRAL =      1.91 TIME LEFT: 172798.05
 STEP:  48 TIME =     0.04 SECS, INTEGRAL =      1.95 TIME LEFT: 172798.01
 STEP:  49 TIME =     0.04 SECS, INTEGRAL =      1.99 TIME LEFT: 172797.97
 STEP:  50 TIME =     0.04 SECS, INTEGRAL =      2.03 TIME LEFT: 172797.93
 STEP:  51 TIME =     0.04 SECS, INTEGRAL =      2.07 TIME LEFT: 172797.89
 STEP:  52 TIME =     0.04 SECS, INTEGRAL =      2.12 TIME LEFT: 172797.85
 STEP:  53 TIME =     0.04 SECS, INTEGRAL =      2.16 TIME LEFT: 172797.81
 STEP:  54 TIME =     0.04 SECS, INTEGRAL =      2.20 TIME LEFT: 172797.77
 STEP:  55 TIME =     0.04 SECS, INTEGRAL =      2.23 TIME LEFT: 172797.73
 STEP:  56 TIME =     0.04 SECS, INTEGRAL =      2.27 TIME LEFT: 172797.69
 STEP:  57 TIME =     0.04 SECS, INTEGRAL =      2.32 TIME LEFT: 172797.65

(To convert to Hartree/Bohr^2, multiply by (10^(-21) x N x a0^2)/(4.184 x 627.51) =  0.0642)


           FORCE MATRIX IN MILLIDYNES/ANGSTROM


                  C  1       C  2       C  3       C  4       C  5       C  6
 ------------------------------------------------------------------------------
     C    1  15.132610
     C    2   3.602336  14.217124
     C    3   0.770153   3.678049  14.606641
     C    4   4.267733   0.881268   1.225268  19.448006
     C    5   1.105882   0.879101   4.655951  10.014181  18.142652
     C    6   4.871535   0.561434   0.042431   0.726747   0.050262  17.928105
     C    7   0.595906   0.045836   0.131423   5.794364   0.886320   0.183236
     C    8   0.891732   0.050083   0.017642   0.164994   0.054053  10.109306
     C    9   0.137797   0.014078   0.027440   1.193216   0.138955   1.120529
     H   10   4.139943   0.428356   0.018501   0.408421   0.034036   0.390592
     H   11   0.436006   4.595823   0.436211   0.038578   0.037390   0.019108
     H   12   0.452420   4.551365   0.442193   0.013898   0.017331   0.032300
     H   13   0.040449   0.437133   4.543838   0.040059   0.431944   0.003607
     H   14   0.018370   0.438760   4.494811   0.036007   0.423866   0.004973
     H   15   0.430674   0.016415   0.003982   0.042296   0.006644   4.864140
     H   16   0.107081   0.041661   0.409660   0.459477   5.032122   0.016682
     H   17   0.036816   0.006736   0.005757   0.445325   0.018027   0.016599
     H   18   0.003869   0.000910   0.008272   0.119540   0.010986   0.047544
     H   19   0.117540   0.012200   0.001685   0.004460   0.000879   0.443122


                  C  7       C  8       C  9       H 10       H 11       H 12
 ------------------------------------------------------------------------------
     C    7  18.286486
     C    8   1.124344  18.193597
     C    9   9.871231   5.498275  18.136861
     H   10   0.014475   0.036326   0.017592   4.594777
     H   11   0.005434   0.002483   0.001014   0.031776   5.208461
     H   12   0.001126   0.003919   0.000961   0.035844   0.573624   5.162071
     H   13   0.018105   0.002604   0.003851   0.003392   0.018860   0.030972
     H   14   0.018949   0.003322   0.003330   0.003638   0.030786   0.035290
     H   15   0.013583   0.443479   0.121411   0.013612   0.001710   0.014766
     H   16   0.058071   0.008599   0.010265   0.016024   0.004558   0.001403
     H   17   4.874840   0.121132   0.445198   0.004037   0.001138   0.000515
     H   18   0.439067   0.432397   4.869058   0.001010   0.000097   0.000207
     H   19   0.047681   4.855665   0.432572   0.015153   0.000720   0.000717


                  H 13       H 14       H 15       H 16       H 17       H 18
 ------------------------------------------------------------------------------
     H   13   5.150215
     H   14   0.568932   5.105268
     H   15   0.000534   0.000604   5.242796
     H   16   0.017269   0.010899   0.003718   5.429383
     H   17   0.000974   0.000844   0.009018   0.006504   5.248760
     H   18   0.001142   0.001250   0.007428   0.003451   0.060689   5.233769
     H   19   0.000260   0.000249   0.063771   0.000666   0.007009   0.031894


                  H 19
 ------------------
     H   19   5.220331


          HEAT OF FORMATION =      38.002209 KCALS/MOLE

          ZERO POINT ENERGY     101.921 KCAL/MOL


           NORMAL COORDINATE ANALYSIS (Total motion = 1 Angstrom)


   Root No.       1         2         3         4         5         6         7         8

                 1 A       2 A       3 A       4 A       5 A       6 A       7 A       8 A   

                 123.4     180.9     262.1     357.8     428.5     474.0     539.6     553.7
  
           1   -0.0095    0.0055    0.0055   -0.0236    0.0071    0.0047    0.0295   -0.0320
           2   -0.0012    0.0016   -0.0044    0.0343    0.0082   -0.0209    0.0232   -0.0043
           3    0.0131   -0.0316   -0.0229    0.0031   -0.0434    0.0185    0.0291    0.0190
           4   -0.0094    0.0040    0.0047   -0.0314    0.0072    0.0119    0.0469   -0.0252
           5   -0.0028    0.0027    0.0033   -0.0151    0.0069    0.0055   -0.0045    0.0348
           6    0.0518    0.0291    0.0197   -0.0166    0.0098    0.0016    0.0081   -0.0018
           7    0.0049   -0.0006    0.0095    0.0058    0.0133   -0.0051    0.0398    0.0270
           8   -0.0070    0.0041    0.0035   -0.0297    0.0090    0.0153   -0.0085    0.0310
           9   -0.0385    0.0425   -0.0244   -0.0036    0.0066   -0.0041    0.0107    0.0017
          10   -0.0054    0.0164    0.0024    0.0003    0.0225    0.0079   -0.0062    0.0277
          11   -0.0017    0.0006    0.0000    0.0366    0.0090   -0.0322   -0.0019    0.0103
          12    0.0102   -0.0437   -0.0012   -0.0169   -0.0437   -0.0263    0.0004    0.0463
          13    0.0005    0.0167   -0.0098    0.0172    0.0147   -0.0171    0.0160    0.0288
          14   -0.0085   -0.0013    0.0130    0.0154    0.0176   -0.0063   -0.0232    0.0208
          15   -0.0245   -0.0241    0.0564    0.0251    0.0104    0.0125    0.0162   -0.0031
          16    0.0155    0.0139    0.0007    0.0176   -0.0395   -0.0220   -0.0166   -0.0406
          17    0.0096    0.0044   -0.0048    0.0095   -0.0228   -0.0144    0.0734    0.0002
          18   -0.0217   -0.0421   -0.0176    0.0084    0.0264    0.0277    0.0076   -0.0187
          19   -0.0141    0.0023    0.0147   -0.0101   -0.0158    0.0205   -0.0311    0.0448
          20   -0.0013   -0.0010    0.0014   -0.0001   -0.0153    0.0069   -0.0494   -0.0386
          21    0.0303   -0.0097   -0.0301   -0.0129    0.0418   -0.0325   -0.0163    0.0025
          22    0.0198   -0.0221   -0.0257    0.0268   -0.0059    0.0227   -0.0237   -0.0389
          23    0.0123   -0.0045   -0.0118   -0.0137   -0.0100    0.0279    0.0108   -0.0363
          24   -0.0280    0.0137    0.0227   -0.0111   -0.0270   -0.0326   -0.0145   -0.0403
          25   -0.0026   -0.0310   -0.0031   -0.0025    0.0082   -0.0249   -0.0710    0.0074
          26    0.0022   -0.0087   -0.0020   -0.0270   -0.0038    0.0068   -0.0167   -0.0226
          27    0.0086    0.0487   -0.0016    0.0254   -0.0152    0.0344   -0.0392    0.0139
          28   -0.0386   -0.0291   -0.0133   -0.0353   -0.0037    0.0223    0.0633   -0.0361
          29   -0.0136    0.0050   -0.0110    0.0665    0.0563    0.0108    0.0239   -0.0452
          30    0.0003   -0.0430   -0.0295    0.0031   -0.0378    0.0288    0.0407    0.0104
          31   -0.0366   -0.0306   -0.0245   -0.0339   -0.0360    0.0349    0.0563    0.0003
          32    0.0567    0.0061    0.0433   -0.0471    0.0272    0.0148   -0.0169    0.0176
          33    0.1016    0.0476    0.0588   -0.0355    0.0434   -0.0039   -0.0038   -0.0264
          34    0.0139    0.0419    0.0361   -0.0637    0.0477    0.0075    0.0286   -0.0573
          35   -0.0691    0.0013   -0.0383   -0.0114   -0.0152    0.0135   -0.0015    0.0582
          36    0.1008    0.0469    0.0585   -0.0345    0.0422   -0.0045   -0.0017   -0.0298
          37   -0.0232    0.0401   -0.0538   -0.0062    0.0111   -0.0283    0.0258    0.0284
          38   -0.0514    0.0032   -0.0082   -0.0442    0.0047    0.0277    0.0052    0.0032
          39   -0.0856    0.0911   -0.1047   -0.0228    0.0024   -0.0286   -0.0031   -0.0062
          40    0.0533   -0.0613    0.1062    0.0427    0.0212    0.0180    0.0578    0.0474
          41    0.0394    0.0110    0.0109   -0.0565    0.0082    0.0215   -0.0062    0.0315
          42   -0.0709    0.0616   -0.0612   -0.0079    0.0042   -0.0147    0.0038   -0.0058
          43    0.0299    0.0399    0.0058    0.0536   -0.1032   -0.0534   -0.0025   -0.0167
          44    0.0168    0.0177   -0.0020    0.0257   -0.0542   -0.0286    0.0797    0.0114
          45   -0.0435   -0.0868   -0.0317    0.0133    0.1287    0.0348   -0.0182   -0.0276
          46    0.0017    0.0264   -0.0273    0.0495    0.0114   -0.0520    0.0356    0.0247
          47   -0.0124   -0.0031    0.0294    0.0246    0.0332    0.0003   -0.0243    0.0033
          48   -0.0423   -0.0312    0.1269    0.0677    0.0790    0.0394    0.0116   -0.0822
          49   -0.0270    0.0084    0.0348   -0.0415   -0.0737    0.0587   -0.0383    0.0488
          50   -0.0066    0.0014    0.0095   -0.0122   -0.0382    0.0216   -0.0518   -0.0363
          51    0.0617   -0.0136   -0.0754   -0.0217    0.1588   -0.0447    0.0025   -0.0351
          52   -0.0077   -0.0572    0.0017   -0.0269    0.0002   -0.0708   -0.0692    0.0005
          53   -0.0032   -0.0153    0.0078   -0.0573    0.0010   -0.0157   -0.0150    0.0301
          54    0.0190    0.1079   -0.0104    0.0727    0.0044    0.1361   -0.0429    0.0452
          55    0.0387   -0.0371   -0.0542    0.0613   -0.0178    0.0800    0.0365   -0.0292
          56    0.0228   -0.0018   -0.0209   -0.0102   -0.0096    0.0680   -0.0307   -0.0163
          57   -0.0576    0.0235    0.0587   -0.0446   -0.0170   -0.1333   -0.0140   -0.0737


   Root No.       9        10        11        12        13        14        15        16

                 9 A      10 A      11 A      12 A      13 A      14 A      15 A      16 A   

                 665.7     699.9     754.6     810.8     826.6     850.6     878.9     934.3
  
           1    0.0158   -0.0235    0.0049   -0.0143   -0.0011    0.0038    0.0083   -0.0087
           2    0.0064   -0.0069   -0.0003    0.0005   -0.0020    0.0105   -0.0218   -0.0123
           3   -0.0357   -0.0075    0.0052    0.0149    0.0086    0.0132    0.0140    0.0354
           4    0.0246   -0.0073   -0.0019   -0.0067    0.0177    0.0303    0.0113    0.0130
           5   -0.0092    0.0451   -0.0061    0.0142   -0.0051   -0.0099   -0.0072   -0.0050
           6   -0.0051    0.0042    0.0053   -0.0113   -0.0046    0.0224    0.0261   -0.0044
           7    0.0030    0.0606   -0.0128    0.0211   -0.0015   -0.0074   -0.0049    0.0029
           8   -0.0093    0.0169   -0.0029    0.0021   -0.0003   -0.0040   -0.0046    0.0022
           9   -0.0013    0.0216    0.0075   -0.0279   -0.0008    0.0051   -0.0070   -0.0111
          10   -0.0287   -0.0276    0.0003   -0.0058   -0.0077   -0.0126    0.0037    0.0092
          11    0.0326   -0.0040   -0.0011   -0.0084    0.0082   -0.0020    0.0289    0.0063
          12    0.0524   -0.0054    0.0066    0.0076    0.0007   -0.0154    0.0135   -0.0286
          13    0.0027    0.0197   -0.0076    0.0058   -0.0030   -0.0088    0.0147    0.0019
          14   -0.0009   -0.0554    0.0041   -0.0206   -0.0018   -0.0202    0.0330    0.0191
          15   -0.0007    0.0110    0.0052   -0.0035    0.0089   -0.0157   -0.0204    0.0281
          16   -0.0124    0.0090    0.0120    0.0043   -0.0203   -0.0153    0.0001   -0.0002
          17   -0.0085   -0.0372    0.0156    0.0085   -0.0091    0.0261   -0.0326   -0.0138
          18    0.0056   -0.0052   -0.0145   -0.0056    0.0144   -0.0102   -0.0062   -0.0124
          19   -0.0133   -0.0387    0.0122    0.0024    0.0009   -0.0121   -0.0135   -0.0167
          20    0.0164    0.0339    0.0001    0.0048    0.0265    0.0325    0.0012    0.0115
          21   -0.0151   -0.0099   -0.0182   -0.0083   -0.0249    0.0130   -0.0126    0.0024
          22    0.0046    0.0110    0.0085    0.0034   -0.0216   -0.0184    0.0002    0.0035
          23   -0.0061    0.0035    0.0050   -0.0013   -0.0233   -0.0345    0.0092   -0.0008
          24   -0.0195    0.0082   -0.0121   -0.0076    0.0094   -0.0331    0.0066   -0.0182
          25   -0.0017   -0.0055    0.0062    0.0056    0.0282    0.0402   -0.0168   -0.0052
          26   -0.0106    0.0057    0.0025    0.0003    0.0037   -0.0094    0.0015   -0.0040
          27    0.0177   -0.0028   -0.0111   -0.0057   -0.0155    0.0248   -0.0137    0.0151
          28    0.0514   -0.0360   -0.0034   -0.0149    0.0418    0.0068   -0.0010   -0.0070
          29   -0.0377   -0.0317   -0.0382   -0.0162    0.0093    0.0415   -0.0726    0.0022
          30   -0.0280   -0.0165   -0.0035    0.0122    0.0249    0.0177    0.0012    0.0361
          31   -0.0340   -0.0016    0.0172   -0.0163    0.0151    0.0923    0.1071    0.0807
          32    0.0343   -0.0149   -0.0312    0.0793    0.0260   -0.0638   -0.0407    0.0760
          33    0.0525   -0.0386   -0.0200    0.0347    0.0174   -0.0423   -0.0410    0.0156
          34    0.0901   -0.0377   -0.0189   -0.0118    0.0407   -0.0130   -0.0446   -0.0235
          35   -0.0583    0.1019    0.0200   -0.0559   -0.0284    0.0563    0.0510   -0.0701
          36    0.0550   -0.0436   -0.0187    0.0300    0.0204   -0.0378   -0.0360    0.0189
          37    0.0247    0.0248   -0.0484    0.1125   -0.0091   -0.0326    0.0275    0.0105
          38    0.0138   -0.0057   -0.0151    0.0427    0.0316   -0.0120   -0.0677    0.0749
          39    0.0327   -0.0335   -0.0399    0.0977   -0.0001   -0.0289    0.0120    0.0216
          40   -0.0362    0.1389    0.0391   -0.1212   -0.0040    0.0036   -0.0337   -0.0169
          41   -0.0190    0.0446    0.0036   -0.0214   -0.0129    0.0616    0.0461   -0.0765
          42    0.0171   -0.0157   -0.0146    0.0341    0.0047   -0.0219   -0.0137    0.0241
          43   -0.0619   -0.0085   -0.0672   -0.0081    0.1025   -0.0062   -0.0414   -0.0317
          44   -0.0334   -0.0453   -0.0238    0.0019    0.0513    0.0297   -0.0511   -0.0282
          45    0.0892    0.0118    0.1041    0.0296   -0.1549    0.0319   -0.0446   -0.0184
          46    0.0463    0.0289    0.0071   -0.0456    0.0188   -0.0324    0.0529    0.0640
          47   -0.0189   -0.0667   -0.0166    0.0169   -0.0152    0.0071    0.0666   -0.0131
          48   -0.0797   -0.0400   -0.0851    0.1612   -0.0505    0.1048    0.1226   -0.1159
          49   -0.0120   -0.0580   -0.0346   -0.0106   -0.1018   -0.0041   -0.0634   -0.0325
          50    0.0179    0.0264   -0.0187   -0.0006   -0.0138    0.0366   -0.0175    0.0061
          51   -0.1211   -0.0028    0.1023    0.0259    0.1560   -0.0837   -0.0056   -0.0334
          52   -0.0141   -0.0097   -0.0665   -0.0308   -0.0285    0.0527   -0.0332    0.0361
          53   -0.0314   -0.0404   -0.0315   -0.0198   -0.0250    0.0101   -0.0312   -0.0011
          54    0.0387   -0.0086    0.1489    0.0734    0.1078    0.0023    0.0116   -0.0817
          55    0.0088   -0.0138   -0.0848   -0.0414    0.0253   -0.0632   -0.0084   -0.0754
          56    0.0040    0.0118   -0.0500   -0.0291    0.0154   -0.0377    0.0266   -0.0083
          57   -0.0364    0.0181    0.1387    0.0666   -0.0812    0.0086   -0.0098    0.0578


   Root No.      17        18        19        20        21        22        23        24

                17 A      18 A      19 A      20 A      21 A      22 A      23 A      24 A   

                 965.9     987.3    1006.1    1027.3    1034.3    1051.2    1066.7    1083.4
  
           1   -0.0004   -0.0036    0.0014   -0.0013   -0.0154    0.0194   -0.0009   -0.0145
           2    0.0003    0.0157   -0.0066    0.0077    0.0054    0.0005    0.0007   -0.0106
           3    0.0017   -0.0136    0.0066   -0.0089    0.0192    0.0121    0.0084    0.0209
           4    0.0007    0.0169   -0.0032    0.0045    0.0140   -0.0188    0.0031   -0.0032
           5    0.0026   -0.0188    0.0074    0.0418   -0.0087    0.0157   -0.0007   -0.0316
           6    0.0048    0.0233   -0.0011    0.0010   -0.0134   -0.0056    0.0003   -0.0209
           7   -0.0016    0.0160   -0.0039   -0.0361   -0.0069    0.0047    0.0080    0.0015
           8   -0.0032    0.0056   -0.0037   -0.0307    0.0073   -0.0080   -0.0027    0.0263
           9   -0.0083   -0.0241   -0.0010   -0.0105    0.0203    0.0057    0.0062   -0.0028
          10   -0.0012   -0.0037    0.0062   -0.0076   -0.0036   -0.0034   -0.0012    0.0078
          11   -0.0014   -0.0016   -0.0031    0.0007    0.0082   -0.0053    0.0016    0.0018
          12   -0.0030    0.0110   -0.0208    0.0009    0.0158   -0.0021    0.0009   -0.0087
          13   -0.0020   -0.0119    0.0019    0.0082    0.0102   -0.0098   -0.0053    0.0120
          14   -0.0054    0.0012    0.0037   -0.0260   -0.0089    0.0058    0.0200   -0.0016
          15    0.0060    0.0220    0.0071    0.0163   -0.0307    0.0058   -0.0073    0.0192
          16    0.0149    0.0074    0.0084    0.0034    0.0163    0.0104    0.0118    0.0087
          17    0.0220   -0.0148    0.0156   -0.0083   -0.0172   -0.0025   -0.0216   -0.0009
          18   -0.0221   -0.0087   -0.0110    0.0008   -0.0244   -0.0253   -0.0060   -0.0124
          19    0.0124    0.0030   -0.0181    0.0120    0.0043   -0.0030   -0.0101   -0.0070
          20    0.0109   -0.0064    0.0012   -0.0108   -0.0080   -0.0019    0.0204    0.0069
          21   -0.0293    0.0037    0.0328    0.0025   -0.0019   -0.0007    0.0003    0.0047
          22   -0.0177   -0.0053   -0.0183    0.0007   -0.0074   -0.0109   -0.0052   -0.0037
          23   -0.0130   -0.0024   -0.0112   -0.0031   -0.0018    0.0003   -0.0372   -0.0085
          24    0.0222    0.0086    0.0266   -0.0037    0.0103    0.0080   -0.0145    0.0030
          25   -0.0023   -0.0038    0.0209   -0.0074   -0.0054    0.0132   -0.0323   -0.0065
          26   -0.0069    0.0065    0.0069    0.0047    0.0037   -0.0051    0.0205    0.0049
          27    0.0264   -0.0123   -0.0347   -0.0016   -0.0078   -0.0016   -0.0087   -0.0062
          28   -0.0285   -0.1200   -0.0242    0.0099   -0.0277    0.1850    0.0741    0.0476
          29   -0.0926    0.1718   -0.1027    0.0730    0.1410    0.1523   -0.0137    0.0003
          30   -0.0228   -0.0331   -0.0176    0.0044    0.0343    0.0960    0.0334    0.0461
          31    0.0321    0.0650    0.0395    0.0876   -0.0087   -0.0316    0.0132   -0.1218
          32    0.0097   -0.0705    0.0478    0.1068    0.0200    0.0317    0.0050   -0.0727
          33   -0.0062   -0.0342    0.0042    0.0009    0.0161    0.0124    0.0011    0.0084
          34   -0.0290   -0.0677   -0.0283    0.0156    0.0415   -0.0179    0.0045    0.0830
          35    0.0001    0.0063   -0.0168    0.0699   -0.0397   -0.0126   -0.0156   -0.0179
          36   -0.0074   -0.0311    0.0021   -0.0107    0.0194    0.0114    0.0089    0.0108
          37    0.0117    0.0626   -0.0085   -0.0356   -0.1019    0.0619    0.0337   -0.0060
          38    0.0057    0.0269    0.0185   -0.0463    0.1454   -0.1605   -0.0669    0.0188
          39    0.0111    0.0405    0.0003   -0.0155   -0.0521    0.0275    0.0167   -0.0140
          40   -0.0301   -0.0787    0.0085   -0.0802    0.0762    0.0145    0.0457   -0.0908
          41   -0.0014    0.0370   -0.0504    0.0410   -0.0681    0.0133   -0.0502    0.2566
          42    0.0017   -0.0007    0.0110   -0.0181    0.0158   -0.0045    0.0094   -0.0494
          43   -0.0805    0.0013   -0.0405    0.0318   -0.0403   -0.1010    0.1139    0.0018
          44   -0.0259   -0.0184   -0.0087    0.0041   -0.0449   -0.0527    0.0186   -0.0063
          45    0.1471    0.0228    0.0599    0.0158    0.0458   -0.0121    0.1035    0.0455
          46   -0.0021   -0.0574    0.0391    0.2034    0.0247   -0.0553   -0.0495    0.1138
          47   -0.0074   -0.0236   -0.0038   -0.0291    0.0185   -0.0021    0.0221   -0.0058
          48   -0.0015   -0.0878   -0.0253    0.0159    0.0878   -0.0268   -0.0028   -0.0019
          49   -0.0656    0.0343    0.0429    0.0610   -0.0035   -0.0421    0.1376    0.0153
          50   -0.0201    0.0058    0.0259    0.0077   -0.0111   -0.0172    0.0799    0.0162
          51    0.1434    0.0028   -0.1272    0.0313    0.0097   -0.0233    0.0682   -0.0076
          52    0.0642   -0.0260   -0.0583   -0.0050   -0.0141    0.0049   -0.0303   -0.0122
          53    0.0287    0.0155   -0.0446    0.0625    0.0279   -0.0133    0.0896   -0.0085
          54   -0.1172    0.0418    0.1345    0.0106    0.0184    0.0150    0.0046    0.0021
          55    0.0923    0.0079    0.0858   -0.0073   -0.0198   -0.0398    0.0387    0.0253
          56    0.0310    0.0265    0.0140   -0.0022    0.0488    0.0647   -0.0794   -0.0227
          57   -0.1283   -0.0399   -0.0951    0.0022   -0.0443   -0.0509   -0.0010   -0.0045


   Root No.      25        26        27        28        29        30        31        32

                25 A      26 A      27 A      28 A      29 A      30 A      31 A      32 A   

                1104.5    1118.8    1121.7    1144.8    1182.5    1201.8    1251.5    1267.5
  
           1    0.0037   -0.0211    0.0069    0.0065    0.0048    0.0385    0.0522   -0.0155
           2   -0.0006   -0.0017    0.0129   -0.0169    0.0202   -0.0277   -0.0047    0.0190
           3    0.0088    0.0167   -0.0102    0.0022    0.0132    0.0022    0.0185    0.0082
           4   -0.0050    0.0226   -0.0094   -0.0050    0.0168   -0.0106   -0.0113    0.0535
           5    0.0146    0.0044   -0.0079    0.0016    0.0040    0.0012    0.0204    0.0421
           6    0.0306   -0.0179    0.0087   -0.0025   -0.0093   -0.0045   -0.0090   -0.0032
           7    0.0031   -0.0008    0.0040    0.0001    0.0091    0.0029   -0.0121   -0.0024
           8   -0.0105   -0.0131    0.0076    0.0018   -0.0006    0.0243   -0.0214   -0.0246
           9   -0.0351    0.0025    0.0028   -0.0011    0.0055   -0.0005    0.0014    0.0064
          10   -0.0017    0.0027   -0.0056   -0.0012   -0.0208   -0.0019    0.0194    0.0047
          11   -0.0013   -0.0004    0.0048    0.0027    0.0066   -0.0264    0.0074   -0.0096
          12   -0.0079   -0.0063   -0.0080   -0.0000   -0.0102    0.0107    0.0065   -0.0018
          13   -0.0051   -0.0060    0.0000    0.0005   -0.0205   -0.0199    0.0323   -0.0150
          14    0.0044    0.0088   -0.0107   -0.0018    0.0035    0.0104   -0.0069    0.0069
          15    0.0046    0.0024    0.0021    0.0002   -0.0034   -0.0085    0.0076   -0.0029
          16    0.0035    0.0050    0.0064    0.0027    0.0065   -0.0020    0.0087   -0.0077
          17   -0.0032   -0.0029   -0.0101    0.0030    0.0004    0.0104   -0.0018   -0.0210
          18   -0.0032    0.0006    0.0061    0.0012    0.0090    0.0046    0.0104   -0.0128
          19   -0.0008    0.0007    0.0032    0.0015   -0.0059   -0.0059   -0.0142    0.0195
          20   -0.0023   -0.0092   -0.0149    0.0067   -0.0095    0.0110    0.0175   -0.0014
          21    0.0010    0.0006    0.0001    0.0001   -0.0039   -0.0058   -0.0024    0.0082
          22   -0.0025   -0.0002    0.0029    0.0030    0.0078   -0.0053   -0.0014   -0.0094
          23   -0.0025    0.0061    0.0026   -0.0064   -0.0082   -0.0053   -0.0275    0.0087
          24   -0.0009    0.0027   -0.0011   -0.0014    0.0011   -0.0064   -0.0114   -0.0027
          25    0.0016    0.0023    0.0003   -0.0022    0.0081    0.0010   -0.0182   -0.0026
          26    0.0002    0.0018    0.0026    0.0073   -0.0134    0.0034    0.0059    0.0167
          27   -0.0009   -0.0015   -0.0014    0.0031    0.0002    0.0030   -0.0064    0.0029
          28    0.0857   -0.1074    0.0988   -0.0398   -0.0646   -0.1041   -0.1014    0.0073
          29   -0.0209   -0.0255   -0.0768    0.0556   -0.0690    0.0754    0.0045   -0.0257
          30    0.0372   -0.0185    0.0095   -0.0036   -0.0261   -0.0329   -0.0358    0.0086
          31   -0.1333   -0.0118    0.0219   -0.0124   -0.0610   -0.0653   -0.0956   -0.1340
          32   -0.1543    0.0163   -0.0062    0.0054   -0.0379   -0.0243    0.0127   -0.0955
          33   -0.0126    0.0058   -0.0048    0.0030    0.0018    0.0048    0.0231    0.0003
          34    0.0900    0.1539   -0.1173    0.0189   -0.0189   -0.0608   -0.0436   -0.1322
          35    0.1601    0.0577   -0.0720    0.0180   -0.0509   -0.0388    0.0114   -0.1123
          36   -0.0113    0.0092   -0.0025   -0.0011    0.0062   -0.0040   -0.0166    0.0033
          37    0.0128    0.0363   -0.0202    0.0059    0.0264    0.0465   -0.0801   -0.0333
          38    0.1139   -0.1132    0.0579   -0.0050   -0.0379   -0.0481    0.0321   -0.0328
          39    0.0140    0.0141   -0.0091    0.0034    0.0135    0.0277   -0.0566   -0.0292
          40   -0.0351    0.0143   -0.0152    0.0067    0.0221    0.0529   -0.0865   -0.0402
          41   -0.1362    0.0050    0.0382   -0.0123    0.0130   -0.0521    0.0357    0.0075
          42    0.0202   -0.0088   -0.0009    0.0015   -0.0031    0.0088    0.0041    0.0063
          43   -0.0031    0.0692    0.0862   -0.1013   -0.1169    0.0742   -0.0181    0.0296
          44   -0.0064    0.0247    0.0240   -0.0432   -0.0517    0.0428   -0.0145   -0.0060
          45    0.0086    0.0679    0.0499   -0.0767   -0.1028    0.0596   -0.0240    0.0182
          46    0.0510   -0.0615   -0.0008   -0.0098    0.0599    0.1863   -0.1277    0.0104
          47    0.0013    0.0043   -0.0107   -0.0030    0.0066    0.0186   -0.0132    0.0067
          48   -0.0081   -0.0184    0.0031   -0.0049    0.0125    0.0325   -0.0227   -0.0000
          49   -0.0027   -0.0872   -0.0837   -0.1322    0.1233   -0.0569   -0.0150   -0.0683
          50   -0.0030   -0.0433   -0.0485   -0.0432    0.0400   -0.0083    0.0199   -0.0361
          51   -0.0076   -0.0499   -0.0511   -0.0632    0.0597   -0.0168   -0.0064   -0.0366
          52    0.0010    0.0015    0.0033    0.0063    0.0119    0.0015   -0.0194   -0.0050
          53    0.0340    0.0746    0.1717    0.2369    0.1050   -0.0032    0.0070   -0.0810
          54    0.0103    0.0211    0.0415    0.0544    0.0298   -0.0013   -0.0100   -0.0207
          55   -0.0286   -0.0685   -0.0774    0.1875   -0.0524   -0.0347   -0.0722    0.0669
          56    0.0254    0.0722    0.0764   -0.1829    0.0479    0.0222    0.0364   -0.0647
          57   -0.0143   -0.0210   -0.0241    0.0657   -0.0190   -0.0165   -0.0367    0.0242


   Root No.      33        34        35        36        37        38        39        40

                33 A      34 A      35 A      36 A      37 A      38 A      39 A      40 A   

                1343.4    1375.7    1402.9    1412.1    1417.9    1501.7    1810.2    1833.1
  
           1   -0.0088    0.0133   -0.0108    0.0578   -0.0031   -0.0117    0.0042   -0.0178
           2    0.0234    0.0519    0.0087    0.0232    0.0169   -0.0922    0.0052   -0.0110
           3   -0.0004    0.0074   -0.0102    0.0361    0.0023   -0.0087    0.0017   -0.0160
           4    0.0096   -0.0144   -0.0223   -0.0339    0.0177    0.0105    0.0019    0.0015
           5   -0.0056   -0.0180    0.0092   -0.0027   -0.0417    0.0038    0.0001   -0.0039
           6    0.0032   -0.0020   -0.0002   -0.0057    0.0000    0.0020    0.0008   -0.0003
           7   -0.0402   -0.0093    0.0482    0.0201    0.0263    0.0204   -0.0069   -0.0030
           8    0.0762   -0.0041   -0.0108    0.0062    0.0177    0.0066    0.0001    0.0003
           9   -0.0168   -0.0029    0.0135    0.0037    0.0057    0.0031   -0.0020   -0.0001
          10    0.0085    0.0023    0.0065   -0.0317   -0.0035   -0.0590   -0.0339   -0.0528
          11    0.0017   -0.0153   -0.0283    0.0360   -0.0052    0.0948   -0.0350   -0.0364
          12    0.0014   -0.0002    0.0082   -0.0202   -0.0005   -0.0394    0.0036   -0.0036
          13    0.0363   -0.0189   -0.0232   -0.0154   -0.0125   -0.0269    0.0555    0.0510
          14   -0.0384   -0.0074    0.0199   -0.0179    0.0027   -0.0220    0.0287    0.0323
          15    0.0145   -0.0016   -0.0089    0.0011   -0.0030   -0.0015    0.0057    0.0037
          16    0.0070    0.0130    0.0095   -0.0207   -0.0017    0.0241   -0.0432    0.1502
          17   -0.0043   -0.0147    0.0088   -0.0380   -0.0072    0.0360    0.0101   -0.0104
          18    0.0038    0.0062    0.0099   -0.0249   -0.0041    0.0266   -0.0269    0.0984
          19    0.0043    0.0305    0.0029    0.0154    0.0017    0.0686   -0.1072   -0.0189
          20    0.0037    0.0055    0.0086   -0.0212   -0.0018   -0.0243   -0.1289   -0.0281
          21    0.0043    0.0134    0.0014    0.0026    0.0000    0.0271   -0.0727   -0.0153
          22    0.0032   -0.0009    0.0074   -0.0257   -0.0018    0.0138    0.0508   -0.1489
          23   -0.0123   -0.0302   -0.0187    0.0342    0.0034   -0.0451   -0.0527    0.0591
          24   -0.0019   -0.0107   -0.0012   -0.0064   -0.0000   -0.0041    0.0186   -0.0808
          25   -0.0112   -0.0216   -0.0091    0.0183    0.0022   -0.0211    0.0683    0.0354
          26    0.0077    0.0381    0.0116   -0.0003    0.0015    0.0547    0.1789    0.0183
          27   -0.0036   -0.0008   -0.0011    0.0082    0.0014    0.0013    0.0687    0.0210
          28    0.0078   -0.0081    0.0078   -0.0622    0.0136    0.0038   -0.0051    0.0018
          29   -0.0302   -0.0565   -0.0017   -0.0290   -0.0188    0.0457    0.0072   -0.0051
          30   -0.0028   -0.0168   -0.0038   -0.0170    0.0028    0.0165   -0.0033    0.0000
          31    0.0176    0.0235    0.0996    0.0430   -0.0925   -0.0241   -0.0008    0.0024
          32   -0.0953    0.0439   -0.0376   -0.0193    0.1683   -0.0052   -0.0026    0.0000
          33   -0.0503    0.0161   -0.0752   -0.0437    0.1588    0.0121    0.0009    0.0010
          34    0.0312    0.0369    0.0884    0.0874   -0.0900   -0.0395   -0.0008   -0.0036
          35   -0.0679    0.0458   -0.0484   -0.0180    0.1718   -0.0084    0.0004   -0.0030
          36    0.0430   -0.0139    0.0720    0.0495   -0.1487   -0.0120   -0.0002   -0.0048
          37   -0.0159    0.0642   -0.0907   -0.0238   -0.0607    0.0005   -0.0067   -0.0068
          38   -0.1907    0.0435   -0.0199   -0.0201   -0.0773   -0.0226    0.0068    0.0066
          39   -0.0565    0.0868   -0.1343   -0.0481   -0.1090   -0.0264   -0.0013   -0.0048
          40   -0.0542    0.0982   -0.1481   -0.0528   -0.1106   -0.0200   -0.0052   -0.0036
          41   -0.1638    0.0349   -0.0123   -0.0131   -0.0636   -0.0204    0.0054    0.0065
          42    0.0600   -0.0447    0.0678    0.0295    0.0675    0.0233   -0.0032   -0.0004
          43   -0.0336   -0.0484   -0.0381    0.0769    0.0014   -0.0267   -0.0172    0.0080
          44   -0.0220   -0.0425   -0.0111    0.0019   -0.0060    0.0126    0.0301   -0.1015
          45   -0.0311   -0.0511   -0.0294    0.0504   -0.0019   -0.0111   -0.0008   -0.0307
          46   -0.0037    0.0363    0.0495   -0.0112    0.0280   -0.0286   -0.0184   -0.0128
          47   -0.0402   -0.0071    0.0232   -0.0186    0.0049   -0.0233    0.0364    0.0405
          48    0.0133    0.0105    0.0037    0.0054    0.0060   -0.0037   -0.0084   -0.0156
          49   -0.0217   -0.0844   -0.0391    0.0363   -0.0028   -0.0029    0.0692    0.0213
          50   -0.0058   -0.0387   -0.0071   -0.0158   -0.0040   -0.0541   -0.0917   -0.0221
          51   -0.0124   -0.0430   -0.0165    0.0124   -0.0016   -0.0107    0.0063    0.0094
          52   -0.0129   -0.0262   -0.0106    0.0201    0.0023   -0.0252    0.0883    0.0396
          53   -0.0128   -0.0784   -0.0066   -0.0392   -0.0038   -0.0926   -0.0511   -0.0584
          54   -0.0095   -0.0312   -0.0060   -0.0004    0.0005   -0.0366    0.0265    0.0066
          55   -0.0174   -0.0219   -0.0281    0.0755    0.0112   -0.0599    0.0230   -0.0077
          56    0.0059   -0.0139    0.0141   -0.0610   -0.0089    0.0209   -0.0168   -0.1039
          57   -0.0092   -0.0199   -0.0139    0.0272    0.0045   -0.0286    0.0121   -0.0430


   Root No.      41        42        43        44        45        46        47        48

                41 A      42 A      43 A      44 A      45 A      46 A      47 A      48 A   

                1890.6    2853.8    2973.7    2994.0    3054.9    3055.2    3061.8    3070.8
  
           1   -0.0140    0.0238   -0.0004    0.0006    0.0003    0.0002   -0.0001   -0.0006
           2   -0.0096    0.0102   -0.0002    0.0002    0.0003    0.0001    0.0001    0.0002
           3   -0.0067   -0.0649    0.0007   -0.0015    0.0001    0.0002   -0.0001   -0.0003
           4   -0.0039    0.0010   -0.0005    0.0014    0.0023   -0.0000   -0.0001   -0.0226
           5    0.0054   -0.0001    0.0007   -0.0018   -0.0040    0.0001    0.0002    0.0295
           6   -0.0012    0.0033    0.0176   -0.0429    0.0005   -0.0000   -0.0000   -0.0048
           7    0.0060   -0.0001    0.0097    0.0038   -0.0338   -0.0011    0.0002   -0.0039
           8    0.0015   -0.0001   -0.0040   -0.0017   -0.0146   -0.0005    0.0001   -0.0011
           9   -0.0000   -0.0002   -0.0420   -0.0167   -0.0038   -0.0001    0.0000   -0.0005
          10    0.1895    0.0003    0.0000    0.0002    0.0008   -0.0001   -0.0001    0.0005
          11    0.0983    0.0012    0.0001   -0.0000    0.0001   -0.0002   -0.0000   -0.0002
          12    0.0315   -0.0003   -0.0002   -0.0001    0.0002   -0.0001   -0.0000    0.0001
          13   -0.1349   -0.0005   -0.0002   -0.0000   -0.0006    0.0000    0.0000    0.0000
          14   -0.0856   -0.0005   -0.0002   -0.0002    0.0015    0.0001   -0.0001    0.0006
          15   -0.0106   -0.0003   -0.0000   -0.0001   -0.0005   -0.0000    0.0000   -0.0002
          16    0.0417   -0.0009   -0.0001    0.0003    0.0003   -0.0073   -0.0064   -0.0005
          17   -0.0055   -0.0007   -0.0000    0.0000   -0.0007    0.0176    0.0138    0.0007
          18    0.0276   -0.0010   -0.0000    0.0001   -0.0001    0.0009    0.0003   -0.0001
          19   -0.0807   -0.0001   -0.0000   -0.0000    0.0001   -0.0029    0.0088   -0.0003
          20   -0.0350   -0.0001   -0.0000   -0.0000   -0.0005    0.0062   -0.0209    0.0007
          21   -0.0402   -0.0002   -0.0000   -0.0000   -0.0000   -0.0002    0.0002    0.0000
          22   -0.0400    0.0008    0.0000   -0.0000    0.0006   -0.0157   -0.0046    0.0005
          23    0.0119   -0.0004   -0.0000    0.0000    0.0008   -0.0223   -0.0076    0.0005
          24   -0.0226    0.0001    0.0000   -0.0000    0.0007   -0.0179   -0.0056    0.0005
          25    0.0234   -0.0001   -0.0000    0.0000   -0.0008    0.0159   -0.0259   -0.0001
          26    0.0374    0.0003    0.0000    0.0000    0.0001   -0.0015    0.0033   -0.0000
          27    0.0188    0.0001    0.0000    0.0000   -0.0004    0.0070   -0.0111   -0.0001
          28    0.0205   -0.2912    0.0043   -0.0095    0.0003    0.0001   -0.0002   -0.0020
          29   -0.0073   -0.1210    0.0010   -0.0027   -0.0001    0.0006    0.0003   -0.0001
          30    0.0030    0.7967   -0.0080    0.0165   -0.0004   -0.0001    0.0005    0.0031
          31   -0.0024   -0.0049   -0.0466    0.1120   -0.0182    0.0003    0.0009    0.1528
          32    0.0027    0.0141    0.0577   -0.1486    0.0218   -0.0004   -0.0011   -0.2013
          33   -0.0061   -0.0220   -0.0933    0.2268   -0.0418    0.0006    0.0020    0.3683
          34   -0.0011    0.0051    0.0546   -0.1304   -0.0144    0.0003    0.0008    0.1197
          35   -0.0005   -0.0122   -0.0664    0.1710    0.0171    0.0002   -0.0005   -0.1554
          36    0.0043   -0.0208   -0.1183    0.2874    0.0361   -0.0002   -0.0014   -0.3124
          37    0.0162   -0.0012   -0.2292   -0.0922    0.3124    0.0098   -0.0018    0.0365
          38   -0.0157   -0.0002   -0.0588   -0.0265    0.0734    0.0023   -0.0004    0.0099
          39    0.0130    0.0008    0.1843    0.0732   -0.2944   -0.0093    0.0017   -0.0348
          40    0.0099    0.0008    0.1150    0.0465    0.0915    0.0029   -0.0005    0.0106
          41   -0.0143    0.0001    0.1080    0.0465    0.1031    0.0033   -0.0006    0.0131
          42   -0.0009    0.0013    0.3229    0.1275    0.3407    0.0108   -0.0020    0.0398
          43    0.0009   -0.0002   -0.0002    0.0003   -0.0033    0.0935    0.0743    0.0027
          44   -0.0343    0.0028   -0.0001    0.0006    0.0075   -0.2114   -0.1658   -0.0075
          45   -0.0114   -0.0019    0.0001   -0.0001    0.0003   -0.0074   -0.0052   -0.0002
          46    0.0364   -0.0001    0.0007    0.0003   -0.0017   -0.0001    0.0002    0.0000
          47   -0.1119   -0.0034    0.0029    0.0003   -0.0160   -0.0005    0.0006   -0.0120
          48    0.0391   -0.0000   -0.0014   -0.0005    0.0032    0.0001    0.0000    0.0028
          49    0.0419    0.0004    0.0000    0.0000   -0.0024    0.0306   -0.0995    0.0030
          50    0.0078   -0.0005   -0.0001   -0.0001    0.0060   -0.0762    0.2529   -0.0076
          51    0.0040   -0.0001    0.0000   -0.0000    0.0000    0.0000    0.0006   -0.0001
          52    0.0284   -0.0003    0.0001   -0.0001    0.0097   -0.1842    0.3038    0.0015
          53   -0.0141    0.0001   -0.0000    0.0000   -0.0012    0.0221   -0.0414   -0.0001
          54    0.0061   -0.0001    0.0001   -0.0000    0.0042   -0.0795    0.1296    0.0006
          55    0.0022    0.0018    0.0000   -0.0001   -0.0065    0.1781    0.0569   -0.0047
          56   -0.0367    0.0019    0.0001   -0.0001   -0.0097    0.2636    0.0894   -0.0069
          57   -0.0111    0.0005    0.0000   -0.0001   -0.0076    0.2067    0.0679   -0.0054


   Root No.      49        50        51

                49 A      50 A      51 A   

                3075.1    3082.3    3129.1
  
           1    0.0001   -0.0003    0.0005
           2   -0.0000    0.0001    0.0010
           3    0.0002   -0.0003   -0.0004
           4   -0.0006    0.0001   -0.0010
           5    0.0006    0.0000    0.0015
           6   -0.0001    0.0000   -0.0004
           7   -0.0000    0.0000   -0.0023
           8    0.0000    0.0000   -0.0008
           9    0.0000   -0.0000    0.0001
          10   -0.0003   -0.0008    0.0059
          11    0.0001   -0.0005    0.0035
          12   -0.0001   -0.0003    0.0006
          13    0.0001    0.0002   -0.0054
          14   -0.0001    0.0000   -0.0740
          15    0.0000    0.0000    0.0157
          16    0.0150   -0.0079   -0.0000
          17   -0.0272    0.0137   -0.0000
          18    0.0011   -0.0008    0.0000
          19    0.0066    0.0076   -0.0004
          20   -0.0208   -0.0263    0.0002
          21   -0.0008   -0.0014   -0.0001
          22   -0.0115    0.0089   -0.0000
          23   -0.0117    0.0108    0.0001
          24   -0.0116    0.0095    0.0000
          25    0.0080    0.0226   -0.0001
          26    0.0011   -0.0004   -0.0001
          27    0.0038    0.0103   -0.0001
          28    0.0007   -0.0005   -0.0008
          29   -0.0004    0.0002    0.0000
          30   -0.0011    0.0008    0.0021
          31    0.0032   -0.0000    0.0041
          32   -0.0044    0.0002   -0.0050
          33    0.0079   -0.0003    0.0096
          34    0.0022    0.0001    0.0027
          35   -0.0039    0.0004   -0.0035
          36   -0.0070    0.0003   -0.0071
          37    0.0004   -0.0002    0.0188
          38    0.0001   -0.0001    0.0015
          39   -0.0004    0.0002   -0.0146
          40    0.0001   -0.0001    0.0035
          41    0.0001   -0.0000    0.0022
          42    0.0004   -0.0001    0.0126
          43   -0.1429    0.0701    0.0002
          44    0.3145   -0.1538   -0.0005
          45    0.0085   -0.0041    0.0000
          46    0.0002    0.0002    0.0062
          47    0.0007    0.0007    0.8274
          48   -0.0001   -0.0001   -0.1879
          49   -0.0881   -0.1058    0.0003
          50    0.2290    0.2764   -0.0019
          51    0.0015    0.0021   -0.0003
          52   -0.0837   -0.2420    0.0001
          53    0.0083    0.0309    0.0001
          54   -0.0365   -0.1038   -0.0001
          55    0.1016   -0.0840   -0.0003
          56    0.1463   -0.1255   -0.0005
          57    0.1166   -0.0979   -0.0004


           MASS-WEIGHTED COORDINATE ANALYSIS (NORMAL COORDINATES)


   Root No.       1         2         3         4         5         6         7         8

                 1 A       2 A       3 A       4 A       5 A       6 A       7 A       8 A   

                 123.4     180.9     262.1     357.8     428.5     474.0     539.6     553.7
  
           1   -0.0791    0.0410    0.0459   -0.1962    0.0517    0.0361    0.1777   -0.2098
           2   -0.0099    0.0118   -0.0367    0.2854    0.0596   -0.1607    0.1395   -0.0285
           3    0.1094   -0.2379   -0.1922    0.0254   -0.3161    0.1420    0.1750    0.1249
           4   -0.0782    0.0300    0.0397   -0.2611    0.0527    0.0913    0.2819   -0.1656
           5   -0.0233    0.0202    0.0275   -0.1255    0.0504    0.0423   -0.0274    0.2280
           6    0.4324    0.2191    0.1653   -0.1384    0.0710    0.0122    0.0488   -0.0120
           7    0.0410   -0.0048    0.0798    0.0481    0.0972   -0.0392    0.2395    0.1774
           8   -0.0585    0.0309    0.0292   -0.2467    0.0659    0.1178   -0.0511    0.2033
           9   -0.3213    0.3200   -0.2046   -0.0299    0.0483   -0.0315    0.0646    0.0109
          10   -0.0450    0.1232    0.0205    0.0028    0.1640    0.0607   -0.0371    0.1818
          11   -0.0139    0.0047    0.0003    0.3043    0.0654   -0.2473   -0.0116    0.0673
          12    0.0854   -0.3287   -0.0102   -0.1407   -0.3183   -0.2021    0.0027    0.3036
          13    0.0038    0.1257   -0.0819    0.1427    0.1070   -0.1314    0.0962    0.1889
          14   -0.0705   -0.0100    0.1090    0.1278    0.1282   -0.0485   -0.1397    0.1365
          15   -0.2047   -0.1813    0.4726    0.2083    0.0758    0.0959    0.0974   -0.0204
          16    0.1289    0.1046    0.0058    0.1463   -0.2873   -0.1690   -0.0998   -0.2664
          17    0.0801    0.0331   -0.0399    0.0790   -0.1659   -0.1103    0.4417    0.0016
          18   -0.1810   -0.3170   -0.1479    0.0701    0.1924    0.2127    0.0455   -0.1229
          19   -0.1176    0.0170    0.1234   -0.0841   -0.1150    0.1574   -0.1869    0.2940
          20   -0.0106   -0.0075    0.0114   -0.0009   -0.1113    0.0533   -0.2972   -0.2534
          21    0.2531   -0.0729   -0.2523   -0.1069    0.3046   -0.2493   -0.0982    0.0167
          22    0.1650   -0.1661   -0.2152    0.2228   -0.0430    0.1743   -0.1427   -0.2549
          23    0.1025   -0.0339   -0.0988   -0.1137   -0.0729    0.2146    0.0648   -0.2379
          24   -0.2336    0.1033    0.1899   -0.0923   -0.1964   -0.2505   -0.0871   -0.2646
          25   -0.0220   -0.2336   -0.0259   -0.0211    0.0600   -0.1912   -0.4268    0.0486
          26    0.0186   -0.0654   -0.0164   -0.2246   -0.0275    0.0523   -0.1002   -0.1484
          27    0.0719    0.3665   -0.0137    0.2112   -0.1108    0.2646   -0.2359    0.0910
          28   -0.0932   -0.0635   -0.0324   -0.0851   -0.0078    0.0497    0.1103   -0.0685
          29   -0.0330    0.0109   -0.0268    0.1600    0.1187    0.0241    0.0416   -0.0859
          30    0.0008   -0.0937   -0.0716    0.0076   -0.0798    0.0641    0.0710    0.0197
          31   -0.0884   -0.0666   -0.0596   -0.0815   -0.0759    0.0776    0.0982    0.0006
          32    0.1369    0.0133    0.1052   -0.1134    0.0575    0.0330   -0.0294    0.0335
          33    0.2457    0.1038    0.1429   -0.0854    0.0915   -0.0088   -0.0066   -0.0502
          34    0.0337    0.0913    0.0877   -0.1534    0.1006    0.0167    0.0498   -0.1089
          35   -0.1670    0.0029   -0.0930   -0.0275   -0.0321    0.0300   -0.0026    0.1106
          36    0.2436    0.1023    0.1420   -0.0830    0.0890   -0.0100   -0.0029   -0.0566
          37   -0.0560    0.0874   -0.1307   -0.0150    0.0234   -0.0629    0.0450    0.0540
          38   -0.1243    0.0070   -0.0200   -0.1064    0.0100    0.0617    0.0091    0.0061
          39   -0.2070    0.1986   -0.2542   -0.0549    0.0051   -0.0636   -0.0054   -0.0118
          40    0.1288   -0.1337    0.2577    0.1028    0.0446    0.0401    0.1006    0.0901
          41    0.0951    0.0240    0.0264   -0.1361    0.0172    0.0477   -0.0108    0.0598
          42   -0.1713    0.1343   -0.1485   -0.0190    0.0090   -0.0327    0.0067   -0.0110
          43    0.0723    0.0870    0.0140    0.1291   -0.2176   -0.1189   -0.0044   -0.0317
          44    0.0405    0.0387   -0.0048    0.0619   -0.1144   -0.0636    0.1388    0.0216
          45   -0.1051   -0.1893   -0.0769    0.0321    0.2715    0.0775   -0.0317   -0.0525
          46    0.0040    0.0576   -0.0663    0.1192    0.0240   -0.1157    0.0621    0.0470
          47   -0.0300   -0.0067    0.0714    0.0593    0.0700    0.0006   -0.0424    0.0062
          48   -0.1022   -0.0679    0.3080    0.1631    0.1665    0.0878    0.0202   -0.1561
          49   -0.0653    0.0184    0.0845   -0.0999   -0.1555    0.1306   -0.0667    0.0928
          50   -0.0159    0.0031    0.0232   -0.0294   -0.0806    0.0480   -0.0903   -0.0690
          51    0.1491   -0.0297   -0.1831   -0.0521    0.3350   -0.0994    0.0043   -0.0667
          52   -0.0185   -0.1248    0.0042   -0.0647    0.0005   -0.1576   -0.1205    0.0009
          53   -0.0077   -0.0334    0.0189   -0.1380    0.0022   -0.0349   -0.0262    0.0572
          54    0.0459    0.2353   -0.0253    0.1750    0.0093    0.3027   -0.0747    0.0860
          55    0.0936   -0.0808   -0.1316    0.1476   -0.0376    0.1781    0.0637   -0.0555
          56    0.0551   -0.0040   -0.0507   -0.0245   -0.0203    0.1513   -0.0535   -0.0311
          57   -0.1392    0.0512    0.1426   -0.1074   -0.0359   -0.2966   -0.0245   -0.1401


   Root No.       9        10        11        12        13        14        15        16

                 9 A      10 A      11 A      12 A      13 A      14 A      15 A      16 A   

                 665.7     699.9     754.6     810.8     826.6     850.6     878.9     934.3
  
           1    0.1307   -0.1629    0.0479   -0.1352   -0.0096    0.0308    0.0744   -0.0817
           2    0.0528   -0.0477   -0.0034    0.0048   -0.0169    0.0849   -0.1957   -0.1156
           3   -0.2954   -0.0522    0.0503    0.1412    0.0736    0.1069    0.1257    0.3327
           4    0.2033   -0.0505   -0.0182   -0.0639    0.1522    0.2451    0.1017    0.1221
           5   -0.0759    0.3121   -0.0590    0.1349   -0.0437   -0.0803   -0.0646   -0.0471
           6   -0.0422    0.0294    0.0518   -0.1069   -0.0392    0.1816    0.2342   -0.0413
           7    0.0250    0.4195   -0.1250    0.2000   -0.0126   -0.0598   -0.0441    0.0268
           8   -0.0767    0.1169   -0.0278    0.0204   -0.0025   -0.0321   -0.0410    0.0210
           9   -0.0107    0.1493    0.0728   -0.2644   -0.0069    0.0412   -0.0629   -0.1039
          10   -0.2371   -0.1909    0.0026   -0.0547   -0.0661   -0.1021    0.0328    0.0862
          11    0.2692   -0.0274   -0.0106   -0.0799    0.0708   -0.0158    0.2592    0.0592
          12    0.4331   -0.0377    0.0638    0.0721    0.0057   -0.1243    0.1210   -0.2686
          13    0.0227    0.1363   -0.0736    0.0546   -0.0260   -0.0712    0.1319    0.0183
          14   -0.0072   -0.3835    0.0402   -0.1952   -0.0152   -0.1633    0.2958    0.1792
          15   -0.0058    0.0761    0.0502   -0.0332    0.0766   -0.1268   -0.1832    0.2643
          16   -0.1027    0.0622    0.1164    0.0412   -0.1750   -0.1238    0.0011   -0.0021
          17   -0.0700   -0.2573    0.1514    0.0808   -0.0785    0.2112   -0.2924   -0.1300
          18    0.0461   -0.0359   -0.1409   -0.0535    0.1237   -0.0824   -0.0555   -0.1164
          19   -0.1096   -0.2681    0.1191    0.0225    0.0073   -0.0983   -0.1207   -0.1572
          20    0.1357    0.2350    0.0008    0.0451    0.2276    0.2628    0.0105    0.1082
          21   -0.1247   -0.0683   -0.1769   -0.0785   -0.2140    0.1049   -0.1130    0.0221
          22    0.0383    0.0765    0.0828    0.0319   -0.1854   -0.1489    0.0022    0.0331
          23   -0.0508    0.0243    0.0487   -0.0119   -0.2005   -0.2795    0.0824   -0.0071
          24   -0.1610    0.0568   -0.1178   -0.0723    0.0812   -0.2679    0.0591   -0.1713
          25   -0.0143   -0.0380    0.0607    0.0534    0.2425    0.3256   -0.1504   -0.0487
          26   -0.0879    0.0391    0.0241    0.0029    0.0314   -0.0757    0.0138   -0.0377
          27    0.1468   -0.0191   -0.1083   -0.0542   -0.1330    0.2003   -0.1231    0.1417
          28    0.1232   -0.0722   -0.0095   -0.0409    0.1041    0.0159   -0.0026   -0.0191
          29   -0.0904   -0.0636   -0.1078   -0.0444    0.0231    0.0972   -0.1885    0.0060
          30   -0.0670   -0.0331   -0.0097    0.0336    0.0620    0.0414    0.0030    0.0981
          31   -0.0815   -0.0032    0.0485   -0.0448    0.0375    0.2163    0.2779    0.2198
          32    0.0821   -0.0298   -0.0879    0.2177    0.0648   -0.1496   -0.1055    0.2069
          33    0.1258   -0.0775   -0.0564    0.0954    0.0435   -0.0992   -0.1063    0.0425
          34    0.2158   -0.0757   -0.0532   -0.0325    0.1013   -0.0305   -0.1156   -0.0639
          35   -0.1395    0.2045    0.0563   -0.1535   -0.0707    0.1320    0.1325   -0.1907
          36    0.1317   -0.0874   -0.0527    0.0823    0.0508   -0.0886   -0.0934    0.0515
          37    0.0592    0.0498   -0.1365    0.3089   -0.0226   -0.0763    0.0713    0.0285
          38    0.0331   -0.0115   -0.0425    0.1173    0.0787   -0.0281   -0.1757    0.2038
          39    0.0783   -0.0672   -0.1125    0.2683   -0.0001   -0.0676    0.0312    0.0587
          40   -0.0867    0.2788    0.1103   -0.3327   -0.0100    0.0084   -0.0876   -0.0459
          41   -0.0456    0.0896    0.0102   -0.0589   -0.0321    0.1444    0.1197   -0.2082
          42    0.0410   -0.0315   -0.0411    0.0936    0.0118   -0.0514   -0.0355    0.0657
          43   -0.1482   -0.0170   -0.1896   -0.0224    0.2555   -0.0144   -0.1075   -0.0864
          44   -0.0800   -0.0909   -0.0671    0.0053    0.1278    0.0696   -0.1327   -0.0767
          45    0.2137    0.0236    0.2934    0.0812   -0.3860    0.0748   -0.1158   -0.0500
          46    0.1109    0.0579    0.0199   -0.1251    0.0467   -0.0758    0.1373    0.1742
          47   -0.0454   -0.1338   -0.0468    0.0464   -0.0379    0.0165    0.1729   -0.0358
          48   -0.1909   -0.0802   -0.2400    0.4427   -0.1259    0.2456    0.3183   -0.3154
          49   -0.0289   -0.1164   -0.0977   -0.0292   -0.2538   -0.0096   -0.1645   -0.0886
          50    0.0430    0.0530   -0.0528   -0.0016   -0.0344    0.0857   -0.0455    0.0165
          51   -0.2902   -0.0056    0.2884    0.0710    0.3887   -0.1961   -0.0145   -0.0909
          52   -0.0337   -0.0195   -0.1874   -0.0845   -0.0710    0.1236   -0.0862    0.0982
          53   -0.0751   -0.0810   -0.0887   -0.0544   -0.0623    0.0237   -0.0811   -0.0031
          54    0.0926   -0.0172    0.4199    0.2014    0.2686    0.0054    0.0300   -0.2224
          55    0.0211   -0.0276   -0.2391   -0.1137    0.0631   -0.1482   -0.0217   -0.2051
          56    0.0097    0.0236   -0.1409   -0.0800    0.0384   -0.0885    0.0690   -0.0226
          57   -0.0871    0.0364    0.3910    0.1828   -0.2022    0.0201   -0.0254    0.1573


   Root No.      17        18        19        20        21        22        23        24

                17 A      18 A      19 A      20 A      21 A      22 A      23 A      24 A   

                 965.9     987.3    1006.1    1027.3    1034.3    1051.2    1066.7    1083.4
  
           1   -0.0034   -0.0326    0.0123   -0.0113   -0.1386    0.1676   -0.0084   -0.1196
           2    0.0029    0.1446   -0.0587    0.0658    0.0487    0.0040    0.0060   -0.0876
           3    0.0143   -0.1248    0.0584   -0.0757    0.1729    0.1047    0.0749    0.1726
           4    0.0062    0.1553   -0.0287    0.0385    0.1267   -0.1626    0.0278   -0.0260
           5    0.0226   -0.1726    0.0656    0.3570   -0.0783    0.1359   -0.0063   -0.2606
           6    0.0407    0.2139   -0.0097    0.0087   -0.1214   -0.0482    0.0027   -0.1723
           7   -0.0135    0.1471   -0.0347   -0.3081   -0.0624    0.0408    0.0712    0.0126
           8   -0.0275    0.0515   -0.0326   -0.2620    0.0662   -0.0690   -0.0239    0.2171
           9   -0.0707   -0.2217   -0.0091   -0.0896    0.1835    0.0492    0.0553   -0.0227
          10   -0.0099   -0.0345    0.0554   -0.0646   -0.0322   -0.0292   -0.0111    0.0645
          11   -0.0120   -0.0146   -0.0279    0.0056    0.0738   -0.0455    0.0139    0.0147
[...]
 FREQ.      1201.79         C  1 -- H 10         +16.7% ( 53.3%)      0.4%
 T-DIPOLE    0.0448         C  5 -- H 16         +16.2% ( 52.6%)      1.1%
 TRAVEL      0.1093         C  1 -- C  2         +10.0% ( 41.3%)     73.2%
 RED. MASS   0.5884         C  1 -- C  6          +9.3% ( 39.8%)      3.2%
 EFF. MASS   4.6982

 VIBRATION   31   31A         ATOM PAIR      ENERGY CONTRIBUTION    RADIAL
 FREQ.      1251.55         C  1 -- H 10         +12.7% ( 51.8%)      0.0%
 T-DIPOLE    0.1063         C  1 -- C  2         +11.4% ( 49.0%)     74.4%
 TRAVEL      0.0858         C  1 -- C  4          +9.9% ( 45.6%)     37.1%
 RED. MASS   0.8486         C  5 -- H 16          +9.0% ( 43.6%)      0.6%
 EFF. MASS   7.3202

 VIBRATION   32   32A         ATOM PAIR      ENERGY CONTRIBUTION    RADIAL
 FREQ.      1267.51         C  2 -- H 12         +20.1% ( 62.7%)      0.0%
 T-DIPOLE    0.0429         C  2 -- H 11         +19.0% ( 61.1%)      0.0%
 TRAVEL      0.0925         C  2 -- C  3         +13.3% ( 51.0%)     81.2%
 RED. MASS   1.2513         C  1 -- C  2         +12.1% ( 48.6%)     87.7%
 EFF. MASS   6.2207

 VIBRATION   33   33A         ATOM PAIR      ENERGY CONTRIBUTION    RADIAL
 FREQ.      1343.41         C  3 -- C  5         +24.9% ( 69.3%)     82.2%
 T-DIPOLE    0.0779         C  3 -- H 13         +20.7% ( 63.3%)      0.0%
 TRAVEL      0.0831         C  3 -- H 14         +19.2% ( 60.9%)      0.0%
 RED. MASS   2.0433         C  2 -- C  3         +12.5% ( 49.2%)     45.5%
 EFF. MASS   7.2708

 VIBRATION   34   34A         ATOM PAIR      ENERGY CONTRIBUTION    RADIAL
 FREQ.      1375.68         C  8 -- C  9         +11.7% ( 48.5%)     97.3%
 T-DIPOLE    0.0641         C  1 -- C  4          +9.6% ( 44.0%)     69.9%
 TRAVEL      0.0803         C  1 -- C  6          +9.6% ( 44.0%)     49.5%
 RED. MASS   0.9461         C  1 -- C  2          +9.5% ( 43.7%)     13.4%
 EFF. MASS   7.5978

 VIBRATION   35   35A         ATOM PAIR      ENERGY CONTRIBUTION    RADIAL
 FREQ.      1402.95         C  3 -- H 14         +15.0% ( 48.9%)      5.1%
 T-DIPOLE    0.0836         C  3 -- C  5         +15.0% ( 48.8%)     98.5%
 TRAVEL      0.0917         C  3 -- H 13         +14.9% ( 48.6%)      5.7%
 RED. MASS   0.6204         C  2 -- C  3         +10.1% ( 40.0%)      0.0%
 EFF. MASS   5.7111

 VIBRATION   36   36A         ATOM PAIR      ENERGY CONTRIBUTION    RADIAL
 FREQ.      1412.10         C  1 -- C  6         +15.9% ( 60.8%)     91.9%
 T-DIPOLE    0.1790         C  1 -- C  4         +12.7% ( 54.4%)     21.8%
 TRAVEL      0.0704         C  1 -- C  2         +11.0% ( 50.5%)     77.7%
 RED. MASS   1.4442         C  1 -- H 10          +8.9% ( 45.5%)      0.8%
 EFF. MASS   9.6353

 VIBRATION   37   37A         ATOM PAIR      ENERGY CONTRIBUTION    RADIAL
 FREQ.      1417.91         C  2 -- H 11         +25.1% ( 53.3%)      4.8%
 T-DIPOLE    0.0237         C  2 -- H 12         +24.5% ( 52.6%)      4.7%
 TRAVEL      0.1239         C  2 -- C  3         +11.5% ( 36.0%)     97.7%
 RED. MASS   0.3998         C  3 -- H 13          +9.7% ( 33.2%)      5.8%
 EFF. MASS   3.0990

 VIBRATION   38   38A         ATOM PAIR      ENERGY CONTRIBUTION    RADIAL
 FREQ.      1501.66         C  1 -- C  4         +19.3% ( 67.2%)     98.0%
 T-DIPOLE    0.1397         C  4 -- C  7         +18.5% ( 65.9%)     73.9%
 TRAVEL      0.0626         C  4 -- C  5         +10.9% ( 50.5%)     12.7%
 RED. MASS   2.3648         C  1 -- C  6          +9.6% ( 47.4%)     81.9%
 EFF. MASS  11.4485

 VIBRATION   39   39A         ATOM PAIR      ENERGY CONTRIBUTION    RADIAL
 FREQ.      1810.20         C  7 -- C  9         +37.7% ( 91.3%)     99.7%
 T-DIPOLE    0.1411         C  8 -- C  9         +15.8% ( 59.1%)     75.4%
 TRAVEL      0.0559         C  9 -- H 18         +12.5% ( 52.6%)      3.8%
 RED. MASS   4.0991         C  4 -- C  7         +10.4% ( 47.9%)     31.6%
 EFF. MASS  11.9342         C  7 -- H 17         +10.0% ( 47.0%)      7.8%

 VIBRATION   40   40A         ATOM PAIR      ENERGY CONTRIBUTION    RADIAL
 FREQ.      1833.08         C  6 -- C  8         +38.1% ( 91.2%)    100.0%
 T-DIPOLE    0.4272         C  8 -- C  9         +12.6% ( 52.4%)     25.8%
 TRAVEL      0.0557         C  1 -- C  6         +12.3% ( 51.9%)     47.5%
 RED. MASS   4.0618         C  6 -- H 15         +11.3% ( 49.8%)      5.1%
 EFF. MASS  11.8444         C  8 -- H 19         +11.3% ( 49.7%)      5.8%

 VIBRATION   41   41A         ATOM PAIR      ENERGY CONTRIBUTION    RADIAL
 FREQ.      1890.56         C  4 -- C  5         +35.5% ( 88.5%)     97.3%
 T-DIPOLE    0.3688         C  4 -- C  7         +20.7% ( 67.6%)     66.3%
 TRAVEL      0.0547         C  1 -- C  4         +15.4% ( 58.3%)      2.9%
 RED. MASS   4.2553         C  3 -- C  5          +7.4% ( 40.4%)     21.4%
 EFF. MASS  11.9025

 VIBRATION   42   42A         ATOM PAIR      ENERGY CONTRIBUTION    RADIAL
 FREQ.      2853.79         C  1 -- H 10         +96.9% ( 99.9%)    100.0%
 T-DIPOLE    0.1055         C  1 -- C  2          +1.0% ( 10.0%)      9.9%
 TRAVEL      0.1285         C  1 -- C  4          +1.0% ( 10.0%)      9.9%
 RED. MASS   0.9264         C  1 -- C  6          +1.0% ( 10.0%)      6.7%
 EFF. MASS   1.4319

 VIBRATION   43   43A         ATOM PAIR      ENERGY CONTRIBUTION    RADIAL
 FREQ.      2973.72         C  3 -- H 14         +48.8% ( 72.6%)     97.3%
 T-DIPOLE    0.0189         C  3 -- H 13         +35.1% ( 61.6%)     95.5%
 TRAVEL      0.1211         C  2 -- H 12          +8.2% ( 29.7%)     97.1%
 RED. MASS   0.4032         C  2 -- H 11          +5.6% ( 24.6%)     95.0%
 EFF. MASS   1.5466

 VIBRATION   44   44A         ATOM PAIR      ENERGY CONTRIBUTION    RADIAL
 FREQ.      2994.02         C  2 -- H 12         +49.8% ( 73.0%)     97.5%
 T-DIPOLE    0.0564         C  2 -- H 11         +34.4% ( 60.7%)     95.4%
 TRAVEL      0.1212         C  3 -- H 14          +7.9% ( 29.0%)     97.7%
 RED. MASS   0.4044         C  3 -- H 13          +5.7% ( 24.8%)     95.9%
 EFF. MASS   1.5324

 VIBRATION   45   45A         ATOM PAIR      ENERGY CONTRIBUTION    RADIAL
 FREQ.      3054.90         C  3 -- H 13         +57.2% ( 74.6%)     98.4%
 T-DIPOLE    0.0900         C  3 -- H 14         +39.9% ( 62.3%)     96.3%
 TRAVEL      0.1310         C  2 -- H 11          +0.8% (  8.7%)     98.2%
 RED. MASS   0.4820         C  2 -- C  3          +0.7% (  8.2%)     26.7%
 EFF. MASS   1.2860

 VIBRATION   46   46A         ATOM PAIR      ENERGY CONTRIBUTION    RADIAL
 FREQ.      3055.21         C  8 -- H 19         +57.2% ( 76.9%)    100.0%
 T-DIPOLE    0.1639         C  6 -- H 15         +21.2% ( 46.8%)    100.0%
 TRAVEL      0.1222         C  9 -- H 18         +16.2% ( 41.0%)    100.0%
 RED. MASS   0.3915         C  7 -- H 17          +2.7% ( 16.6%)     99.9%
 EFF. MASS   1.4788

 VIBRATION   47   47A         ATOM PAIR      ENERGY CONTRIBUTION    RADIAL
 FREQ.      3061.79         C  9 -- H 18         +46.3% ( 69.1%)    100.0%
 T-DIPOLE    0.3454         C  7 -- H 17         +30.8% ( 56.4%)    100.0%
 TRAVEL      0.1227         C  6 -- H 15         +13.8% ( 37.7%)    100.0%
 RED. MASS   0.3255         C  8 -- H 19          +6.6% ( 26.0%)     99.9%
 EFF. MASS   1.4632

 VIBRATION   48   48A         ATOM PAIR      ENERGY CONTRIBUTION    RADIAL
 FREQ.      3070.75         C  2 -- H 11         +58.4% ( 75.3%)     98.5%
 T-DIPOLE    0.0792         C  2 -- H 12         +38.9% ( 61.5%)     96.1%
 TRAVEL      0.1309         C  3 -- H 13          +0.8% (  8.6%)     98.7%
 RED. MASS   0.4864         C  2 -- C  3          +0.7% (  8.1%)     46.7%
 EFF. MASS   1.2820

 VIBRATION   49   49A         ATOM PAIR      ENERGY CONTRIBUTION    RADIAL
 FREQ.      3075.05         C  6 -- H 15         +49.3% ( 71.3%)    100.0%
 T-DIPOLE    0.4546         C  7 -- H 17         +24.9% ( 50.6%)    100.0%
 TRAVEL      0.1182         C  8 -- H 19         +18.8% ( 44.0%)     99.8%
 RED. MASS   0.3411         C  9 -- H 18          +3.5% ( 19.0%)     99.4%
 EFF. MASS   1.5689

 VIBRATION   50   50A         ATOM PAIR      ENERGY CONTRIBUTION    RADIAL
 FREQ.      3082.31         C  7 -- H 17         +38.6% ( 63.0%)     99.9%
 T-DIPOLE    0.2997         C  9 -- H 18         +30.9% ( 56.4%)     99.9%
 TRAVEL      0.1166         C  8 -- H 19         +14.2% ( 38.2%)    100.0%
 RED. MASS   0.2819         C  6 -- H 15         +12.6% ( 36.0%)     99.9%
 EFF. MASS   1.6082

 VIBRATION   51   51A         ATOM PAIR      ENERGY CONTRIBUTION    RADIAL
 FREQ.      3129.06         C  5 -- H 16         +96.4% ( 99.9%)    100.0%
 T-DIPOLE    0.4150         C  4 -- C  5          +1.8% ( 13.6%)     49.3%
 TRAVEL      0.1178         C  3 -- C  5          +1.6% ( 13.0%)     25.2%
 RED. MASS   0.9272
 EFF. MASS   1.5539

      SYMMETRY NUMBER FOR POINT-GROUP C1  =  1


          SYSTEM IS A GROUND STATE



 InChI=1S/C9H10/c1-2-5-9-7-3-6-8(9)4-1/h1-2,4-6,9H,3,7H2


          MOLECULE IS NOT LINEAR

          THERE ARE 51 GENUINE VIBRATIONS IN THIS SYSTEM
          THIS THERMODYNAMICS CALCULATION IS LIMITED TO
          MOLECULES WHICH HAVE NO INTERNAL ROTATIONS




                    CALCULATED THERMODYNAMIC PROPERTIES
                                          *
   TEMP. (K)   PARTITION FUNCTION   H.O.F.    ENTHALPY  HEAT CAPACITY ENTROPY
                                   KCAL/MOL   CAL/MOLE    CAL/K/MOL  CAL/K/MOL


 298.00  VIB.     0.1262D+02                  2589.3356    22.6305    13.7265
         ROT.     0.3545D+06                   888.2813     2.9808    28.3745
         INT.     0.4473D+07                  3477.6169    25.6113    42.1010
         TRA.     0.1242D+28                  1480.4688     4.9680    40.2136
         TOT.                       38.002    4958.0858    30.5793    82.3147

 200.00  VIB.     0.3487D+01                   913.0795    11.9067     7.0477
         ROT.     0.1949D+06                   596.1620     2.9808    27.1858
         INT.     0.6798D+06                  1509.2415    14.8875    34.2336
         TRA.     0.6829D+27                   993.6033     4.9680    38.2325
         TOT.                       35.547    2502.8447    19.8555    72.4661

 210.00  VIB.     0.3919D+01                  1037.0343    12.8902     7.6523
         ROT.     0.2097D+06                   625.9700     2.9808    27.3313
         INT.     0.8219D+06                  1663.0044    15.8710    34.9836
         TRA.     0.7347D+27                  1043.2834     4.9680    38.4749
         TOT.                       35.750    2706.2878    20.8390    73.4585

 220.00  VIB.     0.4419D+01                  1170.9966    13.9077     8.2753
         ROT.     0.2249D+06                   655.7781     2.9808    27.4699
         INT.     0.9937D+06                  1826.7747    16.8885    35.7453
         TRA.     0.7878D+27                  1092.9636     4.9680    38.7060
         TOT.                       35.964    2919.7383    21.8566    74.4513

 230.00  VIB.     0.4999D+01                  1315.2927    14.9564     8.9166
         ROT.     0.2404D+06                   685.5862     2.9808    27.6024
         INT.     0.1202D+07                  2000.8789    17.9372    36.5190
         TRA.     0.8422D+27                  1142.6437     4.9680    38.9268
         TOT.                       36.188    3143.5226    22.9052    75.4459

 240.00  VIB.     0.5675D+01                  1470.2173    16.0328     9.5758
         ROT.     0.2563D+06                   715.3943     2.9808    27.7293
         INT.     0.1454D+07                  2185.6117    19.0137    37.3051
         TRA.     0.8977D+27                  1192.3239     4.9680    39.1383
         TOT.                       36.422    3377.9356    23.9817    76.4434

 250.00  VIB.     0.6463D+01                  1636.0298    17.1334    10.2525
         ROT.     0.2724D+06                   745.2024     2.9808    27.8510
         INT.     0.1761D+07                  2381.2323    20.1142    38.1035
         TRA.     0.9544D+27                  1242.0041     4.9680    39.3411
         TOT.                       36.667    3623.2363    25.0822    77.4446

 260.00  VIB.     0.7385D+01                  1812.9520    18.2541    10.9463
         ROT.     0.2889D+06                   775.0105     2.9808    27.9679
         INT.     0.2134D+07                  2587.9625    21.2349    38.9142
         TRA.     0.1012D+28                  1291.6842     4.9680    39.5359
         TOT.                       36.924    3879.6467    26.2030    78.4501

 270.00  VIB.     0.8466D+01                  2001.1670    19.3913    11.6565
         ROT.     0.3058D+06                   804.8186     2.9808    28.0804
         INT.     0.2589D+07                  2805.9857    22.3721    39.7369
         TRA.     0.1071D+28                  1341.3644     4.9680    39.7234
         TOT.                       37.191    4147.3500    27.3401    79.4603

 280.00  VIB.     0.9735D+01                  2200.8197    20.5410    12.3824
         ROT.     0.3229D+06                   834.6267     2.9808    28.1888
         INT.     0.3144D+07                  3035.4464    23.5218    40.5712
         TRA.     0.1131D+28                  1391.0445     4.9680    39.9041
         TOT.                       37.471    4426.4909    28.4898    80.4753

 290.00  VIB.     0.1123D+02                  2412.0169    21.6996    13.1234
         ROT.     0.3404D+06                   864.4348     2.9808    28.2934
         INT.     0.3822D+07                  3276.4517    24.6804    41.4168
         TRA.     0.1192D+28                  1440.7247     4.9680    40.0784
         TOT.                       37.761    4717.1764    29.6484    81.4953

 300.00  VIB.     0.1299D+02                  2634.8297    22.8636    13.8787
         ROT.     0.3581D+06                   894.2429     2.9808    28.3945
         INT.     0.4653D+07                  3529.0726    25.8444    42.2731
         TRA.     0.1255D+28                  1490.4049     4.9680    40.2469
         TOT.                       38.064    5019.4775    30.8124    82.5200

 310.00  VIB.     0.1508D+02                  2869.2947    24.0295    14.6474
         ROT.     0.3762D+06                   924.0510     2.9808    28.4922
         INT.     0.5671D+07                  3793.3457    27.0103    43.1396
         TRA.     0.1318D+28                  1540.0850     4.9680    40.4098
         TOT.                       38.378    5333.4308    31.9784    83.5493

 320.00  VIB.     0.1755D+02                  3115.4171    25.1945    15.4287
         ROT.     0.3945D+06                   953.8591     2.9808    28.5868
         INT.     0.6922D+07                  4069.2762    28.1753    44.0155
         TRA.     0.1382D+28                  1589.7652     4.9680    40.5675
         TOT.                       38.703    5659.0414    33.1434    84.5830

 330.00  VIB.     0.2048D+02                  3373.1727    26.3557    16.2217
         ROT.     0.4132D+06                   983.6672     2.9808    28.6786
         INT.     0.8460D+07                  4356.8399    29.3365    44.9003
         TRA.     0.1447D+28                  1639.4454     4.9680    40.7204
         TOT.                       39.040    5996.2852    34.3046    85.6207

 340.00  VIB.     0.2396D+02                  3642.5109    27.5107    17.0257
         ROT.     0.4321D+06                  1013.4753     2.9808    28.7675
         INT.     0.1035D+08                  4655.9862    30.4915    45.7933
         TRA.     0.1514D+28                  1689.1255     4.9680    40.8687
         TOT.                       39.389    6345.1117    35.4595    86.6619

 350.00  VIB.     0.2812D+02                  3923.3576    28.6571    17.8397
         ROT.     0.4513D+06                  1043.2834     2.9808    28.8540
         INT.     0.1269D+08                  4966.6410    31.6379    46.6937
         TRA.     0.1581D+28                  1738.8057     4.9680    41.0127
         TOT.                       39.750    6705.4467    36.6059    87.7064

 360.00  VIB.     0.3308D+02                  4215.6175    29.7930    18.6630
         ROT.     0.4708D+06                  1073.0915     2.9808    28.9379
         INT.     0.1557D+08                  5288.7090    32.7738    47.6009
         TRA.     0.1649D+28                  1788.4859     4.9680    41.1526
         TOT.                       40.121    7077.1949    37.7418    88.7536

 370.00  VIB.     0.3901D+02                  4519.1772    30.9168    19.4946
         ROT.     0.4905D+06                  1102.8996     2.9808    29.0196
         INT.     0.1913D+08                  5622.0768    33.8976    48.5142
         TRA.     0.1718D+28                  1838.1660     4.9680    41.2888
         TOT.                       40.504    7460.2428    38.8656    89.8030

 380.00  VIB.     0.4611D+02                  4833.9074    32.0269    20.3339
         ROT.     0.5105D+06                  1132.7077     2.9808    29.0991
         INT.     0.2354D+08                  5966.6151    35.0077    49.4330
         TRA.     0.1788D+28                  1887.8462     4.9680    41.4213
         TOT.                       40.899    7854.4613    39.9757    90.8542

 390.00  VIB.     0.5463D+02                  5159.6652    33.1221    21.1800
         ROT.     0.5308D+06                  1162.5158     2.9808    29.1765
         INT.     0.2900D+08                  6322.1810    36.1029    50.3565
         TRA.     0.1860D+28                  1937.5263     4.9680    41.5503
         TOT.                       41.304    8259.7073    41.0709    91.9068

 400.00  VIB.     0.6487D+02                  5496.2966    34.2014    22.0322
         ROT.     0.5514D+06                  1192.3239     2.9808    29.2520
         INT.     0.3577D+08                  6688.6205    37.1823    51.2842
         TRA.     0.1932D+28                  1987.2065     4.9680    41.6761
         TOT.                       41.720    8675.8270    42.1503    92.9603

   *: NOTE: HEATS OF FORMATION ARE RELATIVE TO THE
            ELEMENTS IN THEIR STANDARD STATE AT 298K
              (=  Standard Enthalpy of Formation).

            Hvib:  Zero-point energy is not included.
                   frequencies of less than zero cm-1 are not included.
            Hrot = (3/2)RT
            Htra = (3/2)RT + pV = (5/2)RT

            Heat capacity is Cp, not Cv

          For more information, see: HTTP://OpenMOPAC.net/Manual/thermochemistry.html


           FORCE CONSTANT IN CARTESIAN COORDINATES (Millidynes/A)

    ATOM   CHEMICAL       X               Y               Z
   NUMBER   SYMBOL  FORCE CONSTANT  FORCE CONSTANT  FORCE CONSTANT

      1       C        8.499423        9.460577        8.049005
      2       C        7.709830        8.323649        8.426769
      3       C        9.590230        7.450707        8.096826
      4       C       14.776567       10.535205        3.803055
      5       C       11.430520       12.780568        2.951009
      6       C       11.191319        9.585261        6.242731
      7       C       10.231351       13.035132        4.341895
      8       C       11.146265        9.965231        6.303309
      9       C       10.345686       12.358296        4.641563
     10       H        1.117790        0.679747        3.981080
     11       H        1.277515        1.696369        3.553897
     12       H        1.256328        1.611988        3.626670
     13       H        3.053751        0.850748        2.517567
     14       H        1.022218        1.066897        4.267970
     15       H        1.379213        4.397117        0.494149
     16       H        0.688055        5.126411        0.602554
     17       H        1.250901        4.596041        0.410557
     18       H        4.363423        0.801849        1.109482
     19       H        1.610374        2.851476        1.800545

 **********************
 *                    *
 * JOB ENDED NORMALLY *
 *                    *
 **********************



 TOTAL JOB TIME:             5.70 SECONDS

 == MOPAC DONE ==
