 *******************************************************************************
 ** Site#: 14399        For non-commercial use only    Version 18.184L 64BITS **
 *******************************************************************************
 ** Cite this program as: MOPAC2016, Version: 18.184L, James J. P. Stewart,   **
 ** Stewart Computational Chemistry, web: HTTP://OpenMOPAC.net. Days left:  20**
 *******************************************************************************
 **                                                                           **
 **                                MOPAC2016                                  **
 **                                                                           **
 *******************************************************************************

                              PM3 CALCULATION RESULTS

 *******************************************************************************
 *  CALCULATION DONE:                                Thu Jun 13 15:47:46 2019  *
 *  PM3        - The PM3 Hamiltonian to be used
 *  PRECISE    - CRITERIA TO BE INCREASED BY 100 TIMES
 *  NOSYM      - POINT-GROUP SYMMETRY SET TO C1
 *  THREADS=1  - MULTI-THREADING NOT USED
 *  T=         - A TIME OF 172800.0 SECONDS REQUESTED
 *  DUMP=N     - RESTART FILE WRITTEN EVERY  7200.000 SECONDS
 *******************************************************************************
pm3  precise nosym THREADS=1
 InChI=1S/C9H12/c1-7-6-8-4-2-3-5-9(7)8/h2-3,5,7-8H,4,6H2,1H3

   ATOM   CHEMICAL          X               Y               Z
  NUMBER   SYMBOL      (ANGSTROMS)     (ANGSTROMS)     (ANGSTROMS)
 
     1       C         -0.34750000  *  -0.63790000  *  -0.88630000  *
     2       C          1.46080000  *   0.30880000  *  -0.59650000  *
     3       C          1.07430000  *  -1.12210000  *  -0.89260000  *
     4       C         -1.33940000  *  -1.20710000  *   0.15030000  *
     5       C          2.27390000  *   0.46530000  *   0.69050000  *
     6       C          0.01840000  *   0.74450000  *  -0.42240000  *
     7       C         -2.39350000  *  -0.15760000  *   0.50660000  *
     8       C         -0.74280000  *   1.64330000  *   0.17780000  *
     9       C         -2.09640000  *   1.16410000  *   0.54350000  *
    10       H          1.93970000  *   0.81650000  *  -1.46350000  *
    11       H         -0.79390000  *  -0.60250000  *  -1.90610000  *
    12       H          1.29860000  *  -1.84060000  *  -0.07290000  *
    13       H          1.40900000  *  -1.45760000  *  -1.89820000  *
    14       H         -0.80500000  *  -1.49530000  *   1.08160000  *
    15       H         -1.83330000  *  -2.11110000  *  -0.26410000  *
    16       H          1.75350000  *  -0.00550000  *   1.55300000  *
    17       H          3.26860000  *  -0.01160000  *   0.56400000  *
    18       H          2.42250000  *   1.54390000  *   0.90840000  *
    19       H         -3.38530000  *  -0.48610000  *   0.78980000  *
    20       H         -2.83950000  *   1.87440000  *   0.88160000  *
    21       H         -0.34260000  *   2.57430000  *   0.55550000  *
 


          CARTESIAN COORDINATES 

    NO.       ATOM           X           Y           Z

     1         C         -0.3475     -0.6379     -0.8863
     2         C          1.4608      0.3088     -0.5965
     3         C          1.0743     -1.1221     -0.8926
     4         C         -1.3394     -1.2071      0.1503
     5         C          2.2739      0.4653      0.6905
     6         C          0.0184      0.7445     -0.4224
     7         C         -2.3935     -0.1576      0.5066
     8         C         -0.7428      1.6433      0.1778
     9         C         -2.0964      1.1641      0.5435
    10         H          1.9397      0.8165     -1.4635
    11         H         -0.7939     -0.6025     -1.9061
    12         H          1.2986     -1.8406     -0.0729
    13         H          1.4090     -1.4576     -1.8982
    14         H         -0.8050     -1.4953      1.0816
    15         H         -1.8333     -2.1111     -0.2641
    16         H          1.7535     -0.0055      1.5530
    17         H          3.2686     -0.0116      0.5640
    18         H          2.4225      1.5439      0.9084
    19         H         -3.3853     -0.4861      0.7898
    20         H         -2.8395      1.8744      0.8816
    21         H         -0.3426      2.5743      0.5555

  H: (PM3): J. J. P. STEWART, J. COMP. CHEM. 10, 209 (1989).
  C: (PM3): J. J. P. STEWART, J. COMP. CHEM. 10, 209 (1989).

           Empirical Formula: C9 H12  =    21 atoms



      MOLECULAR POINT GROUP   :   C1  


      RHF CALCULATION, NO. OF DOUBLY OCCUPIED LEVELS = 24


          Geometry optimization using EF

          DIAGONAL MATRIX USED AS START HESSIAN

 CYCLE:     1 TIME:   0.051 TIME LEFT:  2.00D  GRAD.:   147.880 HEAT:  43.32747
 CYCLE:     2 TIME:   0.047 TIME LEFT:  2.00D  GRAD.:    91.388 HEAT:  38.02774
 CYCLE:     3 TIME:   0.039 TIME LEFT:  2.00D  GRAD.:    69.275 HEAT:  36.48933
 CYCLE:     4 TIME:   0.027 TIME LEFT:  2.00D  GRAD.:    45.693 HEAT:  35.44071
 CYCLE:     5 TIME:   0.027 TIME LEFT:  2.00D  GRAD.:    66.926 HEAT:  35.42928
 CYCLE:     6 TIME:   0.043 TIME LEFT:  2.00D  GRAD.:    35.572 HEAT:  34.54221
 CYCLE:     7 TIME:   0.035 TIME LEFT:  2.00D  GRAD.:    21.047 HEAT:  34.19540
 CYCLE:     8 TIME:   0.035 TIME LEFT:  2.00D  GRAD.:    18.631 HEAT:  34.05816
 CYCLE:     9 TIME:   0.023 TIME LEFT:  2.00D  GRAD.:    15.976 HEAT:  33.86474
 CYCLE:    10 TIME:   0.023 TIME LEFT:  2.00D  GRAD.:    14.086 HEAT:  33.66499
 CYCLE:    11 TIME:   0.031 TIME LEFT:  2.00D  GRAD.:    14.926 HEAT:  33.57701
 CYCLE:    12 TIME:   0.031 TIME LEFT:  2.00D  GRAD.:    12.708 HEAT:  33.51374
 CYCLE:    13 TIME:   0.027 TIME LEFT:  2.00D  GRAD.:    11.319 HEAT:  33.46435
 CYCLE:    14 TIME:   0.031 TIME LEFT:  2.00D  GRAD.:     9.342 HEAT:  33.42800
 CYCLE:    15 TIME:   0.027 TIME LEFT:  2.00D  GRAD.:     7.318 HEAT:  33.40383
 CYCLE:    16 TIME:   0.020 TIME LEFT:  2.00D  GRAD.:     7.654 HEAT:  33.38146
 CYCLE:    17 TIME:   0.027 TIME LEFT:  2.00D  GRAD.:     8.217 HEAT:  33.35682
 CYCLE:    18 TIME:   0.031 TIME LEFT:  2.00D  GRAD.:     7.680 HEAT:  33.32394
 CYCLE:    19 TIME:   0.027 TIME LEFT:  2.00D  GRAD.:     7.925 HEAT:  33.29592
 CYCLE:    20 TIME:   0.027 TIME LEFT:  2.00D  GRAD.:     8.290 HEAT:  33.26765
 CYCLE:    21 TIME:   0.027 TIME LEFT:  2.00D  GRAD.:     6.915 HEAT:  33.23042
 CYCLE:    22 TIME:   0.027 TIME LEFT:  2.00D  GRAD.:    10.680 HEAT:  33.21538
 CYCLE:    23 TIME:   0.031 TIME LEFT:  2.00D  GRAD.:     5.320 HEAT:  33.17068
 CYCLE:    24 TIME:   0.027 TIME LEFT:  2.00D  GRAD.:     5.672 HEAT:  33.15109
 CYCLE:    25 TIME:   0.027 TIME LEFT:  2.00D  GRAD.:     6.067 HEAT:  33.12734
 CYCLE:    26 TIME:   0.031 TIME LEFT:  2.00D  GRAD.:     5.336 HEAT:  33.09030
 CYCLE:    27 TIME:   0.031 TIME LEFT:  2.00D  GRAD.:     5.311 HEAT:  33.04847
 CYCLE:    28 TIME:   0.027 TIME LEFT:  2.00D  GRAD.:     7.650 HEAT:  33.01231
 CYCLE:    29 TIME:   0.027 TIME LEFT:  2.00D  GRAD.:     7.011 HEAT:  32.97853
 CYCLE:    30 TIME:   0.027 TIME LEFT:  2.00D  GRAD.:     5.005 HEAT:  32.93792
 CYCLE:    31 TIME:   0.027 TIME LEFT:  2.00D  GRAD.:     5.177 HEAT:  32.89533
 CYCLE:    32 TIME:   0.031 TIME LEFT:  2.00D  GRAD.:     4.736 HEAT:  32.86763
 CYCLE:    33 TIME:   0.027 TIME LEFT:  2.00D  GRAD.:     3.423 HEAT:  32.84602
 CYCLE:    34 TIME:   0.031 TIME LEFT:  2.00D  GRAD.:     2.888 HEAT:  32.82615
 CYCLE:    35 TIME:   0.027 TIME LEFT:  2.00D  GRAD.:     2.356 HEAT:  32.81469
 CYCLE:    36 TIME:   0.027 TIME LEFT:  2.00D  GRAD.:     1.599 HEAT:  32.80745
 CYCLE:    37 TIME:   0.031 TIME LEFT:  2.00D  GRAD.:     1.572 HEAT:  32.80270
 CYCLE:    38 TIME:   0.027 TIME LEFT:  2.00D  GRAD.:     1.665 HEAT:  32.79790
 CYCLE:    39 TIME:   0.027 TIME LEFT:  2.00D  GRAD.:     1.367 HEAT:  32.79396
 CYCLE:    40 TIME:   0.031 TIME LEFT:  2.00D  GRAD.:     0.889 HEAT:  32.79130
 CYCLE:    41 TIME:   0.027 TIME LEFT:  2.00D  GRAD.:     0.800 HEAT:  32.78949
 CYCLE:    42 TIME:   0.027 TIME LEFT:  2.00D  GRAD.:     0.666 HEAT:  32.78833
 CYCLE:    43 TIME:   0.027 TIME LEFT:  2.00D  GRAD.:     0.465 HEAT:  32.78752
 CYCLE:    44 TIME:   0.031 TIME LEFT:  2.00D  GRAD.:     0.397 HEAT:  32.78703
 CYCLE:    45 TIME:   0.027 TIME LEFT:  2.00D  GRAD.:     0.406 HEAT:  32.78662
 CYCLE:    46 TIME:   0.027 TIME LEFT:  2.00D  GRAD.:     0.357 HEAT:  32.78632
 CYCLE:    47 TIME:   0.027 TIME LEFT:  2.00D  GRAD.:     0.305 HEAT:  32.78610
 CYCLE:    48 TIME:   0.031 TIME LEFT:  2.00D  GRAD.:     0.300 HEAT:  32.78590
 CYCLE:    49 TIME:   0.027 TIME LEFT:  2.00D  GRAD.:     0.321 HEAT:  32.78569
 CYCLE:    50 TIME:   0.027 TIME LEFT:  2.00D  GRAD.:     0.301 HEAT:  32.78549
 CYCLE:    51 TIME:   0.031 TIME LEFT:  2.00D  GRAD.:     0.260 HEAT:  32.78531
 CYCLE:    52 TIME:   0.027 TIME LEFT:  2.00D  GRAD.:     0.248 HEAT:  32.78516
 CYCLE:    53 TIME:   0.031 TIME LEFT:  2.00D  GRAD.:     0.242 HEAT:  32.78501
 CYCLE:    54 TIME:   0.027 TIME LEFT:  2.00D  GRAD.:     0.204 HEAT:  32.78488
 CYCLE:    55 TIME:   0.027 TIME LEFT:  2.00D  GRAD.:     0.166 HEAT:  32.78477
 CYCLE:    56 TIME:   0.031 TIME LEFT:  2.00D  GRAD.:     0.198 HEAT:  32.78466
 CYCLE:    57 TIME:   0.023 TIME LEFT:  2.00D  GRAD.:     0.255 HEAT:  32.78452
 CYCLE:    58 TIME:   0.031 TIME LEFT:  2.00D  GRAD.:     0.299 HEAT:  32.78434
 CYCLE:    59 TIME:   0.027 TIME LEFT:  2.00D  GRAD.:     0.301 HEAT:  32.78412
 CYCLE:    60 TIME:   0.031 TIME LEFT:  2.00D  GRAD.:     0.281 HEAT:  32.78395
 CYCLE:    61 TIME:   0.027 TIME LEFT:  2.00D  GRAD.:     0.335 HEAT:  32.78364
 CYCLE:    62 TIME:   0.027 TIME LEFT:  2.00D  GRAD.:     0.264 HEAT:  32.78350
 CYCLE:    63 TIME:   0.027 TIME LEFT:  2.00D  GRAD.:     0.271 HEAT:  32.78328
 CYCLE:    64 TIME:   0.031 TIME LEFT:  2.00D  GRAD.:     0.193 HEAT:  32.78319
 CYCLE:    65 TIME:   0.027 TIME LEFT:  2.00D  GRAD.:     0.154 HEAT:  32.78307
 CYCLE:    66 TIME:   0.027 TIME LEFT:  2.00D  GRAD.:     0.152 HEAT:  32.78299
 CYCLE:    67 TIME:   0.031 TIME LEFT:  2.00D  GRAD.:     0.126 HEAT:  32.78290
 CYCLE:    68 TIME:   0.027 TIME LEFT:  2.00D  GRAD.:     0.102 HEAT:  32.78288
 CYCLE:    69 TIME:   0.031 TIME LEFT:  2.00D  GRAD.:     0.135 HEAT:  32.78288
 CYCLE:    70 TIME:   0.027 TIME LEFT:  2.00D  GRAD.:     0.075 HEAT:  32.78284
 CYCLE:    71 TIME:   0.027 TIME LEFT:  2.00D  GRAD.:     0.056 HEAT:  32.78283
 CYCLE:    72 TIME:   0.027 TIME LEFT:  2.00D  GRAD.:     0.071 HEAT:  32.78281
 CYCLE:    73 TIME:   0.031 TIME LEFT:  2.00D  GRAD.:     0.055 HEAT:  32.78281
 CYCLE:    74 TIME:   0.027 TIME LEFT:  2.00D  GRAD.:     0.061 HEAT:  32.78279
 CYCLE:    75 TIME:   0.027 TIME LEFT:  2.00D  GRAD.:     0.072 HEAT:  32.78277
 CYCLE:    76 TIME:   0.027 TIME LEFT:  2.00D  GRAD.:     0.083 HEAT:  32.78274
 CYCLE:    77 TIME:   0.031 TIME LEFT:  2.00D  GRAD.:     0.082 HEAT:  32.78271
 CYCLE:    78 TIME:   0.027 TIME LEFT:  2.00D  GRAD.:     0.064 HEAT:  32.78269
 CYCLE:    79 TIME:   0.027 TIME LEFT:  2.00D  GRAD.:     0.051 HEAT:  32.78267
 CYCLE:    80 TIME:   0.031 TIME LEFT:  2.00D  GRAD.:     0.066 HEAT:  32.78267
 CYCLE:    81 TIME:   0.027 TIME LEFT:  2.00D  GRAD.:     0.037 HEAT:  32.78266

     GRADIENT =  0.03726  IS LESS THAN CUTOFF =  0.05000



 -------------------------------------------------------------------------------
 pm3  precise nosym THREADS=1
 InChI=1S/C9H12/c1-7-6-8-4-2-3-5-9(7)8/h2-3,5,7-8H,4,6H2,1H3



     GEOMETRY OPTIMISED USING EIGENVECTOR FOLLOWING (EF).     
     SCF FIELD WAS ACHIEVED                                   


                              PM3 CALCULATION
                                                       MOPAC2016 (Version: 18.184L)
                                                       Thu Jun 13 15:47:49 2019
                                                       No. of days remaining =  20




          FINAL HEAT OF FORMATION =         32.78266 KCAL/MOL =     137.16265 KJ/MOL


          TOTAL ENERGY            =      -1250.33429 EV
          ELECTRONIC ENERGY       =      -6681.04774 EV  POINT GROUP:     C1  
          CORE-CORE REPULSION     =       5430.71344 EV
          COSMO AREA              =        166.27 SQUARE ANGSTROMS
          COSMO VOLUME            =        168.62 CUBIC ANGSTROMS

          GRADIENT NORM           =          0.03726 = 0.00813 PER ATOM
          IONIZATION POTENTIAL    =          8.906766 EV
          HOMO LUMO ENERGIES (EV) =         -8.907  0.300
          NO. OF FILLED LEVELS    =         24
          MOLECULAR WEIGHT        =        120.1938

          MOLECULAR DIMENSIONS (Angstroms)

            Atom       Atom       Distance
            H    19    H    17     6.87601
            H    21    H    13     4.86078
            H    14    H    10     3.10110


          SCF CALCULATIONS        =         91
 
          WALL-CLOCK TIME         =          2.437 SECONDS
          COMPUTATION TIME        =          1.139 SECONDS




   ATOM   CHEMICAL          X               Y               Z
  NUMBER   SYMBOL      (ANGSTROMS)     (ANGSTROMS)     (ANGSTROMS)
 
     1       C         -0.41903197  *  -0.65911492  *  -0.85984906  *
     2       C          1.50633013  *   0.35073329  *  -0.57259506  *
     3       C          1.05888610  *  -1.13244511  *  -0.81578586  *
     4       C         -1.47066202  *  -1.22928031  *   0.06833660  *
     5       C          2.39917915  *   0.57372678  *   0.61848827  *
     6       C          0.05341282  *   0.69341204  *  -0.37283414  *
     7       C         -2.43023290  *  -0.15079913  *   0.47029790  *
     8       C         -0.71533000  *   1.56822748  *   0.27196802  *
     9       C         -2.08781421  *   1.14622271  *   0.53643389  *
    10       H          1.94100357  *   0.82134231  *  -1.48019772  *
    11       H         -0.80884125  *  -0.62232433  *  -1.90074430  *
    12       H          1.29693367  *  -1.81498200  *   0.01421458  *
    13       H          1.43067345  *  -1.58565172  *  -1.74441763  *
    14       H         -1.01469828  *  -1.66236691  *   0.98183166  *
    15       H         -2.01198339  *  -2.05993521  *  -0.42288350  *
    16       H          1.99912992  *   0.10216753  *   1.52600554  *
    17       H          3.39819629  *   0.15505625  *   0.44228754  *
    18       H          2.51660253  *   1.64447425  *   0.82913693  *
    19       H         -3.44270762  *  -0.47582428  *   0.73140435  *
    20       H         -2.80858052  *   1.91492180  *   0.83133892  *
    21       H         -0.35833421  *   2.52213602  *   0.66718669  *

                             CARTESIAN COORDINATES

   1    C       -0.419031972    -0.659114922    -0.859849060
   2    C        1.506330129     0.350733295    -0.572595060
   3    C        1.058886102    -1.132445113    -0.815785858
   4    C       -1.470662020    -1.229280311     0.068336599
   5    C        2.399179148     0.573726777     0.618488267
   6    C        0.053412824     0.693412044    -0.372834140
   7    C       -2.430232895    -0.150799129     0.470297901
   8    C       -0.715329998     1.568227477     0.271968020
   9    C       -2.087814214     1.146222711     0.536433893
  10    H        1.941003572     0.821342310    -1.480197722
  11    H       -0.808841246    -0.622324328    -1.900744296
  12    H        1.296933673    -1.814981997     0.014214579
  13    H        1.430673452    -1.585651716    -1.744417633
  14    H       -1.014698284    -1.662366907     0.981831657
  15    H       -2.011983386    -2.059935212    -0.422883500
  16    H        1.999129921     0.102167530     1.526005545
  17    H        3.398196293     0.155056248     0.442287535
  18    H        2.516602525     1.644474248     0.829136928
  19    H       -3.442707617    -0.475824276     0.731404352
  20    H       -2.808580524     1.914921804     0.831338918
  21    H       -0.358334215     2.522136022     0.667186690


           Empirical Formula: C9 H12  =    21 atoms



      MOLECULAR POINT GROUP   :   C1  


                  EIGENVALUES  
 -41.85817 -35.04125 -30.83887 -28.54739 -25.28625 -22.25094 -21.00079 -19.02441
 -17.71527 -17.32872 -16.06624 -15.19390 -14.91015 -14.40278 -13.98146 -13.61064
 -13.19529 -12.63365 -12.44456 -12.12197 -11.75473 -11.31084 -10.90297  -8.90677
   0.29950   2.00430   2.98081   3.24358   3.36700   3.52714   3.69180   3.82543
   3.88199   3.90590   3.95039   4.13777   4.22398   4.37668   4.44939   4.59754
   4.72689   4.80510   4.88416   5.18419   5.21906   5.72404   5.96381   6.34241


              NET ATOMIC CHARGES AND DIPOLE CONTRIBUTIONS

  ATOM NO.   TYPE          CHARGE      No. of ELECS.   s-Pop       p-Pop       
    1          C          -0.070612        4.0706     1.18137     2.88924
    2          C          -0.026610        4.0266     1.17446     2.85215
    3          C          -0.099978        4.1000     1.17991     2.92007
    4          C          -0.045124        4.0451     1.14400     2.90113
    5          C          -0.102511        4.1025     1.13571     2.96680
    6          C          -0.140857        4.1409     1.22130     2.91956
    7          C          -0.140350        4.1403     1.19920     2.94115
    8          C          -0.090905        4.0909     1.16881     2.92210
    9          C          -0.107976        4.1080     1.18079     2.92718
   10          H           0.075776        0.9242     0.92422
   11          H           0.080227        0.9198     0.91977
   12          H           0.063262        0.9367     0.93674
   13          H           0.056037        0.9440     0.94396
   14          H           0.059415        0.9406     0.94059
   15          H           0.054542        0.9455     0.94546
   16          H           0.044400        0.9556     0.95560
   17          H           0.040558        0.9594     0.95944
   18          H           0.042419        0.9576     0.95758
   19          H           0.097216        0.9028     0.90278
   20          H           0.100704        0.8993     0.89930
   21          H           0.110367        0.8896     0.88963
 DIPOLE           X         Y         Z       TOTAL
 POINT-CHG.     0.378    -0.445     0.086     0.591
 HYBRID        -0.078     0.030     0.057     0.102
 SUM            0.300    -0.415     0.144     0.532


          ATOMIC ORBITAL ELECTRON POPULATIONS

     Atom    s        px        py        pz   
    1  C   1.18137   0.94290   0.95209   0.99425
    2  C   1.17446   0.91765   0.95087   0.98362
    3  C   1.17991   0.94985   0.95395   1.01627
    4  C   1.14400   0.95654   0.95843   0.98615
    5  C   1.13571   0.98440   1.01038   0.97201
    6  C   1.22130   0.96359   0.95646   0.99950
    7  C   1.19920   0.98485   0.95365   1.00265
    8  C   1.16881   0.94422   0.98520   0.99267
    9  C   1.18079   0.95657   0.95962   1.01099
   10  H   0.92422
   11  H   0.91977
   12  H   0.93674
   13  H   0.94396
   14  H   0.94059
   15  H   0.94546
   16  H   0.95560
   17  H   0.95944
   18  H   0.95758
   19  H   0.90278
   20  H   0.89930
   21  H   0.88963
 *******************************************************************************
 ** Site#: 14399        For non-commercial use only    Version 18.184L 64BITS **
 *******************************************************************************
 ** Cite this program as: MOPAC2016, Version: 18.184L, James J. P. Stewart,   **
 ** Stewart Computational Chemistry, web: HTTP://OpenMOPAC.net. Days left:  20**
 *******************************************************************************
 **                                                                           **
 **                                MOPAC2016                                  **
 **                                                                           **
 *******************************************************************************

                              PM3 CALCULATION RESULTS

 *******************************************************************************
 *  CALCULATION DONE:                                Thu Jun 13 15:47:49 2019  *
 *  PM3        - The PM3 Hamiltonian to be used
 *  OLDGEO     - PREVIOUS GEOMETRY TO BE USED
 *  PRECISE    - CRITERIA TO BE INCREASED BY 100 TIMES
 *  NOSYM      - POINT-GROUP SYMMETRY SET TO C1
 *  THREADS=1  - MULTI-THREADING NOT USED
 *  T=         - A TIME OF 172800.0 SECONDS REQUESTED
 *  DUMP=N     - RESTART FILE WRITTEN EVERY  7200.000 SECONDS
 *  THERMO     - THERMODYNAMIC QUANTITIES TO BE CALCULATED
 *******************************************************************************
oldgeo thermo nosym precise THREADS=1  pm3
 InChI=1S/C9H12/c1-7-6-8-4-2-3-5-9(7)8/h2-3,5,7-8H,4,6H2,1H3

   ATOM   CHEMICAL          X               Y               Z
  NUMBER   SYMBOL      (ANGSTROMS)     (ANGSTROMS)     (ANGSTROMS)
 
     1       C         -0.41903197  *  -0.65911492  *  -0.85984906  *
     2       C          1.50633013  *   0.35073329  *  -0.57259506  *
     3       C          1.05888610  *  -1.13244511  *  -0.81578586  *
     4       C         -1.47066202  *  -1.22928031  *   0.06833660  *
     5       C          2.39917915  *   0.57372678  *   0.61848827  *
     6       C          0.05341282  *   0.69341204  *  -0.37283414  *
     7       C         -2.43023290  *  -0.15079913  *   0.47029790  *
     8       C         -0.71533000  *   1.56822748  *   0.27196802  *
     9       C         -2.08781421  *   1.14622271  *   0.53643389  *
    10       H          1.94100357  *   0.82134231  *  -1.48019772  *
    11       H         -0.80884125  *  -0.62232433  *  -1.90074430  *
    12       H          1.29693367  *  -1.81498200  *   0.01421458  *
    13       H          1.43067345  *  -1.58565172  *  -1.74441763  *
    14       H         -1.01469828  *  -1.66236691  *   0.98183166  *
    15       H         -2.01198339  *  -2.05993521  *  -0.42288350  *
    16       H          1.99912992  *   0.10216753  *   1.52600554  *
    17       H          3.39819629  *   0.15505625  *   0.44228754  *
    18       H          2.51660253  *   1.64447425  *   0.82913693  *
    19       H         -3.44270762  *  -0.47582428  *   0.73140435  *
    20       H         -2.80858052  *   1.91492180  *   0.83133892  *
    21       H         -0.35833421  *   2.52213602  *   0.66718669  *
 


          CARTESIAN COORDINATES 

    NO.       ATOM           X           Y           Z

     1         C         -0.4190     -0.6591     -0.8598
     2         C          1.5063      0.3507     -0.5726
     3         C          1.0589     -1.1324     -0.8158
     4         C         -1.4707     -1.2293      0.0683
     5         C          2.3992      0.5737      0.6185
     6         C          0.0534      0.6934     -0.3728
     7         C         -2.4302     -0.1508      0.4703
     8         C         -0.7153      1.5682      0.2720
     9         C         -2.0878      1.1462      0.5364
    10         H          1.9410      0.8213     -1.4802
    11         H         -0.8088     -0.6223     -1.9007
    12         H          1.2969     -1.8150      0.0142
    13         H          1.4307     -1.5857     -1.7444
    14         H         -1.0147     -1.6624      0.9818
    15         H         -2.0120     -2.0599     -0.4229
    16         H          1.9991      0.1022      1.5260
    17         H          3.3982      0.1551      0.4423
    18         H          2.5166      1.6445      0.8291
    19         H         -3.4427     -0.4758      0.7314
    20         H         -2.8086      1.9149      0.8313
    21         H         -0.3583      2.5221      0.6672

  H: (PM3): J. J. P. STEWART, J. COMP. CHEM. 10, 209 (1989).
  C: (PM3): J. J. P. STEWART, J. COMP. CHEM. 10, 209 (1989).

           Empirical Formula: C9 H12  =    21 atoms



      MOLECULAR POINT GROUP   :   C1  


      RHF CALCULATION, NO. OF DOUBLY OCCUPIED LEVELS = 24



          HEAT OF FORMATION =      32.782661 KCALS/MOLE


          CARTESIAN COORDINATE DERIVATIVES

   NUMBER  ATOM         X            Y            Z

     1       C     -0.002193     0.002821    -0.003019
     2       C     -0.004238     0.000601    -0.005410
     3       C      0.000288    -0.002699    -0.003639
     4       C     -0.006811    -0.004809     0.004144
     5       C     -0.001356    -0.000171    -0.001678
     6       C      0.006687    -0.003554     0.000947
     7       C     -0.004000     0.003487     0.001888
     8       C     -0.000729     0.003531    -0.004924
     9       C      0.009519     0.004511     0.008506
    10       H      0.005450     0.000895    -0.000934
    11       H     -0.001059     0.007639    -0.000490
    12       H      0.004525     0.005942    -0.004798
    13       H     -0.008645    -0.009764    -0.000745
    14       H      0.008961    -0.004814     0.002495
    15       H      0.000025    -0.006587     0.003601
    16       H     -0.002397    -0.001683     0.000090
    17       H     -0.010317    -0.012375     0.007384
    18       H      0.005624     0.007372     0.001542
    19       H      0.000715     0.005453    -0.001569
    20       H     -0.003017     0.006511    -0.001857
    21       H      0.002967    -0.002309    -0.001535
 


          GRADIENT NORM =   0.03891


          TIME FOR SCF CALCULATION =    0.03

          TIME FOR DERIVATIVES     =    0.01

          MOLECULAR WEIGHT =  120.19



          ROTATIONAL CONSTANTS IN CM(-1)

          A =    0.10164540   B =    0.04765379   C =    0.03688486



           PRINCIPAL MOMENTS OF INERTIA IN UNITS OF 10**(-40)*GRAM-CM**2

          A =      275.3964   B =      587.4196   C =      758.9231


          ORIENTATION OF MOLECULE IN FORCE CALCULATION

    NO.       ATOM         X         Y         Z

     1          C      -0.6563    0.6351    0.6646
     2          C       1.5367    0.6351    0.6646
     3          C       0.4290    1.7451    0.6646
     4          C      -1.7206    0.5555   -0.4095
     5          C       2.5793    0.7566   -0.4142
     6          C       0.4451   -0.3702    0.4074
     7          C      -2.0138   -0.8793   -0.7270
     8          C       0.2575   -1.5577   -0.1642
     9          C      -1.1072   -1.8602   -0.5859
    10          H       2.0161    0.5083    1.6587
    11          H      -1.1180    0.5104    1.6686
    12          H       0.4324    2.3827   -0.2326
    13          H       0.4251    2.4003    1.5459
    14          H      -1.4000    1.0701   -1.3381
    15          H      -2.6427    1.0710   -0.0805
    16          H       2.1298    0.9006   -1.4058
    17          H       3.2405    1.6117   -0.2246
    18          H       3.2030   -0.1451   -0.4641
    19          H      -3.0181   -1.0964   -1.1053
    20          H      -1.3474   -2.9011   -0.8233
    21          H       1.0619   -2.2600   -0.3949


    FIRST DERIVATIVES WILL BE USED IN THE CALCULATION OF SECOND DERIVATIVES

          ESTIMATED TIME TO COMPLETE CALCULATION =        9.84 SECONDS

    FOR POINT-GROUP C1   THERE ARE   1 UNIQUE SYMMETRY FUNCTIONS.

 STEP:   1 TIME =     0.06 SECS, INTEGRAL =      0.06 TIME LEFT: 172799.90
 STEP:   2 TIME =     0.05 SECS, INTEGRAL =      0.12 TIME LEFT: 172799.84
 STEP:   3 TIME =     0.04 SECS, INTEGRAL =      0.16 TIME LEFT: 172799.80
 STEP:   4 TIME =     0.04 SECS, INTEGRAL =      0.20 TIME LEFT: 172799.76
 STEP:   5 TIME =     0.04 SECS, INTEGRAL =      0.24 TIME LEFT: 172799.72
 STEP:   6 TIME =     0.04 SECS, INTEGRAL =      0.28 TIME LEFT: 172799.68
 STEP:   7 TIME =     0.04 SECS, INTEGRAL =      0.32 TIME LEFT: 172799.64
 STEP:   8 TIME =     0.04 SECS, INTEGRAL =      0.36 TIME LEFT: 172799.60
 STEP:   9 TIME =     0.04 SECS, INTEGRAL =      0.40 TIME LEFT: 172799.56
 STEP:  10 TIME =     0.04 SECS, INTEGRAL =      0.44 TIME LEFT: 172799.52
 STEP:  11 TIME =     0.04 SECS, INTEGRAL =      0.48 TIME LEFT: 172799.48
 STEP:  12 TIME =     0.04 SECS, INTEGRAL =      0.52 TIME LEFT: 172799.44
 STEP:  13 TIME =     0.04 SECS, INTEGRAL =      0.56 TIME LEFT: 172799.40
 STEP:  14 TIME =     0.04 SECS, INTEGRAL =      0.60 TIME LEFT: 172799.36
 STEP:  15 TIME =     0.04 SECS, INTEGRAL =      0.64 TIME LEFT: 172799.32
 STEP:  16 TIME =     0.04 SECS, INTEGRAL =      0.68 TIME LEFT: 172799.28
 STEP:  17 TIME =     0.04 SECS, INTEGRAL =      0.72 TIME LEFT: 172799.24
 STEP:  18 TIME =     0.04 SECS, INTEGRAL =      0.76 TIME LEFT: 172799.20
 STEP:  19 TIME =     0.04 SECS, INTEGRAL =      0.79 TIME LEFT: 172799.17
 STEP:  20 TIME =     0.04 SECS, INTEGRAL =      0.83 TIME LEFT: 172799.13
 STEP:  21 TIME =     0.05 SECS, INTEGRAL =      0.89 TIME LEFT: 172799.07
 STEP:  22 TIME =     0.05 SECS, INTEGRAL =      0.93 TIME LEFT: 172799.03
 STEP:  23 TIME =     0.04 SECS, INTEGRAL =      0.97 TIME LEFT: 172798.99
 STEP:  24 TIME =     0.04 SECS, INTEGRAL =      1.02 TIME LEFT: 172798.95
 STEP:  25 TIME =     0.04 SECS, INTEGRAL =      1.05 TIME LEFT: 172798.91
 STEP:  26 TIME =     0.04 SECS, INTEGRAL =      1.09 TIME LEFT: 172798.87
 STEP:  27 TIME =     0.04 SECS, INTEGRAL =      1.13 TIME LEFT: 172798.83
 STEP:  28 TIME =     0.04 SECS, INTEGRAL =      1.18 TIME LEFT: 172798.79
 STEP:  29 TIME =     0.04 SECS, INTEGRAL =      1.21 TIME LEFT: 172798.75
 STEP:  30 TIME =     0.04 SECS, INTEGRAL =      1.26 TIME LEFT: 172798.70
 STEP:  31 TIME =     0.05 SECS, INTEGRAL =      1.31 TIME LEFT: 172798.65
 STEP:  32 TIME =     0.05 SECS, INTEGRAL =      1.36 TIME LEFT: 172798.60
 STEP:  33 TIME =     0.04 SECS, INTEGRAL =      1.40 TIME LEFT: 172798.56
 STEP:  34 TIME =     0.04 SECS, INTEGRAL =      1.45 TIME LEFT: 172798.52
 STEP:  35 TIME =     0.04 SECS, INTEGRAL =      1.48 TIME LEFT: 172798.48
 STEP:  36 TIME =     0.04 SECS, INTEGRAL =      1.52 TIME LEFT: 172798.44
 STEP:  37 TIME =     0.04 SECS, INTEGRAL =      1.57 TIME LEFT: 172798.39
 STEP:  38 TIME =     0.04 SECS, INTEGRAL =      1.61 TIME LEFT: 172798.35
 STEP:  39 TIME =     0.04 SECS, INTEGRAL =      1.65 TIME LEFT: 172798.31
 STEP:  40 TIME =     0.04 SECS, INTEGRAL =      1.69 TIME LEFT: 172798.27
 STEP:  41 TIME =     0.04 SECS, INTEGRAL =      1.73 TIME LEFT: 172798.23
 STEP:  42 TIME =     0.04 SECS, INTEGRAL =      1.77 TIME LEFT: 172798.19
 STEP:  43 TIME =     0.04 SECS, INTEGRAL =      1.81 TIME LEFT: 172798.15
 STEP:  44 TIME =     0.04 SECS, INTEGRAL =      1.85 TIME LEFT: 172798.11
 STEP:  45 TIME =     0.04 SECS, INTEGRAL =      1.89 TIME LEFT: 172798.07
 STEP:  46 TIME =     0.04 SECS, INTEGRAL =      1.93 TIME LEFT: 172798.04
 STEP:  47 TIME =     0.04 SECS, INTEGRAL =      1.97 TIME LEFT: 172797.99
 STEP:  48 TIME =     0.04 SECS, INTEGRAL =      2.01 TIME LEFT: 172797.95
 STEP:  49 TIME =     0.04 SECS, INTEGRAL =      2.05 TIME LEFT: 172797.91
 STEP:  50 TIME =     0.04 SECS, INTEGRAL =      2.09 TIME LEFT: 172797.88
 STEP:  51 TIME =     0.04 SECS, INTEGRAL =      2.12 TIME LEFT: 172797.84
 STEP:  52 TIME =     0.04 SECS, INTEGRAL =      2.16 TIME LEFT: 172797.80
 STEP:  53 TIME =     0.04 SECS, INTEGRAL =      2.20 TIME LEFT: 172797.76
 STEP:  54 TIME =     0.04 SECS, INTEGRAL =      2.24 TIME LEFT: 172797.72
 STEP:  55 TIME =     0.04 SECS, INTEGRAL =      2.28 TIME LEFT: 172797.68
 STEP:  56 TIME =     0.04 SECS, INTEGRAL =      2.32 TIME LEFT: 172797.64
 STEP:  57 TIME =     0.04 SECS, INTEGRAL =      2.36 TIME LEFT: 172797.60
 STEP:  58 TIME =     0.04 SECS, INTEGRAL =      2.41 TIME LEFT: 172797.55
 STEP:  59 TIME =     0.04 SECS, INTEGRAL =      2.45 TIME LEFT: 172797.52
 STEP:  60 TIME =     0.04 SECS, INTEGRAL =      2.48 TIME LEFT: 172797.48
 STEP:  61 TIME =     0.05 SECS, INTEGRAL =      2.53 TIME LEFT: 172797.43
 STEP:  62 TIME =     0.04 SECS, INTEGRAL =      2.57 TIME LEFT: 172797.39
 STEP:  63 TIME =     0.04 SECS, INTEGRAL =      2.61 TIME LEFT: 172797.35

(To convert to Hartree/Bohr^2, multiply by (10^(-21) x N x a0^2)/(4.184 x 627.51) =  0.0642)


           FORCE MATRIX IN MILLIDYNES/ANGSTROM


                  C  1       C  2       C  3       C  4       C  5       C  6
 ------------------------------------------------------------------------------
     C    1  14.817513
     C    2   1.843243  14.675230
     C    3   3.325559   2.956277  14.025031
     C    4   4.328754   0.046738   0.429875  14.619790
     C    5   0.045183   4.612452   0.517216   0.007916  14.507233
     C    6   4.167130   4.326367   2.014981   0.671839   0.595006  19.497791
     C    7   0.725837   0.012344   0.045343   4.602104   0.002691   0.166829
     C    8   0.711751   0.464677   0.045227   0.109353   0.021341  10.530036
     C    9   0.131736   0.135720   0.007435   0.796558   0.016727   1.267998
     H   10   0.031292   4.399555   0.427961   0.002147   0.427304   0.420182
     H   11   4.370267   0.030576   0.430723   0.427543   0.001780   0.425418
     H   12   0.453017   0.451121   4.681678   0.015445   0.022694   0.031422
     H   13   0.435849   0.431067   4.759891   0.028800   0.029197   0.038872
     H   14   0.453833   0.005099   0.018864   4.406136   0.000899   0.016862
     H   15   0.440427   0.008327   0.008813   4.500835   0.001546   0.045470
     H   16   0.002722   0.467082   0.020046   0.000944   4.731024   0.014690
     H   17   0.005855   0.451048   0.010308   0.001376   4.748418   0.049644
     H   18   0.002906   0.454823   0.046165   0.001197   4.747442   0.014074
     H   19   0.044503   0.007816   0.006717   0.426191   0.001389   0.015232
     H   20   0.006593   0.008613   0.000920   0.117648   0.000917   0.048441
     H   21   0.117013   0.065645   0.007635   0.012323   0.009787   0.464419


                  C  7       C  8       C  9       H 10       H 11       H 12
 ------------------------------------------------------------------------------
     C    7  17.675318
     C    8   1.071323  18.398204
     C    9  10.104586   5.366524  18.093351
     H   10   0.001956   0.022821   0.016670   4.897884
     H   11   0.012807   0.022656   0.016262   0.003280   4.858307
     H   12   0.003040   0.002705   0.001299   0.034133   0.034391   5.303104
     H   13   0.005285   0.004660   0.001850   0.023962   0.028029   0.534454
     H   14   0.413302   0.018828   0.031966   0.000386   0.041686   0.021831
     H   15   0.440650   0.009785   0.047084   0.000511   0.035066   0.001169
     H   16   0.000597   0.002930   0.000774   0.044129   0.000517   0.020188
     H   17   0.000581   0.002650   0.003185   0.029078   0.000544   0.003390
     H   18   0.000639   0.002813   0.001056   0.027978   0.000502   0.003136
     H   19   4.850124   0.119887   0.440853   0.000683   0.003198   0.000552
     H   20   0.443235   0.430831   4.869470   0.001371   0.000722   0.000321
     H   21   0.044699   4.921020   0.434143   0.008673   0.015261   0.000455


                  H 13       H 14       H 15       H 16       H 17       H 18
 ------------------------------------------------------------------------------
     H   13   5.370384
     H   14   0.001856   5.010523
     H   15   0.000734   0.567713   5.092958
     H   16   0.001415   0.001504   0.000173   5.463284
     H   17   0.001711   0.000154   0.000341   0.570150   5.471872
     H   18   0.005121   0.000188   0.000109   0.573287   0.563540   5.472069
     H   19   0.001208   0.014201   0.035221   0.000270   0.000360   0.000289
     H   20   0.000315   0.016273   0.011816   0.000270   0.000250   0.000261
     H   21   0.001150   0.000846   0.001542   0.000692   0.002000   0.005070


                  H 19       H 20       H 21
 ------------------------------------------
     H   19   5.221766
     H   20   0.065630   5.240143
     H   21   0.008277   0.024557   5.298776


          HEAT OF FORMATION =      32.782661 KCALS/MOLE

          ZERO POINT ENERGY     115.576 KCAL/MOL


           NORMAL COORDINATE ANALYSIS (Total motion = 1 Angstrom)


   Root No.       1         2         3         4         5         6         7         8

                 1 A       2 A       3 A       4 A       5 A       6 A       7 A       8 A   

                 116.4     155.5     165.5     248.7     351.6     398.2     453.4     459.6
  
           1    0.0008    0.0038   -0.0041    0.0095   -0.0020    0.0072    0.0146   -0.0047
           2    0.0026   -0.0057    0.0051   -0.0079    0.0191    0.0295   -0.0230    0.0157
           3   -0.0039   -0.0179    0.0051   -0.0045   -0.0316   -0.0279   -0.0353    0.0137
           4   -0.0012    0.0027   -0.0031    0.0074    0.0042    0.0073    0.0018    0.0036
           5    0.0043   -0.0041    0.0071   -0.0070    0.0032   -0.0295    0.0030   -0.0195
           6   -0.0014   -0.0045   -0.0002   -0.0135   -0.0063    0.0308    0.0382    0.0065
           7   -0.0008    0.0013   -0.0039    0.0066    0.0111    0.0414   -0.0119    0.0248
           8    0.0053   -0.0054    0.0069   -0.0085    0.0142    0.0006   -0.0107   -0.0021
           9   -0.0399    0.0124   -0.0071   -0.0150    0.0455   -0.0085   -0.0135   -0.0041
          10   -0.0327    0.0130   -0.0083   -0.0157   -0.0336   -0.0146   -0.0137   -0.0019
          11   -0.0088   -0.0005   -0.0036    0.0031   -0.0028   -0.0045    0.0215   -0.0107
          12    0.0310   -0.0269    0.0095    0.0208   -0.0029   -0.0055   -0.0043    0.0013
          13    0.0424    0.0211   -0.0060    0.0171    0.0113   -0.0274   -0.0337   -0.0052
          14   -0.0109    0.0364   -0.0196    0.0427   -0.0227    0.0191   -0.0056    0.0073
          15    0.0406    0.0186   -0.0065    0.0010   -0.0035    0.0041    0.0098    0.0016
          16    0.0008    0.0059   -0.0035    0.0056   -0.0027   -0.0125    0.0306   -0.0159
          17    0.0055   -0.0020    0.0058   -0.0117    0.0252   -0.0020   -0.0134    0.0045
          18   -0.0158   -0.0297    0.0102   -0.0060   -0.0384    0.0106   -0.0145    0.0146
          19   -0.0165   -0.0199    0.0095    0.0060    0.0037   -0.0096    0.0066    0.0131
          20   -0.0091   -0.0064   -0.0034    0.0126   -0.0136   -0.0151    0.0216   -0.0088
          21    0.0201    0.0262   -0.0080   -0.0347   -0.0071    0.0240   -0.0004   -0.0365
          22    0.0031   -0.0085    0.0069   -0.0203    0.0037   -0.0017    0.0262   -0.0039
          23    0.0114   -0.0063    0.0054   -0.0320    0.0024   -0.0013   -0.0109    0.0263
          24   -0.0284   -0.0161    0.0080    0.0444    0.0102    0.0052   -0.0159   -0.0305
          25    0.0005   -0.0230    0.0137   -0.0151    0.0069    0.0114    0.0026   -0.0123
          26    0.0022   -0.0093    0.0006   -0.0015   -0.0081   -0.0032    0.0212   -0.0199
          27   -0.0127    0.0282   -0.0077    0.0037    0.0139   -0.0295    0.0297    0.0379
          28   -0.0370   -0.0105   -0.0005    0.0039    0.0049    0.0124   -0.0062    0.0054
          29    0.0124   -0.0308    0.0142   -0.0123   -0.0352   -0.0484    0.0201   -0.0359
          30    0.0175   -0.0011   -0.0006   -0.0122   -0.0110    0.0241    0.0423    0.0034
          31    0.0304   -0.0053    0.0002    0.0278    0.0021    0.0046    0.0248   -0.0101
          32    0.0115   -0.0242    0.0130   -0.0102   -0.0135    0.0651   -0.0544    0.0548
          33    0.0112   -0.0242    0.0079    0.0043   -0.0318   -0.0234   -0.0329    0.0150
          34   -0.0002    0.0057   -0.0087    0.0025    0.0307    0.0933    0.0113    0.0382
          35   -0.0282    0.0145    0.0003   -0.0150    0.0814   -0.0086   -0.0317   -0.0186
          36   -0.0638    0.0266   -0.0119   -0.0201    0.0958   -0.0155   -0.0297   -0.0163
          37   -0.0018   -0.0052   -0.0023    0.0100    0.0041    0.0333   -0.0601    0.0427
          38    0.0377   -0.0247    0.0137   -0.0007   -0.0558    0.0113    0.0118    0.0142
          39   -0.0642    0.0268   -0.0122   -0.0208    0.0987   -0.0167   -0.0311   -0.0167
          40   -0.0760    0.0422   -0.0225   -0.0624   -0.0959   -0.0434   -0.0705   -0.0225
          41    0.0101   -0.0442    0.0126    0.0576    0.0300   -0.0246    0.0658    0.0337
          42    0.0266   -0.0409    0.0136    0.0352   -0.0046   -0.0262    0.0019    0.0198
          43   -0.0325    0.0261   -0.0153   -0.0224   -0.0460   -0.0125   -0.0089   -0.0237
          44   -0.0323    0.0410   -0.0229   -0.0417   -0.0535   -0.0062   -0.0089   -0.0597
          45    0.0691   -0.0563    0.0205    0.0744    0.0445    0.0036    0.0609    0.0190
          46    0.0846    0.0413   -0.0023    0.0281    0.0180   -0.0690   -0.0792   -0.0160
          47   -0.0234    0.1306    0.1920    0.0754   -0.0487    0.0434   -0.0110    0.0203
          48    0.0200    0.0232    0.0222    0.0008   -0.0099    0.0255    0.0285    0.0080
          49    0.0357    0.0517    0.1466   -0.0006    0.0172   -0.0488   -0.0190   -0.0218
          50   -0.0094   -0.0037   -0.1599    0.0476   -0.0233    0.0342   -0.0097    0.0176
          51    0.0575    0.0938    0.0933    0.0438   -0.0239    0.0117   -0.0278    0.0148
          52    0.0436   -0.0127   -0.1633    0.0347    0.0045   -0.0020   -0.0464    0.0128
          53   -0.0123    0.0165   -0.1211    0.0569   -0.0298    0.0412   -0.0130    0.0217
          54    0.0793   -0.0418   -0.1424   -0.0270    0.0269   -0.0549   -0.0124   -0.0237
          55   -0.0209   -0.0344    0.0156    0.0278    0.0132   -0.0216    0.0058    0.0292
          56   -0.0193   -0.0071   -0.0072    0.0282   -0.0301   -0.0293    0.0058   -0.0006
          57    0.0375    0.0660   -0.0223   -0.1032   -0.0239    0.0635    0.0102   -0.0842
          58    0.0105   -0.0377    0.0228   -0.0240    0.0129    0.0300   -0.0302   -0.0218
          59    0.0027   -0.0150    0.0016    0.0054   -0.0125    0.0024    0.0152   -0.0383
          60   -0.0251    0.0685   -0.0212   -0.0189    0.0266   -0.0736    0.0884    0.1304
          61    0.0060   -0.0179    0.0144   -0.0379    0.0049    0.0059    0.0034    0.0151
          62    0.0194   -0.0137    0.0121   -0.0673   -0.0100   -0.0047   -0.0339    0.0780
          63   -0.0427   -0.0256    0.0129    0.0902    0.0528    0.0418   -0.0236   -0.1224


   Root No.       9        10        11        12        13        14        15        16

                 9 A      10 A      11 A      12 A      13 A      14 A      15 A      16 A   

                 518.0     556.6     684.4     759.5     790.9     859.2     892.5     918.1
  
           1   -0.0268   -0.0303    0.0187   -0.0072    0.0117    0.0167   -0.0010   -0.0036
           2    0.0176   -0.0155    0.0098   -0.0015   -0.0018   -0.0062    0.0121   -0.0104
           3    0.0138   -0.0134   -0.0233    0.0142    0.0058   -0.0149   -0.0065   -0.0020
           4   -0.0399    0.0197   -0.0146    0.0122   -0.0265   -0.0019    0.0106   -0.0084
           5   -0.0380   -0.0178    0.0172    0.0028   -0.0050   -0.0300   -0.0113    0.0133
           6   -0.0349   -0.0149   -0.0145    0.0092   -0.0227   -0.0087    0.0091   -0.0083
           7   -0.0072   -0.0071   -0.0035   -0.0044    0.0175   -0.0283   -0.0225    0.0206
           8   -0.0104   -0.0404    0.0186   -0.0062    0.0187    0.0024    0.0033   -0.0321
           9   -0.0093    0.0015    0.0001    0.0058   -0.0068   -0.0114   -0.0147   -0.0056
          10   -0.0019   -0.0393    0.0117    0.0087    0.0042    0.0381   -0.0082    0.0125
          11    0.0460    0.0125    0.0082    0.0049   -0.0255   -0.0128   -0.0012    0.0016
          12    0.0033   -0.0260   -0.0049   -0.0091    0.0097   -0.0026    0.0217   -0.0073
          13   -0.0092    0.0329   -0.0001    0.0105   -0.0213   -0.0057    0.0144   -0.0206
          14   -0.0013    0.0044    0.0039    0.0019   -0.0042   -0.0178   -0.0083    0.0108
          15    0.0062   -0.0185    0.0015   -0.0056    0.0089    0.0007   -0.0024    0.0029
          16   -0.0431    0.0002   -0.0013   -0.0051    0.0027   -0.0011   -0.0022   -0.0022
          17   -0.0064   -0.0082   -0.0359    0.0104   -0.0113    0.0199   -0.0049    0.0041
          18   -0.0298    0.0561    0.0431   -0.0019    0.0051    0.0020    0.0079    0.0098
          19    0.0591   -0.0174    0.0162    0.0121   -0.0330   -0.0015    0.0083    0.0024
          20    0.0245    0.0062    0.0043   -0.0009   -0.0033    0.0007    0.0035   -0.0012
          21    0.0305    0.0014    0.0085   -0.0191   -0.0292    0.0050    0.0075    0.0189
          22    0.0327    0.0208   -0.0079   -0.0136    0.0271   -0.0137    0.0023   -0.0049
          23   -0.0289    0.0167   -0.0196    0.0096   -0.0090    0.0325    0.0055    0.0293
          24   -0.0027    0.0112   -0.0097   -0.0008   -0.0010    0.0119   -0.0247   -0.0312
          25    0.0333    0.0180   -0.0100    0.0001    0.0129    0.0016    0.0008   -0.0031
          26   -0.0066    0.0394   -0.0222   -0.0120    0.0440    0.0082   -0.0061   -0.0068
          27    0.0126    0.0092   -0.0127   -0.0304   -0.0029    0.0072   -0.0087    0.0073
          28   -0.0608    0.0532   -0.0011    0.0202   -0.0343   -0.0200    0.0038    0.0295
          29   -0.0856    0.0067    0.0696    0.0051   -0.0119   -0.0638    0.0328    0.0560
          30   -0.0293   -0.0273   -0.0131    0.0047   -0.0177   -0.0048    0.0166   -0.0190
          31   -0.0238   -0.0736   -0.0070   -0.0110    0.0396    0.0154    0.0124   -0.0281
          32    0.0167    0.0064    0.0560   -0.0183    0.0263   -0.0463    0.0578   -0.0102
          33    0.0141   -0.0306   -0.0279    0.0101    0.0218   -0.0184    0.0067   -0.0133
          34   -0.0150   -0.0096   -0.0018   -0.0166    0.0104   -0.0373   -0.0007    0.0120
          35   -0.0153   -0.0169    0.0915   -0.0465    0.0669    0.0271    0.0693   -0.0225
          36   -0.0137    0.0196    0.0543   -0.0244    0.0294    0.0082    0.0356    0.0013
          37    0.0401   -0.0061   -0.0158   -0.0039    0.0622   -0.0564   -0.0710    0.0565
          38   -0.0055   -0.0695   -0.0450    0.0314   -0.0244   -0.0324   -0.0598   -0.0497
          39   -0.0133    0.0235    0.0515   -0.0239    0.0277    0.0135    0.0350    0.0079
          40    0.0055   -0.0528   -0.0702   -0.0211    0.0381   -0.0424    0.0463   -0.0341
          41    0.0569    0.0154    0.0575    0.0794   -0.0330    0.0374   -0.0546    0.0248
          42    0.0119   -0.0282   -0.0038    0.0240    0.0172   -0.0006    0.0088   -0.0094
          43   -0.0225   -0.0385    0.0070   -0.0148    0.0177    0.0533   -0.0031    0.0135
          44    0.0231    0.0107   -0.0426   -0.0581   -0.0002   -0.0490    0.0430   -0.0227
          45   -0.0178   -0.0189    0.0689    0.0279    0.0032    0.1001   -0.0364    0.0372
          46    0.0367    0.0497    0.0363   -0.0072    0.0322    0.0005   -0.0381    0.0617
          47    0.0190    0.0205    0.0016   -0.0028    0.0104    0.0259    0.0137   -0.0078
          48   -0.0110   -0.0230   -0.0142    0.0013   -0.0120    0.0044    0.0234   -0.0350
          49   -0.0441    0.0156    0.0064    0.0186   -0.0443   -0.0690   -0.0107    0.0037
          50    0.0124    0.0126   -0.0039    0.0000    0.0008    0.0159    0.0130   -0.0140
          51    0.0697    0.0108    0.0169   -0.0263    0.0695    0.0755   -0.0078    0.0301
          52    0.0196    0.0543   -0.0099    0.0076   -0.0108    0.0550    0.0512   -0.0616
          53    0.0187    0.0198   -0.0051    0.0002    0.0020    0.0285    0.0222   -0.0238
          54    0.0104   -0.0297    0.0339   -0.0155    0.0357   -0.0491   -0.0711    0.0950
          55    0.0511   -0.0188   -0.0081   -0.0673   -0.0523   -0.0111    0.0314    0.0305
          56    0.0072   -0.0424    0.0177   -0.0278   -0.0353    0.0275    0.0251    0.0301
          57    0.0608    0.0330    0.0642    0.2077    0.0408    0.0171   -0.0657   -0.0729
          58   -0.0081    0.0286   -0.0415   -0.0484   -0.0074    0.0509   -0.0360    0.0231
          59    0.0013    0.0332   -0.0180   -0.0423    0.0191    0.0078   -0.0175   -0.0072
          60    0.0219    0.0247   -0.0000    0.1525    0.1286   -0.0369    0.0791   -0.0164
          61    0.0571    0.0270   -0.0049   -0.0137    0.0053    0.0102   -0.0153   -0.0188
          62   -0.0066    0.0381    0.0089   -0.0267   -0.0508    0.0590   -0.0569   -0.0538
          63    0.0189   -0.0311   -0.0895    0.1115    0.0502    0.0207    0.1049    0.1790


   Root No.      17        18        19        20        21        22        23        24

                17 A      18 A      19 A      20 A      21 A      22 A      23 A      24 A   

                 928.6     952.8     967.9     983.2    1013.9    1037.7    1045.6    1057.0
  
           1    0.0050    0.0091    0.0045    0.0035   -0.0031   -0.0158    0.0038    0.0063
           2    0.0166   -0.0073   -0.0116   -0.0002    0.0151   -0.0108    0.0158    0.0068
           3    0.0061   -0.0160    0.0052   -0.0010    0.0031    0.0085    0.0022    0.0056
           4   -0.0023   -0.0035    0.0022   -0.0003    0.0108   -0.0058    0.0065    0.0071
           5   -0.0087   -0.0012    0.0014    0.0011    0.0024    0.0125    0.0041   -0.0098
           6    0.0032   -0.0002   -0.0037   -0.0057    0.0037    0.0043    0.0057   -0.0017
           7   -0.0161    0.0015    0.0111    0.0021   -0.0066    0.0154   -0.0081   -0.0131
           8    0.0284    0.0041    0.0221   -0.0049   -0.0198    0.0027   -0.0210    0.0024
           9    0.0359    0.0106    0.0011    0.0000    0.0030   -0.0026    0.0083   -0.0063
          10    0.0083   -0.0119   -0.0225    0.0072   -0.0011    0.0135    0.0063    0.0010
          11   -0.0069    0.0086    0.0217   -0.0016   -0.0186   -0.0035    0.0227    0.0218
          12   -0.0156    0.0136   -0.0106   -0.0060    0.0022   -0.0126    0.0046   -0.0107
          13    0.0102   -0.0105   -0.0060    0.0059   -0.0186    0.0058   -0.0050   -0.0077
          14   -0.0059    0.0002   -0.0215    0.0057   -0.0123   -0.0120   -0.0084    0.0059
          15   -0.0152   -0.0117    0.0056    0.0109   -0.0003   -0.0046   -0.0013    0.0020
          16   -0.0004   -0.0025    0.0140   -0.0064    0.0231   -0.0108   -0.0016    0.0217
          17   -0.0156    0.0025   -0.0023    0.0024    0.0100    0.0042    0.0020   -0.0032
          18    0.0109    0.0084    0.0097   -0.0012   -0.0183   -0.0098   -0.0185    0.0002
          19   -0.0119    0.0043    0.0040   -0.0073    0.0182   -0.0172   -0.0279   -0.0145
          20   -0.0026   -0.0009   -0.0066   -0.0004    0.0123   -0.0041   -0.0180   -0.0173
          21    0.0098    0.0041   -0.0018    0.0204    0.0083    0.0237   -0.0168    0.0183
          22    0.0154   -0.0079   -0.0069   -0.0006   -0.0113    0.0094    0.0179   -0.0140
          23   -0.0116    0.0064    0.0073   -0.0034   -0.0005   -0.0113   -0.0141    0.0032
          24   -0.0239    0.0107   -0.0063    0.0131    0.0126    0.0079    0.0047    0.0053
          25   -0.0009    0.0044   -0.0029    0.0072    0.0025    0.0001   -0.0041    0.0095
          26    0.0095   -0.0094   -0.0170    0.0046    0.0107    0.0053   -0.0163    0.0008
          27    0.0051   -0.0200    0.0009   -0.0272   -0.0109   -0.0135    0.0009   -0.0142
          28    0.0233    0.0412    0.0061   -0.0384    0.0589   -0.0068    0.0427    0.0072
          29   -0.0399   -0.0262    0.0759   -0.0170    0.0695    0.0998    0.1048   -0.0866
          30   -0.0147   -0.0253    0.0052    0.0109   -0.0097    0.0156    0.0012   -0.0113
          31   -0.0398    0.0386    0.0300   -0.0267   -0.0313   -0.0218   -0.0272    0.0208
          32    0.0248   -0.0758   -0.1142   -0.0216    0.0808   -0.0455    0.1315    0.0560
          33   -0.0141   -0.0096    0.0027   -0.0178   -0.0025    0.0011    0.0026    0.0174
          34   -0.0275    0.0720   -0.0894   -0.1029   -0.0432    0.1143   -0.0446   -0.0339
          35   -0.0835   -0.0389    0.0214   -0.0093   -0.0274    0.0137   -0.0362    0.0185
          36   -0.0486   -0.0216    0.0005   -0.0034   -0.0024    0.0056   -0.0034    0.0052
          37   -0.0204   -0.0765    0.1242    0.0990    0.0256   -0.0411   -0.0044   -0.0095
          38    0.1471    0.0436    0.0272   -0.0056   -0.0198   -0.0019   -0.0063   -0.0105
          39   -0.0563   -0.0216   -0.0023    0.0006    0.0034    0.0013   -0.0018    0.0037
          40   -0.0697    0.0162   -0.0033   -0.0707   -0.0246    0.0338   -0.0074    0.0565
          41   -0.0040   -0.0482    0.0132   -0.0405   -0.0674    0.0999    0.0439    0.1278
          42   -0.0392   -0.0097   -0.0095   -0.0536   -0.0328    0.0529    0.0112    0.0664
          43    0.0013    0.0234   -0.0203    0.0360   -0.0456   -0.0323    0.0800   -0.0378
          44   -0.0465    0.0812    0.0439    0.0148   -0.0708   -0.0858    0.1107   -0.0271
          45    0.0303   -0.0042   -0.0394    0.0511   -0.0417   -0.0095    0.0775   -0.0416
          46    0.0448    0.0899   -0.0180   -0.0643    0.0472   -0.0034    0.0184    0.0127
          47    0.0104    0.0067    0.0327   -0.0147    0.0202    0.0217    0.0151   -0.0120
          48   -0.0279   -0.0540    0.0190    0.0383   -0.0234    0.0036   -0.0077   -0.0089
          49   -0.0081   -0.0198   -0.0778    0.0304   -0.0637   -0.0328   -0.0337    0.0104
          50    0.0014   -0.0068    0.0196    0.0001    0.0034    0.0125    0.0050   -0.0085
          51    0.0216    0.0586    0.0806   -0.0575    0.0941    0.0278    0.0448   -0.0011
          52    0.0367   -0.0098    0.0634   -0.0156    0.0126    0.0512    0.0209   -0.0338
          53    0.0122   -0.0039    0.0330   -0.0078    0.0090    0.0241    0.0106   -0.0155
          54   -0.0220    0.0494   -0.0616   -0.0111    0.0178   -0.0569   -0.0088    0.0427
          55    0.0133    0.0177    0.0105    0.0266    0.0160    0.0092   -0.0378    0.0322
          56    0.0082    0.0094   -0.0404    0.0372    0.0180    0.0339    0.0077   -0.0766
          57   -0.0652   -0.0361    0.0007   -0.0918    0.0105   -0.0708   -0.0063   -0.0696
          58   -0.0172   -0.0144    0.0225   -0.0383   -0.0594   -0.0388    0.0676    0.0960
          59    0.0166   -0.0318   -0.0201   -0.0172    0.0179    0.0042   -0.0350   -0.0381
          60   -0.0101    0.0964   -0.0163    0.1167    0.0242    0.0327    0.0036    0.0627
          61   -0.0250    0.0260   -0.0174    0.0299   -0.0596    0.0336    0.0702   -0.0772
          62   -0.0841    0.0547   -0.0130    0.0430   -0.0261    0.0241    0.0428   -0.0530
          63    0.0529   -0.0167    0.0183   -0.0214   -0.0784   -0.0165    0.0081   -0.0479


   Root No.      25        26        27        28        29        30        31        32

                25 A      26 A      27 A      28 A      29 A      30 A      31 A      32 A   

                1087.9    1114.4    1134.6    1139.9    1149.0    1154.8    1189.1    1196.8
  
           1    0.0067    0.0138   -0.0043   -0.0242    0.0043   -0.0011    0.0022   -0.0118
           2    0.0039    0.0323   -0.0162    0.0095   -0.0067    0.0087    0.0224    0.0200
           3   -0.0062    0.0023    0.0427    0.0096   -0.0117    0.0206    0.0114   -0.0147
           4    0.0156    0.0032    0.0122    0.0155   -0.0028   -0.0043   -0.0029   -0.0082
           5   -0.0097   -0.0269    0.0073   -0.0173    0.0115    0.0016   -0.0311    0.0234
           6    0.0081    0.0050    0.0048    0.0174   -0.0496   -0.0152   -0.0240   -0.0007
           7   -0.0096   -0.0141    0.0055   -0.0094    0.0055   -0.0043   -0.0385   -0.0136
           8    0.0075   -0.0107    0.0101    0.0224    0.0005   -0.0060   -0.0005   -0.0227
           9   -0.0057    0.0022   -0.0192   -0.0239    0.0122    0.0005    0.0048    0.0047
          10   -0.0064    0.0105   -0.0025    0.0061   -0.0008   -0.0066    0.0005   -0.0001
          11   -0.0030    0.0000    0.0113   -0.0021   -0.0037    0.0100    0.0064   -0.0037
          12   -0.0040   -0.0096   -0.0286    0.0060    0.0069   -0.0139    0.0023   -0.0059
          13   -0.0081    0.0034   -0.0065   -0.0042   -0.0020   -0.0006   -0.0023    0.0033
          14    0.0051    0.0125   -0.0031    0.0072   -0.0086   -0.0019    0.0070   -0.0069
          15    0.0007    0.0028    0.0025    0.0009    0.0503    0.0081    0.0074    0.0005
          16    0.0036   -0.0372    0.0037   -0.0054   -0.0044    0.0186    0.0466   -0.0003
          17   -0.0003   -0.0054    0.0057    0.0067   -0.0007   -0.0058   -0.0022    0.0105
          18    0.0033   -0.0046   -0.0052   -0.0036    0.0025    0.0030    0.0016    0.0138
          19   -0.0109   -0.0026   -0.0010   -0.0039    0.0029   -0.0060   -0.0043   -0.0024
          20    0.0022   -0.0007   -0.0027   -0.0059    0.0017    0.0027   -0.0053   -0.0154
          21    0.0028   -0.0005    0.0017   -0.0048    0.0014   -0.0023   -0.0035   -0.0010
          22    0.0189   -0.0087    0.0031    0.0144   -0.0044    0.0083    0.0004    0.0176
          23   -0.0046   -0.0087   -0.0036   -0.0092    0.0024   -0.0004    0.0096    0.0087
          24    0.0005   -0.0040   -0.0002    0.0011   -0.0022    0.0024    0.0035    0.0039
          25   -0.0140    0.0075   -0.0022    0.0026    0.0016   -0.0058   -0.0064    0.0056
          26   -0.0094    0.0185   -0.0042   -0.0052    0.0033   -0.0097   -0.0076   -0.0090
          27   -0.0015    0.0069   -0.0034    0.0003    0.0007   -0.0028   -0.0041   -0.0013
          28    0.0703    0.0861    0.0475    0.1348    0.2354   -0.0129   -0.0591   -0.0032
          29   -0.0529    0.1756   -0.0700   -0.0042   -0.0125   -0.0134    0.0683   -0.0717
          30   -0.0238   -0.0106   -0.0222   -0.0393   -0.1705   -0.0130    0.0159   -0.0151
          31    0.0460    0.1878    0.0484   -0.1069   -0.0377    0.0955   -0.0599    0.1348
          32    0.0017   -0.1099    0.0443   -0.1164    0.0250   -0.0070   -0.0313   -0.0234
          33    0.0110    0.0681    0.0757   -0.0437   -0.0278    0.0639   -0.0243    0.0495
          34   -0.0908   -0.0224    0.0340    0.0280    0.0265    0.0664    0.1817    0.0343
          35    0.0191   -0.0099    0.0614    0.0671   -0.0446   -0.0021   -0.0115   -0.0427
          36    0.0027    0.0034    0.0202    0.0098   -0.0237    0.0039   -0.0028   -0.0100
          37    0.0338   -0.0109   -0.0802    0.0524   -0.0706   -0.0380    0.0903    0.0716
          38   -0.0045   -0.0124   -0.0378   -0.0256    0.0421   -0.0080    0.0126   -0.0211
          39    0.0032    0.0045    0.0176    0.0114   -0.0223    0.0027   -0.0048    0.0035
          40    0.0451   -0.0156   -0.1096   -0.0126    0.0344   -0.0840   -0.0135    0.0335
          41    0.0421   -0.0203   -0.0228   -0.0001    0.0125   -0.0500    0.0021    0.0422
          42    0.0378   -0.0290   -0.0833    0.0015    0.0277   -0.0737   -0.0045    0.0303
          43   -0.0609   -0.0082    0.0401    0.0395   -0.0021   -0.0536    0.0025    0.0455
          44   -0.0604   -0.0447    0.0392    0.0347    0.0009   -0.0460    0.0130    0.0447
          45   -0.0665   -0.0015    0.0477    0.0474   -0.0049   -0.0532    0.0002    0.0446
          46    0.0272    0.0055    0.0055    0.0277   -0.1584   -0.0335   -0.0321   -0.0095
          47   -0.0072   -0.0089    0.0016   -0.0069   -0.0114   -0.0031   -0.0143    0.0047
          48   -0.0154   -0.0009   -0.0013   -0.0143    0.1201    0.0223    0.0172    0.0074
          49    0.0048    0.0419   -0.0177    0.0190   -0.0190   -0.0062    0.0126   -0.0120
          50   -0.0073   -0.0071    0.0006   -0.0085    0.0156    0.0034   -0.0018    0.0039
          51    0.0114   -0.0409    0.0258   -0.0054   -0.0077   -0.0011   -0.0178    0.0071
          52   -0.0271   -0.0262   -0.0027   -0.0219   -0.0082   -0.0038   -0.0359    0.0237
          53   -0.0120   -0.0108   -0.0009   -0.0089   -0.0068   -0.0026   -0.0170    0.0093
          54    0.0452    0.0281    0.0106    0.0355   -0.0262   -0.0070    0.0212   -0.0299
          55   -0.0240    0.0244    0.0293   -0.0297    0.0104   -0.0569    0.0100   -0.0158
          56    0.0692   -0.1006   -0.1034    0.0861   -0.0285    0.1971   -0.0675    0.0487
          57   -0.0072   -0.0131   -0.0214    0.0101    0.0001    0.0159   -0.0073   -0.0040
          58   -0.0956    0.0293   -0.1061    0.0282   -0.0101    0.1428   -0.0862   -0.1148
          59    0.0171    0.0147    0.0241   -0.0128    0.0066   -0.0521    0.0137    0.0246
          60   -0.0332    0.0043   -0.0248    0.0049   -0.0005    0.0309   -0.0198   -0.0292
          61    0.1203   -0.0031    0.0161   -0.0586   -0.0002    0.0063    0.0443   -0.0712
          62    0.0921    0.0035    0.0065   -0.0766    0.0038   -0.0056    0.0496   -0.0771
          63    0.0597   -0.0199    0.0143   -0.0555    0.0107    0.0052    0.0348   -0.0461


   Root No.      33        34        35        36        37        38        39        40

                33 A      34 A      35 A      36 A      37 A      38 A      39 A      40 A   

                1208.9    1238.3    1339.5    1348.3    1365.4    1396.5    1405.5    1407.3
  
           1    0.0114    0.0015   -0.0231   -0.0218   -0.0410    0.0044    0.0107   -0.0226
           2    0.0494    0.0156    0.0200    0.0285   -0.0089   -0.0005    0.0014    0.0001
           3    0.0130   -0.0014    0.0023    0.0082   -0.0185    0.0015    0.0059   -0.0121
           4    0.0094   -0.0082    0.0370   -0.0381   -0.0069    0.0118    0.0030   -0.0049
           5    0.0128    0.0398    0.0114   -0.0085   -0.0164    0.0035    0.0055   -0.0054
           6   -0.0151    0.0200   -0.0092    0.0079   -0.0042   -0.0068    0.0007    0.0002
           7    0.0233   -0.0192   -0.0017    0.0219    0.0141   -0.0032   -0.0042    0.0057
           8   -0.0213   -0.0130   -0.0003   -0.0029    0.0053   -0.0029   -0.0154   -0.0077
           9   -0.0067   -0.0096    0.0028   -0.0028    0.0040    0.0006   -0.0018    0.0021
          10    0.0080    0.0141   -0.0174   -0.0130    0.0096   -0.0038   -0.0089    0.0206
          11    0.0141    0.0064   -0.0313   -0.0240    0.0305    0.0006    0.0202   -0.0178
          12    0.0132    0.0123   -0.0208   -0.0155    0.0037   -0.0031   -0.0064    0.0167
          13   -0.0057    0.0035    0.0064   -0.0093    0.0011   -0.0346   -0.0034    0.0024
          14   -0.0031   -0.0101   -0.0005   -0.0013    0.0028    0.0087   -0.0162   -0.0129
          15    0.0027   -0.0034   -0.0109    0.0125    0.0004   -0.0190   -0.0008   -0.0088
          16    0.0050   -0.0017    0.0026    0.0440    0.0186   -0.0056   -0.0025    0.0071
          17   -0.0003   -0.0131   -0.0121   -0.0142    0.0127    0.0005   -0.0077    0.0058
          18    0.0095   -0.0013    0.0024   -0.0049    0.0070    0.0005   -0.0035    0.0029
          19   -0.0140   -0.0034    0.0127    0.0099   -0.0076    0.0003   -0.0015   -0.0004
          20   -0.0121    0.0124    0.0193    0.0059    0.0179    0.0004   -0.0199    0.0154
          21   -0.0101   -0.0021    0.0086    0.0053    0.0002    0.0003   -0.0035    0.0015
          22    0.0158   -0.0068   -0.0123   -0.0172    0.0336    0.0003   -0.0188    0.0167
          23   -0.0033   -0.0157   -0.0182   -0.0005    0.0083   -0.0013   -0.0009    0.0033
          24   -0.0010   -0.0075   -0.0104   -0.0024    0.0102   -0.0007   -0.0042    0.0047
          25   -0.0045   -0.0122   -0.0059    0.0004   -0.0328    0.0006    0.0234   -0.0208
          26   -0.0065    0.0053    0.0083    0.0054   -0.0202    0.0002    0.0070   -0.0059
          27   -0.0011   -0.0002    0.0003    0.0000   -0.0127    0.0002    0.0076   -0.0066
          28   -0.0756    0.0570   -0.0466    0.0431   -0.0021   -0.0164    0.0020    0.0033
          29   -0.0348   -0.1067   -0.0188    0.0002    0.0166   -0.0005   -0.0120   -0.0006
          30    0.0212   -0.0307    0.0289   -0.0304   -0.0017    0.0057   -0.0012   -0.0029
          31   -0.0848   -0.0162    0.0217    0.0090    0.0460   -0.0052   -0.0213    0.0324
          32   -0.1507   -0.0405   -0.0331   -0.0334    0.0202   -0.0009   -0.0031   -0.0024
          33   -0.0560   -0.0159    0.0174    0.0140    0.0257   -0.0029   -0.0096    0.0135
          34   -0.0867    0.0627    0.0050   -0.0641   -0.0378    0.0142    0.0098   -0.0151
          35   -0.0247   -0.0038    0.0157    0.0056    0.0113    0.0089    0.0789    0.0472
          36   -0.0102   -0.0034    0.0123    0.0022    0.0078    0.0079    0.0586    0.0371
          37   -0.1573    0.0980   -0.0057   -0.0592   -0.0207    0.0031    0.0047   -0.0036
          38   -0.0458   -0.0393    0.0270   -0.0079    0.0283    0.0132    0.0711    0.0551
          39    0.0097    0.0108   -0.0158    0.0016   -0.0132   -0.0105   -0.0593   -0.0408
          40   -0.0138   -0.0085    0.0675    0.0285    0.1327    0.0165    0.0699   -0.1086
          41   -0.0148   -0.0471    0.0200    0.0362   -0.1448   -0.0081   -0.0532    0.0622
          42   -0.0095   -0.0232    0.0390    0.0314   -0.0331    0.0007   -0.0104    0.0040
          43   -0.0320   -0.0246    0.0607    0.0505   -0.0159   -0.0005   -0.0138    0.0111
          44   -0.0253   -0.0526    0.0308    0.0472   -0.1452   -0.0079   -0.0504    0.0607
          45   -0.0356   -0.0092    0.0929    0.0530    0.1587    0.0149    0.0675   -0.1007
          46   -0.0238    0.0226   -0.0770    0.0806   -0.0033   -0.1327    0.0070   -0.0307
          47    0.0020    0.0104   -0.0021    0.0038   -0.0045   -0.0605    0.1501    0.1409
          48    0.0124   -0.0102    0.0331   -0.0342    0.0013    0.0409    0.0188    0.0327
          49   -0.0281   -0.0104   -0.0694    0.0672    0.0079    0.2396   -0.0137   -0.0048
          50    0.0061    0.0011    0.0259   -0.0277   -0.0013   -0.2258    0.0228    0.0134
          51    0.0310    0.0069    0.0956   -0.0949   -0.0083    0.1383   -0.0855   -0.0585
          52   -0.0121    0.0456   -0.0607    0.0651   -0.0071    0.2341    0.0339    0.0325
          53   -0.0059    0.0204   -0.0435    0.0465   -0.0033    0.1677    0.0140    0.0114
          54    0.0138   -0.0464    0.0734   -0.0756    0.0045    0.1192    0.0871    0.1153
          55   -0.0113    0.0216    0.0203    0.0102    0.0169   -0.0006   -0.0188    0.0167
          56   -0.0394   -0.0961   -0.0000    0.0136   -0.0843    0.0041    0.0499   -0.0548
          57   -0.0055   -0.0046    0.0037    0.0029   -0.0082    0.0004    0.0013   -0.0022
          58   -0.0491    0.0829    0.0644    0.0113    0.0267    0.0023   -0.0336    0.0230
          59    0.0059   -0.0212   -0.0106    0.0027   -0.0401   -0.0002    0.0242   -0.0195
          60   -0.0154    0.0186    0.0158    0.0051    0.0000    0.0004   -0.0050    0.0037
          61   -0.0053    0.0577    0.0399    0.0359   -0.0086   -0.0004    0.0002    0.0003
          62   -0.0272    0.0460    0.0298    0.0512   -0.0337   -0.0021    0.0185   -0.0129
          63   -0.0075    0.0268    0.0207    0.0264   -0.0171   -0.0004    0.0083   -0.0067


   Root No.      41        42        43        44        45        46        47        48

                41 A      42 A      43 A      44 A      45 A      46 A      47 A      48 A   

                1410.6    1425.3    1459.6    1828.4    1946.7    2932.0    2945.8    2952.9
  
           1   -0.0159    0.0235    0.0660    0.0002    0.0233    0.0207    0.0016    0.0057
           2    0.0022   -0.0004    0.0053    0.0030   -0.0189    0.0051    0.0002    0.0013
           3   -0.0073    0.0065    0.0266   -0.0013   -0.0063   -0.0439   -0.0022   -0.0120
           4   -0.0102    0.0353   -0.0605   -0.0051   -0.0384    0.0007   -0.0266   -0.0010
           5    0.0010    0.0061   -0.0075   -0.0024   -0.0292   -0.0003    0.0064    0.0002
           6    0.0064   -0.0205    0.0256    0.0003   -0.0060    0.0022   -0.0536   -0.0017
           7    0.0051   -0.0113   -0.0036    0.0007    0.0010    0.0006   -0.0008    0.0000
           8   -0.0264   -0.0190   -0.0233   -0.0031   -0.0234    0.0002    0.0003    0.0003
           9   -0.0006    0.0021   -0.0079    0.0005   -0.0012    0.0026    0.0037    0.0005
          10    0.0146   -0.0141   -0.0357    0.0040   -0.0023   -0.0113   -0.0024    0.0311
          11    0.0079   -0.0176   -0.0193   -0.0314    0.0070   -0.0009   -0.0003    0.0037
          12    0.0130   -0.0117   -0.0290   -0.0039    0.0011    0.0121    0.0027   -0.0364
          13    0.0109   -0.0321    0.0345    0.0004    0.0025   -0.0001    0.0023    0.0001
          14    0.0143   -0.0024    0.0040    0.0001    0.0021    0.0000   -0.0002    0.0000
          15   -0.0052    0.0348   -0.0305   -0.0003   -0.0009   -0.0000    0.0017    0.0000
          16    0.0082   -0.0222   -0.0059    0.0096    0.0465    0.0005   -0.0005   -0.0001
          17   -0.0054    0.0122    0.0145    0.0211    0.2518   -0.0004   -0.0003    0.0001
          18   -0.0022    0.0050   -0.0045    0.0098    0.1054   -0.0002   -0.0003   -0.0002
          19   -0.0028    0.0031    0.0051   -0.1393    0.0138    0.0004    0.0001   -0.0010
          20   -0.0116    0.0213    0.0229    0.1962   -0.0248   -0.0001   -0.0000    0.0003
          21   -0.0036    0.0049    0.0064   -0.0145   -0.0003    0.0000    0.0000   -0.0004
          22   -0.0094    0.0231    0.0299   -0.0407   -0.0537    0.0002    0.0003   -0.0000
          23    0.0022    0.0007    0.0185   -0.0145   -0.1878    0.0003    0.0003    0.0000
          24   -0.0007    0.0041    0.0147   -0.0160   -0.0913   -0.0000    0.0000   -0.0000
          25    0.0100   -0.0214   -0.0256    0.1906   -0.0089   -0.0002   -0.0001    0.0003
          26    0.0037   -0.0077   -0.0131   -0.1467    0.0263   -0.0000    0.0000   -0.0000
          27    0.0035   -0.0073   -0.0103    0.0350    0.0029    0.0001   -0.0001   -0.0001
          28    0.0187   -0.0453    0.0591   -0.0003   -0.0148   -0.0150    0.3211    0.0097
          29   -0.0052   -0.0033    0.0044    0.0005   -0.0006    0.0040   -0.0843   -0.0025
          30   -0.0080    0.0176   -0.0327   -0.0007   -0.0101   -0.0301    0.6539    0.0197
          31    0.0130   -0.0186   -0.0608    0.0034    0.0139   -0.2532   -0.0115   -0.0644
          32   -0.0057   -0.0081   -0.0089   -0.0037    0.0031   -0.0649   -0.0027   -0.0171
          33    0.0054   -0.0135   -0.0356    0.0000   -0.0047    0.5359    0.0242    0.1458
          34   -0.0191    0.0284   -0.0010   -0.0017   -0.0024   -0.0021    0.0027   -0.0011
          35    0.1485    0.0710    0.0474   -0.0004   -0.0012    0.0113    0.0162    0.0003
          36    0.1121    0.0601    0.0382    0.0025    0.0182   -0.0177   -0.0256   -0.0022
          37   -0.0015    0.0079    0.0010    0.0000   -0.0021    0.0030   -0.0030    0.0006
          38    0.1419    0.0776    0.0128    0.0009   -0.0047   -0.0096   -0.0136   -0.0037
          39   -0.1133   -0.0634   -0.0299   -0.0027   -0.0216   -0.0152   -0.0209   -0.0059
          40   -0.0393    0.0142    0.0568   -0.0061    0.0041    0.0425    0.0092   -0.1200
          41    0.0027    0.0147    0.0070   -0.0039   -0.0007    0.0661    0.0147   -0.1964
          42   -0.0107    0.0154    0.0209   -0.0007   -0.0013   -0.1170   -0.0266    0.3561
          43   -0.0061    0.0088    0.0045   -0.0135   -0.0082    0.0901    0.0192   -0.2526
          44    0.0046    0.0140    0.0065   -0.0491    0.0006   -0.0538   -0.0113    0.1472
          45   -0.0318    0.0033    0.0330   -0.0139   -0.0085   -0.0335   -0.0065    0.0818
          46   -0.0191    0.1173   -0.0827   -0.0005   -0.0044    0.0004   -0.0131   -0.0003
          47   -0.1417   -0.0184   -0.0024    0.0000   -0.0006   -0.0001    0.0028    0.0000
          48   -0.0126   -0.0475    0.0302    0.0001    0.0015    0.0005   -0.0194   -0.0001
          49   -0.0031    0.0226   -0.0150    0.0008    0.0081    0.0002   -0.0068   -0.0002
          50   -0.0109   -0.0114    0.0158   -0.0002   -0.0014    0.0004   -0.0124   -0.0004
          51    0.0953   -0.0780    0.0509   -0.0010   -0.0107    0.0002   -0.0053   -0.0002
          52   -0.0419    0.0203   -0.0194    0.0002   -0.0010    0.0002   -0.0056   -0.0001
          53   -0.0250    0.0307   -0.0297    0.0001    0.0003   -0.0005    0.0125    0.0003
          54   -0.0758   -0.1004    0.0481   -0.0001    0.0006    0.0001   -0.0017   -0.0001
          55   -0.0074    0.0144    0.0130   -0.1088    0.0083   -0.0034   -0.0007    0.0118
          56    0.0059   -0.0259   -0.0126   -0.0816    0.0172   -0.0001   -0.0000    0.0010
          57   -0.0011    0.0013    0.0031   -0.0415    0.0046   -0.0008   -0.0001    0.0029
          58   -0.0224    0.0355    0.0210   -0.0781    0.0511   -0.0001    0.0001   -0.0000
          59    0.0133   -0.0247   -0.0278   -0.1052    0.0094   -0.0002    0.0001   -0.0002
          60   -0.0030    0.0045   -0.0007   -0.0360    0.0169    0.0001    0.0001   -0.0006
          61    0.0027   -0.0129   -0.0275   -0.0391    0.1400   -0.0010   -0.0011   -0.0007
          62    0.0153   -0.0364   -0.0361   -0.0200   -0.0603    0.0014    0.0006    0.0006
          63    0.0050   -0.0135   -0.0187   -0.0193   -0.0230   -0.0003    0.0006    0.0000


   Root No.      49        50        51        52        53        54        55        56

                49 A      50 A      51 A      52 A      53 A      54 A      55 A      56 A   

                3033.2    3047.3    3056.3    3075.0    3079.8    3084.9    3091.1    3108.0
  
           1   -0.0005    0.0011    0.0001    0.0001    0.0001   -0.0000    0.0000   -0.0001
           2    0.0000    0.0004    0.0002    0.0001    0.0000    0.0000   -0.0004   -0.0008
           3   -0.0000   -0.0022    0.0003    0.0001   -0.0000    0.0000   -0.0003   -0.0004
           4   -0.0001   -0.0012    0.0000   -0.0000   -0.0009   -0.0001    0.0002    0.0003
           5    0.0000    0.0005   -0.0000    0.0000    0.0002   -0.0002    0.0002   -0.0009
           6   -0.0002   -0.0023    0.0000   -0.0000   -0.0017   -0.0002    0.0000   -0.0004
           7   -0.0000    0.0003   -0.0000    0.0000    0.0001   -0.0002   -0.0000   -0.0000
           8    0.0007    0.0062   -0.0001   -0.0000    0.0007    0.0001   -0.0002   -0.0412
           9   -0.0031   -0.0534    0.0005    0.0001   -0.0000    0.0008   -0.0001   -0.0105
          10   -0.0230    0.0013   -0.0029   -0.0020    0.0001   -0.0000    0.0006    0.0001
          11    0.0288   -0.0015    0.0025    0.0019   -0.0001    0.0000   -0.0006    0.0003
          12   -0.0108    0.0009   -0.0005   -0.0003    0.0001   -0.0000    0.0000   -0.0003
          13   -0.0001    0.0000    0.0000   -0.0004   -0.0344   -0.0036    0.0007   -0.0010
          14    0.0000   -0.0004   -0.0000    0.0005    0.0082   -0.0536   -0.0020   -0.0000
          15   -0.0001    0.0000    0.0000   -0.0003   -0.0334   -0.0096    0.0006   -0.0007
          16    0.0003   -0.0000   -0.0001    0.0001    0.0001    0.0003   -0.0013    0.0000
          17   -0.0000    0.0001   -0.0001   -0.0008    0.0000    0.0002   -0.0046    0.0014
          18    0.0001   -0.0002   -0.0001   -0.0003   -0.0001   -0.0001   -0.0022    0.0003
          19    0.0056   -0.0008   -0.0362   -0.0261    0.0005   -0.0005    0.0078    0.0000
          20    0.0016   -0.0002   -0.0071   -0.0017    0.0000   -0.0000    0.0000    0.0000
          21    0.0022   -0.0003   -0.0135   -0.0091    0.0002   -0.0002    0.0027    0.0000
          22   -0.0001    0.0000    0.0021   -0.0090   -0.0006    0.0011   -0.0372    0.0003
          23   -0.0000    0.0000   -0.0019    0.0093    0.0006   -0.0011    0.0366   -0.0005
          24   -0.0001   -0.0000   -0.0006    0.0033    0.0002   -0.0003    0.0121   -0.0002
          25   -0.0000    0.0001    0.0072   -0.0048    0.0001   -0.0001    0.0027   -0.0000
          26   -0.0004    0.0002    0.0266   -0.0355    0.0008   -0.0008    0.0151   -0.0001
          27   -0.0001    0.0001    0.0064   -0.0070    0.0002   -0.0002    0.0032   -0.0000
          28    0.0009    0.0153   -0.0002    0.0001    0.0066    0.0005    0.0004    0.0021
          29   -0.0004   -0.0062    0.0001    0.0000   -0.0026   -0.0015    0.0000   -0.0015
          30    0.0016    0.0253   -0.0004    0.0003    0.0219    0.0018    0.0004    0.0035
          31    0.0013   -0.0140    0.0006    0.0000   -0.0001    0.0002   -0.0007   -0.0025
          32    0.0009   -0.0060    0.0002    0.0000   -0.0000    0.0001   -0.0003   -0.0016
          33   -0.0052    0.0239   -0.0015   -0.0002    0.0002   -0.0003    0.0015    0.0041
          34   -0.0005   -0.0010   -0.0000   -0.0000    0.0006   -0.0003    0.0000    0.0010
          35   -0.0184   -0.2837    0.0028    0.0007   -0.0044    0.0025    0.0020    0.1972
          36    0.0248    0.3870   -0.0038   -0.0010    0.0053   -0.0032   -0.0031   -0.3151
          37   -0.0001   -0.0013    0.0000    0.0000   -0.0000   -0.0002    0.0000   -0.0023
          38    0.0099    0.2055   -0.0021   -0.0002   -0.0047   -0.0035    0.0029    0.3023
          39    0.0120    0.2547   -0.0026   -0.0002   -0.0069   -0.0047    0.0041    0.4400
          40   -0.1218    0.0088   -0.0102   -0.0062    0.0006   -0.0001    0.0015   -0.0023
          41   -0.1437    0.0103   -0.0105   -0.0062    0.0006   -0.0002    0.0015   -0.0031
          42    0.2947   -0.0190    0.0215    0.0131   -0.0012    0.0003   -0.0031    0.0049
          43    0.3964   -0.0212    0.0428    0.0260   -0.0010    0.0005   -0.0070    0.0014
          44   -0.2033    0.0106   -0.0257   -0.0156    0.0006   -0.0003    0.0042   -0.0007
          45   -0.1620    0.0087   -0.0184   -0.0111    0.0005   -0.0002    0.0030   -0.0008
          46    0.0004   -0.0007   -0.0001    0.0021    0.1845    0.0119   -0.0048    0.0035
          47   -0.0001    0.0002   -0.0000   -0.0005   -0.0563   -0.0315    0.0006   -0.0015
          48    0.0011    0.0004   -0.0001    0.0046    0.4010    0.0232   -0.0103    0.0072
          49    0.0002    0.0014    0.0000   -0.0004    0.1029    0.2726    0.0070    0.0048
          50    0.0003    0.0016    0.0000    0.0000    0.1643    0.3387    0.0080    0.0066
          51    0.0000    0.0003    0.0000   -0.0002    0.0226    0.0859    0.0026    0.0012
          52    0.0000   -0.0043   -0.0001    0.0033    0.1231   -0.2422   -0.0105    0.0028
          53   -0.0001    0.0060    0.0001   -0.0050   -0.2063    0.3333    0.0158   -0.0051
          54   -0.0000    0.0003    0.0000   -0.0003   -0.0239    0.0062    0.0008   -0.0004
          55   -0.0642    0.0089    0.4234    0.2752   -0.0048    0.0045   -0.0737    0.0000
          56   -0.0116    0.0019    0.0959    0.0586   -0.0010    0.0010   -0.0156    0.0000
          57   -0.0244    0.0034    0.1597    0.1033   -0.0018    0.0017   -0.0274   -0.0000
          58    0.0010   -0.0006   -0.0774    0.0866   -0.0020    0.0020   -0.0400    0.0003
          59    0.0014   -0.0025   -0.3223    0.3816   -0.0083    0.0085   -0.1602    0.0009
          60    0.0004   -0.0006   -0.0740    0.0859   -0.0019    0.0019   -0.0368    0.0002
          61   -0.0000   -0.0001   -0.0228    0.1135    0.0069   -0.0126    0.4423   -0.0042
          62   -0.0000    0.0001    0.0219   -0.1014   -0.0061    0.0114   -0.3843    0.0036
          63   -0.0000    0.0000    0.0072   -0.0331   -0.0020    0.0035   -0.1242    0.0012


   Root No.      57

                57 A   

                3178.6
  
           1   -0.0000
           2   -0.0000
           3   -0.0000
           4    0.0005
           5    0.0000
           6   -0.0001
           7   -0.0001
           8   -0.0002
           9    0.0002
          10   -0.0000
          11   -0.0000
          12    0.0000
          13    0.0176
          14    0.0018
          15   -0.0171
          16   -0.0001
          17   -0.0001
          18   -0.0000
          19   -0.0000
          20   -0.0000
          21   -0.0000
          22   -0.0001
          23    0.0001
          24    0.0000
          25    0.0000
          26    0.0000
          27   -0.0000
          28   -0.0004
          29    0.0004
          30   -0.0027
          31    0.0000
          32    0.0000
          33   -0.0001
          34    0.0004
          35    0.0019
          36   -0.0033
          37   -0.0000
          38    0.0005
          39    0.0010
          40    0.0001
          41    0.0001
          42   -0.0002
          43   -0.0000
          44    0.0000
          45    0.0000
          46    0.1460
          47   -0.0407
          48    0.2784
          49   -0.1849
          50   -0.2553
          51   -0.0711
[...]
 TRAVEL      0.0846         C  1 -- C  2          +6.9% ( 38.7%)     16.3%
 RED. MASS   0.8246         C  2 -- C  3          +6.1% ( 36.5%)     39.3%
 EFF. MASS   6.9915

 VIBRATION   37   37A         ATOM PAIR      ENERGY CONTRIBUTION    RADIAL
 FREQ.      1365.36         C  8 -- C  9         +11.7% ( 46.0%)     96.8%
 T-DIPOLE    0.1487         C  4 -- H 15         +11.5% ( 45.6%)      1.2%
 TRAVEL      0.0912         C  4 -- H 14          +9.8% ( 42.1%)      3.2%
 RED. MASS   0.5739         C  1 -- C  4          +8.5% ( 39.3%)     61.9%
 EFF. MASS   5.9357

 VIBRATION   38   38A         ATOM PAIR      ENERGY CONTRIBUTION    RADIAL
 FREQ.      1396.50         C  5 -- H 17         +44.5% ( 59.8%)      1.1%
 T-DIPOLE    0.0616         C  5 -- H 18         +34.3% ( 52.5%)      3.5%
 TRAVEL      0.1650         C  5 -- H 16          +9.2% ( 27.1%)     53.3%
 RED. MASS   0.4190         C  2 -- C  5          +6.6% ( 23.1%)     22.6%
 EFF. MASS   1.7740

 VIBRATION   39   39A         ATOM PAIR      ENERGY CONTRIBUTION    RADIAL
 FREQ.      1405.52         C  5 -- H 16         +12.1% ( 39.7%)      0.0%
 T-DIPOLE    0.0811         C  8 -- C  9          +9.3% ( 34.9%)     99.8%
 TRAVEL      0.1080         C  4 -- C  7          +7.1% ( 30.4%)     79.0%
 RED. MASS   0.2390         C  4 -- H 14          +6.7% ( 29.6%)      5.6%
 EFF. MASS   4.1108

 VIBRATION   40   40A         ATOM PAIR      ENERGY CONTRIBUTION    RADIAL
 FREQ.      1407.28         C  4 -- H 14         +11.4% ( 39.9%)      5.0%
 T-DIPOLE    0.0280         C  1 -- C  4         +10.3% ( 37.9%)     82.4%
 TRAVEL      0.1057         C  4 -- H 15         +10.1% ( 37.5%)      8.2%
 RED. MASS   0.3052         C  5 -- H 16          +9.7% ( 36.8%)      0.7%
 EFF. MASS   4.2847

 VIBRATION   41   41A         ATOM PAIR      ENERGY CONTRIBUTION    RADIAL
 FREQ.      1410.56         C  3 -- H 12         +18.8% ( 47.3%)      2.9%
 T-DIPOLE    0.0248         C  3 -- H 13         +17.5% ( 45.6%)      3.7%
 TRAVEL      0.1239         C  5 -- H 16          +9.9% ( 34.3%)      0.1%
 RED. MASS   0.2390         C  5 -- H 17          +4.8% ( 24.0%)     15.0%
 EFF. MASS   3.1129

 VIBRATION   42   42A         ATOM PAIR      ENERGY CONTRIBUTION    RADIAL
 FREQ.      1425.30         C  2 -- C  5         +12.8% ( 52.3%)     98.6%
 T-DIPOLE    0.0853         C  5 -- H 16          +9.0% ( 43.9%)      4.0%
 TRAVEL      0.0798         C  5 -- H 18          +7.7% ( 40.6%)      4.1%
 RED. MASS   0.7351         C  5 -- H 17          +6.7% ( 37.9%)      3.3%
 EFF. MASS   7.4361

 VIBRATION   43   43A         ATOM PAIR      ENERGY CONTRIBUTION    RADIAL
 FREQ.      1459.60         C  1 -- C  2         +12.0% ( 58.6%)     99.0%
 T-DIPOLE    0.2383         C  1 -- C  4         +10.5% ( 54.9%)     89.7%
 TRAVEL      0.0671         C  2 -- C  5          +9.5% ( 52.0%)     93.0%
 RED. MASS   1.6096         C  1 -- C  3          +6.8% ( 44.1%)     69.7%
 EFF. MASS  10.2669

 VIBRATION   44   44A         ATOM PAIR      ENERGY CONTRIBUTION    RADIAL
 FREQ.      1828.37         C  7 -- C  9         +43.7% ( 97.7%)    100.0%
 T-DIPOLE    0.2611         C  8 -- C  9         +14.5% ( 56.4%)     56.3%
 TRAVEL      0.0557         C  4 -- C  7         +13.9% ( 55.1%)     48.6%
 RED. MASS   5.3093         C  9 -- H 20         +13.0% ( 53.3%)      4.8%
 EFF. MASS  11.8740         C  7 -- H 19         +12.9% ( 53.0%)      5.3%

 VIBRATION   45   45A         ATOM PAIR      ENERGY CONTRIBUTION    RADIAL
 FREQ.      1946.70         C  6 -- C  8         +35.8% ( 96.6%)     99.5%
 T-DIPOLE    0.1899         C  2 -- C  6         +16.1% ( 64.7%)     72.9%
 TRAVEL      0.0539         C  1 -- C  6         +15.4% ( 63.3%)     38.4%
 RED. MASS   5.6250         C  3 -- C  6         +15.2% ( 62.9%)     91.5%
 EFF. MASS  11.9128

 VIBRATION   46   46A         ATOM PAIR      ENERGY CONTRIBUTION    RADIAL
 FREQ.      2932.03         C  1 -- H 11         +87.0% ( 95.5%)    100.0%
 T-DIPOLE    0.1060         C  4 -- H 14          +5.2% ( 23.3%)     97.1%
 TRAVEL      0.1259         C  4 -- H 15          +3.3% ( 18.7%)     94.7%
 RED. MASS   0.7761         C  1 -- C  4          +1.1% ( 10.7%)      6.8%
 EFF. MASS   1.4506

 VIBRATION   47   47A         ATOM PAIR      ENERGY CONTRIBUTION    RADIAL
 FREQ.      2945.83         C  2 -- H 10         +95.0% ( 99.6%)    100.0%
 T-DIPOLE    0.1015         C  2 -- C  3          +1.0% ( 10.4%)     12.7%
 TRAVEL      0.1260         C  2 -- C  5          +1.0% ( 10.3%)     10.4%
 RED. MASS   0.9132         C  1 -- C  2          +1.0% ( 10.3%)     22.9%
 EFF. MASS   1.4428

 VIBRATION   48   48A         ATOM PAIR      ENERGY CONTRIBUTION    RADIAL
 FREQ.      2952.90         C  4 -- H 14         +58.1% ( 78.8%)     97.9%
 T-DIPOLE    0.0694         C  4 -- H 15         +31.5% ( 58.1%)     94.4%
 TRAVEL      0.1225         C  1 -- H 11          +7.8% ( 28.9%)    100.0%
 RED. MASS   0.4733         C  4 -- C  7          +1.0% ( 10.5%)      0.1%
 EFF. MASS   1.5217

 VIBRATION   49   49A         ATOM PAIR      ENERGY CONTRIBUTION    RADIAL
 FREQ.      3033.21         C  4 -- H 15         +63.5% ( 78.7%)     99.0%
 T-DIPOLE    0.0699         C  4 -- H 14         +33.3% ( 57.0%)     94.9%
 TRAVEL      0.1313         C  7 -- H 19          +1.5% ( 12.1%)    100.0%
 RED. MASS   0.5057         C  4 -- C  7          +0.7% (  8.2%)     18.1%
 EFF. MASS   1.2899

 VIBRATION   50   50A         ATOM PAIR      ENERGY CONTRIBUTION    RADIAL
 FREQ.      3047.27         C  3 -- H 12         +64.1% ( 83.2%)     98.4%
 T-DIPOLE    0.0837         C  3 -- H 13         +31.8% ( 58.6%)     94.2%
 TRAVEL      0.1200         C  3 -- C  6          +1.1% ( 11.0%)      0.0%
 RED. MASS   0.5631         C  1 -- C  3          +1.1% ( 11.0%)      0.5%
 EFF. MASS   1.5362

 VIBRATION   51   51A         ATOM PAIR      ENERGY CONTRIBUTION    RADIAL
 FREQ.      3056.29         C  7 -- H 19         +62.5% ( 80.2%)    100.0%
 T-DIPOLE    0.2850         C  9 -- H 20         +33.8% ( 59.0%)    100.0%
 TRAVEL      0.1228         C  7 -- C  9          +1.1% ( 10.7%)      1.3%
 RED. MASS   0.4935         C  4 -- C  7          +0.9% (  9.4%)     25.1%
 EFF. MASS   1.4639

 VIBRATION   52   52A         ATOM PAIR      ENERGY CONTRIBUTION    RADIAL
 FREQ.      3074.95         C  9 -- H 20         +56.2% ( 76.1%)     99.9%
 T-DIPOLE    0.2890         C  7 -- H 19         +31.4% ( 56.9%)     99.9%
 TRAVEL      0.1182         C  8 -- H 21          +8.5% ( 29.6%)     99.9%
 RED. MASS   0.4217         C  7 -- C  9          +1.8% ( 13.6%)     96.5%
 EFF. MASS   1.5708

 VIBRATION   53   53A         ATOM PAIR      ENERGY CONTRIBUTION    RADIAL
 FREQ.      3079.77         C  5 -- H 16         +65.5% ( 83.5%)     98.9%
 T-DIPOLE    0.0317         C  5 -- H 18         +19.9% ( 46.0%)     87.2%
 TRAVEL      0.1206         C  5 -- H 17         +13.3% ( 37.6%)     80.0%
 RED. MASS   0.5157         C  2 -- C  5          +1.0% ( 10.3%)      0.0%
 EFF. MASS   1.5052

 VIBRATION   54   54A         ATOM PAIR      ENERGY CONTRIBUTION    RADIAL
 FREQ.      3084.85         C  5 -- H 17         +52.3% ( 74.6%)     97.5%
 T-DIPOLE    0.0408         C  5 -- H 18         +45.3% ( 69.5%)     96.5%
 TRAVEL      0.1204         C  5 -- H 16          +1.2% ( 11.3%)      6.1%
 RED. MASS   0.5091         C  2 -- C  5          +1.0% ( 10.4%)      0.0%
 EFF. MASS   1.5083

 VIBRATION   55   55A         ATOM PAIR      ENERGY CONTRIBUTION    RADIAL
 FREQ.      3091.12         C  8 -- H 21         +87.8% ( 95.2%)    100.0%
 T-DIPOLE    0.3829         C  9 -- H 20          +7.0% ( 26.8%)    100.0%
 TRAVEL      0.1183         C  6 -- C  8          +1.6% ( 12.8%)     44.8%
 RED. MASS   0.7724         C  7 -- H 19          +1.6% ( 12.8%)     99.7%
 EFF. MASS   1.5592

 VIBRATION   56   56A         ATOM PAIR      ENERGY CONTRIBUTION    RADIAL
 FREQ.      3107.97         C  3 -- H 13         +66.7% ( 81.2%)     98.8%
 T-DIPOLE    0.0889         C  3 -- H 12         +31.1% ( 55.5%)     93.1%
 TRAVEL      0.1297         C  3 -- C  6          +0.7% (  8.3%)     98.4%
 RED. MASS   0.5385         C  1 -- C  3          +0.7% (  8.2%)     47.9%
 EFF. MASS   1.2888

 VIBRATION   57   57A         ATOM PAIR      ENERGY CONTRIBUTION    RADIAL
 FREQ.      3178.62         C  5 -- H 18         +33.9% ( 56.1%)     97.2%
 T-DIPOLE    0.0375         C  5 -- H 17         +33.6% ( 55.8%)     97.2%
 TRAVEL      0.1366         C  5 -- H 16         +32.2% ( 54.6%)     96.9%
 RED. MASS   0.3271         C  2 -- C  5          +0.3% (  5.1%)     99.9%
 EFF. MASS   1.1362

      SYMMETRY NUMBER FOR POINT-GROUP C1  =  1


          SYSTEM IS A GROUND STATE



 InChI=1S/C9H12/c1-7-6-8-4-2-3-5-9(7)8/h2-3,5,7-8H,4,6H2,1H3


          MOLECULE IS NOT LINEAR

          THERE ARE 57 GENUINE VIBRATIONS IN THIS SYSTEM
          THIS THERMODYNAMICS CALCULATION IS LIMITED TO
          MOLECULES WHICH HAVE NO INTERNAL ROTATIONS




                    CALCULATED THERMODYNAMIC PROPERTIES
                                          *
   TEMP. (K)   PARTITION FUNCTION   H.O.F.    ENTHALPY  HEAT CAPACITY ENTROPY
                                   KCAL/MOL   CAL/MOLE    CAL/K/MOL  CAL/K/MOL


 298.00  VIB.     0.3089D+02                  3169.1902    25.7274    17.4516
         ROT.     0.3953D+06                   888.2813     2.9808    28.5906
         INT.     0.1221D+08                  4057.4715    28.7082    46.0422
         TRA.     0.1274D+28                  1480.4688     4.9680    40.2640
         TOT.                       32.783    5537.9404    33.6763    86.3062

 200.00  VIB.     0.6038D+01                  1214.5627    14.5380     9.6461
         ROT.     0.2173D+06                   596.1620     2.9808    27.4019
         INT.     0.1312D+07                  1810.7247    17.5188    37.0480
         TRA.     0.7004D+27                   993.6033     4.9680    38.2829
         TOT.                       30.049    2804.3279    22.4868    75.3309

 210.00  VIB.     0.7046D+01                  1365.0252    15.5602    10.3800
         ROT.     0.2338D+06                   625.9700     2.9808    27.5473
         INT.     0.1647D+07                  1990.9952    18.5410    37.9273
         TRA.     0.7536D+27                  1043.2834     4.9680    38.5253
         TOT.                       30.279    3034.2787    23.5090    76.4526

 220.00  VIB.     0.8245D+01                  1525.8778    16.6158    11.1281
         ROT.     0.2507D+06                   655.7781     2.9808    27.6860
         INT.     0.2067D+07                  2181.6559    19.5966    38.8141
         TRA.     0.8081D+27                  1092.9636     4.9680    38.7564
         TOT.                       30.519    3274.6195    24.5647    77.5705

 230.00  VIB.     0.9676D+01                  1697.4486    17.7035    11.8905
         ROT.     0.2680D+06                   685.5862     2.9808    27.8185
         INT.     0.2593D+07                  2383.0348    20.6843    39.7090
         TRA.     0.8638D+27                  1142.6437     4.9680    38.9773
         TOT.                       30.770    3525.6786    25.6523    78.6863

 240.00  VIB.     0.1139D+02                  1880.0473    18.8210    12.6675
         ROT.     0.2857D+06                   715.3943     2.9808    27.9454
         INT.     0.3253D+07                  2595.4417    21.8018    40.6129
         TRA.     0.9207D+27                  1192.3239     4.9680    39.1887
         TOT.                       31.032    3787.7656    26.7698    79.8016

 250.00  VIB.     0.1344D+02                  2073.9585    19.9655    13.4589
         ROT.     0.3037D+06                   745.2024     2.9808    28.0671
         INT.     0.4082D+07                  2819.1610    22.9463    41.5260
         TRA.     0.9789D+27                  1242.0041     4.9680    39.3915
         TOT.                       31.306    4061.1650    27.9143    80.9175

 260.00  VIB.     0.1590D+02                  2279.4367    21.1338    14.2647
         ROT.     0.3221D+06                   775.0105     2.9808    28.1840
         INT.     0.5123D+07                  3054.4472    24.1146    42.4486
         TRA.     0.1038D+28                  1291.6842     4.9680    39.5863
         TOT.                       31.591    4346.1315    29.0826    82.0350

 270.00  VIB.     0.1887D+02                  2496.7025    22.3224    15.0845
         ROT.     0.3409D+06                   804.8186     2.9808    28.2965
         INT.     0.6432D+07                  3301.5212    25.3032    43.3810
         TRA.     0.1099D+28                  1341.3644     4.9680    39.7738
         TOT.                       31.888    4642.8855    30.2713    83.1548

 280.00  VIB.     0.2245D+02                  2725.9409    23.5277    15.9181
         ROT.     0.3600D+06                   834.6267     2.9808    28.4049
         INT.     0.8081D+07                  3560.5676    26.5085    44.3229
         TRA.     0.1160D+28                  1391.0445     4.9680    39.9545
         TOT.                       32.196    4951.6122    31.4765    84.2774

 290.00  VIB.     0.2677D+02                  2967.3000    24.7460    16.7649
         ROT.     0.3795D+06                   864.4348     2.9808    28.5095
         INT.     0.1016D+08                  3831.7348    27.7268    45.2744
         TRA.     0.1223D+28                  1440.7247     4.9680    40.1289
         TOT.                       32.517    5272.4595    32.6948    85.4032

 300.00  VIB.     0.3202D+02                  3220.8911    25.9735    17.6245
         ROT.     0.3993D+06                   894.2429     2.9808    28.6105
         INT.     0.1278D+08                  4115.1341    28.9543    46.2350
         TRA.     0.1287D+28                  1490.4049     4.9680    40.2973
         TOT.                       32.850    5605.5389    33.9224    86.5323

 310.00  VIB.     0.3838D+02                  3486.7899    27.2069    18.4963
         ROT.     0.4194D+06                   924.0510     2.9808    28.7083
         INT.     0.1610D+08                  4410.8410    30.1877    47.2045
         TRA.     0.1352D+28                  1540.0850     4.9680    40.4602
         TOT.                       33.196    5950.9260    35.1557    87.6647

 320.00  VIB.     0.4613D+02                  3765.0377    28.4428    19.3796
         ROT.     0.4398D+06                   953.8591     2.9808    28.8029
         INT.     0.2029D+08                  4718.8969    31.4236    48.1825
         TRA.     0.1418D+28                  1589.7652     4.9680    40.6179
         TOT.                       33.553    6308.6621    36.3916    88.8004

 330.00  VIB.     0.5557D+02                  4055.6436    29.6780    20.2737
         ROT.     0.4606D+06                   983.6672     2.9808    28.8946
         INT.     0.2560D+08                  5039.3108    32.6588    49.1683
         TRA.     0.1485D+28                  1639.4454     4.9680    40.7708
         TOT.                       33.923    6678.7562    37.6269    89.9391

 340.00  VIB.     0.6710D+02                  4358.5868    30.9098    21.1780
         ROT.     0.4817D+06                  1013.4753     2.9808    28.9836
         INT.     0.3232D+08                  5372.0621    33.8906    50.1616
         TRA.     0.1553D+28                  1689.1255     4.9680    40.9191
         TOT.                       34.306    7061.1876    38.8586    91.0807

 350.00  VIB.     0.8121D+02                  4673.8191    32.1355    22.0917
         ROT.     0.5031D+06                  1043.2834     2.9808    29.0700
         INT.     0.4086D+08                  5717.1025    35.1163    51.1617
         TRA.     0.1622D+28                  1738.8057     4.9680    41.0631
         TOT.                       34.701    7455.9082    40.0843    92.2248

 360.00  VIB.     0.9851D+02                  5001.2677    33.3527    23.0141
         ROT.     0.5248D+06                  1073.0915     2.9808    29.1540
         INT.     0.5170D+08                  6074.3592    36.3335    52.1680
         TRA.     0.1692D+28                  1788.4859     4.9680    41.2031
         TOT.                       35.108    7862.8450    41.3015    93.3711

 370.00  VIB.     0.1198D+03                  5340.8378    34.5594    23.9444
         ROT.     0.5469D+06                  1102.8996     2.9808    29.2357
         INT.     0.6549D+08                  6443.7374    37.5402    53.1800
         TRA.     0.1762D+28                  1838.1660     4.9680    41.3392
         TOT.                       35.527    8281.9034    42.5083    94.5192

 380.00  VIB.     0.1459D+03                  5692.4152    35.7539    24.8819
         ROT.     0.5692D+06                  1132.7077     2.9808    29.3151
         INT.     0.8303D+08                  6825.1229    38.7347    54.1970
         TRA.     0.1834D+28                  1887.8462     4.9680    41.4717
         TOT.                       35.958    8712.9691    43.7027    95.6687

 390.00  VIB.     0.1781D+03                  6055.8690    36.9345    25.8259
         ROT.     0.5918D+06                  1162.5158     2.9808    29.3926
         INT.     0.1054D+09                  7218.3849    39.9153    55.2185
         TRA.     0.1907D+28                  1937.5263     4.9680    41.6007
         TOT.                       36.401    9155.9112    44.8833    96.8192

 400.00  VIB.     0.2178D+03                  6431.0539    38.0999    26.7757
         ROT.     0.6147D+06                  1192.3239     2.9808    29.4680
         INT.     0.1339D+09                  7623.3778    41.0807    56.2438
         TRA.     0.1981D+28                  1987.2065     4.9680    41.7265
         TOT.                       36.855    9610.5843    46.0487    97.9703

   *: NOTE: HEATS OF FORMATION ARE RELATIVE TO THE
            ELEMENTS IN THEIR STANDARD STATE AT 298K
              (=  Standard Enthalpy of Formation).

            Hvib:  Zero-point energy is not included.
                   frequencies of less than zero cm-1 are not included.
            Hrot = (3/2)RT
            Htra = (3/2)RT + pV = (5/2)RT

            Heat capacity is Cp, not Cv

          For more information, see: HTTP://OpenMOPAC.net/Manual/thermochemistry.html


           FORCE CONSTANT IN CARTESIAN COORDINATES (Millidynes/A)

    ATOM   CHEMICAL       X               Y               Z
   NUMBER   SYMBOL  FORCE CONSTANT  FORCE CONSTANT  FORCE CONSTANT

      1       C       10.093576        6.776297        8.458993
      2       C       10.142147        6.154297        8.587229
      3       C        5.367124        9.588427        8.707144
      4       C        8.570660        8.625406        8.092771
      5       C        8.451332        8.343081        8.331296
      6       C        7.793325       15.476875        4.813006
      7       C       11.565980       11.611061        3.422134
      8       C        9.975029       13.001188        4.608739
      9       C       11.434946       12.735989        3.159586
     10       H        1.519200        0.681016        3.968563
     11       H        1.459373        0.668819        3.995278
     12       H        0.663251        2.213249        3.734493
     13       H        0.655342        2.307014        3.703660
     14       H        1.078180        1.498760        3.677428
     15       H        3.694279        1.546038        1.139092
     16       H        1.574695        0.746196        4.445772
     17       H        2.314919        3.560474        0.870448
     18       H        2.132839        3.917995        0.695908
     19       H        4.409286        0.937868        0.917405
     20       H        0.940265        4.741544        0.592042
     21       H        3.170043        2.510713        0.614399

 **********************
 *                    *
 * JOB ENDED NORMALLY *
 *                    *
 **********************



 TOTAL JOB TIME:             8.18 SECONDS

 == MOPAC DONE ==
