 *******************************************************************************
 ** Site#: 14399        For non-commercial use only    Version 18.184L 64BITS **
 *******************************************************************************
 ** Cite this program as: MOPAC2016, Version: 18.184L, James J. P. Stewart,   **
 ** Stewart Computational Chemistry, web: HTTP://OpenMOPAC.net. Days left:  20**
 *******************************************************************************
 **                                                                           **
 **                                MOPAC2016                                  **
 **                                                                           **
 *******************************************************************************

                              PM3 CALCULATION RESULTS

 *******************************************************************************
 *  CALCULATION DONE:                                Thu Jun 13 16:06:13 2019  *
 *  PM3        - The PM3 Hamiltonian to be used
 *  PRECISE    - CRITERIA TO BE INCREASED BY 100 TIMES
 *  NOSYM      - POINT-GROUP SYMMETRY SET TO C1
 *  THREADS=1  - MULTI-THREADING NOT USED
 *  T=         - A TIME OF 172800.0 SECONDS REQUESTED
 *  DUMP=N     - RESTART FILE WRITTEN EVERY  7200.000 SECONDS
 *******************************************************************************
pm3  precise nosym THREADS=1
 InChI=1S/C7H6/c1-2-7-5-3-4-6-7/h1,3-7H

   ATOM   CHEMICAL          X               Y               Z
  NUMBER   SYMBOL      (ANGSTROMS)     (ANGSTROMS)     (ANGSTROMS)
 
     1       C          0.21100000  *  -0.37850000  *   0.66600000  *
     2       C         -0.70900000  *  -0.98700000  *  -0.34240000  *
     3       C         -0.25480000  *   1.04160000  *   0.66650000  *
     4       C         -1.54510000  *  -0.07600000  *  -0.81350000  *
     5       C         -1.25980000  *   1.19800000  *  -0.17980000  *
     6       C          1.60690000  *  -0.47060000  *   0.22290000  *
     7       C          2.75420000  *  -0.54690000  *  -0.14030000  *
     8       H          0.07840000  *  -0.84540000  *   1.66450000  *
     9       H         -0.70740000  *  -2.02630000  *  -0.64520000  *
    10       H          0.15730000  *   1.83580000  *   1.27570000  *
    11       H         -2.31390000  *  -0.26020000  *  -1.55190000  *
    12       H         -1.77890000  *   2.12920000  *  -0.36350000  *
    13       H          3.76100000  *  -0.61370000  *  -0.45910000  *
 


          CARTESIAN COORDINATES 

    NO.       ATOM           X           Y           Z

     1         C          0.2110     -0.3785      0.6660
     2         C         -0.7090     -0.9870     -0.3424
     3         C         -0.2548      1.0416      0.6665
     4         C         -1.5451     -0.0760     -0.8135
     5         C         -1.2598      1.1980     -0.1798
     6         C          1.6069     -0.4706      0.2229
     7         C          2.7542     -0.5469     -0.1403
     8         H          0.0784     -0.8454      1.6645
     9         H         -0.7074     -2.0263     -0.6452
    10         H          0.1573      1.8358      1.2757
    11         H         -2.3139     -0.2602     -1.5519
    12         H         -1.7789      2.1292     -0.3635
    13         H          3.7610     -0.6137     -0.4591

  H: (PM3): J. J. P. STEWART, J. COMP. CHEM. 10, 209 (1989).
  C: (PM3): J. J. P. STEWART, J. COMP. CHEM. 10, 209 (1989).

           Empirical Formula: C7 H6  =    13 atoms



      MOLECULAR POINT GROUP   :   C1  


      RHF CALCULATION, NO. OF DOUBLY OCCUPIED LEVELS = 17


          Geometry optimization using EF

          DIAGONAL MATRIX USED AS START HESSIAN

 CYCLE:     1 TIME:   0.016 TIME LEFT:  2.00D  GRAD.:   114.412 HEAT:  91.50244
 CYCLE:     2 TIME:   0.035 TIME LEFT:  2.00D  GRAD.:    83.884 HEAT:  89.92708
 CYCLE:     3 TIME:   0.020 TIME LEFT:  2.00D  GRAD.:    75.347 HEAT:  89.06749
 CYCLE:     4 TIME:   0.027 TIME LEFT:  2.00D  GRAD.:    49.026 HEAT:  88.62136
 CYCLE:     5 TIME:   0.020 TIME LEFT:  2.00D  GRAD.:    26.525 HEAT:  88.36256
 CYCLE:     6 TIME:   0.023 TIME LEFT:  2.00D  GRAD.:    23.058 HEAT:  88.15160
 CYCLE:     7 TIME:   0.027 TIME LEFT:  2.00D  GRAD.:    26.806 HEAT:  88.10638
 CYCLE:     8 TIME:   0.020 TIME LEFT:  2.00D  GRAD.:    15.153 HEAT:  87.96704
 CYCLE:     9 TIME:   0.023 TIME LEFT:  2.00D  GRAD.:    24.569 HEAT:  87.96327
 CYCLE:    10 TIME:   0.020 TIME LEFT:  2.00D  GRAD.:    21.624 HEAT:  87.89433
 CYCLE:    11 TIME:   0.027 TIME LEFT:  2.00D  GRAD.:     8.441 HEAT:  87.78388
 CYCLE:    12 TIME:   0.031 TIME LEFT:  2.00D  GRAD.:     9.984 HEAT:  87.77387
 CYCLE:    13 TIME:   0.027 TIME LEFT:  2.00D  GRAD.:     7.195 HEAT:  87.75151
 CYCLE:    14 TIME:   0.020 TIME LEFT:  2.00D  GRAD.:     8.634 HEAT:  87.74999
 CYCLE:    15 TIME:   0.020 TIME LEFT:  2.00D  GRAD.:     7.594 HEAT:  87.73903
 CYCLE:    16 TIME:   0.023 TIME LEFT:  2.00D  GRAD.:     4.293 HEAT:  87.72581
 CYCLE:    17 TIME:   0.023 TIME LEFT:  2.00D  GRAD.:     4.839 HEAT:  87.72004
 CYCLE:    18 TIME:   0.023 TIME LEFT:  2.00D  GRAD.:     2.903 HEAT:  87.70696
 CYCLE:    19 TIME:   0.023 TIME LEFT:  2.00D  GRAD.:     3.484 HEAT:  87.68992
 CYCLE:    20 TIME:   0.023 TIME LEFT:  2.00D  GRAD.:     3.726 HEAT:  87.67637
 CYCLE:    21 TIME:   0.023 TIME LEFT:  2.00D  GRAD.:     2.574 HEAT:  87.66687
 CYCLE:    22 TIME:   0.020 TIME LEFT:  2.00D  GRAD.:     2.165 HEAT:  87.65750
 CYCLE:    23 TIME:   0.023 TIME LEFT:  2.00D  GRAD.:     2.656 HEAT:  87.64382
 CYCLE:    24 TIME:   0.023 TIME LEFT:  2.00D  GRAD.:     2.476 HEAT:  87.63663
 CYCLE:    25 TIME:   0.023 TIME LEFT:  2.00D  GRAD.:     2.020 HEAT:  87.62689
 CYCLE:    26 TIME:   0.023 TIME LEFT:  2.00D  GRAD.:     2.034 HEAT:  87.61953
 CYCLE:    27 TIME:   0.023 TIME LEFT:  2.00D  GRAD.:     1.683 HEAT:  87.61503
 CYCLE:    28 TIME:   0.020 TIME LEFT:  2.00D  GRAD.:     1.136 HEAT:  87.61294
 CYCLE:    29 TIME:   0.023 TIME LEFT:  2.00D  GRAD.:     0.929 HEAT:  87.61147
 CYCLE:    30 TIME:   0.023 TIME LEFT:  2.00D  GRAD.:     1.084 HEAT:  87.60966
 CYCLE:    31 TIME:   0.023 TIME LEFT:  2.00D  GRAD.:     0.891 HEAT:  87.60842
 CYCLE:    32 TIME:   0.023 TIME LEFT:  2.00D  GRAD.:     0.529 HEAT:  87.60741
 CYCLE:    33 TIME:   0.023 TIME LEFT:  2.00D  GRAD.:     0.427 HEAT:  87.60700
 CYCLE:    34 TIME:   0.023 TIME LEFT:  2.00D  GRAD.:     0.344 HEAT:  87.60653
 CYCLE:    35 TIME:   0.020 TIME LEFT:  2.00D  GRAD.:     0.166 HEAT:  87.60640
 CYCLE:    36 TIME:   0.031 TIME LEFT:  2.00D  GRAD.:     0.096 HEAT:  87.60636
 CYCLE:    37 TIME:   0.023 TIME LEFT:  2.00D  GRAD.:     0.128 HEAT:  87.60632
 CYCLE:    38 TIME:   0.020 TIME LEFT:  2.00D  GRAD.:     0.115 HEAT:  87.60630
 CYCLE:    39 TIME:   0.023 TIME LEFT:  2.00D  GRAD.:     0.080 HEAT:  87.60628
 CYCLE:    40 TIME:   0.023 TIME LEFT:  2.00D  GRAD.:     0.115 HEAT:  87.60625
 CYCLE:    41 TIME:   0.023 TIME LEFT:  2.00D  GRAD.:     0.155 HEAT:  87.60622
 CYCLE:    42 TIME:   0.023 TIME LEFT:  2.00D  GRAD.:     0.133 HEAT:  87.60619
 CYCLE:    43 TIME:   0.023 TIME LEFT:  2.00D  GRAD.:     0.097 HEAT:  87.60617
 CYCLE:    44 TIME:   0.020 TIME LEFT:  2.00D  GRAD.:     0.110 HEAT:  87.60614
 CYCLE:    45 TIME:   0.023 TIME LEFT:  2.00D  GRAD.:     0.100 HEAT:  87.60613
 CYCLE:    46 TIME:   0.023 TIME LEFT:  2.00D  GRAD.:     0.050 HEAT:  87.60612
 CYCLE:    47 TIME:   0.023 TIME LEFT:  2.00D  GRAD.:     0.032 HEAT:  87.60611

     GRADIENT =  0.03185  IS LESS THAN CUTOFF =  0.05000



 -------------------------------------------------------------------------------
 pm3  precise nosym THREADS=1
 InChI=1S/C7H6/c1-2-7-5-3-4-6-7/h1,3-7H



     GEOMETRY OPTIMISED USING EIGENVECTOR FOLLOWING (EF).     
     SCF FIELD WAS ACHIEVED                                   


                              PM3 CALCULATION
                                                       MOPAC2016 (Version: 18.184L)
                                                       Thu Jun 13 16:06:14 2019
                                                       No. of days remaining =  20




          FINAL HEAT OF FORMATION =         87.60611 KCAL/MOL =     366.54398 KJ/MOL


          TOTAL ENERGY            =       -918.68002 EV
          ELECTRONIC ENERGY       =      -3776.97065 EV  POINT GROUP:     C1  
          CORE-CORE REPULSION     =       2858.29064 EV
          COSMO AREA              =        139.14 SQUARE ANGSTROMS
          COSMO VOLUME            =        128.39 CUBIC ANGSTROMS

          GRADIENT NORM           =          0.03185 = 0.00883 PER ATOM
          IONIZATION POTENTIAL    =          9.371874 EV
          HOMO LUMO ENERGIES (EV) =         -9.372  0.159
          NO. OF FILLED LEVELS    =         17
          MOLECULAR WEIGHT        =         90.1244

          MOLECULAR DIMENSIONS (Angstroms)

            Atom       Atom       Distance
            H    13    H    12     6.31403
            H    10    H     9     4.32158
            H    11    H     8     2.56889


          SCF CALCULATIONS        =         54
 
          WALL-CLOCK TIME         =          1.148 SECONDS
          COMPUTATION TIME        =          0.229 SECONDS




   ATOM   CHEMICAL          X               Y               Z
  NUMBER   SYMBOL      (ANGSTROMS)     (ANGSTROMS)     (ANGSTROMS)
 
     1       C          0.24295263  *  -0.36272924  *   0.61992292  *
     2       C         -0.70202003  *  -1.00000219  *  -0.37880871  *
     3       C         -0.23746779  *   1.07419965  *   0.65251421  *
     4       C         -1.59318338  *  -0.07925763  *  -0.80338196  *
     5       C         -1.30480099  *   1.20867098  *  -0.16292708  *
     6       C          1.62441800  *  -0.47765099  *   0.22896255  *
     7       C          2.76686152  *  -0.57284824  *  -0.09362544  *
     8       H          0.10720215  *  -0.83192751  *   1.62451618  *
     9       H         -0.62388595  *  -2.04503563  *  -0.66941955  *
    10       H          0.24555691  *   1.83590273  *   1.26010179  *
    11       H         -2.40976859  *  -0.22453596  *  -1.50801788  *
    12       H         -1.88746684  *   2.10920524  *  -0.34733017  *
    13       H          3.78778428  *  -0.65797830  *  -0.38155049  *

                             CARTESIAN COORDINATES

   1    C        0.242952632    -0.362729243     0.619922925
   2    C       -0.702020034    -1.000002185    -0.378808707
   3    C       -0.237467792     1.074199649     0.652514213
   4    C       -1.593183381    -0.079257626    -0.803381957
   5    C       -1.304800989     1.208670981    -0.162927077
   6    C        1.624417999    -0.477650992     0.228962554
   7    C        2.766861522    -0.572848242    -0.093625445
   8    H        0.107202150    -0.831927510     1.624516177
   9    H       -0.623885951    -2.045035631    -0.669419546
  10    H        0.245556912     1.835902733     1.260101790
  11    H       -2.409768589    -0.224535956    -1.508017881
  12    H       -1.887466842     2.109205235    -0.347330165
  13    H        3.787784279    -0.657978296    -0.381550490


           Empirical Formula: C7 H6  =    13 atoms



      MOLECULAR POINT GROUP   :   C1  


                  EIGENVALUES  
 -39.87435 -31.73051 -27.41800 -26.66317 -20.12507 -18.74024 -18.41321 -17.71739
 -16.13688 -14.33739 -14.09737 -13.46652 -13.11052 -11.50091 -11.16395 -10.87370
  -9.37187   0.15902   1.69923   1.88578   1.96730   2.70258   3.28154   3.29219
   3.79531   3.86969   4.12937   4.23874   4.35948   4.54550   5.60036   5.64563
   6.01174   6.64003


              NET ATOMIC CHARGES AND DIPOLE CONTRIBUTIONS

  ATOM NO.   TYPE          CHARGE      No. of ELECS.   s-Pop       p-Pop       
    1          C           0.110976        3.8890     1.11825     2.77077
    2          C          -0.153396        4.1534     1.20944     2.94396
    3          C          -0.153380        4.1534     1.20944     2.94394
    4          C          -0.114438        4.1144     1.19280     2.92163
    5          C          -0.114412        4.1144     1.19280     2.92161
    6          C          -0.161918        4.1619     1.20091     2.96101
    7          C          -0.177810        4.1778     1.21022     2.96759
    8          H           0.096023        0.9040     0.90398
    9          H           0.120859        0.8791     0.87914
   10          H           0.120861        0.8791     0.87914
   11          H           0.115340        0.8847     0.88466
   12          H           0.115347        0.8847     0.88465
   13          H           0.195949        0.8041     0.80405
 DIPOLE           X         Y         Z       TOTAL
 POINT-CHG.    -0.198    -0.088     0.267     0.344
 HYBRID         0.145    -0.019    -0.028     0.149
 SUM           -0.053    -0.107     0.239     0.267


          ATOMIC ORBITAL ELECTRON POPULATIONS

     Atom    s        px        py        pz   
    1  C   1.11825   0.86248   0.93711   0.97118
    2  C   1.20944   0.97431   0.98648   0.98317
    3  C   1.20944   0.98175   0.96210   1.00009
    4  C   1.19280   0.98919   0.94138   0.99107
    5  C   1.19280   0.97838   0.96798   0.97525
    6  C   1.20091   0.95129   1.00759   1.00212
    7  C   1.21022   0.96100   1.00177   1.00482
    8  H   0.90398
    9  H   0.87914
   10  H   0.87914
   11  H   0.88466
   12  H   0.88465
   13  H   0.80405
 *******************************************************************************
 ** Site#: 14399        For non-commercial use only    Version 18.184L 64BITS **
 *******************************************************************************
 ** Cite this program as: MOPAC2016, Version: 18.184L, James J. P. Stewart,   **
 ** Stewart Computational Chemistry, web: HTTP://OpenMOPAC.net. Days left:  20**
 *******************************************************************************
 **                                                                           **
 **                                MOPAC2016                                  **
 **                                                                           **
 *******************************************************************************

                              PM3 CALCULATION RESULTS

 *******************************************************************************
 *  CALCULATION DONE:                                Thu Jun 13 16:06:14 2019  *
 *  PM3        - The PM3 Hamiltonian to be used
 *  OLDGEO     - PREVIOUS GEOMETRY TO BE USED
 *  PRECISE    - CRITERIA TO BE INCREASED BY 100 TIMES
 *  NOSYM      - POINT-GROUP SYMMETRY SET TO C1
 *  THREADS=1  - MULTI-THREADING NOT USED
 *  T=         - A TIME OF 172800.0 SECONDS REQUESTED
 *  DUMP=N     - RESTART FILE WRITTEN EVERY  7200.000 SECONDS
 *  THERMO     - THERMODYNAMIC QUANTITIES TO BE CALCULATED
 *******************************************************************************
oldgeo thermo nosym precise THREADS=1  pm3
 InChI=1S/C7H6/c1-2-7-5-3-4-6-7/h1,3-7H

   ATOM   CHEMICAL          X               Y               Z
  NUMBER   SYMBOL      (ANGSTROMS)     (ANGSTROMS)     (ANGSTROMS)
 
     1       C          0.24295263  *  -0.36272924  *   0.61992292  *
     2       C         -0.70202003  *  -1.00000219  *  -0.37880871  *
     3       C         -0.23746779  *   1.07419965  *   0.65251421  *
     4       C         -1.59318338  *  -0.07925763  *  -0.80338196  *
     5       C         -1.30480099  *   1.20867098  *  -0.16292708  *
     6       C          1.62441800  *  -0.47765099  *   0.22896255  *
     7       C          2.76686152  *  -0.57284824  *  -0.09362544  *
     8       H          0.10720215  *  -0.83192751  *   1.62451618  *
     9       H         -0.62388595  *  -2.04503563  *  -0.66941955  *
    10       H          0.24555691  *   1.83590273  *   1.26010179  *
    11       H         -2.40976859  *  -0.22453596  *  -1.50801788  *
    12       H         -1.88746684  *   2.10920524  *  -0.34733017  *
    13       H          3.78778428  *  -0.65797830  *  -0.38155049  *
 


          CARTESIAN COORDINATES 

    NO.       ATOM           X           Y           Z

     1         C          0.2430     -0.3627      0.6199
     2         C         -0.7020     -1.0000     -0.3788
     3         C         -0.2375      1.0742      0.6525
     4         C         -1.5932     -0.0793     -0.8034
     5         C         -1.3048      1.2087     -0.1629
     6         C          1.6244     -0.4777      0.2290
     7         C          2.7669     -0.5728     -0.0936
     8         H          0.1072     -0.8319      1.6245
     9         H         -0.6239     -2.0450     -0.6694
    10         H          0.2456      1.8359      1.2601
    11         H         -2.4098     -0.2245     -1.5080
    12         H         -1.8875      2.1092     -0.3473
    13         H          3.7878     -0.6580     -0.3816

  H: (PM3): J. J. P. STEWART, J. COMP. CHEM. 10, 209 (1989).
  C: (PM3): J. J. P. STEWART, J. COMP. CHEM. 10, 209 (1989).

           Empirical Formula: C7 H6  =    13 atoms



      MOLECULAR POINT GROUP   :   C1  


      RHF CALCULATION, NO. OF DOUBLY OCCUPIED LEVELS = 17



          HEAT OF FORMATION =      87.606114 KCALS/MOLE


          CARTESIAN COORDINATE DERIVATIVES

   NUMBER  ATOM         X            Y            Z

     1       C      0.001845     0.006349     0.002179
     2       C     -0.003564    -0.003529     0.000428
     3       C     -0.005714    -0.002045     0.004708
     4       C     -0.009209     0.011277     0.006602
     5       C      0.003392    -0.000099     0.005209
     6       C      0.007801    -0.000120    -0.003946
     7       C      0.001226    -0.001310    -0.000254
     8       H      0.005242    -0.007029    -0.000779
     9       H      0.002643     0.004147    -0.009856
    10       H     -0.004149    -0.003795     0.004537
    11       H     -0.003166    -0.012623     0.002926
    12       H      0.008832     0.006189    -0.012564
    13       H     -0.005180     0.002588     0.000809
 


          GRADIENT NORM =   0.03527


          TIME FOR SCF CALCULATION =    0.02

          TIME FOR DERIVATIVES     =    0.01

          MOLECULAR WEIGHT =   90.12



          ROTATIONAL CONSTANTS IN CM(-1)

          A =    0.22049432   B =    0.07081684   C =    0.05992754



           PRINCIPAL MOMENTS OF INERTIA IN UNITS OF 10**(-40)*GRAM-CM**2

          A =      126.9546   B =      395.2841   C =      467.1104


          ORIENTATION OF MOLECULE IN FORCE CALCULATION

    NO.       ATOM         X         Y         Z

     1          C      -0.3523   -0.4385   -0.4389
     2          C       1.1632   -0.4385   -0.4389
     3          C      -0.6784    1.0415   -0.4389
     4          C       1.6115    0.8343   -0.4762
     5          C       0.4680    1.7532   -0.4763
     6          C      -0.9077   -1.1295    0.6962
     7          C      -1.3675   -1.7012    1.6343
     8          H      -0.7324   -0.9116   -1.3767
     9          H       1.7454   -1.3566   -0.4119
    10          H      -1.7004    1.4124   -0.4117
    11          H       2.6461    1.1708   -0.5015
    12          H       0.5741    2.8361   -0.5019
    13          H      -1.7785   -2.2122    2.4724


    FIRST DERIVATIVES WILL BE USED IN THE CALCULATION OF SECOND DERIVATIVES

          ESTIMATED TIME TO COMPLETE CALCULATION =        4.27 SECONDS

    FOR POINT-GROUP C1   THERE ARE   1 UNIQUE SYMMETRY FUNCTIONS.

 STEP:   1 TIME =     0.02 SECS, INTEGRAL =      0.02 TIME LEFT: 172799.95
 STEP:   2 TIME =     0.02 SECS, INTEGRAL =      0.05 TIME LEFT: 172799.93
 STEP:   3 TIME =     0.03 SECS, INTEGRAL =      0.07 TIME LEFT: 172799.90
 STEP:   4 TIME =     0.03 SECS, INTEGRAL =      0.10 TIME LEFT: 172799.87
 STEP:   5 TIME =     0.02 SECS, INTEGRAL =      0.12 TIME LEFT: 172799.85
 STEP:   6 TIME =     0.02 SECS, INTEGRAL =      0.15 TIME LEFT: 172799.82
 STEP:   7 TIME =     0.02 SECS, INTEGRAL =      0.17 TIME LEFT: 172799.80
 STEP:   8 TIME =     0.03 SECS, INTEGRAL =      0.20 TIME LEFT: 172799.77
 STEP:   9 TIME =     0.03 SECS, INTEGRAL =      0.23 TIME LEFT: 172799.75
 STEP:  10 TIME =     0.02 SECS, INTEGRAL =      0.25 TIME LEFT: 172799.72
 STEP:  11 TIME =     0.02 SECS, INTEGRAL =      0.27 TIME LEFT: 172799.70
 STEP:  12 TIME =     0.03 SECS, INTEGRAL =      0.30 TIME LEFT: 172799.67
 STEP:  13 TIME =     0.02 SECS, INTEGRAL =      0.32 TIME LEFT: 172799.65
 STEP:  14 TIME =     0.02 SECS, INTEGRAL =      0.35 TIME LEFT: 172799.62
 STEP:  15 TIME =     0.02 SECS, INTEGRAL =      0.37 TIME LEFT: 172799.60
 STEP:  16 TIME =     0.02 SECS, INTEGRAL =      0.39 TIME LEFT: 172799.58
 STEP:  17 TIME =     0.02 SECS, INTEGRAL =      0.42 TIME LEFT: 172799.55
 STEP:  18 TIME =     0.02 SECS, INTEGRAL =      0.44 TIME LEFT: 172799.53
 STEP:  19 TIME =     0.02 SECS, INTEGRAL =      0.46 TIME LEFT: 172799.51
 STEP:  20 TIME =     0.02 SECS, INTEGRAL =      0.49 TIME LEFT: 172799.48
 STEP:  21 TIME =     0.03 SECS, INTEGRAL =      0.52 TIME LEFT: 172799.46
 STEP:  22 TIME =     0.03 SECS, INTEGRAL =      0.54 TIME LEFT: 172799.43
 STEP:  23 TIME =     0.02 SECS, INTEGRAL =      0.57 TIME LEFT: 172799.41
 STEP:  24 TIME =     0.02 SECS, INTEGRAL =      0.59 TIME LEFT: 172799.38
 STEP:  25 TIME =     0.03 SECS, INTEGRAL =      0.62 TIME LEFT: 172799.36
 STEP:  26 TIME =     0.02 SECS, INTEGRAL =      0.64 TIME LEFT: 172799.33
 STEP:  27 TIME =     0.03 SECS, INTEGRAL =      0.67 TIME LEFT: 172799.30
 STEP:  28 TIME =     0.02 SECS, INTEGRAL =      0.69 TIME LEFT: 172799.28
 STEP:  29 TIME =     0.02 SECS, INTEGRAL =      0.71 TIME LEFT: 172799.26
 STEP:  30 TIME =     0.02 SECS, INTEGRAL =      0.74 TIME LEFT: 172799.23
 STEP:  31 TIME =     0.02 SECS, INTEGRAL =      0.76 TIME LEFT: 172799.21
 STEP:  32 TIME =     0.02 SECS, INTEGRAL =      0.79 TIME LEFT: 172799.19
 STEP:  33 TIME =     0.02 SECS, INTEGRAL =      0.81 TIME LEFT: 172799.16
 STEP:  34 TIME =     0.02 SECS, INTEGRAL =      0.83 TIME LEFT: 172799.14
 STEP:  35 TIME =     0.02 SECS, INTEGRAL =      0.86 TIME LEFT: 172799.12
 STEP:  36 TIME =     0.03 SECS, INTEGRAL =      0.88 TIME LEFT: 172799.09
 STEP:  37 TIME =     0.02 SECS, INTEGRAL =      0.91 TIME LEFT: 172799.07
 STEP:  38 TIME =     0.02 SECS, INTEGRAL =      0.93 TIME LEFT: 172799.04
 STEP:  39 TIME =     0.03 SECS, INTEGRAL =      0.96 TIME LEFT: 172799.02

(To convert to Hartree/Bohr^2, multiply by (10^(-21) x N x a0^2)/(4.184 x 627.51) =  0.0642)


           FORCE MATRIX IN MILLIDYNES/ANGSTROM


                  C  1       C  2       C  3       C  4       C  5       C  6
 ------------------------------------------------------------------------------
     C    1  15.774118
     C    2   4.012542  17.874073
     C    3   4.011749   1.070312  17.871518
     C    4   1.195996   9.828334   1.547886  18.318800
     C    5   1.196791   1.546680   9.826371   5.125149  18.319465
     C    6   6.459862   0.706266   0.706738   0.070961   0.071012  25.177422
     C    7   0.533689   0.038925   0.039259   0.010090   0.010483  17.555575
     H    8   4.194512   0.394894   0.394910   0.051661   0.051632   0.423540
     H    9   0.406649   5.093167   0.041575   0.442961   0.101981   0.010356
     H   10   0.406770   0.041627   5.092775   0.101869   0.442279   0.010415
     H   11   0.113309   0.446458   0.049030   5.068404   0.419880   0.018988
     H   12   0.113165   0.049458   0.446494   0.420074   5.067736   0.019131
     H   13   0.066379   0.008141   0.008075   0.002423   0.002441   0.350966


                  C  7       H  8       H  9       H 10       H 11       H 12
 ------------------------------------------------------------------------------
     C    7  23.893591
     H    8   0.032556   4.648230
     H    9   0.003492   0.010381   5.487000
     H   10   0.003698   0.010368   0.010025   5.487059
     H   11   0.002637   0.014778   0.042479   0.005367   5.456407
     H   12   0.002535   0.014670   0.005413   0.042486   0.009927   5.456088
     H   13   5.884088   0.006397   0.001382   0.001391   0.001076   0.001071


                  H 13
 ------------------
     H   13   6.060491


          HEAT OF FORMATION =      87.606114 KCALS/MOLE

          ZERO POINT ENERGY      64.886 KCAL/MOL


           NORMAL COORDINATE ANALYSIS (Total motion = 1 Angstrom)


   Root No.       1         2         3         4         5         6         7         8

                 1 A       2 A       3 A       4 A       5 A       6 A       7 A       8 A   

                 138.3     188.2     372.5     464.6     539.3     561.6     727.1     809.1
  
           1   -0.0135   -0.0388    0.0005   -0.0088    0.0072   -0.0190   -0.0248    0.0070
           2   -0.0169    0.0312    0.0003    0.0071    0.0083    0.0155   -0.0308   -0.0056
           3   -0.0579   -0.0001    0.0208    0.0002   -0.0354   -0.0004   -0.0345    0.0000
           4   -0.0125   -0.0378   -0.0003   -0.0129   -0.0026   -0.0309   -0.0195   -0.0066
           5   -0.0167   -0.0086   -0.0003   -0.0007   -0.0325    0.0000    0.0266   -0.0109
           6   -0.0346    0.0425   -0.0559   -0.0332    0.0382    0.0338   -0.0127    0.0337
           7   -0.0137    0.0002   -0.0002   -0.0018   -0.0310   -0.0076    0.0301    0.0092
           8   -0.0159    0.0387   -0.0008    0.0129   -0.0106    0.0299   -0.0134    0.0088
           9   -0.0345   -0.0428   -0.0558    0.0325    0.0399   -0.0329   -0.0126   -0.0339
          10   -0.0117   -0.0024    0.0011   -0.0039   -0.0214   -0.0113    0.0109   -0.0232
          11   -0.0147   -0.0222    0.0011   -0.0018   -0.0311   -0.0113    0.0201   -0.0059
          12    0.0596    0.0352    0.0190    0.0570   -0.0071   -0.0290   -0.0151    0.0254
          13   -0.0119    0.0211    0.0007    0.0011   -0.0261    0.0078    0.0173    0.0008
          14   -0.0146    0.0071    0.0013    0.0044   -0.0281    0.0127    0.0149    0.0239
          15    0.0597   -0.0350    0.0195   -0.0569   -0.0088    0.0288   -0.0150   -0.0255
          16    0.0102   -0.0210    0.0404    0.0516    0.0671    0.0833   -0.0032    0.0046
          17    0.0126    0.0172    0.0511   -0.0417    0.0862   -0.0647   -0.0040   -0.0037
          18   -0.0267    0.0001    0.0781    0.0002    0.0133    0.0004    0.0187    0.0000
          19    0.0515    0.0688   -0.0291   -0.0119    0.0194   -0.0071   -0.0090    0.0047
          20    0.0643   -0.0553   -0.0361    0.0092    0.0240    0.0062   -0.0112   -0.0038
          21    0.0248   -0.0000   -0.0078    0.0002   -0.0569   -0.0009    0.0171    0.0000
          22   -0.0199   -0.0349   -0.0567   -0.0645   -0.0081   -0.0232   -0.0564    0.0568
          23   -0.0247    0.0277   -0.0713    0.0515   -0.0102    0.0181   -0.0699   -0.0457
          24   -0.0490    0.0001    0.0803    0.0004   -0.0173   -0.0000   -0.0002    0.0001
          25   -0.0136   -0.0649   -0.0001   -0.0204   -0.0190   -0.0521   -0.0014    0.0034
          26   -0.0187   -0.0246   -0.0028   -0.0066   -0.0393   -0.0110    0.0437   -0.0129
          27   -0.0746    0.0869   -0.1430   -0.0689    0.1654    0.1283    0.1688   -0.2344
          28   -0.0153    0.0100   -0.0027    0.0023   -0.0342   -0.0016    0.0429    0.0133
          29   -0.0174    0.0686   -0.0015    0.0216   -0.0290    0.0525    0.0079   -0.0005
          30   -0.0743   -0.0874   -0.1426    0.0668    0.1713   -0.1240    0.1679    0.2352
          31   -0.0108    0.0077    0.0015    0.0012   -0.0251   -0.0043    0.0224   -0.0199
          32   -0.0130   -0.0508    0.0019   -0.0072   -0.0197   -0.0398   -0.0016   -0.0282
          33    0.1200    0.0730    0.0432    0.1944    0.0169   -0.1057    0.1529   -0.1186
          34   -0.0105    0.0512    0.0011    0.0075   -0.0152    0.0376   -0.0065    0.0235
          35   -0.0133    0.0033    0.0018    0.0006   -0.0293    0.0119    0.0215    0.0256
          36    0.1201   -0.0725    0.0445   -0.1942    0.0107    0.1062    0.1526    0.1200
          37    0.0883    0.1487   -0.0992   -0.0848   -0.0491   -0.1375   -0.0213   -0.0352
          38    0.1104   -0.1197   -0.1239    0.0677   -0.0647    0.1083   -0.0265    0.0287
          39    0.0709   -0.0001   -0.0954    0.0001   -0.1467   -0.0026    0.0031    0.0003


   Root No.       9        10        11        12        13        14        15        16

                 9 A      10 A      11 A      12 A      13 A      14 A      15 A      16 A   

                 819.3     826.0     860.9     868.6     953.7     975.3     990.0    1013.4
  
           1    0.0416    0.0284   -0.0098   -0.0022   -0.0033    0.0062    0.0237    0.0059
           2   -0.0344    0.0347   -0.0123    0.0011   -0.0042   -0.0050    0.0294    0.0071
           3   -0.0006    0.0381   -0.0114   -0.0004   -0.0222   -0.0001    0.0469   -0.0369
           4    0.0015    0.0356   -0.0170   -0.0077    0.0367   -0.0187   -0.0281   -0.0088
           5   -0.0620   -0.0285    0.0109    0.0059   -0.0151    0.0109    0.0058    0.0008
           6   -0.0157   -0.0214    0.0066    0.0087   -0.0316    0.0141   -0.0353   -0.0090
           7    0.0621   -0.0345    0.0146   -0.0064   -0.0227   -0.0147    0.0117    0.0024
           8    0.0109    0.0288   -0.0145    0.0051    0.0326    0.0159   -0.0262   -0.0081
           9    0.0165   -0.0209    0.0071   -0.0082   -0.0315   -0.0139   -0.0354   -0.0080
          10   -0.1027   -0.0086    0.0027    0.0044   -0.0059   -0.0008    0.0140    0.0054
          11   -0.0194   -0.0174    0.0058   -0.0002   -0.0016   -0.0039   -0.0031   -0.0022
          12   -0.0094   -0.0191    0.0091    0.0071    0.0280   -0.0439    0.0175    0.0014
          13   -0.0027   -0.0152    0.0050    0.0015   -0.0003    0.0037   -0.0060   -0.0033
          14    0.1048   -0.0104    0.0040   -0.0040   -0.0060    0.0017    0.0131    0.0048
          15    0.0100   -0.0187    0.0095   -0.0064    0.0281    0.0438    0.0176    0.0003
          16   -0.0046   -0.0050    0.0253    0.0537   -0.0064    0.0040   -0.0045    0.0083
          17    0.0039   -0.0060    0.0340   -0.0410   -0.0079   -0.0031   -0.0056    0.0103
          18    0.0000   -0.0028    0.0233    0.0009    0.0104    0.0001   -0.0182    0.0452
          19   -0.0041   -0.0107   -0.0335   -0.0832   -0.0086   -0.0011    0.0096   -0.0230
          20    0.0037   -0.0133   -0.0458    0.0641   -0.0107    0.0008    0.0120   -0.0286
          21    0.0001   -0.0087   -0.0583   -0.0023    0.0177    0.0000   -0.0083    0.0278
          22   -0.0002    0.0348   -0.0576   -0.0107   -0.0145    0.2178    0.0070    0.2712
          23   -0.0012    0.0436   -0.0721    0.0038   -0.0188   -0.1743    0.0082    0.3321
          24   -0.0005    0.0307    0.0393    0.0017   -0.0083   -0.0004    0.0617   -0.3145
          25    0.0890    0.0272   -0.0183   -0.0210    0.0959   -0.0375   -0.1506   -0.0668
          26   -0.0044   -0.0322    0.0104   -0.0036    0.0277   -0.0040   -0.0674   -0.0359
          27    0.1077    0.0605    0.0056   -0.0288    0.1592   -0.0765    0.1349    0.0108
          28    0.0248   -0.0369    0.0141   -0.0001    0.0062   -0.0042   -0.0333   -0.0209
          29   -0.0865    0.0183   -0.0166    0.0201    0.0994    0.0373   -0.1615   -0.0722
          30   -0.1100    0.0574    0.0040    0.0295    0.1592    0.0758    0.1350    0.0080
          31   -0.0901   -0.0200    0.0088    0.0065   -0.0347    0.0195    0.0428    0.0172
          32   -0.0583    0.0342   -0.0201   -0.0107    0.0766   -0.0504   -0.1009   -0.0405
          33    0.0609    0.1970   -0.0802   -0.0431   -0.1563    0.1872   -0.0636   -0.0082
          34    0.0363    0.0383   -0.0221    0.0104    0.0832    0.0536   -0.1081   -0.0420
          35    0.1008   -0.0106    0.0044   -0.0038   -0.0175   -0.0082    0.0202    0.0081
          36   -0.0674    0.1951   -0.0823    0.0372   -0.1567   -0.1866   -0.0642   -0.0047
          37    0.0471    0.0739    0.2255    0.4901   -0.0115    0.0062   -0.0010   -0.0009
          38   -0.0402    0.0912    0.3051   -0.3756   -0.0143   -0.0051   -0.0013   -0.0013
          39   -0.0015    0.0968    0.2817    0.0107    0.0166    0.0000   -0.0233    0.0608


   Root No.      17        18        19        20        21        22        23        24

                17 A      18 A      19 A      20 A      21 A      22 A      23 A      24 A   

                1019.5    1082.5    1090.2    1123.1    1204.4    1303.6    1375.6    1419.0
  
           1    0.0128    0.0051   -0.0004    0.0003    0.0390    0.1070    0.0736    0.0562
           2   -0.0104   -0.0040   -0.0004    0.0005   -0.0313   -0.0860    0.0914    0.0700
           3    0.0004    0.0001   -0.0065    0.0511    0.0000    0.0000   -0.0727   -0.0422
           4   -0.0212   -0.0103   -0.0059   -0.0455    0.0130   -0.0858   -0.0042   -0.0545
           5    0.0128    0.0200    0.0049    0.0149    0.0165    0.0134    0.0195   -0.0074
           6   -0.0389    0.0040    0.0029   -0.0138    0.0026    0.0040    0.0083    0.0055
           7   -0.0170   -0.0213    0.0070    0.0246   -0.0132   -0.0315    0.0198    0.0046
           8    0.0179    0.0051   -0.0050   -0.0414   -0.0163    0.0809    0.0002   -0.0549
           9    0.0390   -0.0040    0.0031   -0.0139   -0.0026   -0.0040    0.0082    0.0055
          10    0.0010    0.0039   -0.0015   -0.0426   -0.0094    0.0235   -0.0902    0.0557
          11   -0.0007    0.0003    0.0076    0.0099    0.0225   -0.0211    0.0359   -0.0541
          12    0.0376   -0.0019   -0.0011    0.0036   -0.0016   -0.0011   -0.0005   -0.0004
          13    0.0010    0.0009    0.0076    0.0188   -0.0240    0.0255    0.0545   -0.0648
          14   -0.0010   -0.0042    0.0004   -0.0395    0.0044   -0.0184   -0.0804    0.0428
          15   -0.0376    0.0018   -0.0012    0.0037    0.0016    0.0011   -0.0005   -0.0005
          16   -0.0029   -0.0017   -0.0007    0.0064   -0.0066   -0.0096   -0.0092   -0.0047
          17    0.0022    0.0014   -0.0009    0.0080    0.0053    0.0077   -0.0114   -0.0058
          18   -0.0004   -0.0000    0.0011   -0.0094    0.0000   -0.0000    0.0059    0.0027
          19    0.0016    0.0004   -0.0011    0.0107    0.0017    0.0031   -0.0199   -0.0116
          20   -0.0008   -0.0003   -0.0013    0.0133   -0.0014   -0.0025   -0.0248   -0.0145
          21   -0.0003   -0.0000    0.0023   -0.0215    0.0000   -0.0000    0.0432    0.0255
          22    0.2392   -0.0726   -0.0118    0.0819   -0.0984   -0.1124   -0.0744   -0.0337
          23   -0.1964    0.0588   -0.0176    0.1019    0.0792    0.0905   -0.0926   -0.0421
          24    0.0025   -0.0001    0.0060   -0.0359   -0.0001   -0.0001    0.0831    0.0499
          25   -0.0325    0.1636   -0.1722    0.1077   -0.1739   -0.0063   -0.0552    0.1033
          26    0.0093    0.1318   -0.1006    0.1178   -0.1033    0.0638   -0.0075    0.0934
          27    0.0993   -0.0114   -0.0046    0.0271    0.0002   -0.0063   -0.0150   -0.0115
          28   -0.0156   -0.0951   -0.0567    0.0928    0.0635   -0.0637    0.0046    0.0690
          29    0.0310   -0.1948   -0.1809    0.1325    0.1923   -0.0076   -0.0554    0.1211
          30   -0.0994    0.0112   -0.0052    0.0273   -0.0002    0.0063   -0.0150   -0.0114
          31    0.0221    0.0663   -0.0833   -0.0714    0.0466   -0.0361   -0.0551    0.0064
          32   -0.0787   -0.1906    0.2623    0.0899   -0.1515    0.1635   -0.1014    0.1016
          33   -0.1182    0.0060   -0.0028    0.0030    0.0030   -0.0022   -0.0039   -0.0060
          34    0.0824    0.2113    0.2655    0.1010    0.1570   -0.1667   -0.0874    0.0979
          35   -0.0049   -0.0251   -0.0239   -0.0501   -0.0128    0.0001   -0.0756    0.0281
          36    0.1187   -0.0058   -0.0024    0.0028   -0.0030    0.0022   -0.0039   -0.0059
          37   -0.0018   -0.0009   -0.0015    0.0131   -0.0007    0.0017   -0.0244   -0.0141
          38    0.0015    0.0008   -0.0019    0.0164    0.0005   -0.0014   -0.0302   -0.0176
          39   -0.0006   -0.0000    0.0022   -0.0225   -0.0000    0.0000    0.0509    0.0308


   Root No.      25        26        27        28        29        30        31        32

                25 A      26 A      27 A      28 A      29 A      30 A      31 A      32 A   

                1735.8    1790.3    2330.0    2875.9    3131.6    3134.4    3148.1    3157.1
  
           1   -0.0120   -0.0010    0.0270   -0.0253   -0.0002    0.0003   -0.0000   -0.0006
           2   -0.0150    0.0009    0.0336   -0.0315    0.0002    0.0004    0.0000   -0.0008
           3    0.0044   -0.0000   -0.0489   -0.0619   -0.0000   -0.0000    0.0000   -0.0002
           4    0.0519   -0.0555    0.0013   -0.0013   -0.0070    0.0092   -0.0129    0.0114
           5    0.1322   -0.1146    0.0008   -0.0004    0.0096   -0.0134    0.0250   -0.0224
           6   -0.0049    0.0039   -0.0004   -0.0002   -0.0003    0.0004   -0.0007    0.0006
           7    0.1183    0.0995    0.0005   -0.0001   -0.0111   -0.0149   -0.0273   -0.0243
           8    0.0795    0.0786    0.0015   -0.0013    0.0048    0.0060    0.0072    0.0063
           9   -0.0050   -0.0039   -0.0004   -0.0002    0.0003    0.0004    0.0007    0.0006
          10   -0.0293    0.0417   -0.0015    0.0002    0.0256   -0.0219   -0.0126    0.0179
          11   -0.1296    0.1292   -0.0006    0.0006    0.0090   -0.0072   -0.0068    0.0077
          12    0.0036   -0.0038   -0.0001   -0.0002   -0.0006    0.0005    0.0004   -0.0005
          13   -0.1208   -0.1168   -0.0003    0.0006   -0.0034   -0.0023    0.0040    0.0037
          14   -0.0567   -0.0684   -0.0016    0.0004   -0.0273   -0.0226    0.0138    0.0190
          15    0.0036    0.0038   -0.0001   -0.0002    0.0007    0.0005   -0.0004   -0.0005
          16   -0.0006    0.0027   -0.1176   -0.0002   -0.0001   -0.0000   -0.0001    0.0000
          17   -0.0008   -0.0022   -0.1462   -0.0002    0.0000   -0.0000    0.0001    0.0000
          18   -0.0006    0.0000    0.2373   -0.0000    0.0000    0.0001    0.0000   -0.0000
          19    0.0005   -0.0002    0.0784   -0.0002   -0.0000   -0.0000   -0.0000    0.0000
          20    0.0007    0.0002    0.0974   -0.0003    0.0000   -0.0000    0.0000    0.0000
          21   -0.0011    0.0000   -0.1594    0.0000   -0.0000    0.0000   -0.0000   -0.0001
          22    0.0035    0.0268   -0.0034    0.3113   -0.0005   -0.0001   -0.0009    0.0012
          23    0.0042   -0.0216   -0.0042    0.3876    0.0004   -0.0001    0.0007    0.0015
          24   -0.0030    0.0000   -0.0160    0.7521   -0.0000   -0.0004   -0.0000    0.0029
          25   -0.0905    0.0752    0.0005    0.0010    0.0794   -0.1069    0.1671   -0.1399
          26    0.0714   -0.0585    0.0008   -0.0039   -0.1225    0.1665   -0.2622    0.2201
          27    0.0011   -0.0001   -0.0011   -0.0009    0.0035   -0.0048    0.0077   -0.0065
          28    0.0896    0.0730    0.0007   -0.0040    0.1393    0.1830    0.2936    0.2441
          29   -0.0732   -0.0605    0.0007    0.0001   -0.0521   -0.0676   -0.1072   -0.0888
          30    0.0013    0.0002   -0.0011   -0.0009   -0.0036   -0.0048   -0.0078   -0.0065
          31   -0.0875    0.1174   -0.0030    0.0045   -0.2951    0.2533    0.1374   -0.1834
          32   -0.0328   -0.0354   -0.0019    0.0018   -0.0960    0.0804    0.0457   -0.0592
          33    0.0019   -0.0002   -0.0011   -0.0009    0.0072   -0.0061   -0.0034    0.0045
          34   -0.0130    0.0597   -0.0012    0.0008    0.0308    0.0236   -0.0151   -0.0183
          35   -0.0930   -0.1067   -0.0034    0.0047    0.3135    0.2603   -0.1443   -0.1907
          36    0.0019    0.0001   -0.0011   -0.0009   -0.0073   -0.0061    0.0034    0.0045
          37    0.0007    0.0000    0.1528   -0.0008    0.0000    0.0002    0.0001   -0.0004
          38    0.0009   -0.0001    0.1900   -0.0010   -0.0000    0.0002   -0.0001   -0.0005
          39   -0.0016   -0.0000   -0.3121    0.0011    0.0000   -0.0003    0.0000    0.0008


   Root No.      33

                33 A   

                3359.4
  
           1    0.0008
           2    0.0010
           3   -0.0015
           4    0.0001
           5    0.0001
           6   -0.0000
           7    0.0001
           8    0.0002
           9   -0.0000
          10   -0.0001
          11   -0.0001
          12    0.0000
          13   -0.0000
          14   -0.0001
          15   -0.0000
          16   -0.0110
          17   -0.0137
          18    0.0223
          19    0.0381
          20    0.0474
          21   -0.0778
          22   -0.0006
          23   -0.0007
          24   -0.0017
          25    0.0004
          26   -0.0007
          27   -0.0001
          28   -0.0008
          29    0.0003
          30   -0.0001
          31    0.0011
          32    0.0003
          33   -0.0001
          34    0.0000
          35    0.0011
          36   -0.0001
          37   -0.3339
          38   -0.4150
          39    0.6807


           MASS-WEIGHTED COORDINATE ANALYSIS (NORMAL COORDINATES)


   Root No.       1         2         3         4         5         6         7         8

                 1 A       2 A       3 A       4 A       5 A       6 A       7 A       8 A   

                 138.3     188.2     372.5     464.6     539.3     561.6     727.1     809.1
  
           1   -0.0789   -0.2332    0.0031   -0.0587    0.0395   -0.1175   -0.1876    0.0527
           2   -0.0988    0.1871    0.0016    0.0470    0.0451    0.0961   -0.2334   -0.0420
           3   -0.3388   -0.0005    0.1246    0.0015   -0.1932   -0.0028   -0.2609    0.0004
           4   -0.0729   -0.2268   -0.0020   -0.0862   -0.0139   -0.1916   -0.1478   -0.0493
           5   -0.0980   -0.0519   -0.0021   -0.0048   -0.1775    0.0002    0.2009   -0.0820
           6   -0.2028    0.2554   -0.3350   -0.2210    0.2084    0.2095   -0.0960    0.2536
           7   -0.0801    0.0015   -0.0012   -0.0123   -0.1691   -0.0474    0.2279    0.0688
           8   -0.0930    0.2323   -0.0050    0.0859   -0.0578    0.1853   -0.1011    0.0665
           9   -0.2022   -0.2570   -0.3343    0.2167    0.2178   -0.2039   -0.0953   -0.2548
          10   -0.0684   -0.0146    0.0068   -0.0257   -0.1169   -0.0702    0.0824   -0.1743
          11   -0.0862   -0.1331    0.0068   -0.0118   -0.1699   -0.0700    0.1519   -0.0444
          12    0.3493    0.2116    0.1141    0.3800   -0.0389   -0.1796   -0.1143    0.1908
          13   -0.0699    0.1264    0.0043    0.0073   -0.1426    0.0484    0.1307    0.0060
          14   -0.0854    0.0424    0.0075    0.0290   -0.1533    0.0785    0.1128    0.1798
          15    0.3498   -0.2102    0.1168   -0.3790   -0.0481    0.1786   -0.1136   -0.1919
          16    0.0596   -0.1258    0.2422    0.3434    0.3663    0.5164   -0.0244    0.0346
          17    0.0735    0.1032    0.3062   -0.2780    0.4703   -0.4011   -0.0306   -0.0281
          18   -0.1562    0.0009    0.4680    0.0013    0.0727    0.0024    0.1411    0.0002
          19    0.3016    0.4131   -0.1747   -0.0791    0.1058   -0.0439   -0.0682    0.0350
          20    0.3765   -0.3319   -0.2166    0.0614    0.1309    0.0383   -0.0846   -0.0289
          21    0.1455   -0.0002   -0.0470    0.0013   -0.3104   -0.0054    0.1294    0.0000
          22   -0.0337   -0.0607   -0.0985   -0.1245   -0.0128   -0.0416   -0.1236    0.1238
          23   -0.0419    0.0481   -0.1238    0.0993   -0.0161    0.0325   -0.1531   -0.0994
          24   -0.0832    0.0002    0.1394    0.0007   -0.0273   -0.0000   -0.0004    0.0002
          25   -0.0231   -0.1129   -0.0002   -0.0394   -0.0301   -0.0935   -0.0032    0.0074
          26   -0.0317   -0.0429   -0.0048   -0.0127   -0.0621   -0.0197    0.0958   -0.0280
          27   -0.1265    0.1511   -0.2483   -0.1330    0.2614    0.2303    0.3699   -0.5104
          28   -0.0259    0.0174   -0.0048    0.0045   -0.0541   -0.0029    0.0940    0.0289
          29   -0.0296    0.1194   -0.0026    0.0418   -0.0458    0.0942    0.0173   -0.0011
          30   -0.1260   -0.1520   -0.2476    0.1289    0.2708   -0.2227    0.3681    0.5122
          31   -0.0183    0.0134    0.0026    0.0023   -0.0397   -0.0077    0.0490   -0.0434
          32   -0.0220   -0.0883    0.0033   -0.0140   -0.0311   -0.0715   -0.0035   -0.0615
          33    0.2036    0.1270    0.0750    0.3752    0.0267   -0.1898    0.3350   -0.2582
          34   -0.0178    0.0891    0.0019    0.0146   -0.0240    0.0675   -0.0143    0.0512
          35   -0.0226    0.0057    0.0032    0.0011   -0.0463    0.0213    0.0471    0.0557
          36    0.2038   -0.1261    0.0772   -0.3748    0.0170    0.1906    0.3345    0.2613
          37    0.1498    0.2586   -0.1723   -0.1636   -0.0776   -0.2469   -0.0467   -0.0766
          38    0.1873   -0.2082   -0.2151    0.1307   -0.1023    0.1944   -0.0581    0.0624
          39    0.1203   -0.0002   -0.1656    0.0002   -0.2319   -0.0047    0.0068    0.0006


   Root No.       9        10        11        12        13        14        15        16

                 9 A      10 A      11 A      12 A      13 A      14 A      15 A      16 A   

                 819.3     826.0     860.9     868.6     953.7     975.3     990.0    1013.4
  
           1    0.2086    0.2002   -0.0554   -0.0102   -0.0239    0.0445    0.1665    0.0334
           2   -0.1726    0.2441   -0.0693    0.0050   -0.0305   -0.0362    0.2071    0.0402
           3   -0.0032    0.2682   -0.0643   -0.0019   -0.1599   -0.0005    0.3300   -0.2080
           4    0.0075    0.2506   -0.0957   -0.0348    0.2636   -0.1346   -0.1978   -0.0499
           5   -0.3112   -0.2005    0.0618    0.0266   -0.1082    0.0786    0.0407    0.0043
           6   -0.0786   -0.1503    0.0374    0.0395   -0.2268    0.1010   -0.2485   -0.0509
           7    0.3115   -0.2426    0.0825   -0.0289   -0.1631   -0.1053    0.0824    0.0134
           8    0.0547    0.2025   -0.0816    0.0233    0.2345    0.1140   -0.1841   -0.0456
           9    0.0828   -0.1472    0.0399   -0.0374   -0.2266   -0.1000   -0.2488   -0.0452
          10   -0.5156   -0.0603    0.0153    0.0198   -0.0422   -0.0058    0.0987    0.0305
          11   -0.0973   -0.1223    0.0327   -0.0009   -0.0114   -0.0281   -0.0220   -0.0127
          12   -0.0471   -0.1344    0.0515    0.0323    0.2013   -0.3150    0.1231    0.0079
          13   -0.0133   -0.1070    0.0283    0.0068   -0.0022    0.0264   -0.0424   -0.0187
          14    0.5261   -0.0734    0.0228   -0.0182   -0.0432    0.0119    0.0921    0.0271
          15    0.0500   -0.1319    0.0534   -0.0291    0.2019    0.3142    0.1241    0.0017
          16   -0.0231   -0.0349    0.1431    0.2437   -0.0457    0.0285   -0.0315    0.0466
          17    0.0196   -0.0424    0.1921   -0.1859   -0.0566   -0.0226   -0.0392    0.0579
          18    0.0001   -0.0196    0.1317    0.0043    0.0744    0.0005   -0.1280    0.2550
          19   -0.0208   -0.0753   -0.1893   -0.3774   -0.0617   -0.0076    0.0678   -0.1298
          20    0.0186   -0.0933   -0.2585    0.2909   -0.0768    0.0058    0.0843   -0.1614
          21    0.0005   -0.0613   -0.3292   -0.0105    0.1275    0.0002   -0.0586    0.1567
          22   -0.0002    0.0708   -0.0942   -0.0140   -0.0302    0.4530    0.0143    0.4426
          23   -0.0017    0.0889   -0.1179    0.0049   -0.0392   -0.3626    0.0166    0.5421
          24   -0.0007    0.0627    0.0642    0.0022   -0.0173   -0.0009    0.1258   -0.5134
          25    0.1294    0.0555   -0.0300   -0.0276    0.1996   -0.0780   -0.3071   -0.1091
          26   -0.0064   -0.0657    0.0170   -0.0047    0.0576   -0.0082   -0.1375   -0.0586
          27    0.1565    0.1234    0.0091   -0.0378    0.3315   -0.1591    0.2749    0.0176
          28    0.0361   -0.0752    0.0230   -0.0001    0.0129   -0.0087   -0.0679   -0.0341
          29   -0.1258    0.0373   -0.0272    0.0264    0.2070    0.0776   -0.3293   -0.1179
          30   -0.1599    0.1169    0.0066    0.0387    0.3315    0.1576    0.2753    0.0130
          31   -0.1309   -0.0408    0.0144    0.0085   -0.0722    0.0405    0.0872    0.0281
          32   -0.0848    0.0696   -0.0329   -0.0141    0.1595   -0.1049   -0.2057   -0.0662
          33    0.0885    0.4016   -0.1312   -0.0567   -0.3254    0.3895   -0.1296   -0.0133
          34    0.0528    0.0780   -0.0361    0.0136    0.1733    0.1115   -0.2203   -0.0685
          35    0.1465   -0.0215    0.0072   -0.0050   -0.0365   -0.0170    0.0411    0.0132
          36   -0.0980    0.3977   -0.1345    0.0489   -0.3262   -0.3882   -0.1308   -0.0076
          37    0.0685    0.1507    0.3687    0.6443   -0.0239    0.0129   -0.0020   -0.0015
          38   -0.0584    0.1859    0.4990   -0.4938   -0.0297   -0.0106   -0.0026   -0.0022
          39   -0.0022    0.1973    0.4607    0.0141    0.0345    0.0000   -0.0476    0.0993


   Root No.      17        18        19        20        21        22        23        24

                17 A      18 A      19 A      20 A      21 A      22 A      23 A      24 A   

                1019.5    1082.5    1090.2    1123.1    1204.4    1303.6    1375.6    1419.0
  
           1    0.0888    0.0394   -0.0032    0.0024    0.2983    0.5144    0.3398    0.3019
           2   -0.0718   -0.0312   -0.0026    0.0037   -0.2398   -0.4135    0.4223    0.3758
           3    0.0028    0.0008   -0.0474    0.3555    0.0000    0.0002   -0.3360   -0.2267
           4   -0.1472   -0.0796   -0.0427   -0.3165    0.0998   -0.4127   -0.0192   -0.2927
           5    0.0888    0.1549    0.0355    0.1038    0.1261    0.0642    0.0899   -0.0396
           6   -0.2698    0.0308    0.0212   -0.0962    0.0201    0.0191    0.0381    0.0298
           7   -0.1180   -0.1645    0.0508    0.1712   -0.1014   -0.1517    0.0917    0.0245
           8    0.1244    0.0397   -0.0365   -0.2878   -0.1249    0.3891    0.0010   -0.2947
           9    0.2707   -0.0306    0.0226   -0.0966   -0.0201   -0.0192    0.0381    0.0298
          10    0.0072    0.0303   -0.0106   -0.2965   -0.0721    0.1131   -0.4166    0.2991
          11   -0.0051    0.0026    0.0549    0.0686    0.1720   -0.1014    0.1657   -0.2905
          12    0.2610   -0.0146   -0.0079    0.0254   -0.0121   -0.0054   -0.0024   -0.0024
          13    0.0071    0.0072    0.0548    0.1306   -0.1836    0.1229    0.2516   -0.3482
          14   -0.0073   -0.0322    0.0029   -0.2747    0.0338   -0.0884   -0.3713    0.2297
          15   -0.2613    0.0142   -0.0086    0.0259    0.0120    0.0055   -0.0023   -0.0025
          16   -0.0201   -0.0130   -0.0049    0.0448   -0.0506   -0.0462   -0.0423   -0.0252
          17    0.0155    0.0107   -0.0065    0.0556    0.0407    0.0371   -0.0525   -0.0313
          18   -0.0027   -0.0001    0.0079   -0.0654    0.0000   -0.0000    0.0274    0.0144
          19    0.0111    0.0033   -0.0078    0.0743    0.0134    0.0148   -0.0919   -0.0624
          20   -0.0058   -0.0023   -0.0096    0.0923   -0.0108   -0.0119   -0.1144   -0.0776
          21   -0.0019   -0.0003    0.0164   -0.1498    0.0000   -0.0000    0.1998    0.1370
          22    0.4810   -0.1626   -0.0247    0.1651   -0.2182   -0.1566   -0.0996   -0.0524
          23   -0.3948    0.1317   -0.0369    0.2055    0.1756    0.1261   -0.1239   -0.0654
          24    0.0050   -0.0003    0.0126   -0.0723   -0.0002   -0.0002    0.1112    0.0776
          25   -0.0654    0.3665   -0.3616    0.2171   -0.3856   -0.0088   -0.0738    0.1607
          26    0.0187    0.2953   -0.2112    0.2375   -0.2290    0.0889   -0.0100    0.1453
          27    0.1996   -0.0254   -0.0096    0.0547    0.0005   -0.0088   -0.0201   -0.0179
          28   -0.0313   -0.2130   -0.1191    0.1871    0.1407   -0.0887    0.0061    0.1073
          29    0.0623   -0.4362   -0.3797    0.2670    0.4263   -0.0106   -0.0742    0.1883
          30   -0.1999    0.0250   -0.0110    0.0550   -0.0005    0.0087   -0.0201   -0.0178
          31    0.0445    0.1485   -0.1748   -0.1438    0.1032   -0.0503   -0.0737    0.0100
          32   -0.1583   -0.4268    0.5505    0.1811   -0.3358    0.2278   -0.1357    0.1581
          33   -0.2377    0.0134   -0.0059    0.0060    0.0066   -0.0031   -0.0052   -0.0094
          34    0.1656    0.4733    0.5573    0.2036    0.3480   -0.2322   -0.1169    0.1522
          35   -0.0098   -0.0561   -0.0503   -0.1011   -0.0283    0.0002   -0.1011    0.0438
          36    0.2387   -0.0130   -0.0050    0.0056   -0.0066    0.0030   -0.0053   -0.0093
          37   -0.0037   -0.0020   -0.0032    0.0264   -0.0016    0.0024   -0.0327   -0.0219
          38    0.0031    0.0017   -0.0040    0.0330    0.0012   -0.0019   -0.0405   -0.0273
          39   -0.0011   -0.0001    0.0045   -0.0453   -0.0000    0.0000    0.0682    0.0479


   Root No.      25        26        27        28        29        30        31        32

                25 A      26 A      27 A      28 A      29 A      30 A      31 A      32 A   

                1735.8    1790.3    2330.0    2875.9    3131.6    3134.4    3148.1    3157.1
  
           1   -0.0425   -0.0037    0.0697   -0.0932   -0.0013    0.0023   -0.0003   -0.0045
           2   -0.0528    0.0032    0.0866   -0.1160    0.0011    0.0029    0.0002   -0.0056
           3    0.0155   -0.0000   -0.1261   -0.2282   -0.0000   -0.0001    0.0000   -0.0014
           4    0.1834   -0.2051    0.0034   -0.0047   -0.0471    0.0652   -0.0870    0.0814
           5    0.4670   -0.4234    0.0020   -0.0013    0.0652   -0.0955    0.1688   -0.1602
           6   -0.0175    0.0145   -0.0012   -0.0009   -0.0019    0.0028   -0.0049    0.0046
           7    0.4180    0.3676    0.0012   -0.0003   -0.0752   -0.1058   -0.1846   -0.1733
           8    0.2807    0.2903    0.0038   -0.0049    0.0326    0.0425    0.0488    0.0448
           9   -0.0177   -0.0145   -0.0012   -0.0009    0.0019    0.0027    0.0050    0.0045
          10   -0.1034    0.1543   -0.0040    0.0009    0.1730   -0.1563   -0.0850    0.1279
          11   -0.4579    0.4775   -0.0017    0.0023    0.0612   -0.0513   -0.0462    0.0551
          12    0.0126   -0.0142   -0.0003   -0.0008   -0.0043    0.0038    0.0025   -0.0034
          13   -0.4266   -0.4315   -0.0008    0.0021   -0.0229   -0.0163    0.0269    0.0262
          14   -0.2005   -0.2526   -0.0042    0.0014   -0.1849   -0.1610    0.0932    0.1359
          15    0.0127    0.0142   -0.0003   -0.0008    0.0044    0.0038   -0.0025   -0.0034
          16   -0.0021    0.0101   -0.3036   -0.0007   -0.0004   -0.0002   -0.0005    0.0001
          17   -0.0027   -0.0081   -0.3774   -0.0009    0.0003   -0.0002    0.0004    0.0002
          18   -0.0022    0.0000    0.6127   -0.0001    0.0000    0.0005    0.0000   -0.0001
          19    0.0019   -0.0008    0.2023   -0.0008   -0.0000   -0.0000   -0.0001    0.0003
          20    0.0025    0.0007    0.2515   -0.0009    0.0000   -0.0000    0.0001    0.0003
          21   -0.0039    0.0000   -0.4117    0.0001   -0.0000    0.0001   -0.0000   -0.0006
          22    0.0036    0.0287   -0.0025    0.3323   -0.0010   -0.0002   -0.0018    0.0025
          23    0.0043   -0.0231   -0.0032    0.4136    0.0008   -0.0003    0.0015    0.0031
          24   -0.0030    0.0000   -0.0119    0.8026   -0.0000   -0.0008   -0.0000    0.0060
          25   -0.0926    0.0805    0.0004    0.0011    0.1556   -0.2206    0.3275   -0.2895
          26    0.0731   -0.0626    0.0006   -0.0042   -0.2400    0.3435   -0.5140    0.4554
          27    0.0011   -0.0001   -0.0008   -0.0010    0.0070   -0.0100    0.0151   -0.0134
          28    0.0917    0.0781    0.0005   -0.0043    0.2730    0.3776    0.5755    0.5052
          29   -0.0750   -0.0648    0.0005    0.0001   -0.1021   -0.1394   -0.2101   -0.1838
          30    0.0013    0.0002   -0.0008   -0.0010   -0.0071   -0.0099   -0.0152   -0.0134
          31   -0.0896    0.1257   -0.0022    0.0048   -0.5783    0.5225    0.2692   -0.3795
          32   -0.0336   -0.0379   -0.0014    0.0019   -0.1882    0.1658    0.0896   -0.1226
          33    0.0019   -0.0002   -0.0008   -0.0010    0.0140   -0.0125   -0.0067    0.0092
          34   -0.0133    0.0639   -0.0009    0.0008    0.0603    0.0487   -0.0297   -0.0379
          35   -0.0952   -0.1142   -0.0025    0.0050    0.6145    0.5370   -0.2828   -0.3946
          36    0.0019    0.0001   -0.0008   -0.0010   -0.0144   -0.0125    0.0067    0.0093
          37    0.0008    0.0000    0.1143   -0.0008    0.0001    0.0003    0.0001   -0.0008
          38    0.0009   -0.0001    0.1421   -0.0010   -0.0001    0.0004   -0.0001   -0.0010
          39   -0.0017   -0.0000   -0.2334    0.0012    0.0000   -0.0007    0.0000    0.0016


   Root No.      33

                33 A   

                3359.4
  
           1    0.0030
           2    0.0037
           3   -0.0055
           4    0.0005
           5    0.0003
           6   -0.0000
           7    0.0002
           8    0.0006
           9   -0.0000
          10   -0.0005
          11   -0.0003
          12    0.0000
          13   -0.0002
          14   -0.0005
          15   -0.0000
          16   -0.0406
          17   -0.0505
          18    0.0825
          19    0.1409
          20    0.1752
          21   -0.2873
          22   -0.0006
          23   -0.0008
          24   -0.0018
          25    0.0005
          26   -0.0008
          27   -0.0001
          28   -0.0009
          29    0.0003
          30   -0.0001
          31    0.0012
          32    0.0003
          33   -0.0001
          34    0.0000
          35    0.0012
          36   -0.0001
          37   -0.3573
          38   -0.4442
          39    0.7286


          DESCRIPTION OF VIBRATIONS


 VIBRATION    1    1A         ATOM PAIR      ENERGY CONTRIBUTION    RADIAL
 FREQ.       138.26         C  1 -- C  6         +14.2% (329.4%)      0.1%
 T-DIPOLE    0.1434         C  1 -- C  3         +11.2% (293.2%)      0.2%
 TRAVEL      0.0762         C  1 -- C  2         +11.2% (293.2%)      0.2%
 RED. MASS   1.5109         C  6 -- C  7          +7.4% (238.4%)      0.0%
 EFF. MASS  83.9100

 VIBRATION    2    2A         ATOM PAIR      ENERGY CONTRIBUTION    RADIAL
 FREQ.       188.17         C  3 -- C  4         +10.2% (198.8%)      0.0%
 T-DIPOLE    0.1306         C  2 -- C  5         +10.2% (198.4%)      0.0%
 TRAVEL      0.0983         C  1 -- C  3         +10.1% (197.1%)      0.0%
 RED. MASS   1.5053         C  1 -- C  2         +10.1% (197.1%)      0.0%
 EFF. MASS  37.0572

 VIBRATION    3    3A         ATOM PAIR      ENERGY CONTRIBUTION    RADIAL
 FREQ.       372.52         C  6 -- C  7         +21.2% (110.9%)      0.0%
 T-DIPOLE    0.2251         C  1 -- C  6         +15.7% ( 95.6%)      0.4%
 TRAVEL      0.1061         C  1 -- C  2          +8.7% ( 71.2%)      0.0%
 RED. MASS   2.0626         C  1 -- C  3          +8.7% ( 71.1%)      0.0%
 EFF. MASS  16.0852

 VIBRATION    4    4A         ATOM PAIR      ENERGY CONTRIBUTION    RADIAL
 FREQ.       464.64         C  4 -- C  5         +16.9% ( 80.8%)      0.0%
 T-DIPOLE    0.2120         C  2 -- C  4         +11.7% ( 67.2%)      0.0%
 TRAVEL      0.1078         C  3 -- C  5         +11.6% ( 66.8%)      0.0%
 RED. MASS   1.0803         C  2 -- C  5          +9.4% ( 60.2%)      0.1%
 EFF. MASS  12.4867

 VIBRATION    5    5A         ATOM PAIR      ENERGY CONTRIBUTION    RADIAL
 FREQ.       539.31         C  1 -- C  6         +15.9% (113.9%)      4.1%
 T-DIPOLE    0.2173         C  7 -- H 13         +14.2% (107.7%)     63.5%
 TRAVEL      0.0923         C  6 -- C  7         +12.5% (101.0%)      0.4%
 RED. MASS   1.9780         C  2 -- C  5          +7.4% ( 77.7%)      5.3%
 EFF. MASS  14.6898

 VIBRATION    6    6A         ATOM PAIR      ENERGY CONTRIBUTION    RADIAL
 FREQ.       561.60         C  1 -- C  6         +15.5% ( 72.7%)      0.0%
 T-DIPOLE    0.3243         C  6 -- C  7         +11.6% ( 62.9%)      0.0%
 TRAVEL      0.1039         C  3 -- C  4          +8.5% ( 53.8%)      0.0%
 RED. MASS   2.4150         C  2 -- C  5          +8.4% ( 53.4%)      0.0%
 EFF. MASS  11.1122

 VIBRATION    7    7A         ATOM PAIR      ENERGY CONTRIBUTION    RADIAL
 FREQ.       727.06         C  1 -- C  2         +11.6% ( 73.7%)      0.7%
 T-DIPOLE    0.6460         C  1 -- C  3         +11.6% ( 73.7%)      0.7%
 TRAVEL      0.1047         C  1 -- C  6         +10.8% ( 71.3%)     10.7%
 RED. MASS   0.5510         C  3 -- C  4          +7.4% ( 58.7%)     32.8%
 EFF. MASS   8.4590

 VIBRATION    8    8A         ATOM PAIR      ENERGY CONTRIBUTION    RADIAL
 FREQ.       809.15         C  3 -- H 10         +18.3% ( 63.8%)      0.2%
 T-DIPOLE    0.0627         C  2 -- H  9         +18.1% ( 63.6%)      0.2%
 TRAVEL      0.1463         C  4 -- C  5         +10.5% ( 48.3%)      0.0%
 RED. MASS   0.3956         C  5 -- H 12          +8.9% ( 44.4%)      7.6%
 EFF. MASS   3.8927

 VIBRATION    9    9A         ATOM PAIR      ENERGY CONTRIBUTION    RADIAL
 FREQ.       819.29         C  4 -- C  5         +17.0% (116.4%)      0.0%
 T-DIPOLE    0.0455         C  3 -- C  4         +14.8% (108.5%)     90.1%
 TRAVEL      0.0746         C  2 -- C  5         +14.7% (108.2%)     89.6%
 RED. MASS   2.1980         C  3 -- C  5          +9.8% ( 88.6%)      0.2%
 EFF. MASS  14.7992

 VIBRATION   10   10A         ATOM PAIR      ENERGY CONTRIBUTION    RADIAL
 FREQ.       826.02         C  1 -- C  2         +13.9% ( 72.2%)      0.7%
 T-DIPOLE    0.8556         C  1 -- C  3         +13.7% ( 71.6%)      0.8%
 TRAVEL      0.0994         C  1 -- C  6          +8.5% ( 56.4%)      0.0%
 RED. MASS   0.8212         C  2 -- C  5          +8.1% ( 55.1%)     36.3%
 EFF. MASS   8.2614

 VIBRATION   11   11A         ATOM PAIR      ENERGY CONTRIBUTION    RADIAL
 FREQ.       860.91         C  7 -- H 13         +58.5% ( 87.6%)      0.1%
 T-DIPOLE    0.4757         C  6 -- C  7         +10.0% ( 36.3%)      0.1%
 TRAVEL      0.1397         C  1 -- C  6          +5.0% ( 25.7%)      1.5%
 RED. MASS   0.9703         C  1 -- C  3          +3.3% ( 20.9%)      5.8%
 EFF. MASS   4.0155

 VIBRATION   12   12A         ATOM PAIR      ENERGY CONTRIBUTION    RADIAL
 FREQ.       868.56         C  7 -- H 13         +78.3% ( 91.0%)      0.0%
 T-DIPOLE    0.5663         C  6 -- C  7         +13.5% ( 37.8%)      0.0%
 TRAVEL      0.1471         C  1 -- C  6          +3.3% ( 18.6%)      0.0%
 RED. MASS   1.1640         C  2 -- H  9          +0.6% (  7.9%)     11.4%
 EFF. MASS   3.5861

 VIBRATION   13   13A         ATOM PAIR      ENERGY CONTRIBUTION    RADIAL
 FREQ.       953.71         C  3 -- H 10         +11.8% ( 50.2%)      7.5%
 T-DIPOLE    0.0898         C  2 -- H  9         +11.8% ( 50.2%)      7.5%
 TRAVEL      0.1097         C  3 -- C  5          +8.5% ( 42.8%)      0.2%
 RED. MASS   0.5703         C  2 -- C  4          +8.5% ( 42.7%)      0.2%
 EFF. MASS   5.8718

 VIBRATION   14   14A         ATOM PAIR      ENERGY CONTRIBUTION    RADIAL
 FREQ.       975.27         C  1 -- H  8         +23.3% ( 57.7%)      0.0%
 T-DIPOLE    0.1203         C  4 -- H 11         +15.6% ( 47.2%)      0.0%
 TRAVEL      0.1363         C  5 -- H 12         +15.5% ( 47.1%)      0.0%
 RED. MASS   0.4381         C  4 -- C  5          +7.0% ( 31.6%)      0.0%
 EFF. MASS   3.7208

 VIBRATION   15   15A         ATOM PAIR      ENERGY CONTRIBUTION    RADIAL
 FREQ.       990.03         C  1 -- C  2         +15.3% ( 59.1%)     26.8%
 T-DIPOLE    0.3121         C  1 -- C  3         +15.3% ( 59.1%)     26.8%
 TRAVEL      0.0981         C  1 -- C  6         +11.5% ( 51.3%)      8.9%
 RED. MASS   0.7436         C  3 -- H 10         +10.9% ( 49.8%)      3.5%
 EFF. MASS   7.0814         C  2 -- H  9         +10.9% ( 49.8%)      3.5%

 VIBRATION   16   16A         ATOM PAIR      ENERGY CONTRIBUTION    RADIAL
 FREQ.      1013.44         C  1 -- H  8         +50.8% ( 84.7%)      1.8%
 T-DIPOLE    0.1141         C  1 -- C  6         +15.0% ( 46.0%)     57.4%
 TRAVEL      0.1380         C  7 -- H 13         +11.6% ( 40.4%)     65.0%
 RED. MASS   0.7131         C  6 -- C  7          +8.2% ( 34.1%)     10.4%
 EFF. MASS   3.4946

 VIBRATION   17   17A         ATOM PAIR      ENERGY CONTRIBUTION    RADIAL
 FREQ.      1019.49         C  1 -- H  8         +23.2% ( 58.5%)      0.0%
 T-DIPOLE    0.0915         C  5 -- H 12          +8.2% ( 34.7%)      0.0%
 TRAVEL      0.1208         C  4 -- H 11          +8.1% ( 34.6%)      0.0%
 RED. MASS   0.5359         C  3 -- C  5          +7.6% ( 33.5%)      0.8%
 EFF. MASS   4.5328

 VIBRATION   18   18A         ATOM PAIR      ENERGY CONTRIBUTION    RADIAL
 FREQ.      1082.54         C  3 -- H 10         +20.1% ( 51.3%)      5.7%
 T-DIPOLE    0.0527         C  2 -- H  9         +19.2% ( 50.1%)      6.4%
 TRAVEL      0.1778         C  5 -- H 12         +17.3% ( 47.6%)      0.2%
 RED. MASS   0.2245         C  4 -- H 11         +15.6% ( 45.3%)      0.2%
 EFF. MASS   1.9710

 VIBRATION   19   19A         ATOM PAIR      ENERGY CONTRIBUTION    RADIAL
 FREQ.      1090.19         C  4 -- H 11         +31.6% ( 56.5%)      0.0%
 T-DIPOLE    0.0449         C  5 -- H 12         +29.6% ( 54.7%)      0.0%
 TRAVEL      0.2260         C  2 -- H  9         +17.0% ( 41.4%)      0.8%
 RED. MASS   0.2681         C  3 -- H 10         +15.4% ( 39.5%)      1.2%
 EFF. MASS   1.2105

 VIBRATION   20   20A         ATOM PAIR      ENERGY CONTRIBUTION    RADIAL
 FREQ.      1123.05         C  4 -- C  5         +10.9% ( 56.3%)    100.0%
 T-DIPOLE    0.2368         C  1 -- C  3          +9.0% ( 51.0%)     32.4%
 TRAVEL      0.0826         C  1 -- C  2          +8.9% ( 50.9%)     32.2%
 RED. MASS   0.8032         C  3 -- C  4          +8.9% ( 50.8%)     69.3%
 EFF. MASS   8.7958

 VIBRATION   21   21A         ATOM PAIR      ENERGY CONTRIBUTION    RADIAL
 FREQ.      1204.39         C  3 -- H 10         +14.1% ( 47.1%)      0.4%
 T-DIPOLE    0.0255         C  2 -- H  9         +14.1% ( 47.1%)      0.4%
 TRAVEL      0.1357         C  1 -- H  8         +12.6% ( 44.6%)      0.0%
 RED. MASS   0.4222         C  4 -- H 11         +10.5% ( 40.7%)      0.0%
 EFF. MASS   3.0387         C  5 -- H 12         +10.4% ( 40.5%)      0.0%

 VIBRATION   22   22A         ATOM PAIR      ENERGY CONTRIBUTION    RADIAL
 FREQ.      1303.56         C  1 -- C  3         +20.1% ( 73.4%)     79.0%
 T-DIPOLE    0.0712         C  1 -- C  2         +20.1% ( 73.4%)     79.0%
 TRAVEL      0.0711         C  1 -- H  8         +12.4% ( 57.6%)      0.0%
 RED. MASS   3.0337         C  1 -- C  6         +10.2% ( 52.2%)      0.0%
 EFF. MASS  10.2460

 VIBRATION   23   23A         ATOM PAIR      ENERGY CONTRIBUTION    RADIAL
 FREQ.      1375.63         C  4 -- C  5         +14.8% ( 67.6%)    100.0%
 T-DIPOLE    0.3849         C  1 -- H  8         +12.8% ( 62.8%)      0.0%
 TRAVEL      0.0653         C  1 -- C  6         +12.5% ( 62.1%)     86.9%
 RED. MASS   3.0087         C  1 -- C  2         +11.4% ( 59.2%)     34.0%
 EFF. MASS  11.4934         C  1 -- C  3         +11.4% ( 59.2%)     33.8%

 VIBRATION   24   24A         ATOM PAIR      ENERGY CONTRIBUTION    RADIAL
 FREQ.      1418.98         C  4 -- C  5         +13.1% ( 60.0%)    100.0%
 T-DIPOLE    0.4444         C  1 -- C  3         +11.9% ( 57.2%)     59.8%
 TRAVEL      0.0684         C  1 -- C  2         +11.9% ( 57.2%)     59.7%
 RED. MASS   1.8963         C  1 -- H  8          +8.9% ( 49.4%)      0.7%
 EFF. MASS  10.1490

 VIBRATION   25   25A         ATOM PAIR      ENERGY CONTRIBUTION    RADIAL
 FREQ.      1735.79         C  3 -- C  5         +18.2% ( 72.7%)     99.9%
 T-DIPOLE    0.2958         C  2 -- C  4         +18.1% ( 72.4%)     99.9%
 TRAVEL      0.0568         C  2 -- C  5         +10.7% ( 55.6%)     25.0%
 RED. MASS   2.7155         C  3 -- C  4         +10.7% ( 55.5%)     25.1%
 EFF. MASS  12.0227

 VIBRATION   26   26A         ATOM PAIR      ENERGY CONTRIBUTION    RADIAL
 FREQ.      1790.32         C  2 -- C  4         +18.0% ( 70.3%)     99.8%
 T-DIPOLE    0.2973         C  3 -- C  5         +17.8% ( 70.0%)     99.8%
 TRAVEL      0.0565         C  4 -- C  5         +12.1% ( 57.8%)      0.0%
 RED. MASS   2.6845         C  2 -- C  5         +10.9% ( 54.7%)     66.5%
 EFF. MASS  11.7973         C  3 -- C  4         +10.9% ( 54.7%)     65.3%

 VIBRATION   27   27A         ATOM PAIR      ENERGY CONTRIBUTION    RADIAL
 FREQ.      2329.95         C  6 -- C  7         +59.3% ( 96.9%)    100.0%
 T-DIPOLE    0.5861         C  1 -- C  6         +28.3% ( 67.0%)    100.0%
 TRAVEL      0.0501         C  7 -- H 13         +10.8% ( 41.5%)    100.0%
 RED. MASS   5.3868         C  1 -- C  3          +0.5% (  8.9%)     16.1%
 EFF. MASS  11.5089

 VIBRATION   28   28A         ATOM PAIR      ENERGY CONTRIBUTION    RADIAL
 FREQ.      2875.88         C  1 -- H  8         +96.9% (100.0%)    100.0%
 T-DIPOLE    0.2448         C  1 -- C  6          +1.0% ( 10.3%)     10.7%
 TRAVEL      0.1277         C  1 -- C  3          +1.0% ( 10.2%)     10.8%
 RED. MASS   0.9297         C  1 -- C  2          +1.0% ( 10.2%)     10.8%
 EFF. MASS   1.4383

 VIBRATION   29   29A         ATOM PAIR      ENERGY CONTRIBUTION    RADIAL
 FREQ.      3131.58         C  5 -- H 12         +39.7% ( 64.6%)    100.0%
 T-DIPOLE    0.0474         C  4 -- H 11         +38.6% ( 63.7%)    100.0%
 TRAVEL      0.1200         C  3 -- H 10          +8.8% ( 30.4%)    100.0%
 RED. MASS   0.3279         C  2 -- H  9          +8.5% ( 29.8%)    100.0%
 EFF. MASS   1.4959

 VIBRATION   30   30A         ATOM PAIR      ENERGY CONTRIBUTION    RADIAL
 FREQ.      3134.42         C  4 -- H 11         +31.4% ( 57.3%)    100.0%
 T-DIPOLE    0.5389         C  5 -- H 12         +30.3% ( 56.4%)    100.0%
 TRAVEL      0.1207         C  2 -- H  9         +17.3% ( 42.6%)    100.0%
 RED. MASS   0.2521         C  3 -- H 10         +16.8% ( 42.0%)    100.0%
 EFF. MASS   1.4766

 VIBRATION   31   31A         ATOM PAIR      ENERGY CONTRIBUTION    RADIAL
 FREQ.      3148.11         C  3 -- H 10         +39.0% ( 64.1%)    100.0%
 T-DIPOLE    0.6196         C  2 -- H  9         +38.6% ( 63.8%)    100.0%
 TRAVEL      0.1162         C  5 -- H 12          +8.5% ( 29.9%)     99.7%
 RED. MASS   0.3283         C  4 -- H 11          +8.4% ( 29.8%)     99.7%
 EFF. MASS   1.5866

 VIBRATION   32   32A         ATOM PAIR      ENERGY CONTRIBUTION    RADIAL
 FREQ.      3157.09         C  2 -- H  9         +30.3% ( 56.7%)     99.9%
 T-DIPOLE    0.1513         C  3 -- H 10         +30.1% ( 56.5%)     99.9%
 TRAVEL      0.1123         C  4 -- H 11         +16.6% ( 42.0%)     99.9%
 RED. MASS   0.2541         C  5 -- H 12         +16.4% ( 41.7%)     99.9%
 EFF. MASS   1.6939

 VIBRATION   33   33A         ATOM PAIR      ENERGY CONTRIBUTION    RADIAL
 FREQ.      3359.37         C  7 -- H 13         +93.9% ( 99.1%)    100.0%
 T-DIPOLE    0.9453         C  6 -- C  7          +5.7% ( 24.5%)    100.0%
 TRAVEL      0.0981         C  1 -- C  6          +0.3% (  6.0%)    100.0%
 RED. MASS   0.9525
 EFF. MASS   2.0842

      SYMMETRY NUMBER FOR POINT-GROUP C1  =  1


          SYSTEM IS A GROUND STATE



 InChI=1S/C7H6/c1-2-7-5-3-4-6-7/h1,3-7H


          MOLECULE IS NOT LINEAR

          THERE ARE 33 GENUINE VIBRATIONS IN THIS SYSTEM
          THIS THERMODYNAMICS CALCULATION IS LIMITED TO
          MOLECULES WHICH HAVE NO INTERNAL ROTATIONS




                    CALCULATED THERMODYNAMIC PROPERTIES
                                          *
   TEMP. (K)   PARTITION FUNCTION   H.O.F.    ENTHALPY  HEAT CAPACITY ENTROPY
                                   KCAL/MOL   CAL/MOLE    CAL/K/MOL  CAL/K/MOL


 298.00  VIB.     0.6417D+01                  1861.3755    16.0489     9.9403
         ROT.     0.1727D+06                   888.2813     2.9808    26.9453
         INT.     0.1108D+07                  2749.6568    19.0297    36.8856
         TRA.     0.8272D+27                  1480.4688     4.9680    39.4058
         TOT.                       87.606    4230.1257    23.9977    76.2914

 200.00  VIB.     0.2533D+01                   664.6797     8.5342     5.1705
         ROT.     0.9496D+05                   596.1620     2.9808    25.7566
         INT.     0.2406D+06                  1260.8417    11.5150    30.9272
         TRA.     0.4548D+27                   993.6033     4.9680    37.4247
         TOT.                       85.630    2254.4449    16.4830    68.3518

 210.00  VIB.     0.2757D+01                   753.5245     9.2388     5.6039
         ROT.     0.1022D+06                   625.9700     2.9808    25.9021
         INT.     0.2817D+06                  1379.4946    12.2196    31.5059
         TRA.     0.4893D+27                  1043.2834     4.9680    37.6671
         TOT.                       85.799    2422.7780    17.1876    69.1730

 220.00  VIB.     0.3009D+01                   849.5305     9.9659     6.0503
         ROT.     0.1096D+06                   655.7781     2.9808    26.0407
         INT.     0.3296D+06                  1505.3086    12.9467    32.0911
         TRA.     0.5247D+27                  1092.9636     4.9680    37.8982
         TOT.                       85.974    2598.2722    17.9147    69.9893

 230.00  VIB.     0.3290D+01                   952.9064    10.7122     6.5097
         ROT.     0.1171D+06                   685.5862     2.9808    26.1732
         INT.     0.3853D+06                  1638.4926    13.6930    32.6830
         TRA.     0.5609D+27                  1142.6437     4.9680    38.1190
         TOT.                       86.157    2781.1364    18.6611    70.8020

 240.00  VIB.     0.3607D+01                  1063.8285    11.4746     6.9817
         ROT.     0.1248D+06                   715.3943     2.9808    26.3001
         INT.     0.4502D+06                  1779.2229    14.4554    33.2818
         TRA.     0.5978D+27                  1192.3239     4.9680    38.3305
         TOT.                       86.348    2971.5468    19.4234    71.6123

 250.00  VIB.     0.3962D+01                  1182.4400    12.2496     7.4658
         ROT.     0.1327D+06                   745.2024     2.9808    26.4218
         INT.     0.5258D+06                  1927.6425    15.2304    33.8876
         TRA.     0.6356D+27                  1242.0041     4.9680    38.5333
         TOT.                       86.546    3169.6465    20.1984    72.4209

 260.00  VIB.     0.4363D+01                  1308.8513    13.0340     7.9615
         ROT.     0.1408D+06                   775.0105     2.9808    26.5387
         INT.     0.6141D+06                  2083.8618    16.0148    34.5002
         TRA.     0.6741D+27                  1291.6842     4.9680    38.7281
         TOT.                       86.752    3375.5461    20.9828    73.2283

 270.00  VIB.     0.4815D+01                  1443.1410    13.8248     8.4682
         ROT.     0.1490D+06                   804.8186     2.9808    26.6512
         INT.     0.7172D+06                  2247.9596    16.8056    35.1194
         TRA.     0.7134D+27                  1341.3644     4.9680    38.9156
         TOT.                       86.965    3589.3240    21.7736    74.0350

 280.00  VIB.     0.5325D+01                  1585.3579    14.6190     8.9853
         ROT.     0.1573D+06                   834.6267     2.9808    26.7596
         INT.     0.8376D+06                  2419.9846    17.5998    35.7449
         TRA.     0.7534D+27                  1391.0445     4.9680    39.0963
         TOT.                       87.187    3811.0292    22.5678    74.8412

 290.00  VIB.     0.5901D+01                  1735.5229    15.4140     9.5122
         ROT.     0.1658D+06                   864.4348     2.9808    26.8642
         INT.     0.9785D+06                  2599.9578    18.3948    36.3764
         TRA.     0.7941D+27                  1440.7247     4.9680    39.2706
         TOT.                       87.417    4040.6825    23.3628    75.6470

 300.00  VIB.     0.6554D+01                  1893.6318    16.2073    10.0481
         ROT.     0.1745D+06                   894.2429     2.9808    26.9653
         INT.     0.1143D+07                  2787.8747    19.1881    37.0134
         TRA.     0.8355D+27                  1490.4049     4.9680    39.4391
         TOT.                       87.654    4278.2796    24.1562    76.4524

 310.00  VIB.     0.7293D+01                  2059.6570    16.9969    10.5925
         ROT.     0.1833D+06                   924.0510     2.9808    27.0630
         INT.     0.1336D+07                  2983.7080    19.9777    37.6555
         TRA.     0.8776D+27                  1540.0850     4.9680    39.6020
         TOT.                       87.900    4523.7931    24.9457    77.2574

 320.00  VIB.     0.8131D+01                  2233.5510    17.7808    11.1445
         ROT.     0.1922D+06                   953.8591     2.9808    27.1576
         INT.     0.1563D+07                  3187.4101    20.7616    38.3021
         TRA.     0.9204D+27                  1589.7652     4.9680    39.7597
         TOT.                       88.153    4777.1753    25.7296    78.0618

 330.00  VIB.     0.9083D+01                  2415.2481    18.5573    11.7035
         ROT.     0.2013D+06                   983.6672     2.9808    27.2494
         INT.     0.1828D+07                  3398.9153    21.5381    38.9529
         TRA.     0.9639D+27                  1639.4454     4.9680    39.9126
         TOT.                       88.414    5038.3606    26.5061    78.8655

 340.00  VIB.     0.1016D+02                  2604.6672    19.3250    12.2689
         ROT.     0.2105D+06                  1013.4753     2.9808    27.3383
         INT.     0.2140D+07                  3618.1425    22.3058    39.6073
         TRA.     0.1008D+28                  1689.1255     4.9680    40.0609
         TOT.                       88.683    5307.2680    27.2738    79.6682

 350.00  VIB.     0.1139D+02                  2801.7140    20.0826    12.8401
         ROT.     0.2198D+06                  1043.2834     2.9808    27.4248
         INT.     0.2505D+07                  3844.9975    23.0634    40.2648
         TRA.     0.1053D+28                  1738.8057     4.9680    40.2049
         TOT.                       88.960    5583.8031    28.0315    80.4697

 360.00  VIB.     0.1280D+02                  3006.2832    20.8293    13.4163
         ROT.     0.2293D+06                  1073.0915     2.9808    27.5087
         INT.     0.2934D+07                  4079.3747    23.8101    40.9250
         TRA.     0.1098D+28                  1788.4859     4.9680    40.3448
         TOT.                       89.244    5867.8605    28.7781    81.2699

 370.00  VIB.     0.1439D+02                  3218.2599    21.5640    13.9971
         ROT.     0.2390D+06                  1102.8996     2.9808    27.5904
         INT.     0.3439D+07                  4321.1595    24.5448    41.5875
         TRA.     0.1144D+28                  1838.1660     4.9680    40.4810
         TOT.                       89.535    6159.3255    29.5129    82.0684

 380.00  VIB.     0.1621D+02                  3437.5222    22.2863    14.5818
         ROT.     0.2487D+06                  1132.7077     2.9808    27.6699
         INT.     0.4032D+07                  4570.2299    25.2671    42.2517
         TRA.     0.1191D+28                  1887.8462     4.9680    40.6134
         TOT.                       89.834    6458.0761    30.2351    82.8651

 390.00  VIB.     0.1829D+02                  3663.9421    22.9955    15.1699
         ROT.     0.2586D+06                  1162.5158     2.9808    27.7473
         INT.     0.4729D+07                  4826.4579    25.9763    42.9172
         TRA.     0.1238D+28                  1937.5263     4.9680    40.7425
         TOT.                       90.140    6763.9843    30.9443    83.6597

 400.00  VIB.     0.2066D+02                  3897.3873    23.6913    15.7609
         ROT.     0.2686D+06                  1192.3239     2.9808    27.8228
         INT.     0.5548D+07                  5089.7112    26.6721    43.5836
         TRA.     0.1286D+28                  1987.2065     4.9680    40.8683
         TOT.                       90.453    7076.9177    31.6401    84.4519

   *: NOTE: HEATS OF FORMATION ARE RELATIVE TO THE
            ELEMENTS IN THEIR STANDARD STATE AT 298K
              (=  Standard Enthalpy of Formation).

            Hvib:  Zero-point energy is not included.
                   frequencies of less than zero cm-1 are not included.
            Hrot = (3/2)RT
            Htra = (3/2)RT + pV = (5/2)RT

            Heat capacity is Cp, not Cv

          For more information, see: HTTP://OpenMOPAC.net/Manual/thermochemistry.html


           FORCE CONSTANT IN CARTESIAN COORDINATES (Millidynes/A)

    ATOM   CHEMICAL       X               Y               Z
   NUMBER   SYMBOL  FORCE CONSTANT  FORCE CONSTANT  FORCE CONSTANT

      1       C        8.578313        9.259717        9.025216
      2       C        9.035784       15.218611        2.414509
      3       C       14.943937        9.307234        2.415394
      4       C       12.378978       12.817935        2.226830
      5       C       11.736583       13.462292        2.227385
      6       C        5.380182        7.275594       16.032887
      7       C        4.683966        6.514766       15.270458
      8       H        1.062048        1.324964        3.365055
      9       H        2.066952        4.057446        0.340196
     10       H        4.869076        1.255524        0.340192
     11       H        4.954018        1.143697        0.355848
     12       H        0.742512        5.353965        0.355987
     13       H        1.180493        1.644663        3.871450

 **********************
 *                    *
 * JOB ENDED NORMALLY *
 *                    *
 **********************



 TOTAL JOB TIME:             3.75 SECONDS

 == MOPAC DONE ==
