 *******************************************************************************
 ** Site#: 14399        For non-commercial use only    Version 18.184L 64BITS **
 *******************************************************************************
 ** Cite this program as: MOPAC2016, Version: 18.184L, James J. P. Stewart,   **
 ** Stewart Computational Chemistry, web: HTTP://OpenMOPAC.net. Days left:  20**
 *******************************************************************************
 **                                                                           **
 **                                MOPAC2016                                  **
 **                                                                           **
 *******************************************************************************

                              PM3 CALCULATION RESULTS

 *******************************************************************************
 *  CALCULATION DONE:                                Thu Jun 13 19:28:00 2019  *
 *  PM3        - The PM3 Hamiltonian to be used
 *  PRECISE    - CRITERIA TO BE INCREASED BY 100 TIMES
 *  NOSYM      - POINT-GROUP SYMMETRY SET TO C1
 *  THREADS=1  - MULTI-THREADING NOT USED
 *  T=         - A TIME OF 172800.0 SECONDS REQUESTED
 *  DUMP=N     - RESTART FILE WRITTEN EVERY  7200.000 SECONDS
 *******************************************************************************
pm3  precise nosym THREADS=1
 InChI=1S/C7H10/c1-2-3-4-7-5-6-7/h3H,2,5-6H2,1H3

   ATOM   CHEMICAL          X               Y               Z
  NUMBER   SYMBOL      (ANGSTROMS)     (ANGSTROMS)     (ANGSTROMS)
 
     1       C         -2.76420000  *   0.78580000  *   0.07170000  *
     2       C         -3.10580000  *  -0.59010000  *  -0.08900000  *
     3       C          1.95460000  *   0.16880000  *   0.31910000  *
     4       C          2.90320000  *   0.35140000  *  -0.85990000  *
     5       C         -1.62590000  *  -0.22730000  *  -0.00710000  *
     6       C          0.90560000  *  -0.85210000  *  -0.00450000  *
     7       C         -0.36190000  *  -0.54030000  *  -0.00570000  *
     8       H         -2.87810000  *   1.20700000  *   1.09250000  *
     9       H         -2.82330000  *   1.41890000  *  -0.83840000  *
    10       H         -3.40180000  *  -0.90920000  *  -1.11030000  *
    11       H         -3.45670000  *  -1.12100000  *   0.82070000  *
    12       H          1.49440000  *   1.15080000  *   0.56970000  *
    13       H          2.53110000  *  -0.17770000  *   1.20310000  *
    14       H          2.34400000  *   0.70710000  *  -1.75180000  *
    15       H          3.40880000  *  -0.60800000  *  -1.10190000  *
    16       H          3.67680000  *   1.10490000  *  -0.60140000  *
    17       H          1.19930000  *  -1.86910000  *  -0.23000000  *
 


          CARTESIAN COORDINATES 

    NO.       ATOM           X           Y           Z

     1         C         -2.7642      0.7858      0.0717
     2         C         -3.1058     -0.5901     -0.0890
     3         C          1.9546      0.1688      0.3191
     4         C          2.9032      0.3514     -0.8599
     5         C         -1.6259     -0.2273     -0.0071
     6         C          0.9056     -0.8521     -0.0045
     7         C         -0.3619     -0.5403     -0.0057
     8         H         -2.8781      1.2070      1.0925
     9         H         -2.8233      1.4189     -0.8384
    10         H         -3.4018     -0.9092     -1.1103
    11         H         -3.4567     -1.1210      0.8207
    12         H          1.4944      1.1508      0.5697
    13         H          2.5311     -0.1777      1.2031
    14         H          2.3440      0.7071     -1.7518
    15         H          3.4088     -0.6080     -1.1019
    16         H          3.6768      1.1049     -0.6014
    17         H          1.1993     -1.8691     -0.2300

  H: (PM3): J. J. P. STEWART, J. COMP. CHEM. 10, 209 (1989).
  C: (PM3): J. J. P. STEWART, J. COMP. CHEM. 10, 209 (1989).

           Empirical Formula: C7 H10  =    17 atoms



      MOLECULAR POINT GROUP   :   C1  


      RHF CALCULATION, NO. OF DOUBLY OCCUPIED LEVELS = 19


          Geometry optimization using EF

          DIAGONAL MATRIX USED AS START HESSIAN

 CYCLE:     1 TIME:   0.031 TIME LEFT:  2.00D  GRAD.:   145.063 HEAT:  113.6269
 CYCLE:     2 TIME:   0.039 TIME LEFT:  2.00D  GRAD.:   119.391 HEAT:  106.9787
 CYCLE:     3 TIME:   0.023 TIME LEFT:  2.00D  GRAD.:   142.723 HEAT:  102.1097
 CYCLE:     4 TIME:   0.023 TIME LEFT:  2.00D  GRAD.:   103.062 HEAT:  96.20249
 CYCLE:     5 TIME:   0.031 TIME LEFT:  2.00D  GRAD.:   111.004 HEAT:  93.97237
 CYCLE:     6 TIME:   0.031 TIME LEFT:  2.00D  GRAD.:   117.319 HEAT:  92.38246
 CYCLE:     7 TIME:   0.016 TIME LEFT:  2.00D  GRAD.:    85.781 HEAT:  89.06258
 CYCLE:     8 TIME:   0.039 TIME LEFT:  2.00D  GRAD.:   109.722 HEAT:  88.52150
 CYCLE:     9 TIME:   0.023 TIME LEFT:  2.00D  GRAD.:    57.299 HEAT:  85.94438
 CYCLE:    10 TIME:   0.023 TIME LEFT:  2.00D  GRAD.:    88.781 HEAT:  85.38304
 CYCLE:    11 TIME:   0.023 TIME LEFT:  2.00D  GRAD.:    68.373 HEAT:  83.26884
 CYCLE:    12 TIME:   0.031 TIME LEFT:  2.00D  GRAD.:    97.942 HEAT:  82.80710
 CYCLE:    13 TIME:   0.031 TIME LEFT:  2.00D  GRAD.:    78.808 HEAT:  79.66012
 CYCLE:    14 TIME:   0.023 TIME LEFT:  2.00D  GRAD.:    66.223 HEAT:  78.66777
 CYCLE:    15 TIME:   0.023 TIME LEFT:  2.00D  GRAD.:    25.748 HEAT:  76.83943
 CYCLE:    16 TIME:   0.023 TIME LEFT:  2.00D  GRAD.:    65.024 HEAT:  75.99554
 CYCLE:    17 TIME:   0.023 TIME LEFT:  2.00D  GRAD.:    73.445 HEAT:  74.91449
 CYCLE:    18 TIME:   0.023 TIME LEFT:  2.00D  GRAD.:    50.391 HEAT:  72.78447
 CYCLE:    19 TIME:   0.023 TIME LEFT:  2.00D  GRAD.:    83.449 HEAT:  72.65502
 CYCLE:    20 TIME:   0.023 TIME LEFT:  2.00D  GRAD.:    39.580 HEAT:  70.21329
 CYCLE:    21 TIME:   0.023 TIME LEFT:  2.00D  GRAD.:    43.163 HEAT:  69.36269
 CYCLE:    22 TIME:   0.023 TIME LEFT:  2.00D  GRAD.:    36.301 HEAT:  68.11600
 CYCLE:    23 TIME:   0.023 TIME LEFT:  2.00D  GRAD.:    38.227 HEAT:  67.13434
 CYCLE:    24 TIME:   0.023 TIME LEFT:  2.00D  GRAD.:    27.257 HEAT:  66.54976
 CYCLE:    25 TIME:   0.039 TIME LEFT:  2.00D  GRAD.:    35.200 HEAT:  66.29301
 CYCLE:    26 TIME:   0.023 TIME LEFT:  2.00D  GRAD.:    23.084 HEAT:  65.84993
 CYCLE:    27 TIME:   0.023 TIME LEFT:  2.00D  GRAD.:    17.269 HEAT:  65.54664
 CYCLE:    28 TIME:   0.023 TIME LEFT:  2.00D  GRAD.:    12.065 HEAT:  65.23832
 CYCLE:    29 TIME:   0.023 TIME LEFT:  2.00D  GRAD.:    15.311 HEAT:  64.92299
 CYCLE:    30 TIME:   0.023 TIME LEFT:  2.00D  GRAD.:    16.694 HEAT:  64.82436
 CYCLE:    31 TIME:   0.023 TIME LEFT:  2.00D  GRAD.:    13.214 HEAT:  64.64171
 CYCLE:    32 TIME:   0.023 TIME LEFT:  2.00D  GRAD.:    14.987 HEAT:  64.34755
 CYCLE:    33 TIME:   0.023 TIME LEFT:  2.00D  GRAD.:    16.404 HEAT:  64.17158
 CYCLE:    34 TIME:   0.023 TIME LEFT:  2.00D  GRAD.:    10.678 HEAT:  63.98590
 CYCLE:    35 TIME:   0.023 TIME LEFT:  2.00D  GRAD.:    10.020 HEAT:  63.80124
 CYCLE:    36 TIME:   0.023 TIME LEFT:  2.00D  GRAD.:    11.892 HEAT:  63.65501
 CYCLE:    37 TIME:   0.023 TIME LEFT:  2.00D  GRAD.:    13.245 HEAT:  63.47919
 CYCLE:    38 TIME:   0.016 TIME LEFT:  2.00D  GRAD.:    14.235 HEAT:  63.27791
 CYCLE:    39 TIME:   0.023 TIME LEFT:  2.00D  GRAD.:    11.348 HEAT:  63.08594
 CYCLE:    40 TIME:   0.023 TIME LEFT:  2.00D  GRAD.:     9.280 HEAT:  63.00871
 CYCLE:    41 TIME:   0.023 TIME LEFT:  2.00D  GRAD.:     5.059 HEAT:  62.95163
 CYCLE:    42 TIME:   0.023 TIME LEFT:  2.00D  GRAD.:     4.783 HEAT:  62.91306
 CYCLE:    43 TIME:   0.023 TIME LEFT:  2.00D  GRAD.:     5.648 HEAT:  62.87453
 CYCLE:    44 TIME:   0.023 TIME LEFT:  2.00D  GRAD.:     4.283 HEAT:  62.84796
 CYCLE:    45 TIME:   0.023 TIME LEFT:  2.00D  GRAD.:     3.352 HEAT:  62.82353
 CYCLE:    46 TIME:   0.023 TIME LEFT:  2.00D  GRAD.:     2.561 HEAT:  62.80948
 CYCLE:    47 TIME:   0.023 TIME LEFT:  2.00D  GRAD.:     2.269 HEAT:  62.79945
 CYCLE:    48 TIME:   0.023 TIME LEFT:  2.00D  GRAD.:     2.769 HEAT:  62.78963
 CYCLE:    49 TIME:   0.023 TIME LEFT:  2.00D  GRAD.:     2.443 HEAT:  62.78077
 CYCLE:    50 TIME:   0.023 TIME LEFT:  2.00D  GRAD.:     1.911 HEAT:  62.77390
 CYCLE:    51 TIME:   0.023 TIME LEFT:  2.00D  GRAD.:     1.475 HEAT:  62.76904
 CYCLE:    52 TIME:   0.016 TIME LEFT:  2.00D  GRAD.:     1.600 HEAT:  62.76494
 CYCLE:    53 TIME:   0.023 TIME LEFT:  2.00D  GRAD.:     1.822 HEAT:  62.76048
 CYCLE:    54 TIME:   0.023 TIME LEFT:  2.00D  GRAD.:     1.700 HEAT:  62.75604
 CYCLE:    55 TIME:   0.023 TIME LEFT:  2.00D  GRAD.:     1.470 HEAT:  62.75181
 CYCLE:    56 TIME:   0.023 TIME LEFT:  2.00D  GRAD.:     1.524 HEAT:  62.74791
 CYCLE:    57 TIME:   0.023 TIME LEFT:  2.00D  GRAD.:     1.687 HEAT:  62.74394
 CYCLE:    58 TIME:   0.023 TIME LEFT:  2.00D  GRAD.:     1.648 HEAT:  62.74008
 CYCLE:    59 TIME:   0.023 TIME LEFT:  2.00D  GRAD.:     1.523 HEAT:  62.73649
 CYCLE:    60 TIME:   0.023 TIME LEFT:  2.00D  GRAD.:     1.480 HEAT:  62.73296
 CYCLE:    61 TIME:   0.023 TIME LEFT:  2.00D  GRAD.:     1.571 HEAT:  62.72965
 CYCLE:    62 TIME:   0.023 TIME LEFT:  2.00D  GRAD.:     1.473 HEAT:  62.72646
 CYCLE:    63 TIME:   0.023 TIME LEFT:  2.00D  GRAD.:     1.160 HEAT:  62.72377
 CYCLE:    64 TIME:   0.023 TIME LEFT:  2.00D  GRAD.:     1.026 HEAT:  62.72143
 CYCLE:    65 TIME:   0.016 TIME LEFT:  2.00D  GRAD.:     0.947 HEAT:  62.71946
 CYCLE:    66 TIME:   0.023 TIME LEFT:  2.00D  GRAD.:     0.800 HEAT:  62.71824
 CYCLE:    67 TIME:   0.023 TIME LEFT:  2.00D  GRAD.:     0.564 HEAT:  62.71753
 CYCLE:    68 TIME:   0.023 TIME LEFT:  2.00D  GRAD.:     0.474 HEAT:  62.71703
 CYCLE:    69 TIME:   0.023 TIME LEFT:  2.00D  GRAD.:     0.562 HEAT:  62.71657
 CYCLE:    70 TIME:   0.023 TIME LEFT:  2.00D  GRAD.:     0.462 HEAT:  62.71614
 CYCLE:    71 TIME:   0.023 TIME LEFT:  2.00D  GRAD.:     0.353 HEAT:  62.71586
 CYCLE:    72 TIME:   0.023 TIME LEFT:  2.00D  GRAD.:     0.341 HEAT:  62.71565
 CYCLE:    73 TIME:   0.023 TIME LEFT:  2.00D  GRAD.:     0.414 HEAT:  62.71539
 CYCLE:    74 TIME:   0.023 TIME LEFT:  2.00D  GRAD.:     0.440 HEAT:  62.71511
 CYCLE:    75 TIME:   0.023 TIME LEFT:  2.00D  GRAD.:     0.415 HEAT:  62.71475
 CYCLE:    76 TIME:   0.023 TIME LEFT:  2.00D  GRAD.:     0.358 HEAT:  62.71456
 CYCLE:    77 TIME:   0.023 TIME LEFT:  2.00D  GRAD.:     0.644 HEAT:  62.71403
 CYCLE:    78 TIME:   0.023 TIME LEFT:  2.00D  GRAD.:     0.501 HEAT:  62.71377
 CYCLE:    79 TIME:   0.023 TIME LEFT:  2.00D  GRAD.:     0.731 HEAT:  62.71266
 CYCLE:    80 TIME:   0.023 TIME LEFT:  2.00D  GRAD.:     0.410 HEAT:  62.71239
 CYCLE:    81 TIME:   0.023 TIME LEFT:  2.00D  GRAD.:     0.265 HEAT:  62.71218
 CYCLE:    82 TIME:   0.023 TIME LEFT:  2.00D  GRAD.:     0.098 HEAT:  62.71214
 CYCLE:    83 TIME:   0.023 TIME LEFT:  2.00D  GRAD.:     0.052 HEAT:  62.71213
 CYCLE:    84 TIME:   0.016 TIME LEFT:  2.00D  GRAD.:     0.036 HEAT:  62.71213

     GRADIENT =  0.03621  IS LESS THAN CUTOFF =  0.05000



 -------------------------------------------------------------------------------
 pm3  precise nosym THREADS=1
 InChI=1S/C7H10/c1-2-3-4-7-5-6-7/h3H,2,5-6H2,1H3



     GEOMETRY OPTIMISED USING EIGENVECTOR FOLLOWING (EF).     
     SCF FIELD WAS ACHIEVED                                   


                              PM3 CALCULATION
                                                       MOPAC2016 (Version: 18.184L)
                                                       Thu Jun 13 19:28:02 2019
                                                       No. of days remaining =  20




          FINAL HEAT OF FORMATION =         62.71213 KCAL/MOL =     262.38755 KJ/MOL


          TOTAL ENERGY            =       -981.09024 EV
          ELECTRONIC ENERGY       =      -4231.44523 EV  POINT GROUP:     C1  
          CORE-CORE REPULSION     =       3250.35499 EV
          COSMO AREA              =        158.66 SQUARE ANGSTROMS
          COSMO VOLUME            =        142.66 CUBIC ANGSTROMS

          GRADIENT NORM           =          0.03621 = 0.00878 PER ATOM
          IONIZATION POTENTIAL    =          9.542303 EV
          HOMO LUMO ENERGIES (EV) =         -9.542  0.816
          NO. OF FILLED LEVELS    =         19
          MOLECULAR WEIGHT        =         94.1560

          MOLECULAR DIMENSIONS (Angstroms)

            Atom       Atom       Distance
            H    16    H    10     7.67212
            H     8    H    17     4.27518
            H     9    H    13     3.28141


          SCF CALCULATIONS        =         91
 
          WALL-CLOCK TIME         =          2.078 SECONDS
          COMPUTATION TIME        =          0.920 SECONDS




   ATOM   CHEMICAL          X               Y               Z
  NUMBER   SYMBOL      (ANGSTROMS)     (ANGSTROMS)     (ANGSTROMS)
 
     1       C         -2.85100022  *   0.65487548  *  -0.36328760  *
     2       C         -2.93766264  *  -0.55028355  *   0.54535867  *
     3       C          1.91533418  *  -0.12352493  *   0.34721333  *
     4       C          3.03353227  *   0.46023954  *  -0.48921945  *
     5       C         -1.67590509  *  -0.18197975  *  -0.10354369  *
     6       C          0.82941713  *  -0.67214322  *  -0.51271763  *
     7       C         -0.43254372  *  -0.42213593  *  -0.30385472  *
     8       H         -2.90479546  *   1.66555309  *   0.05776677  *
     9       H         -3.32780877  *   0.63426927  *  -1.35016738  *
    10       H         -3.47751280  *  -1.44676292  *   0.21885139  *
    11       H         -3.05454433  *  -0.41570511  *   1.62697144  *
    12       H          1.52188743  *   0.64105372  *   1.04517805  *
    13       H          2.30077710  *  -0.94444805  *   0.98498662  *
    14       H          2.68218388  *   1.29822925  *  -1.10495161  *
    15       H          3.46484888  *  -0.28593946  *  -1.16973919  *
    16       H          3.84667274  *   0.83626051  *   0.14462649  *
    17       H          1.12711904  *  -1.31647790  *  -1.34964263  *

                             CARTESIAN COORDINATES

   1    C       -2.851000221     0.654875480    -0.363287604
   2    C       -2.937662637    -0.550283552     0.545358666
   3    C        1.915334185    -0.123524926     0.347213333
   4    C        3.033532269     0.460239538    -0.489219450
   5    C       -1.675905092    -0.181979747    -0.103543686
   6    C        0.829417131    -0.672143218    -0.512717629
   7    C       -0.432543723    -0.422135928    -0.303854720
   8    H       -2.904795457     1.665553086     0.057766774
   9    H       -3.327808766     0.634269271    -1.350167384
  10    H       -3.477512802    -1.446762916     0.218851394
  11    H       -3.054544328    -0.415705105     1.626971444
  12    H        1.521887434     0.641053716     1.045178053
  13    H        2.300777099    -0.944448050     0.984986625
  14    H        2.682183881     1.298229252    -1.104951611
  15    H        3.464848880    -0.285939457    -1.169739194
  16    H        3.846672745     0.836260512     0.144626494
  17    H        1.127119035    -1.316477903    -1.349642632


           Empirical Formula: C7 H10  =    17 atoms



      MOLECULAR POINT GROUP   :   C1  


                  EIGENVALUES  
 -38.46997 -36.14887 -29.36731 -24.12391 -22.41869 -21.35397 -18.10964 -17.15479
 -16.35286 -15.58395 -14.65728 -13.79329 -13.19889 -12.69525 -12.43751 -12.31845
 -11.96228  -9.87956  -9.54230   0.81586   1.06729   2.64845   3.07728   3.47571
   3.80974   3.84692   3.95399   4.06759   4.14380   4.19712   4.49930   4.55190
   4.80260   4.83979   4.89346   5.04701   5.25863   6.72697


              NET ATOMIC CHARGES AND DIPOLE CONTRIBUTIONS

  ATOM NO.   TYPE          CHARGE      No. of ELECS.   s-Pop       p-Pop       
    1          C          -0.085889        4.0859     1.15003     2.93586
    2          C          -0.086207        4.0862     1.15007     2.93614
    3          C          -0.051812        4.0518     1.14347     2.90834
    4          C          -0.107207        4.1072     1.13790     2.96930
    5          C          -0.133646        4.1336     1.14248     2.99116
    6          C          -0.071376        4.0714     1.16289     2.90849
    7          C          -0.116909        4.1169     1.17906     2.93784
    8          H           0.079360        0.9206     0.92064
    9          H           0.079386        0.9206     0.92061
   10          H           0.079357        0.9206     0.92064
   11          H           0.079287        0.9207     0.92071
   12          H           0.055555        0.9444     0.94444
   13          H           0.053612        0.9464     0.94639
   14          H           0.041109        0.9589     0.95889
   15          H           0.037762        0.9622     0.96224
   16          H           0.037765        0.9622     0.96223
   17          H           0.109853        0.8901     0.89015
 DIPOLE           X         Y         Z       TOTAL
 POINT-CHG.    -0.028     0.092     0.129     0.161
 HYBRID         0.014    -0.031    -0.043     0.055
 SUM           -0.013     0.061     0.086     0.106


          ATOMIC ORBITAL ELECTRON POPULATIONS

     Atom    s        px        py        pz   
    1  C   1.15003   0.97884   0.95304   1.00398
    2  C   1.15007   0.96604   0.98771   0.98239
    3  C   1.14347   0.94556   0.99750   0.96529
    4  C   1.13790   0.97357   1.00247   0.99326
    5  C   1.14248   0.89896   1.04609   1.04612
    6  C   1.16289   0.90635   1.00471   0.99743
    7  C   1.17906   0.93912   1.00146   0.99726
    8  H   0.92064
    9  H   0.92061
   10  H   0.92064
   11  H   0.92071
   12  H   0.94444
   13  H   0.94639
   14  H   0.95889
   15  H   0.96224
   16  H   0.96223
   17  H   0.89015
 *******************************************************************************
 ** Site#: 14399        For non-commercial use only    Version 18.184L 64BITS **
 *******************************************************************************
 ** Cite this program as: MOPAC2016, Version: 18.184L, James J. P. Stewart,   **
 ** Stewart Computational Chemistry, web: HTTP://OpenMOPAC.net. Days left:  20**
 *******************************************************************************
 **                                                                           **
 **                                MOPAC2016                                  **
 **                                                                           **
 *******************************************************************************

                              PM3 CALCULATION RESULTS

 *******************************************************************************
 *  CALCULATION DONE:                                Thu Jun 13 19:28:02 2019  *
 *  PM3        - The PM3 Hamiltonian to be used
 *  OLDGEO     - PREVIOUS GEOMETRY TO BE USED
 *  PRECISE    - CRITERIA TO BE INCREASED BY 100 TIMES
 *  NOSYM      - POINT-GROUP SYMMETRY SET TO C1
 *  THREADS=1  - MULTI-THREADING NOT USED
 *  T=         - A TIME OF 172800.0 SECONDS REQUESTED
 *  DUMP=N     - RESTART FILE WRITTEN EVERY  7200.000 SECONDS
 *  THERMO     - THERMODYNAMIC QUANTITIES TO BE CALCULATED
 *******************************************************************************
oldgeo thermo nosym precise THREADS=1  pm3
 InChI=1S/C7H10/c1-2-3-4-7-5-6-7/h3H,2,5-6H2,1H3

   ATOM   CHEMICAL          X               Y               Z
  NUMBER   SYMBOL      (ANGSTROMS)     (ANGSTROMS)     (ANGSTROMS)
 
     1       C         -2.85100022  *   0.65487548  *  -0.36328760  *
     2       C         -2.93766264  *  -0.55028355  *   0.54535867  *
     3       C          1.91533418  *  -0.12352493  *   0.34721333  *
     4       C          3.03353227  *   0.46023954  *  -0.48921945  *
     5       C         -1.67590509  *  -0.18197975  *  -0.10354369  *
     6       C          0.82941713  *  -0.67214322  *  -0.51271763  *
     7       C         -0.43254372  *  -0.42213593  *  -0.30385472  *
     8       H         -2.90479546  *   1.66555309  *   0.05776677  *
     9       H         -3.32780877  *   0.63426927  *  -1.35016738  *
    10       H         -3.47751280  *  -1.44676292  *   0.21885139  *
    11       H         -3.05454433  *  -0.41570511  *   1.62697144  *
    12       H          1.52188743  *   0.64105372  *   1.04517805  *
    13       H          2.30077710  *  -0.94444805  *   0.98498662  *
    14       H          2.68218388  *   1.29822925  *  -1.10495161  *
    15       H          3.46484888  *  -0.28593946  *  -1.16973919  *
    16       H          3.84667274  *   0.83626051  *   0.14462649  *
    17       H          1.12711904  *  -1.31647790  *  -1.34964263  *
 


          CARTESIAN COORDINATES 

    NO.       ATOM           X           Y           Z

     1         C         -2.8510      0.6549     -0.3633
     2         C         -2.9377     -0.5503      0.5454
     3         C          1.9153     -0.1235      0.3472
     4         C          3.0335      0.4602     -0.4892
     5         C         -1.6759     -0.1820     -0.1035
     6         C          0.8294     -0.6721     -0.5127
     7         C         -0.4325     -0.4221     -0.3039
     8         H         -2.9048      1.6656      0.0578
     9         H         -3.3278      0.6343     -1.3502
    10         H         -3.4775     -1.4468      0.2189
    11         H         -3.0545     -0.4157      1.6270
    12         H          1.5219      0.6411      1.0452
    13         H          2.3008     -0.9444      0.9850
    14         H          2.6822      1.2982     -1.1050
    15         H          3.4648     -0.2859     -1.1697
    16         H          3.8467      0.8363      0.1446
    17         H          1.1271     -1.3165     -1.3496

  H: (PM3): J. J. P. STEWART, J. COMP. CHEM. 10, 209 (1989).
  C: (PM3): J. J. P. STEWART, J. COMP. CHEM. 10, 209 (1989).

           Empirical Formula: C7 H10  =    17 atoms



      MOLECULAR POINT GROUP   :   C1  


      RHF CALCULATION, NO. OF DOUBLY OCCUPIED LEVELS = 19



          HEAT OF FORMATION =      62.712130 KCALS/MOLE


          CARTESIAN COORDINATE DERIVATIVES

   NUMBER  ATOM         X            Y            Z

     1       C      0.001431     0.004894    -0.007065
     2       C     -0.001385     0.009493     0.008762
     3       C      0.000402     0.002054     0.002332
     4       C     -0.004796     0.007334    -0.008217
     5       C     -0.003486     0.000511     0.003343
     6       C      0.003161    -0.001615     0.003232
     7       C     -0.002405     0.006785     0.001988
     8       H      0.002049     0.001213     0.000522
     9       H      0.006288    -0.003096    -0.002505
    10       H     -0.005500    -0.007108    -0.007486
    11       H      0.000908    -0.002452     0.004187
    12       H     -0.002155    -0.004114     0.001007
    13       H      0.004095    -0.000219     0.001887
    14       H      0.009868     0.000755    -0.002009
    15       H     -0.008334    -0.000632     0.011714
    16       H      0.002993    -0.011651    -0.007981
    17       H     -0.003136    -0.002153    -0.003712
 


          GRADIENT NORM =   0.03623


          TIME FOR SCF CALCULATION =    0.02

          TIME FOR DERIVATIVES     =    0.01

          MOLECULAR WEIGHT =   94.16



          ROTATIONAL CONSTANTS IN CM(-1)

          A =    0.32809742   B =    0.03373641   C =    0.03286393



           PRINCIPAL MOMENTS OF INERTIA IN UNITS OF 10**(-40)*GRAM-CM**2

          A =       85.3185   B =      829.7496   C =      851.7781


          ORIENTATION OF MOLECULE IN FORCE CALCULATION

    NO.       ATOM         X         Y         Z

     1          C      -0.5971   -2.6367    0.3154
     2          C       0.9147   -2.6367    0.3154
     3          C       0.1772    2.1830    0.3154
     4          C      -0.8550    3.2370   -0.0227
     5          C       0.1588   -1.4226   -0.0060
     6          C       0.1600    1.0737   -0.6790
     7          C       0.1585   -0.1837   -0.3359
     8          H      -1.1466   -2.7028    1.2616
     9          H      -1.1465   -3.1621   -0.4744
    10          H       1.4641   -3.1622   -0.4744
    11          H       1.4642   -2.7029    1.2616
    12          H       0.0098    1.8002    1.3410
    13          H       1.1929    2.6276    0.3213
    14          H      -1.8729    2.8270   -0.0015
    15          H      -0.6939    3.6579   -1.0242
    16          H      -0.8204    4.0683    0.6929
    17          H       0.1535    1.3498   -1.7411


    FIRST DERIVATIVES WILL BE USED IN THE CALCULATION OF SECOND DERIVATIVES

          ESTIMATED TIME TO COMPLETE CALCULATION =        6.38 SECONDS

    FOR POINT-GROUP C1   THERE ARE   1 UNIQUE SYMMETRY FUNCTIONS.

 STEP:   1 TIME =     0.05 SECS, INTEGRAL =      0.05 TIME LEFT: 172799.92
 STEP:   2 TIME =     0.03 SECS, INTEGRAL =      0.08 TIME LEFT: 172799.89
 STEP:   3 TIME =     0.03 SECS, INTEGRAL =      0.11 TIME LEFT: 172799.86
 STEP:   4 TIME =     0.02 SECS, INTEGRAL =      0.13 TIME LEFT: 172799.84
 STEP:   5 TIME =     0.04 SECS, INTEGRAL =      0.17 TIME LEFT: 172799.80
 STEP:   6 TIME =     0.03 SECS, INTEGRAL =      0.20 TIME LEFT: 172799.77
 STEP:   7 TIME =     0.02 SECS, INTEGRAL =      0.23 TIME LEFT: 172799.74
 STEP:   8 TIME =     0.02 SECS, INTEGRAL =      0.25 TIME LEFT: 172799.72
 STEP:   9 TIME =     0.03 SECS, INTEGRAL =      0.28 TIME LEFT: 172799.69
 STEP:  10 TIME =     0.02 SECS, INTEGRAL =      0.30 TIME LEFT: 172799.66
 STEP:  11 TIME =     0.03 SECS, INTEGRAL =      0.34 TIME LEFT: 172799.63
 STEP:  12 TIME =     0.02 SECS, INTEGRAL =      0.36 TIME LEFT: 172799.61
 STEP:  13 TIME =     0.02 SECS, INTEGRAL =      0.38 TIME LEFT: 172799.59
 STEP:  14 TIME =     0.03 SECS, INTEGRAL =      0.41 TIME LEFT: 172799.55
 STEP:  15 TIME =     0.02 SECS, INTEGRAL =      0.44 TIME LEFT: 172799.53
 STEP:  16 TIME =     0.03 SECS, INTEGRAL =      0.47 TIME LEFT: 172799.50
 STEP:  17 TIME =     0.03 SECS, INTEGRAL =      0.50 TIME LEFT: 172799.47
 STEP:  18 TIME =     0.03 SECS, INTEGRAL =      0.53 TIME LEFT: 172799.44
 STEP:  19 TIME =     0.04 SECS, INTEGRAL =      0.57 TIME LEFT: 172799.40
 STEP:  20 TIME =     0.03 SECS, INTEGRAL =      0.60 TIME LEFT: 172799.37
 STEP:  21 TIME =     0.03 SECS, INTEGRAL =      0.63 TIME LEFT: 172799.34
 STEP:  22 TIME =     0.03 SECS, INTEGRAL =      0.66 TIME LEFT: 172799.30
 STEP:  23 TIME =     0.03 SECS, INTEGRAL =      0.70 TIME LEFT: 172799.27
 STEP:  24 TIME =     0.03 SECS, INTEGRAL =      0.73 TIME LEFT: 172799.24
 STEP:  25 TIME =     0.03 SECS, INTEGRAL =      0.76 TIME LEFT: 172799.21
 STEP:  26 TIME =     0.02 SECS, INTEGRAL =      0.78 TIME LEFT: 172799.19
 STEP:  27 TIME =     0.03 SECS, INTEGRAL =      0.81 TIME LEFT: 172799.16
 STEP:  28 TIME =     0.02 SECS, INTEGRAL =      0.84 TIME LEFT: 172799.13
 STEP:  29 TIME =     0.03 SECS, INTEGRAL =      0.87 TIME LEFT: 172799.10
 STEP:  30 TIME =     0.03 SECS, INTEGRAL =      0.90 TIME LEFT: 172799.07
 STEP:  31 TIME =     0.02 SECS, INTEGRAL =      0.92 TIME LEFT: 172799.05
 STEP:  32 TIME =     0.03 SECS, INTEGRAL =      0.95 TIME LEFT: 172799.02
 STEP:  33 TIME =     0.04 SECS, INTEGRAL =      0.99 TIME LEFT: 172798.98
 STEP:  34 TIME =     0.03 SECS, INTEGRAL =      1.02 TIME LEFT: 172798.95
 STEP:  35 TIME =     0.02 SECS, INTEGRAL =      1.05 TIME LEFT: 172798.92
 STEP:  36 TIME =     0.03 SECS, INTEGRAL =      1.08 TIME LEFT: 172798.89
 STEP:  37 TIME =     0.02 SECS, INTEGRAL =      1.10 TIME LEFT: 172798.87
 STEP:  38 TIME =     0.03 SECS, INTEGRAL =      1.13 TIME LEFT: 172798.84
 STEP:  39 TIME =     0.02 SECS, INTEGRAL =      1.16 TIME LEFT: 172798.81
 STEP:  40 TIME =     0.03 SECS, INTEGRAL =      1.19 TIME LEFT: 172798.78
 STEP:  41 TIME =     0.03 SECS, INTEGRAL =      1.22 TIME LEFT: 172798.75
 STEP:  42 TIME =     0.02 SECS, INTEGRAL =      1.24 TIME LEFT: 172798.73
 STEP:  43 TIME =     0.03 SECS, INTEGRAL =      1.27 TIME LEFT: 172798.70
 STEP:  44 TIME =     0.02 SECS, INTEGRAL =      1.30 TIME LEFT: 172798.67
 STEP:  45 TIME =     0.02 SECS, INTEGRAL =      1.32 TIME LEFT: 172798.65
 STEP:  46 TIME =     0.04 SECS, INTEGRAL =      1.36 TIME LEFT: 172798.61
 STEP:  47 TIME =     0.03 SECS, INTEGRAL =      1.39 TIME LEFT: 172798.58
 STEP:  48 TIME =     0.03 SECS, INTEGRAL =      1.42 TIME LEFT: 172798.55
 STEP:  49 TIME =     0.03 SECS, INTEGRAL =      1.45 TIME LEFT: 172798.52
 STEP:  50 TIME =     0.03 SECS, INTEGRAL =      1.48 TIME LEFT: 172798.48
 STEP:  51 TIME =     0.02 SECS, INTEGRAL =      1.51 TIME LEFT: 172798.46

(To convert to Hartree/Bohr^2, multiply by (10^(-21) x N x a0^2)/(4.184 x 627.51) =  0.0642)


           FORCE MATRIX IN MILLIDYNES/ANGSTROM


                  C  1       C  2       C  3       C  4       C  5       C  6
 ------------------------------------------------------------------------------
     C    1  15.405186
     C    2   4.685104  15.402465
     C    3   0.092192   0.093068  14.614780
     C    4   0.009598   0.009920   4.410122  14.353364
     C    5   5.756744   5.754569   0.083316   0.012944  22.215507
     C    6   0.085818   0.084891   4.816834   0.717232   0.942141  18.249701
     C    7   0.658976   0.659275   0.920855   0.041577  11.893092  11.350561
     H    8   4.798442   0.459866   0.012858   0.001899   0.466357   0.008744
     H    9   4.797527   0.459619   0.012175   0.000940   0.466146   0.009595
     H   10   0.459392   4.797328   0.011330   0.001419   0.465828   0.009503
     H   11   0.459667   4.797661   0.013414   0.001039   0.466147   0.008604
     H   12   0.001525   0.001283   4.485523   0.434527   0.005261   0.453609
     H   13   0.011341   0.012313   4.424052   0.444531   0.009953   0.408858
     H   14   0.000974   0.000849   0.460124   4.748466   0.001395   0.016181
     H   15   0.000438   0.000757   0.464678   4.726275   0.000943   0.027415
     H   16   0.001246   0.001335   0.447321   4.751750   0.002279   0.051656
     H   17   0.081693   0.082245   0.443491   0.023519   0.043859   4.731177


                  C  7       H  8       H  9       H 10       H 11       H 12
 ------------------------------------------------------------------------------
     C    7  25.307446
     H    8   0.020991   5.397296
     H    9   0.022314   0.486572   5.396215
     H   10   0.022843   0.042397   0.020008   5.395925
     H   11   0.021008   0.020122   0.042565   0.487079   5.396711
     H   12   0.042145   0.000307   0.000275   0.000210   0.000422   5.087116
     H   13   0.029648   0.001306   0.001801   0.001155   0.002223   0.564685
     H   14   0.003127   0.000280   0.000277   0.000263   0.000301   0.024935
     H   15   0.002125   0.000202   0.000134   0.000176   0.000164   0.047507
     H   16   0.007380   0.000403   0.000131   0.000273   0.000154   0.030199
     H   17   0.444010   0.012052   0.011055   0.011159   0.011742   0.037911


                  H 13       H 14       H 15       H 16       H 17
 ------------------------------------------------------------------
     H   13   5.019872
     H   14   0.047519   5.486448
     H   15   0.023849   0.577939   5.470543
     H   16   0.028912   0.573515   0.570584   5.488609
     H   17   0.013996   0.002701   0.018873   0.002160   5.113446


          HEAT OF FORMATION =      62.712130 KCALS/MOLE

          ZERO POINT ENERGY      92.407 KCAL/MOL


           NORMAL COORDINATE ANALYSIS (Total motion = 1 Angstrom)


   Root No.       1         2         3         4         5         6         7         8

                 1 A       2 A       3 A       4 A       5 A       6 A       7 A       8 A   

                  39.8     121.4     144.1     192.8     229.9     336.8     402.9     556.2
  
           1    0.0201   -0.0070   -0.0116   -0.0044    0.0025   -0.0008    0.0006   -0.0189
           2   -0.0230   -0.0029    0.0400    0.0149   -0.0050    0.0106   -0.0303   -0.0433
           3    0.0037   -0.0076    0.0350   -0.0124    0.0244   -0.0105    0.0161    0.0081
           4    0.0201   -0.0072   -0.0115   -0.0045    0.0029    0.0007   -0.0030   -0.0172
           5   -0.0005   -0.0354   -0.0238   -0.0191    0.0224    0.0129   -0.0142    0.0521
           6   -0.0165   -0.0502   -0.0166    0.0153   -0.0210   -0.0173   -0.0041   -0.0107
           7   -0.0313    0.0062   -0.0263   -0.0214   -0.0030   -0.0150   -0.0323   -0.0016
           8   -0.0092    0.0371   -0.0162   -0.0060   -0.0091   -0.0384    0.0165   -0.0048
           9    0.0191   -0.0051    0.0174    0.0018    0.0297   -0.0103   -0.0357    0.0019
          10    0.0441   -0.0201   -0.0085    0.0012   -0.0007    0.0081   -0.0202    0.0014
          11    0.0491    0.0021   -0.0053    0.0173   -0.0215   -0.0151    0.0555   -0.0047
          12   -0.0289   -0.0384   -0.0041    0.0064   -0.0187    0.0082    0.0277   -0.0023
          13   -0.0023    0.0103    0.0296    0.0293   -0.0294   -0.0032   -0.0170   -0.0709
          14   -0.0095   -0.0037    0.0022   -0.0039    0.0034    0.0360   -0.0170    0.0011
          15    0.0021    0.0284   -0.0125   -0.0059   -0.0151    0.0894   -0.0010   -0.0029
          16   -0.0390    0.0088    0.0048   -0.0182    0.0393    0.0084    0.0541   -0.0193
          17   -0.0058   -0.0009    0.0038   -0.0025    0.0085   -0.0042   -0.0093   -0.0012
          18    0.0155    0.0389   -0.0063   -0.0023    0.0092   -0.0466   -0.0157    0.0013
          19   -0.0226    0.0181    0.0411    0.0278   -0.0182    0.0008    0.0145    0.1408
          20   -0.0073    0.0050   -0.0003   -0.0040    0.0036    0.0101   -0.0109    0.0017
          21    0.0102    0.0601   -0.0213   -0.0068   -0.0120    0.0012    0.0022    0.0062
          22    0.0338    0.0193    0.0189   -0.0245    0.0347    0.0074    0.0191   -0.0020
          23   -0.0380   -0.0354    0.0869    0.0325    0.0057   -0.0895   -0.0253   -0.1025
          24    0.0105    0.0055    0.0562   -0.0230    0.0442   -0.0133    0.0279    0.0134
          25    0.0174   -0.0419   -0.0626   -0.0014   -0.0132   -0.0075   -0.0067    0.0156
          26   -0.0256    0.0464    0.0455    0.0243   -0.0332    0.0951   -0.0520   -0.0828
          27    0.0073   -0.0160    0.0673   -0.0208    0.0545   -0.0625    0.0360    0.0094
          28    0.0174   -0.0416   -0.0630   -0.0016   -0.0135    0.0003   -0.0117    0.0174
          29    0.0132   -0.0062   -0.0595   -0.0392    0.0254    0.1027   -0.0069    0.0881
          30   -0.0276   -0.0938   -0.0289    0.0308   -0.0346   -0.0781   -0.0158   -0.0093
          31    0.0338    0.0186    0.0196   -0.0245    0.0360    0.0035    0.0145    0.0007
          32    0.0010   -0.0973   -0.0341   -0.0241    0.0430   -0.0896   -0.0145    0.1210
          33   -0.0244   -0.0697   -0.0356    0.0268   -0.0391   -0.0269   -0.0147   -0.0161
          34   -0.1038    0.0274   -0.0719   -0.0325   -0.0498   -0.0560   -0.0489    0.0029
          35   -0.0038    0.0760   -0.0376   -0.0071   -0.0206   -0.0813   -0.0014   -0.0034
          36    0.0093    0.0126    0.0022   -0.0004    0.0176   -0.0317   -0.0441    0.0033
          37   -0.0074   -0.0025   -0.0249   -0.0138   -0.0077   -0.0098   -0.0382    0.0014
          38   -0.0642    0.0572   -0.0206   -0.0225   -0.0001   -0.0516    0.0314   -0.0116
          39    0.0720   -0.0378    0.0707    0.0086    0.0832    0.0468   -0.0058   -0.0053
          40    0.0206   -0.0109   -0.0083   -0.0217   -0.0060   -0.0026   -0.0344    0.0011
          41    0.1047   -0.0194   -0.0103    0.0840   -0.0041    0.0124    0.0935   -0.0042
          42   -0.0849   -0.0127   -0.0901    0.1842    0.0626    0.0240    0.0434   -0.0045
          43    0.1196   -0.0383    0.0565   -0.1000   -0.0382    0.0033   -0.0393    0.0051
          44    0.0467   -0.0348    0.0393   -0.1085   -0.1144   -0.0161    0.1043   -0.0082
          45   -0.0179   -0.0568    0.0250   -0.0627   -0.0640    0.0072    0.0464   -0.0034
          46    0.0520   -0.0319   -0.0595    0.1441    0.0430    0.0428    0.0338   -0.0003
          47    0.0429    0.0317   -0.0365    0.0986    0.0429   -0.0188    0.0169   -0.0021
          48   -0.0221   -0.0724    0.0345   -0.0947   -0.0960    0.0111    0.0726   -0.0056
          49   -0.0541   -0.0069   -0.0159   -0.0409    0.0945    0.0284    0.1519   -0.2125
          50   -0.0027   -0.0344    0.0225    0.0002    0.0275   -0.0042   -0.0298   -0.0056
          51    0.0163    0.0296   -0.0010   -0.0016    0.0137   -0.0449   -0.0212    0.0013


   Root No.       9        10        11        12        13        14        15        16

                 9 A      10 A      11 A      12 A      13 A      14 A      15 A      16 A   

                 573.5     743.0     819.2     823.4     855.0     890.7     961.9    1013.9
  
           1   -0.0050    0.0154   -0.0026    0.0105   -0.0039   -0.0013    0.0112   -0.0010
           2    0.0298   -0.0305    0.0025   -0.0184    0.0002   -0.0006   -0.0017   -0.0092
           3   -0.0104    0.0076   -0.0083   -0.0024   -0.0099    0.0062    0.0010   -0.0327
           4    0.0064   -0.0144    0.0032   -0.0124    0.0030   -0.0017   -0.0110    0.0013
           5    0.0263   -0.0330    0.0009   -0.0127    0.0071    0.0003   -0.0020   -0.0094
           6   -0.0107    0.0072   -0.0104    0.0050    0.0090   -0.0058    0.0012   -0.0327
           7   -0.0136    0.0205    0.0037   -0.0129    0.0118    0.0057   -0.0103   -0.0020
           8   -0.0368    0.0183    0.0026   -0.0093    0.0096    0.0066   -0.0095   -0.0034
           9   -0.0289    0.0003   -0.0039    0.0130   -0.0077   -0.0045   -0.0115    0.0031
          10    0.0104    0.0018   -0.0006    0.0028    0.0056    0.0103    0.0067    0.0003
          11   -0.0198    0.0004    0.0020   -0.0082    0.0041    0.0033   -0.0289    0.0045
          12    0.0053    0.0012   -0.0011    0.0043   -0.0023   -0.0013   -0.0302   -0.0018
          13    0.0023    0.0011    0.0002   -0.0009   -0.0003    0.0001   -0.0001   -0.0002
          14   -0.0021    0.0059   -0.0057    0.0095   -0.0035    0.0003    0.0136    0.0134
          15   -0.0501   -0.0063   -0.0106   -0.0072    0.0016    0.0001   -0.0036    0.0567
          16    0.0022    0.0032    0.0062   -0.0235   -0.0152   -0.0421    0.0039    0.0045
          17   -0.0182    0.0331   -0.0054    0.0210   -0.0052    0.0008    0.0159   -0.0011
          18   -0.0238   -0.0372    0.0051   -0.0200    0.0072    0.0030    0.0279   -0.0022
          19   -0.0046   -0.0078   -0.0033    0.0124    0.0054    0.0165   -0.0012   -0.0009
          20    0.0295    0.0307   -0.0053    0.0236   -0.0072   -0.0000    0.0133   -0.0029
          21    0.1174    0.0153    0.0003    0.0105   -0.0043   -0.0016   -0.0038   -0.0067
          22   -0.0116    0.0189    0.1630    0.0571   -0.0159    0.0138    0.0273    0.0317
          23    0.1134   -0.0657   -0.0432    0.0203    0.1395   -0.0861   -0.0350    0.1802
          24   -0.0080    0.0074    0.0905    0.0309   -0.0045    0.0077    0.0082    0.0047
          25   -0.0056    0.0295   -0.1743   -0.0154    0.0029   -0.0124    0.0282   -0.0405
          26   -0.0195   -0.0495    0.1038   -0.0840   -0.1060    0.0662   -0.0303   -0.1432
          27    0.0243    0.0088    0.0511    0.0622    0.0594   -0.0322    0.0079    0.0901
          28    0.0018   -0.0230    0.1750    0.0139    0.0141   -0.0140   -0.0281    0.0407
          29   -0.0221   -0.0843    0.0739    0.0306    0.1312   -0.0661   -0.0307   -0.1440
          30    0.0195    0.0351    0.0689   -0.0062   -0.0692    0.0314    0.0080    0.0904
          31    0.0144   -0.0263   -0.1644   -0.0548   -0.0007    0.0136   -0.0275   -0.0321
          32    0.1000   -0.0322   -0.0129   -0.0972   -0.1231    0.0829   -0.0364    0.1789
          33   -0.0100    0.0157    0.0927    0.0241   -0.0011   -0.0076    0.0085    0.0051
          34   -0.0510   -0.0922   -0.0296    0.1013   -0.0744   -0.0541   -0.0392    0.0023
          35   -0.0747   -0.0544   -0.0016    0.0007    0.0096    0.0281    0.0660    0.0186
          36   -0.0464   -0.0422   -0.0101    0.0325   -0.0196   -0.0049    0.0131    0.0117
          37   -0.0046    0.0211    0.0051   -0.0174    0.0328    0.0413    0.0030    0.0073
          38   -0.0593    0.0078   -0.0030    0.0092   -0.0444   -0.0789   -0.0372   -0.0249
          39    0.0191    0.1475    0.0294   -0.0990    0.0622    0.0185   -0.0378   -0.0185
          40   -0.0002    0.0257    0.0046   -0.0147    0.0348    0.0469   -0.0181    0.0075
          41    0.0072   -0.0626   -0.0114    0.0374   -0.0723   -0.0927    0.0390   -0.0146
          42    0.0158    0.0212    0.0104   -0.0365    0.0334    0.0309    0.0480    0.0052
          43    0.0040   -0.0413   -0.0213    0.0764   -0.0673   -0.0625   -0.0826   -0.0173
          44    0.0019   -0.0032    0.0141   -0.0522    0.0290    0.0177    0.1171    0.0101
          45    0.0141   -0.0064    0.0013   -0.0047   -0.0014   -0.0048    0.0206   -0.0019
          46    0.0497   -0.0411   -0.0026    0.0087   -0.0297   -0.0425    0.1623   -0.0121
          47   -0.0422    0.0094   -0.0051    0.0172   -0.0079   -0.0022   -0.1459    0.0039
          48    0.0300   -0.0084    0.0075   -0.0269    0.0129    0.0060    0.1037   -0.0006
          49    0.0269   -0.1071   -0.0360    0.1324    0.0285    0.2180   -0.0157   -0.0112
          50   -0.1091    0.0380   -0.0159    0.0512   -0.0168    0.0039    0.0861    0.0313
          51   -0.0448   -0.0351    0.0028   -0.0136    0.0041    0.0022    0.0453    0.0060


   Root No.      17        18        19        20        21        22        23        24

                17 A      18 A      19 A      20 A      21 A      22 A      23 A      24 A   

                1028.3    1069.3    1083.1    1105.3    1115.6    1126.7    1156.5    1162.0
  
           1   -0.0059   -0.0135   -0.0005   -0.0490    0.0014    0.0074   -0.0279   -0.0202
           2   -0.0045   -0.0217    0.0157   -0.0141   -0.0048   -0.0142    0.0205    0.0126
           3   -0.0026    0.0079    0.0566    0.0028    0.0024    0.0041   -0.0053   -0.0037
           4    0.0034    0.0133   -0.0008   -0.0490   -0.0027   -0.0081    0.0280    0.0203
           5   -0.0024   -0.0218   -0.0145    0.0154   -0.0053   -0.0144    0.0204    0.0128
           6   -0.0029    0.0074   -0.0568   -0.0031   -0.0000    0.0031   -0.0051   -0.0026
           7    0.0228    0.0023    0.0003    0.0008   -0.0609   -0.0095   -0.0041    0.0169
           8    0.0243   -0.0045   -0.0011   -0.0018    0.0131    0.0274    0.0077    0.0037
           9   -0.0103    0.0112    0.0005    0.0007    0.0011   -0.0233   -0.0295    0.0443
          10   -0.0063   -0.0013   -0.0011   -0.0013    0.0652    0.0013    0.0084   -0.0097
          11   -0.0263    0.0031    0.0009    0.0016   -0.0133   -0.0310   -0.0089   -0.0026
          12   -0.0012   -0.0118   -0.0003   -0.0006    0.0057    0.0296    0.0189   -0.0089
          13    0.0020    0.0001    0.0011    0.1010    0.0014    0.0007   -0.0001   -0.0002
          14   -0.0040   -0.0196    0.0003    0.0001    0.0009    0.0038   -0.0158   -0.0118
          15    0.0086   -0.0005   -0.0001   -0.0002    0.0004   -0.0001    0.0028    0.0007
          16   -0.0332   -0.0011   -0.0020    0.0059    0.0044    0.0075   -0.0011   -0.0042
          17    0.0027    0.0102   -0.0006   -0.0006    0.0022    0.0106   -0.0112   -0.0178
          18    0.0065   -0.0246   -0.0001   -0.0002   -0.0078    0.0020   -0.0001   -0.0546
          19    0.0066    0.0003    0.0005   -0.0155   -0.0024   -0.0014   -0.0001    0.0010
          20   -0.0053    0.0025   -0.0001   -0.0001    0.0017    0.0073   -0.0117   -0.0069
          21   -0.0068    0.0146    0.0002    0.0005   -0.0047   -0.0069    0.0118    0.0073
          22   -0.0135   -0.0893   -0.1956    0.0277   -0.0133   -0.0280    0.0166    0.0073
          23    0.0323    0.0831    0.0058   -0.1827    0.0133    0.0437   -0.0722   -0.0471
          24   -0.0038   -0.0285   -0.0632    0.0362   -0.0048   -0.0121    0.0140    0.0081
          25   -0.0212   -0.0828    0.2008    0.0214   -0.0070   -0.0259    0.0167    0.0057
          26   -0.0002    0.1013   -0.0458   -0.1765    0.0132    0.0432   -0.0685   -0.0439
          27    0.0058   -0.0267   -0.0495    0.0613   -0.0040   -0.0113    0.0229    0.0158
          28    0.0211    0.0851    0.1964    0.0185    0.0144    0.0289   -0.0171   -0.0081
          29    0.0076    0.1025    0.0414    0.1728    0.0178    0.0454   -0.0686   -0.0432
          30    0.0034   -0.0264    0.0500   -0.0603   -0.0035   -0.0113    0.0228    0.0147
          31    0.0142    0.0873   -0.1987    0.0243    0.0076    0.0261   -0.0161   -0.0047
          32    0.0413    0.0833   -0.0099    0.1785    0.0199    0.0471   -0.0726   -0.0487
          33   -0.0056   -0.0279    0.0641   -0.0349   -0.0040   -0.0120    0.0139    0.0076
          34   -0.0152    0.0266   -0.0000    0.0025   -0.0063   -0.1429   -0.0690   -0.0204
          35   -0.0798    0.0128    0.0019   -0.0013    0.0724    0.1757    0.0313    0.2456
          36   -0.0533    0.0210    0.0015    0.0011    0.0320    0.0095   -0.0334    0.1309
          37   -0.0493   -0.0037    0.0022    0.0028   -0.1578    0.0482   -0.0228    0.0047
          38    0.1907    0.0113   -0.0056   -0.0063    0.2379   -0.1068    0.0486    0.0367
          39    0.1404   -0.0052   -0.0018   -0.0026   -0.0382   -0.0310    0.0075    0.0566
          40   -0.0572   -0.0007   -0.0013   -0.0015    0.1369   -0.0230    0.0109   -0.0339
          41    0.1086    0.0025    0.0014    0.0018   -0.1902    0.0296   -0.0154    0.0577
          42   -0.0183    0.0114   -0.0006   -0.0005    0.0637   -0.0287   -0.0124    0.0084
          43    0.0653   -0.0413   -0.0014   -0.0032   -0.0234    0.1278    0.0623   -0.0331
          44   -0.0116    0.0431    0.0012    0.0028   -0.0115   -0.1069   -0.0616    0.0550
          45    0.0153   -0.0012   -0.0002   -0.0004   -0.0052    0.0173    0.0035    0.0128
          46    0.1058    0.0155   -0.0017   -0.0029   -0.0030    0.0304   -0.0158    0.0290
          47   -0.0524   -0.0177    0.0012    0.0022   -0.0302   -0.0006    0.0263   -0.0242
          48    0.0272    0.0130   -0.0005   -0.0011    0.0273   -0.0087   -0.0221    0.0210
          49    0.0785    0.0012    0.0280   -0.0047   -0.0239   -0.0175   -0.0028    0.0079
          50   -0.0520    0.1940    0.0014    0.0038   -0.0771   -0.0451    0.2403   -0.0690
          51   -0.0076    0.0205    0.0003    0.0010   -0.0280   -0.0134    0.0618   -0.0680


   Root No.      25        26        27        28        29        30        31        32

                25 A      26 A      27 A      28 A      29 A      30 A      31 A      32 A   

                1189.2    1232.6    1344.5    1386.5    1387.7    1406.6    1411.3    1415.9
  
           1   -0.0022    0.0458    0.0023    0.0311    0.0110    0.0022   -0.0010   -0.0149
           2   -0.0864    0.0010    0.0038    0.0219    0.0015    0.0006   -0.0004   -0.0047
           3    0.0232   -0.0006   -0.0008   -0.0058   -0.0004   -0.0002    0.0001    0.0014
           4   -0.0024   -0.0457   -0.0023    0.0311   -0.0110   -0.0022    0.0011    0.0150
           5    0.0865    0.0010    0.0037   -0.0220    0.0016    0.0007   -0.0004   -0.0048
           6   -0.0232    0.0003   -0.0012    0.0059   -0.0004   -0.0001    0.0001    0.0011
           7    0.0000    0.0168   -0.0197   -0.0000   -0.0099    0.0061    0.0000   -0.0231
           8   -0.0001   -0.0213    0.0441   -0.0000   -0.0210   -0.0039    0.0029    0.0073
           9    0.0000   -0.0079    0.0126   -0.0000   -0.0305    0.0057    0.0025   -0.0202
          10    0.0000   -0.0021   -0.0110   -0.0000   -0.0140   -0.0298   -0.0101    0.0265
          11    0.0001    0.0066    0.0038    0.0000    0.0144   -0.0081   -0.0280   -0.0307
          12    0.0000    0.0065   -0.0085    0.0000   -0.0019    0.0222   -0.0271    0.0127
          13    0.0548   -0.0002    0.0000   -0.0103    0.0000    0.0000   -0.0000   -0.0000
          14   -0.0000    0.0116   -0.0127    0.0000    0.0124    0.0014   -0.0006   -0.0065
          15   -0.0000   -0.0041    0.0029    0.0000   -0.0031   -0.0004    0.0002    0.0020
          16    0.0020   -0.0048    0.0028   -0.0003    0.0001   -0.0006   -0.0002    0.0017
          17   -0.0001   -0.0345   -0.0136    0.0000   -0.0035   -0.0016    0.0008    0.0129
          18   -0.0001   -0.0040   -0.0183    0.0000    0.0111   -0.0006    0.0000    0.0050
          19   -0.0034    0.0008   -0.0005    0.0007   -0.0001    0.0001    0.0000   -0.0003
          20   -0.0001   -0.0133   -0.0154    0.0000    0.0052   -0.0001    0.0002    0.0029
          21    0.0001    0.0085    0.0055   -0.0000   -0.0021    0.0002   -0.0002   -0.0022
          22   -0.1457    0.0696    0.0616   -0.1559   -0.0574   -0.0071    0.0031    0.0400
          23    0.1125    0.0649    0.0376   -0.1199   -0.0378   -0.0050    0.0024    0.0279
          24   -0.0460    0.0149    0.0324   -0.1146   -0.0392   -0.0055    0.0025    0.0329
          25   -0.1435    0.0686    0.0620   -0.1558   -0.0573   -0.0072    0.0032    0.0402
          26    0.1212    0.0491    0.0174   -0.0481   -0.0136   -0.0017    0.0009    0.0087
          27   -0.0168   -0.0451   -0.0472    0.1590    0.0528    0.0073   -0.0034   -0.0426
          28   -0.1444   -0.0696   -0.0616   -0.1557    0.0574    0.0073   -0.0033   -0.0399
          29   -0.1210    0.0501    0.0169    0.0481   -0.0136   -0.0017    0.0009    0.0083
          30    0.0162   -0.0458   -0.0470   -0.1590    0.0529    0.0074   -0.0035   -0.0425
          31   -0.1462   -0.0679   -0.0619   -0.1555    0.0575    0.0074   -0.0033   -0.0404
          32   -0.1122    0.0638    0.0384    0.1200   -0.0379   -0.0053    0.0026    0.0288
          33    0.0462    0.0147    0.0323    0.1144   -0.0393   -0.0056    0.0026    0.0329
          34   -0.0004   -0.0378    0.0976    0.0001    0.1556   -0.0368   -0.0223    0.1240
          35    0.0011    0.0928   -0.0478    0.0000    0.0890   -0.0086   -0.0197    0.0289
          36    0.0004    0.0254    0.0031    0.0000    0.0525   -0.0054   -0.0121    0.0228
          37   -0.0001   -0.0330    0.0406   -0.0000    0.0057   -0.0066   -0.0008    0.0137
          38    0.0002    0.0928   -0.0817   -0.0000   -0.0233    0.0167   -0.0015   -0.0523
          39   -0.0000    0.0482    0.0505   -0.0001    0.1866   -0.0302   -0.0299    0.1148
          40    0.0000   -0.0107    0.0313    0.0001    0.0249    0.0600   -0.0002   -0.0307
          41   -0.0000    0.0240   -0.0801   -0.0002   -0.0645   -0.1844    0.0023    0.0870
          42   -0.0000   -0.0079    0.0300   -0.0001    0.0325   -0.1766    0.3229   -0.0562
          43   -0.0003   -0.0110    0.0780    0.0000    0.0712   -0.0065    0.2474   -0.1011
          44    0.0001    0.0087   -0.0416   -0.0001   -0.0259    0.1726    0.2272    0.0843
          45    0.0000    0.0040   -0.0064   -0.0000    0.0002    0.0802    0.1317    0.0270
          46   -0.0004   -0.0433    0.0971    0.0003    0.0275    0.2762   -0.1033   -0.0610
          47    0.0002    0.0380   -0.0599    0.0000   -0.0036    0.1557    0.0912    0.0685
          48   -0.0001   -0.0245    0.0514    0.0000    0.0118   -0.1897   -0.1202   -0.0858
          49   -0.0003    0.0074   -0.0056    0.0002   -0.0007    0.0016    0.0011   -0.0025
          50    0.0006    0.1013    0.0376   -0.0001    0.0055   -0.0070   -0.0036   -0.0088
          51    0.0001    0.0314   -0.0059   -0.0000    0.0141   -0.0014   -0.0007   -0.0011


   Root No.      33        34        35        36        37        38        39        40

                33 A      34 A      35 A      36 A      37 A      38 A      39 A      40 A   

                1435.7    1771.5    2339.6    2950.7    3029.0    3033.6    3073.4    3081.5
  
           1    0.0347   -0.0657    0.0272    0.0000   -0.0000   -0.0000    0.0001   -0.0000
           2    0.0136   -0.0558    0.0237    0.0000    0.0001    0.0000    0.0079   -0.0000
           3   -0.0035    0.0148   -0.0063    0.0000    0.0000   -0.0000    0.0296   -0.0000
           4   -0.0347    0.0657   -0.0272   -0.0000    0.0000    0.0000    0.0001   -0.0000
           5    0.0135   -0.0558    0.0237    0.0000    0.0000    0.0001   -0.0079   -0.0000
           6   -0.0038    0.0148   -0.0063   -0.0000   -0.0000    0.0000   -0.0299   -0.0000
           7   -0.0158   -0.0017    0.0010   -0.0404    0.0138   -0.0110   -0.0001    0.0009
           8    0.0472    0.0304    0.0036   -0.0265    0.0002    0.0015   -0.0000    0.0012
           9    0.0172    0.0151    0.0020    0.0294    0.0201   -0.0211   -0.0000   -0.0025
          10    0.0208    0.0004   -0.0007    0.0018   -0.0000    0.0003   -0.0000    0.0269
          11   -0.0252    0.0002    0.0016    0.0015   -0.0013    0.0015   -0.0000    0.0145
          12    0.0041    0.0008    0.0004   -0.0015   -0.0023    0.0022    0.0000   -0.0406
          13   -0.0000    0.0001    0.0000   -0.0000    0.0000    0.0000    0.0000    0.0000
          14    0.0059    0.1686   -0.2236   -0.0003    0.0004    0.0004   -0.0000    0.0000
          15   -0.0020   -0.0452    0.0592    0.0001   -0.0002   -0.0002   -0.0000   -0.0000
          16    0.0018    0.0004    0.0002   -0.0001   -0.0002   -0.0002    0.0000   -0.0000
          17   -0.0335   -0.1619   -0.1340    0.0001    0.0103    0.0105    0.0000    0.0001
          18   -0.0145    0.0109    0.0222   -0.0025   -0.0290   -0.0312    0.0000    0.0002
          19   -0.0003    0.0000    0.0001   -0.0001    0.0001   -0.0001   -0.0000    0.0000
          20   -0.0162    0.0756    0.3029    0.0008   -0.0034   -0.0035    0.0000   -0.0000
          21    0.0054   -0.0189   -0.0794    0.0001    0.0009    0.0007   -0.0000    0.0000
          22   -0.0670   -0.0124    0.0159   -0.0001    0.0001    0.0001    0.1194    0.0000
          23   -0.0502    0.0085    0.0104   -0.0001   -0.0001   -0.0001    0.0180   -0.0000
          24   -0.0623    0.0533   -0.0189    0.0002   -0.0002   -0.0002   -0.1984   -0.0000
          25   -0.0664   -0.0123    0.0159    0.0001   -0.0002    0.0000   -0.1201    0.0000
          26   -0.0126   -0.0190    0.0182    0.0002   -0.0003    0.0000   -0.1144    0.0000
          27    0.0786   -0.0506    0.0113    0.0002   -0.0002    0.0001   -0.1647    0.0001
          28    0.0666    0.0123   -0.0159    0.0001    0.0000    0.0001   -0.1212   -0.0001
          29   -0.0132   -0.0190    0.0182   -0.0002   -0.0001   -0.0002    0.1155    0.0001
          30    0.0788   -0.0505    0.0112   -0.0001    0.0000   -0.0000    0.1662    0.0001
          31    0.0665    0.0125   -0.0160   -0.0002    0.0001   -0.0002    0.1206    0.0002
          32   -0.0496    0.0084    0.0103    0.0001   -0.0001   -0.0000   -0.0181   -0.0000
          33   -0.0623    0.0532   -0.0188   -0.0003    0.0002   -0.0004    0.2003    0.0003
          34    0.0208    0.0023    0.0007    0.0489    0.0595   -0.0594   -0.0000   -0.0027
          35   -0.0634   -0.0375   -0.0126    0.1284    0.1064   -0.1050   -0.0000   -0.0140
          36   -0.0186   -0.0096    0.0009   -0.3551   -0.2603    0.2689    0.0001    0.0306
          37    0.0230    0.0065   -0.0077    0.4400   -0.2291    0.1945    0.0005   -0.0073
          38   -0.0437    0.0023    0.0007    0.1901   -0.1050    0.0893    0.0001   -0.0004
          39   -0.0147    0.0087    0.0067    0.0042    0.0156   -0.0169   -0.0001   -0.0024
          40   -0.0239   -0.0002    0.0007   -0.0193    0.0049   -0.0072    0.0002   -0.2758
          41    0.0684    0.0025   -0.0001   -0.0121    0.0020   -0.0026    0.0001   -0.1174
          42   -0.0257   -0.0009   -0.0001    0.0012   -0.0012    0.0010   -0.0000   -0.0131
          43   -0.0655   -0.0024   -0.0006   -0.0061   -0.0030    0.0032    0.0000   -0.0671
          44    0.0453    0.0015    0.0001   -0.0056   -0.0068    0.0043    0.0000   -0.1720
          45    0.0126    0.0011    0.0005    0.0200    0.0139   -0.0114   -0.0001    0.4237
          46   -0.0284    0.0046   -0.0005    0.0000    0.0028   -0.0026   -0.0000    0.0212
          47    0.0136   -0.0010    0.0029   -0.0012    0.0154   -0.0186    0.0001    0.1146
          48   -0.0298    0.0042    0.0016   -0.0017    0.0153   -0.0180    0.0001    0.0745
          49   -0.0029   -0.0005   -0.0003   -0.0011    0.0021    0.0018    0.0006   -0.0002
          50    0.0421    0.0379   -0.0237   -0.0097   -0.0869   -0.0910    0.0000    0.0019
          51    0.0058    0.0838    0.1032    0.0276    0.3432    0.3686   -0.0000   -0.0028


   Root No.      41        42        43        44        45

                41 A      42 A      43 A      44 A      45 A   

                3086.3    3087.0    3120.8    3121.3    3183.2
  
           1    0.0000   -0.0001    0.0179    0.0209   -0.0000
           2    0.0000   -0.0080    0.0101    0.0111   -0.0000
           3    0.0001   -0.0302   -0.0028   -0.0031    0.0000
           4   -0.0000    0.0001   -0.0213    0.0174    0.0000
           5    0.0000   -0.0079    0.0119   -0.0092   -0.0000
           6    0.0001   -0.0299   -0.0033    0.0025   -0.0000
           7   -0.0021   -0.0000   -0.0000   -0.0000   -0.0002
           8   -0.0005   -0.0000   -0.0000    0.0000    0.0004
           9   -0.0018   -0.0000   -0.0000   -0.0000    0.0001
          10   -0.0252   -0.0001    0.0000    0.0000   -0.0174
          11   -0.0335   -0.0001    0.0000    0.0000    0.0170
          12   -0.0287   -0.0000    0.0000   -0.0000   -0.0042
          13    0.0000   -0.0000   -0.0000    0.0002   -0.0000
          14    0.0000   -0.0001   -0.0015   -0.0001   -0.0000
          15   -0.0000   -0.0005    0.0004    0.0000    0.0000
          16   -0.0002    0.0000    0.0000    0.0000    0.0000
          17    0.0005    0.0000    0.0001    0.0000   -0.0001
          18   -0.0003   -0.0001   -0.0000   -0.0000    0.0001
          19   -0.0000    0.0000    0.0000   -0.0001   -0.0000
          20   -0.0001   -0.0000   -0.0000   -0.0000    0.0000
          21    0.0000   -0.0001    0.0000    0.0000   -0.0000
          22    0.0002   -0.1231   -0.1035   -0.1249    0.0001
          23    0.0000   -0.0170   -0.0091   -0.0111   -0.0000
          24   -0.0003    0.1978    0.1914    0.2290   -0.0001
          25   -0.0003    0.1243   -0.1025   -0.1240    0.0001
          26   -0.0003    0.1137   -0.1016   -0.1219    0.0001
          27   -0.0005    0.1653   -0.1604   -0.1922    0.0001
          28    0.0005   -0.1230    0.1228   -0.1040   -0.0001
          29   -0.0005    0.1125   -0.1215    0.1022    0.0001
          30   -0.0007    0.1635   -0.1918    0.1610    0.0001
          31   -0.0003    0.1222    0.1239   -0.1045   -0.0000
          32    0.0000   -0.0168   -0.0109    0.0093   -0.0000
          33   -0.0005    0.1962    0.2286   -0.1913   -0.0001
          34   -0.0052   -0.0000   -0.0000   -0.0000   -0.0002
          35   -0.0101   -0.0000   -0.0001   -0.0000    0.0018
          36    0.0211    0.0001    0.0002    0.0001   -0.0028
          37    0.0311    0.0001    0.0002    0.0000   -0.0023
          38    0.0106    0.0000    0.0001    0.0000   -0.0003
          39   -0.0015   -0.0000   -0.0000    0.0000    0.0000
          40    0.3217    0.0007   -0.0000   -0.0000    0.2972
          41    0.1274    0.0003    0.0000   -0.0000    0.1392
          42   -0.0243   -0.0000    0.0000   -0.0000   -0.0107
          43   -0.0297   -0.0000    0.0000   -0.0000   -0.0601
          44   -0.0539   -0.0000    0.0000   -0.0000   -0.1082
          45    0.0763   -0.0000    0.0000    0.0001    0.2849
          46    0.0101    0.0000   -0.0000    0.0000   -0.0246
          47    0.3258    0.0006   -0.0003    0.0001   -0.2395
          48    0.2906    0.0006   -0.0002    0.0000   -0.2217
          49   -0.0003    0.0000   -0.0000   -0.0000   -0.0002
          50   -0.0006   -0.0001   -0.0000   -0.0000    0.0009
          51    0.0043    0.0004    0.0000    0.0000   -0.0019


           MASS-WEIGHTED COORDINATE ANALYSIS (NORMAL COORDINATES)


   Root No.       1         2         3         4         5         6         7         8

                 1 A       2 A       3 A       4 A       5 A       6 A       7 A       8 A   

                  39.8     121.4     144.1     192.8     229.9     336.8     402.9     556.2
  
           1    0.1557   -0.0515   -0.0973   -0.0376    0.0223   -0.0053    0.0044   -0.0969
           2   -0.1777   -0.0211    0.3371    0.1270   -0.0451    0.0741   -0.2234   -0.2219
           3    0.0285   -0.0555    0.2948   -0.1056    0.2180   -0.0734    0.1188    0.0415
           4    0.1556   -0.0526   -0.0965   -0.0381    0.0256    0.0052   -0.0223   -0.0883
           5   -0.0042   -0.2591   -0.2002   -0.1621    0.2004    0.0906   -0.1050    0.2674
           6   -0.1277   -0.3676   -0.1402    0.1301   -0.1880   -0.1214   -0.0306   -0.0551
           7   -0.2420    0.0456   -0.2219   -0.1816   -0.0271   -0.1052   -0.2379   -0.0082
           8   -0.0713    0.2715   -0.1366   -0.0508   -0.0812   -0.2697    0.1216   -0.0246
           9    0.1477   -0.0371    0.1468    0.0153    0.2654   -0.0723   -0.2631    0.0098
          10    0.3412   -0.1470   -0.0712    0.0102   -0.0060    0.0572   -0.1488    0.0074
          11    0.3795    0.0152   -0.0446    0.1472   -0.1920   -0.1058    0.4091   -0.0242
          12   -0.2236   -0.2812   -0.0348    0.0548   -0.1673    0.0577    0.2045   -0.0118
          13   -0.0180    0.0755    0.2497    0.2496   -0.2630   -0.0228   -0.1256   -0.3635
          14   -0.0732   -0.0269    0.0184   -0.0330    0.0308    0.2531   -0.1255    0.0058
          15    0.0162    0.2078   -0.1053   -0.0504   -0.1349    0.6278   -0.0073   -0.0151
          16   -0.3014    0.0645    0.0403   -0.1552    0.3510    0.0593    0.3989   -0.0992
          17   -0.0446   -0.0065    0.0318   -0.0213    0.0756   -0.0298   -0.0683   -0.0064
          18    0.1201    0.2850   -0.0529   -0.0198    0.0827   -0.3275   -0.1155    0.0064
          19   -0.1748    0.1323    0.3460    0.2362   -0.1628    0.0059    0.1066    0.7221
          20   -0.0566    0.0368   -0.0028   -0.0342    0.0326    0.0706   -0.0805    0.0086
          21    0.0786    0.4402   -0.1793   -0.0581   -0.1074    0.0084    0.0160    0.0317
          22    0.0756    0.0410    0.0462   -0.0605    0.0900    0.0150    0.0408   -0.0030
          23   -0.0851   -0.0752    0.2122    0.0801    0.0148   -0.1821   -0.0540   -0.1523
          24    0.0236    0.0116    0.1372   -0.0566    0.1146   -0.0271    0.0596    0.0199
          25    0.0391   -0.0890   -0.1528   -0.0035   -0.0343   -0.0153   -0.0143    0.0232
          26   -0.0573    0.0985    0.1110    0.0598   -0.0861    0.1934   -0.1111   -0.1230
          27    0.0164   -0.0340    0.1641   -0.0512    0.1411   -0.1273    0.0768    0.0140
          28    0.0389   -0.0882   -0.1537   -0.0039   -0.0349    0.0006   -0.0251    0.0259
          29    0.0296   -0.0132   -0.1453   -0.0966    0.0659    0.2089   -0.0147    0.1309
          30   -0.0618   -0.1991   -0.0706    0.0759   -0.0897   -0.1590   -0.0337   -0.0139
          31    0.0757    0.0395    0.0479   -0.0605    0.0933    0.0071    0.0309    0.0011
          32    0.0023   -0.2065   -0.0831   -0.0593    0.1113   -0.1823   -0.0310    0.1797
          33   -0.0546   -0.1479   -0.0868    0.0659   -0.1014   -0.0547   -0.0313   -0.0239
          34   -0.2324    0.0581   -0.1755   -0.0801   -0.1291   -0.1139   -0.1044    0.0043
          35   -0.0085    0.1614   -0.0916   -0.0176   -0.0534   -0.1654   -0.0029   -0.0050
          36    0.0209    0.0267    0.0054   -0.0011    0.0456   -0.0645   -0.0942    0.0049
          37   -0.0166   -0.0053   -0.0608   -0.0339   -0.0200   -0.0200   -0.0816    0.0020
          38   -0.1438    0.1215   -0.0502   -0.0555   -0.0002   -0.1050    0.0670   -0.0172
          39    0.1612   -0.0802    0.1726    0.0213    0.2155    0.0952   -0.0123   -0.0079
          40    0.0462   -0.0232   -0.0202   -0.0536   -0.0156   -0.0052   -0.0735    0.0016
          41    0.2344   -0.0411   -0.0251    0.2070   -0.0106    0.0252    0.1998   -0.0062
          42   -0.1901   -0.0270   -0.2199    0.4539    0.1623    0.0489    0.0926   -0.0068
          43    0.2678   -0.0813    0.1378   -0.2464   -0.0989    0.0068   -0.0839    0.0076
          44    0.1045   -0.0738    0.0959   -0.2674   -0.2963   -0.0328    0.2227   -0.0122
          45   -0.0400   -0.1206    0.0609   -0.1544   -0.1658    0.0146    0.0990   -0.0051
          46    0.1164   -0.0677   -0.1452    0.3550    0.1115    0.0870    0.0721   -0.0005
          47    0.0960    0.0673   -0.0890    0.2430    0.1111   -0.0383    0.0360   -0.0031
          48   -0.0494   -0.1536    0.0843   -0.2333   -0.2486    0.0226    0.1551   -0.0084
          49   -0.1212   -0.0146   -0.0388   -0.1008    0.2449    0.0578    0.3243   -0.3158
          50   -0.0061   -0.0730    0.0548    0.0004    0.0711   -0.0085   -0.0636   -0.0083
          51    0.0366    0.0628   -0.0025   -0.0040    0.0355   -0.0914   -0.0453    0.0019


   Root No.       9        10        11        12        13        14        15        16

                 9 A      10 A      11 A      12 A      13 A      14 A      15 A      16 A   

                 573.5     743.0     819.2     823.4     855.0     890.7     961.9    1013.9
  
           1   -0.0301    0.1318   -0.0223    0.1012   -0.0405   -0.0121    0.0984   -0.0077
           2    0.1783   -0.2612    0.0211   -0.1775    0.0016   -0.0058   -0.0152   -0.0706
           3   -0.0622    0.0647   -0.0700   -0.0232   -0.1024    0.0595    0.0090   -0.2520
           4    0.0383   -0.1237    0.0272   -0.1200    0.0308   -0.0164   -0.0964    0.0101
           5    0.1574   -0.2830    0.0079   -0.1223    0.0732    0.0033   -0.0176   -0.0724
           6   -0.0638    0.0613   -0.0878    0.0478    0.0926   -0.0555    0.0101   -0.2519
           7   -0.0816    0.1758    0.0312   -0.1246    0.1218    0.0543   -0.0904   -0.0157
           8   -0.2204    0.1571    0.0223   -0.0892    0.0994    0.0630   -0.0832   -0.0263
           9   -0.1733    0.0022   -0.0329    0.1251   -0.0793   -0.0426   -0.1005    0.0242
          10    0.0621    0.0154   -0.0047    0.0269    0.0576    0.0980    0.0583    0.0022
          11   -0.1185    0.0030    0.0168   -0.0793    0.0424    0.0314   -0.2534    0.0344
          12    0.0318    0.0101   -0.0097    0.0419   -0.0239   -0.0127   -0.2641   -0.0137
          13    0.0139    0.0093    0.0018   -0.0086   -0.0031    0.0012   -0.0008   -0.0016
          14   -0.0126    0.0509   -0.0479    0.0919   -0.0356    0.0026    0.1195    0.1034
          15   -0.2999   -0.0540   -0.0894   -0.0696    0.0169    0.0006   -0.0315    0.4375
          16    0.0131    0.0274    0.0520   -0.2270   -0.1570   -0.4010    0.0340    0.0350
          17   -0.1088    0.2837   -0.0458    0.2027   -0.0538    0.0074    0.1391   -0.0086
          18   -0.1425   -0.3189    0.0430   -0.1928    0.0741    0.0282    0.2448   -0.0167
          19   -0.0277   -0.0665   -0.0282    0.1195    0.0553    0.1574   -0.0101   -0.0070
          20    0.1770    0.2628   -0.0443    0.2277   -0.0741   -0.0002    0.1161   -0.0220
          21    0.7031    0.1314    0.0028    0.1009   -0.0439   -0.0154   -0.0335   -0.0518
          22   -0.0201    0.0468    0.3982    0.1596   -0.0476    0.0382    0.0692    0.0709
          23    0.1968   -0.1631   -0.1054    0.0567    0.4166   -0.2377   -0.0889    0.4024
          24   -0.0139    0.0184    0.2212    0.0863   -0.0136    0.0213    0.0207    0.0105
          25   -0.0098    0.0731   -0.4256   -0.0429    0.0087   -0.0341    0.0717   -0.0904
          26   -0.0338   -0.1228    0.2535   -0.2346   -0.3166    0.1827   -0.0770   -0.3199
          27    0.0421    0.0218    0.1248    0.1737    0.1775   -0.0888    0.0201    0.2013
          28    0.0031   -0.0571    0.4274    0.0388    0.0420   -0.0387   -0.0713    0.0910
          29   -0.0383   -0.2092    0.1804    0.0855    0.3917   -0.1825   -0.0778   -0.3215
          30    0.0338    0.0870    0.1684   -0.0174   -0.2067    0.0868    0.0203    0.2020
          31    0.0250   -0.0653   -0.4014   -0.1530   -0.0021    0.0375   -0.0698   -0.0717
          32    0.1735   -0.0799   -0.0315   -0.2713   -0.3677    0.2287   -0.0924    0.3995
          33   -0.0174    0.0389    0.2264    0.0672   -0.0032   -0.0211    0.0215    0.0113
          34   -0.0885   -0.2288   -0.0724    0.2828   -0.2223   -0.1492   -0.0996    0.0051
          35   -0.1295   -0.1349   -0.0039    0.0020    0.0286    0.0776    0.1676    0.0414
          36   -0.0804   -0.1047   -0.0246    0.0909   -0.0587   -0.0134    0.0332    0.0260
          37   -0.0080    0.0525    0.0125   -0.0487    0.0980    0.1139    0.0075    0.0164
          38   -0.1030    0.0194   -0.0073    0.0256   -0.1327   -0.2177   -0.0944   -0.0556
          39    0.0331    0.3661    0.0719   -0.2765    0.1858    0.0510   -0.0960   -0.0413
          40   -0.0004    0.0638    0.0112   -0.0412    0.1039    0.1296   -0.0460    0.0168
          41    0.0125   -0.1553   -0.0278    0.1044   -0.2158   -0.2558    0.0988   -0.0326
          42    0.0274    0.0527    0.0254   -0.1018    0.0997    0.0854    0.1217    0.0115
          43    0.0070   -0.1026   -0.0521    0.2133   -0.2010   -0.1724   -0.2097   -0.0387
          44    0.0032   -0.0078    0.0344   -0.1459    0.0866    0.0489    0.2970    0.0225
          45    0.0245   -0.0160    0.0032   -0.0132   -0.0042   -0.0132    0.0523   -0.0043
          46    0.0862   -0.1021   -0.0064    0.0242   -0.0886   -0.1174    0.4119   -0.0270
          47   -0.0732    0.0233   -0.0124    0.0481   -0.0235   -0.0060   -0.3702    0.0086
          48    0.0520   -0.0209    0.0183   -0.0751    0.0384    0.0166    0.2632   -0.0014
          49    0.0467   -0.2659   -0.0880    0.3698    0.0851    0.6016   -0.0397   -0.0250
          50   -0.1893    0.0942   -0.0388    0.1431   -0.0501    0.0107    0.2185    0.0699
          51   -0.0777   -0.0872    0.0068   -0.0379    0.0123    0.0060    0.1148    0.0135


   Root No.      17        18        19        20        21        22        23        24

                17 A      18 A      19 A      20 A      21 A      22 A      23 A      24 A   

                1028.3    1069.3    1083.1    1105.3    1115.6    1126.7    1156.5    1162.0
  
           1   -0.0517   -0.1210   -0.0032   -0.2962    0.0092    0.0640   -0.2421   -0.1572
           2   -0.0389   -0.1947    0.1071   -0.0855   -0.0326   -0.1227    0.1780    0.0980
           3   -0.0225    0.0714    0.3853    0.0169    0.0162    0.0356   -0.0463   -0.0290
           4    0.0294    0.1196   -0.0052   -0.2963   -0.0185   -0.0698    0.2430    0.1581
           5   -0.0212   -0.1956   -0.0991    0.0929   -0.0358   -0.1247    0.1776    0.0994
           6   -0.0252    0.0667   -0.3873   -0.0186   -0.0002    0.0271   -0.0446   -0.0199
           7    0.1990    0.0207    0.0023    0.0048   -0.4116   -0.0816   -0.0360    0.1310
           8    0.2122   -0.0407   -0.0077   -0.0106    0.0888    0.2366    0.0669    0.0290
           9   -0.0902    0.1008    0.0031    0.0043    0.0074   -0.2012   -0.2563    0.3445
          10   -0.0550   -0.0117   -0.0073   -0.0080    0.4406    0.0116    0.0732   -0.0758
          11   -0.2293    0.0281    0.0063    0.0097   -0.0895   -0.2678   -0.0770   -0.0199
          12   -0.0107   -0.1062   -0.0017   -0.0033    0.0383    0.2553    0.1644   -0.0690
          13    0.0171    0.0012    0.0075    0.6104    0.0097    0.0061   -0.0010   -0.0013
          14   -0.0352   -0.1760    0.0017    0.0004    0.0058    0.0332   -0.1377   -0.0920
          15    0.0753   -0.0047   -0.0005   -0.0009    0.0025   -0.0007    0.0246    0.0056
          16   -0.2902   -0.0095   -0.0139    0.0360    0.0294    0.0647   -0.0092   -0.0329
          17    0.0238    0.0915   -0.0038   -0.0035    0.0148    0.0919   -0.0972   -0.1384
          18    0.0570   -0.2213   -0.0007   -0.0013   -0.0527    0.0172   -0.0012   -0.4243
          19    0.0573    0.0023    0.0034   -0.0937   -0.0159   -0.0124   -0.0008    0.0077
          20   -0.0467    0.0223   -0.0004   -0.0008    0.0116    0.0627   -0.1015   -0.0537
          21   -0.0597    0.1311    0.0016    0.0029   -0.0314   -0.0596    0.1021    0.0564
          22   -0.0341   -0.2325   -0.3861    0.0485   -0.0260   -0.0699    0.0417    0.0164
          23    0.0817    0.2165    0.0115   -0.3200    0.0261    0.1092   -0.1817   -0.1060
          24   -0.0096   -0.0742   -0.1247    0.0633   -0.0094   -0.0302    0.0351    0.0182
          25   -0.0537   -0.2157    0.3964    0.0375   -0.0137   -0.0648    0.0419    0.0128
          26   -0.0005    0.2638   -0.0904   -0.3092    0.0258    0.1079   -0.1725   -0.0990
          27    0.0148   -0.0696   -0.0976    0.1074   -0.0079   -0.0282    0.0577    0.0355
          28    0.0533    0.2216    0.3876    0.0324    0.0281    0.0722   -0.0431   -0.0182
          29    0.0193    0.2669    0.0817    0.3027    0.0347    0.1135   -0.1727   -0.0974
          30    0.0085   -0.0686    0.0987   -0.1056   -0.0068   -0.0282    0.0573    0.0332
          31    0.0358    0.2274   -0.3922    0.0425    0.0149    0.0652   -0.0405   -0.0106
          32    0.1044    0.2170   -0.0196    0.3127    0.0389    0.1178   -0.1829   -0.1097
          33   -0.0140   -0.0726    0.1266   -0.0611   -0.0079   -0.0300    0.0349    0.0171
          34   -0.0384    0.0694   -0.0001    0.0044   -0.0123   -0.3573   -0.1737   -0.0460
          35   -0.2018    0.0335    0.0038   -0.0022    0.1417    0.4392    0.0789    0.5533
          36   -0.1348    0.0546    0.0029    0.0019    0.0627    0.0237   -0.0841    0.2948
          37   -0.1246   -0.0095    0.0044    0.0048   -0.3088    0.1206   -0.0574    0.0107
          38    0.4823    0.0294   -0.0111   -0.0111    0.4653   -0.2669    0.1224    0.0827
          39    0.3553   -0.0136   -0.0036   -0.0045   -0.0748   -0.0775    0.0189    0.1275
          40   -0.1448   -0.0019   -0.0026   -0.0026    0.2679   -0.0574    0.0275   -0.0764
          41    0.2746    0.0066    0.0028    0.0031   -0.3722    0.0740   -0.0387    0.1299
          42   -0.0463    0.0296   -0.0013   -0.0009    0.1246   -0.0718   -0.0311    0.0190
          43    0.1652   -0.1076   -0.0029   -0.0056   -0.0458    0.3196    0.1569   -0.0747
          44   -0.0293    0.1123    0.0024    0.0048   -0.0225   -0.2672   -0.1552    0.1239
          45    0.0388   -0.0031   -0.0003   -0.0007   -0.0102    0.0433    0.0088    0.0288
          46    0.2677    0.0404   -0.0033   -0.0051   -0.0058    0.0759   -0.0396    0.0654
          47   -0.1325   -0.0461    0.0024    0.0038   -0.0590   -0.0015    0.0661   -0.0546
          48    0.0687    0.0338   -0.0011   -0.0019    0.0534   -0.0217   -0.0557    0.0472
          49    0.1985    0.0032    0.0552   -0.0082   -0.0467   -0.0439   -0.0071    0.0178
          50   -0.1316    0.5053    0.0027    0.0067   -0.1509   -0.1127    0.6048   -0.1555
          51   -0.0193    0.0535    0.0005    0.0017   -0.0548   -0.0335    0.1557   -0.1532


   Root No.      25        26        27        28        29        30        31        32

                25 A      26 A      27 A      28 A      29 A      30 A      31 A      32 A   

                1189.2    1232.6    1344.5    1386.5    1387.7    1406.6    1411.3    1415.9
  
           1   -0.0126    0.4004    0.0223    0.2174    0.1026    0.0147   -0.0066   -0.1405
           2   -0.4901    0.0086    0.0373    0.1534    0.0144    0.0041   -0.0023   -0.0442
           3    0.1318   -0.0051   -0.0080   -0.0409   -0.0038   -0.0014    0.0009    0.0134
           4   -0.0138   -0.3998   -0.0224    0.2174   -0.1029   -0.0149    0.0068    0.1406
           5    0.4903    0.0084    0.0361   -0.1536    0.0149    0.0044   -0.0024   -0.0455
           6   -0.1317    0.0025   -0.0116    0.0411   -0.0038   -0.0008    0.0005    0.0103
           7    0.0001    0.1471   -0.1921   -0.0000   -0.0922    0.0409    0.0003   -0.2169
           8   -0.0008   -0.1868    0.4296   -0.0002   -0.1956   -0.0264    0.0188    0.0685
           9    0.0002   -0.0690    0.1230   -0.0002   -0.2841    0.0386    0.0162   -0.1896
          10    0.0002   -0.0180   -0.1075   -0.0002   -0.1302   -0.2003   -0.0646    0.2496
          11    0.0004    0.0578    0.0371    0.0003    0.1337   -0.0543   -0.1798   -0.2887
          12    0.0002    0.0567   -0.0833    0.0002   -0.0179    0.1497   -0.1738    0.1198
          13    0.3110   -0.0014    0.0002   -0.0723    0.0002    0.0001   -0.0000   -0.0004
          14   -0.0000    0.1011   -0.1243    0.0002    0.1155    0.0091   -0.0037   -0.0610
          15   -0.0002   -0.0357    0.0280    0.0000   -0.0287   -0.0027    0.0011    0.0186
          16    0.0111   -0.0418    0.0273   -0.0022    0.0007   -0.0039   -0.0015    0.0163
          17   -0.0008   -0.3023   -0.1324    0.0000   -0.0329   -0.0106    0.0053    0.1217
          18   -0.0007   -0.0349   -0.1783    0.0000    0.1038   -0.0041    0.0003    0.0468
          19   -0.0194    0.0071   -0.0050    0.0050   -0.0005    0.0007    0.0001   -0.0032
          20   -0.0003   -0.1168   -0.1500    0.0001    0.0483   -0.0004    0.0011    0.0272
          21    0.0005    0.0742    0.0538   -0.0001   -0.0195    0.0012   -0.0012   -0.0211
          22   -0.2394    0.1765    0.1738   -0.3157   -0.1549   -0.0138    0.0058    0.1091
          23    0.1848    0.1646    0.1062   -0.2429   -0.1020   -0.0097    0.0045    0.0761
          24   -0.0756    0.0378    0.0915   -0.2320   -0.1058   -0.0107    0.0047    0.0897
          25   -0.2358    0.1738    0.1751   -0.3154   -0.1546   -0.0141    0.0060    0.1095
          26    0.1991    0.1244    0.0491   -0.0974   -0.0366   -0.0033    0.0017    0.0237
          27   -0.0276   -0.1143   -0.1332    0.3220    0.1425    0.0142   -0.0063   -0.1160
          28   -0.2373   -0.1765   -0.1739   -0.3154    0.1549    0.0142   -0.0062   -0.1086
          29   -0.1987    0.1271    0.0476    0.0974   -0.0367   -0.0033    0.0016    0.0225
          30    0.0267   -0.1160   -0.1326   -0.3220    0.1428    0.0145   -0.0065   -0.1158
          31   -0.2402   -0.1722   -0.1749   -0.3149    0.1551    0.0143   -0.0062   -0.1100
          32   -0.1844    0.1617    0.1085    0.2430   -0.1024   -0.0103    0.0047    0.0784
          33    0.0760    0.0374    0.0913    0.2317   -0.1061   -0.0109    0.0048    0.0895
          34   -0.0006   -0.0957    0.2756    0.0003    0.4200   -0.0718   -0.0415    0.3378
          35    0.0019    0.2352   -0.1349    0.0001    0.2402   -0.0167   -0.0366    0.0786
          36    0.0007    0.0644    0.0087    0.0001    0.1417   -0.0104   -0.0226    0.0622
          37   -0.0002   -0.0837    0.1145   -0.0000    0.0154   -0.0128   -0.0014    0.0374
          38    0.0003    0.2353   -0.2306   -0.0001   -0.0628    0.0325   -0.0027   -0.1426
          39   -0.0001    0.1222    0.1427   -0.0001    0.5034   -0.0589   -0.0556    0.3128
          40    0.0001   -0.0272    0.0885    0.0002    0.0672    0.1170   -0.0004   -0.0837
          41   -0.0000    0.0610   -0.2262   -0.0005   -0.1741   -0.3594    0.0042    0.2370
          42   -0.0001   -0.0200    0.0846   -0.0002    0.0876   -0.3442    0.6001   -0.1531
          43   -0.0004   -0.0278    0.2202    0.0000    0.1922   -0.0128    0.4599   -0.2755
          44    0.0002    0.0220   -0.1175   -0.0002   -0.0698    0.3365    0.4223    0.2298
          45    0.0000    0.0101   -0.0181   -0.0001    0.0006    0.1563    0.2448    0.0735
          46   -0.0006   -0.1099    0.2743    0.0006    0.0742    0.5384   -0.1921   -0.1662
          47    0.0004    0.0962   -0.1691    0.0000   -0.0097    0.3035    0.1695    0.1867
          48   -0.0002   -0.0621    0.1452    0.0001    0.0318   -0.3698   -0.2235   -0.2338
          49   -0.0004    0.0187   -0.0159    0.0004   -0.0019    0.0031    0.0021   -0.0067
[...]
 T-DIPOLE    0.0969         C  3 -- H 12         +23.0% ( 64.3%)     13.0%
 TRAVEL      0.0959         C  6 -- C  7         +10.9% ( 44.1%)      0.8%
 RED. MASS   0.9004         C  3 -- C  4          +8.2% ( 38.3%)     18.4%
 EFF. MASS   6.3160

 VIBRATION   25   25A         ATOM PAIR      ENERGY CONTRIBUTION    RADIAL
 FREQ.      1189.22         C  1 -- C  2         +17.7% ( 61.1%)      0.0%
 T-DIPOLE    0.0129         C  2 -- C  5         +13.6% ( 53.6%)     99.9%
 TRAVEL      0.0879         C  1 -- C  5         +13.5% ( 53.5%)     99.9%
 RED. MASS   1.7470         C  2 -- H 11         +13.3% ( 53.0%)      2.1%
 EFF. MASS   7.3423         C  2 -- H 10         +13.3% ( 53.0%)      2.0%
                            C  1 -- H  8         +13.3% ( 52.9%)      2.0%
                            C  1 -- H  9         +13.2% ( 52.9%)      2.0%

 VIBRATION   26   26A         ATOM PAIR      ENERGY CONTRIBUTION    RADIAL
 FREQ.      1232.63         C  1 -- C  2         +19.1% ( 66.1%)    100.0%
 T-DIPOLE    0.2229         C  6 -- H 17          +9.4% ( 46.3%)      0.3%
 TRAVEL      0.0886         C  1 -- H  9          +7.1% ( 40.3%)     24.4%
 RED. MASS   0.8058         C  1 -- H  8          +7.1% ( 40.3%)     25.6%
 EFF. MASS   6.9656

 VIBRATION   27   27A         ATOM PAIR      ENERGY CONTRIBUTION    RADIAL
 FREQ.      1344.54         C  3 -- H 12         +17.2% ( 51.0%)      0.1%
 T-DIPOLE    0.1421         C  3 -- C  6         +17.1% ( 50.9%)     83.7%
 TRAVEL      0.1059         C  3 -- H 13         +16.5% ( 50.0%)      0.0%
 RED. MASS   0.7694         C  3 -- C  4          +9.7% ( 38.3%)     39.9%
 EFF. MASS   4.4685

 VIBRATION   28   28A         ATOM PAIR      ENERGY CONTRIBUTION    RADIAL
 FREQ.      1386.47         C  2 -- H 10         +19.6% ( 46.9%)      3.3%
 T-DIPOLE    0.0746         C  1 -- H  9         +19.6% ( 46.9%)      3.3%
 TRAVEL      0.1417         C  1 -- H  8         +19.6% ( 46.9%)      3.3%
 RED. MASS   0.3085         C  2 -- H 11         +19.5% ( 46.8%)      3.3%
 EFF. MASS   2.4208

 VIBRATION   29   29A         ATOM PAIR      ENERGY CONTRIBUTION    RADIAL
 FREQ.      1387.66         C  3 -- H 13         +23.0% ( 51.9%)      3.8%
 T-DIPOLE    0.0984         C  3 -- H 12         +22.9% ( 51.8%)      4.4%
 TRAVEL      0.1263         C  3 -- C  4          +9.0% ( 32.4%)     21.2%
 RED. MASS   0.3611         C  3 -- C  6          +8.9% ( 32.3%)     78.3%
 EFF. MASS   3.0455

 VIBRATION   30   30A         ATOM PAIR      ENERGY CONTRIBUTION    RADIAL
 FREQ.      1406.60         C  4 -- H 16         +51.1% ( 62.4%)      0.2%
 T-DIPOLE    0.0444         C  4 -- H 14         +26.2% ( 44.7%)      8.2%
 TRAVEL      0.1723         C  4 -- H 15         +14.8% ( 33.5%)     15.6%
 RED. MASS   0.4109         C  3 -- C  4          +5.6% ( 20.6%)     20.3%
 EFF. MASS   1.6157

 VIBRATION   31   31A         ATOM PAIR      ENERGY CONTRIBUTION    RADIAL
 FREQ.      1411.33         C  4 -- H 15         +45.1% ( 58.4%)      0.7%
 T-DIPOLE    0.0695         C  4 -- H 14         +36.4% ( 52.4%)      2.0%
 TRAVEL      0.1732         C  4 -- H 16         +12.2% ( 30.4%)     37.0%
 RED. MASS   0.4016         C  3 -- C  4          +5.5% ( 20.3%)      3.3%
 EFF. MASS   1.5926

 VIBRATION   32   32A         ATOM PAIR      ENERGY CONTRIBUTION    RADIAL
 FREQ.      1415.86         C  4 -- H 15         +14.7% ( 45.6%)      4.9%
 T-DIPOLE    0.0503         C  3 -- C  4         +14.3% ( 44.8%)     91.7%
 TRAVEL      0.1064         C  4 -- H 16         +14.0% ( 44.5%)      2.6%
 RED. MASS   0.4874         C  4 -- H 14         +12.4% ( 41.8%)      2.5%
 EFF. MASS   4.2068         C  3 -- H 12         +10.1% ( 37.6%)      5.7%

 VIBRATION   33   33A         ATOM PAIR      ENERGY CONTRIBUTION    RADIAL
 FREQ.      1435.67         C  3 -- C  6         +13.2% ( 52.8%)     83.9%
 T-DIPOLE    0.0434         C  1 -- C  2         +10.5% ( 47.0%)    100.0%
 TRAVEL      0.0792         C  3 -- C  4         +10.3% ( 46.6%)     77.8%
 RED. MASS   0.9292         C  3 -- H 12          +7.5% ( 39.9%)      0.0%
 EFF. MASS   7.4811

 VIBRATION   34   34A         ATOM PAIR      ENERGY CONTRIBUTION    RADIAL
 FREQ.      1771.50         C  1 -- C  5         +19.6% ( 70.6%)     93.1%
 T-DIPOLE    0.6160         C  2 -- C  5         +19.6% ( 70.6%)     93.1%
 TRAVEL      0.0565         C  6 -- C  7         +18.3% ( 68.4%)     98.0%
 RED. MASS   3.2364         C  5 -- C  7         +10.7% ( 52.1%)    100.0%
 EFF. MASS  11.9275

 VIBRATION   35   35A         ATOM PAIR      ENERGY CONTRIBUTION    RADIAL
 FREQ.      2339.64         C  5 -- C  7         +43.6% ( 89.0%)    100.0%
 T-DIPOLE    0.7288         C  6 -- C  7         +30.3% ( 74.3%)     99.9%
 TRAVEL      0.0491         C  1 -- C  5         +10.3% ( 43.2%)     82.2%
 RED. MASS   5.0915         C  2 -- C  5         +10.3% ( 43.2%)     82.2%
 EFF. MASS  11.9566

 VIBRATION   36   36A         ATOM PAIR      ENERGY CONTRIBUTION    RADIAL
 FREQ.      2950.72         C  3 -- H 13         +58.7% ( 79.5%)     97.5%
 T-DIPOLE    0.0171         C  3 -- H 12         +38.5% ( 64.4%)     95.1%
 TRAVEL      0.1218         C  3 -- C  4          +1.1% ( 11.1%)      0.2%
 RED. MASS   0.5337         C  3 -- C  6          +1.1% ( 11.1%)      0.0%
 EFF. MASS   1.5400

 VIBRATION   37   37A         ATOM PAIR      ENERGY CONTRIBUTION    RADIAL
 FREQ.      3028.96         C  6 -- H 17         +46.9% ( 68.5%)    100.0%
 T-DIPOLE    0.2194         C  3 -- H 12         +28.8% ( 53.7%)     98.4%
 TRAVEL      0.1261         C  3 -- H 13         +21.8% ( 46.7%)     96.8%
 RED. MASS   0.3416         C  3 -- C  6          +1.1% ( 10.6%)     23.8%
 EFF. MASS   1.3994

 VIBRATION   38   38A         ATOM PAIR      ENERGY CONTRIBUTION    RADIAL
 FREQ.      3033.61         C  6 -- H 17         +52.6% ( 72.5%)    100.0%
 T-DIPOLE    0.2484         C  3 -- H 12         +29.8% ( 54.5%)     98.9%
 TRAVEL      0.1262         C  3 -- H 13         +15.3% ( 39.0%)     95.0%
 RED. MASS   0.3746         C  3 -- C  6          +0.8% (  9.2%)      0.0%
 EFF. MASS   1.3968

 VIBRATION   39   39A         ATOM PAIR      ENERGY CONTRIBUTION    RADIAL
 FREQ.      3073.35         C  2 -- H 10         +24.8% ( 51.6%)     97.1%
 T-DIPOLE    0.0013         C  2 -- H 11         +24.5% ( 51.3%)     97.0%
 TRAVEL      0.1191         C  1 -- H  9         +24.3% ( 51.1%)     97.1%
 RED. MASS   0.2596         C  1 -- H  8         +24.1% ( 50.8%)     97.0%
 EFF. MASS   1.5477

 VIBRATION   40   40A         ATOM PAIR      ENERGY CONTRIBUTION    RADIAL
 FREQ.      3081.53         C  4 -- H 15         +64.4% ( 82.8%)     98.7%
 T-DIPOLE    0.0094         C  4 -- H 14         +27.8% ( 54.4%)     92.0%
 TRAVEL      0.1207         C  4 -- H 16          +6.5% ( 26.3%)     62.9%
 RED. MASS   0.5233         C  3 -- C  4          +1.0% ( 10.2%)      0.0%
 EFF. MASS   1.5011

 VIBRATION   41   41A         ATOM PAIR      ENERGY CONTRIBUTION    RADIAL
 FREQ.      3086.26         C  4 -- H 16         +58.1% ( 78.6%)     98.2%
 T-DIPOLE    0.0160         C  4 -- H 14         +36.9% ( 62.6%)     94.7%
 TRAVEL      0.1205         C  4 -- H 15          +3.6% ( 19.6%)     43.2%
 RED. MASS   0.5026         C  3 -- C  4          +1.0% ( 10.3%)      0.1%
 EFF. MASS   1.5041

 VIBRATION   42   42A         ATOM PAIR      ENERGY CONTRIBUTION    RADIAL
 FREQ.      3087.02         C  1 -- H  9         +24.9% ( 51.4%)     97.3%
 T-DIPOLE    0.2312         C  1 -- H  8         +24.5% ( 50.9%)     97.2%
 TRAVEL      0.1190         C  2 -- H 10         +24.4% ( 50.9%)     97.3%
 RED. MASS   0.2608         C  2 -- H 11         +24.1% ( 50.5%)     97.2%
 EFF. MASS   1.5430

 VIBRATION   43   43A         ATOM PAIR      ENERGY CONTRIBUTION    RADIAL
 FREQ.      3120.78         C  2 -- H 11         +29.0% ( 53.7%)     96.3%
 T-DIPOLE    0.2047         C  2 -- H 10         +28.5% ( 53.3%)     96.2%
 TRAVEL      0.1272         C  1 -- H  8         +20.3% ( 45.0%)     96.3%
 RED. MASS   0.2501         C  1 -- H  9         +20.0% ( 44.5%)     96.2%
 EFF. MASS   1.3352

 VIBRATION   44   44A         ATOM PAIR      ENERGY CONTRIBUTION    RADIAL
 FREQ.      3121.33         C  1 -- H  8         +29.2% ( 53.7%)     96.5%
 T-DIPOLE    0.2410         C  1 -- H  9         +28.8% ( 53.2%)     96.4%
 TRAVEL      0.1301         C  2 -- H 11         +20.4% ( 44.8%)     96.5%
 RED. MASS   0.2497         C  2 -- H 10         +20.2% ( 44.6%)     96.4%
 EFF. MASS   1.2765

 VIBRATION   45   45A         ATOM PAIR      ENERGY CONTRIBUTION    RADIAL
 FREQ.      3183.23         C  4 -- H 14         +34.6% ( 56.6%)     97.3%
 T-DIPOLE    0.0317         C  4 -- H 16         +34.4% ( 56.4%)     97.3%
 TRAVEL      0.1365         C  4 -- H 15         +30.7% ( 53.3%)     96.7%
 RED. MASS   0.3278         C  3 -- C  4          +0.3% (  5.1%)     99.7%
 EFF. MASS   1.1361

      SYMMETRY NUMBER FOR POINT-GROUP C1  =  1


          SYSTEM IS A GROUND STATE



 InChI=1S/C7H10/c1-2-3-4-7-5-6-7/h3H,2,5-6H2,1H3


          MOLECULE IS NOT LINEAR

          THERE ARE 45 GENUINE VIBRATIONS IN THIS SYSTEM
          THIS THERMODYNAMICS CALCULATION IS LIMITED TO
          MOLECULES WHICH HAVE NO INTERNAL ROTATIONS




                    CALCULATED THERMODYNAMIC PROPERTIES
                                          *
   TEMP. (K)   PARTITION FUNCTION   H.O.F.    ENTHALPY  HEAT CAPACITY ENTROPY
                                   KCAL/MOL   CAL/MOLE    CAL/K/MOL  CAL/K/MOL


 298.00  VIB.     0.1244D+03                  3170.9850    21.9689    20.2260
         ROT.     0.2770D+06                   888.2813     2.9808    27.8841
         INT.     0.3446D+08                  4059.2663    24.9497    48.1102
         TRA.     0.8833D+27                  1480.4688     4.9680    39.5363
         TOT.                       62.712    5539.7351    29.9177    87.6464

 200.00  VIB.     0.2157D+02                  1423.6214    13.9773    13.2215
         ROT.     0.1523D+06                   596.1620     2.9808    26.6954
         INT.     0.3285D+07                  2019.7833    16.9581    39.9170
         TRA.     0.4856D+27                   993.6033     4.9680    37.5551
         TOT.                       60.186    3013.3866    21.9261    77.4721

 210.00  VIB.     0.2580D+02                  1567.0032    14.7031    13.9210
         ROT.     0.1639D+06                   625.9700     2.9808    26.8409
         INT.     0.4228D+07                  2192.9733    17.6839    40.7618
         TRA.     0.5225D+27                  1043.2834     4.9680    37.7975
         TOT.                       60.409    3236.2567    22.6520    78.5594

 220.00  VIB.     0.3085D+02                  1717.7654    15.4533    14.6222
         ROT.     0.1757D+06                   655.7781     2.9808    26.9795
         INT.     0.5420D+07                  2373.5436    18.4341    41.6017
         TRA.     0.5603D+27                  1092.9636     4.9680    38.0286
         TOT.                       60.639    3466.5072    23.4022    79.6303

 230.00  VIB.     0.3687D+02                  1876.1489    16.2272    15.3261
         ROT.     0.1878D+06                   685.5862     2.9808    27.1120
         INT.     0.6926D+07                  2561.7351    19.2080    42.4381
         TRA.     0.5989D+27                  1142.6437     4.9680    38.2495
         TOT.                       60.877    3704.3788    24.1760    80.6876

 240.00  VIB.     0.4408D+02                  2042.3839    17.0234    16.0334
         ROT.     0.2002D+06                   715.3943     2.9808    27.2389
         INT.     0.8825D+07                  2757.7783    20.0042    43.2724
         TRA.     0.6384D+27                  1192.3239     4.9680    38.4609
         TOT.                       61.122    3950.1022    24.9722    81.7333

 250.00  VIB.     0.5269D+02                  2216.6849    17.8400    16.7449
         ROT.     0.2129D+06                   745.2024     2.9808    27.3606
         INT.     0.1122D+08                  2961.8874    20.8208    44.1055
         TRA.     0.6787D+27                  1242.0041     4.9680    38.6637
         TOT.                       61.376    4203.8914    25.7889    82.7692

 260.00  VIB.     0.6299D+02                  2399.2455    18.6749    17.4608
         ROT.     0.2258D+06                   775.0105     2.9808    27.4775
         INT.     0.1422D+08                  3174.2560    21.6557    44.9383
         TRA.     0.7198D+27                  1291.6842     4.9680    38.8586
         TOT.                       61.638    4465.9403    26.6237    83.7968

 270.00  VIB.     0.7531D+02                  2590.2359    19.5256    18.1815
         ROT.     0.2389D+06                   804.8186     2.9808    27.5900
         INT.     0.1799D+08                  3395.0545    22.5064    45.7715
         TRA.     0.7618D+27                  1341.3644     4.9680    39.0461
         TOT.                       61.909    4736.4189    27.4744    84.8175

 280.00  VIB.     0.9007D+02                  2789.8006    20.3894    18.9072
         ROT.     0.2523D+06                   834.6267     2.9808    27.6984
         INT.     0.2272D+08                  3624.4273    23.3702    46.6056
         TRA.     0.8045D+27                  1391.0445     4.9680    39.2267
         TOT.                       62.188    5015.4719    28.3382    85.8323

 290.00  VIB.     0.1077D+03                  2998.0579    21.2636    19.6379
         ROT.     0.2659D+06                   864.4348     2.9808    27.8030
         INT.     0.2865D+08                  3862.4927    24.2445    47.4409
         TRA.     0.8479D+27                  1440.7247     4.9680    39.4011
         TOT.                       62.476    5303.2175    29.2125    86.8419

 300.00  VIB.     0.1289D+03                  3215.0996    22.1458    20.3736
         ROT.     0.2798D+06                   894.2429     2.9808    27.9041
         INT.     0.3608D+08                  4109.3425    25.1266    48.2776
         TRA.     0.8922D+27                  1490.4049     4.9680    39.5695
         TOT.                       62.772    5599.7474    30.0946    87.8471

 310.00  VIB.     0.1544D+03                  3440.9913    23.0332    21.1142
         ROT.     0.2939D+06                   924.0510     2.9808    28.0018
         INT.     0.4537D+08                  4365.0423    26.0140    49.1160
         TRA.     0.9372D+27                  1540.0850     4.9680    39.7324
         TOT.                       63.078    5905.1273    30.9821    88.8484

 320.00  VIB.     0.1849D+03                  3675.7738    23.9235    21.8595
         ROT.     0.3082D+06                   953.8591     2.9808    28.0964
         INT.     0.5699D+08                  4629.6329    26.9044    49.9560
         TRA.     0.9829D+27                  1589.7652     4.9680    39.8901
         TOT.                       63.392    6219.3981    31.8724    89.8461

 330.00  VIB.     0.2215D+03                  3919.4642    24.8145    22.6093
         ROT.     0.3228D+06                   983.6672     2.9808    28.1882
         INT.     0.7152D+08                  4903.1314    27.7953    50.7975
         TRA.     0.1029D+28                  1639.4454     4.9680    40.0430
         TOT.                       63.715    6542.5768    32.7633    90.8405

 340.00  VIB.     0.2656D+03                  4172.0580    25.7039    23.3633
         ROT.     0.3376D+06                  1013.4753     2.9808    28.2771
         INT.     0.8966D+08                  5185.5333    28.6847    51.6405
         TRA.     0.1076D+28                  1689.1255     4.9680    40.1913
         TOT.                       64.047    6874.6588    33.6527    91.8318

 350.00  VIB.     0.3186D+03                  4433.5302    26.5899    24.1212
         ROT.     0.3526D+06                  1043.2834     2.9808    28.3635
         INT.     0.1123D+09                  5476.8136    29.5707    52.4848
         TRA.     0.1124D+28                  1738.8057     4.9680    40.3353
         TOT.                       64.388    7215.6193    34.5387    92.8201

 360.00  VIB.     0.3823D+03                  4703.8380    27.4707    24.8826
         ROT.     0.3678D+06                  1073.0915     2.9808    28.4475
         INT.     0.1406D+09                  5776.9295    30.4515    53.3302
         TRA.     0.1173D+28                  1788.4859     4.9680    40.4753
         TOT.                       64.738    7565.4154    35.4195    93.8054

 370.00  VIB.     0.4590D+03                  4982.9223    28.3449    25.6472
         ROT.     0.3832D+06                  1102.8996     2.9808    28.5292
         INT.     0.1759D+09                  6085.8219    31.3257    54.1764
         TRA.     0.1222D+28                  1838.1660     4.9680    40.6114
         TOT.                       65.096    7923.9879    36.2937    94.7878

 380.00  VIB.     0.5515D+03                  5270.7096    29.2111    26.4147
         ROT.     0.3989D+06                  1132.7077     2.9808    28.6087
         INT.     0.2200D+09                  6403.4173    32.1919    55.0234
         TRA.     0.1272D+28                  1887.8462     4.9680    40.7439
         TOT.                       65.464    8291.2634    37.1599    95.7673

 390.00  VIB.     0.6628D+03                  5567.1141    30.0682    27.1846
         ROT.     0.4147D+06                  1162.5158     2.9808    28.6861
         INT.     0.2749D+09                  6729.6299    33.0490    55.8707
         TRA.     0.1322D+28                  1937.5263     4.9680    40.8729
         TOT.                       65.840    8667.1562    38.0170    96.7436

 400.00  VIB.     0.7971D+03                  5872.0393    30.9151    27.9565
         ROT.     0.4308D+06                  1192.3239     2.9808    28.7616
         INT.     0.3434D+09                  7064.3632    33.8959    56.7181
         TRA.     0.1374D+28                  1987.2065     4.9680    40.9987
         TOT.                       66.224    9051.5697    38.8639    97.7168

   *: NOTE: HEATS OF FORMATION ARE RELATIVE TO THE
            ELEMENTS IN THEIR STANDARD STATE AT 298K
              (=  Standard Enthalpy of Formation).

            Hvib:  Zero-point energy is not included.
                   frequencies of less than zero cm-1 are not included.
            Hrot = (3/2)RT
            Htra = (3/2)RT + pV = (5/2)RT

            Heat capacity is Cp, not Cv

          For more information, see: HTTP://OpenMOPAC.net/Manual/thermochemistry.html


           FORCE CONSTANT IN CARTESIAN COORDINATES (Millidynes/A)

    ATOM   CHEMICAL       X               Y               Z
   NUMBER   SYMBOL  FORCE CONSTANT  FORCE CONSTANT  FORCE CONSTANT

      1       C        9.924373        6.864648        8.243327
      2       C        9.921902        6.863665        8.242340
      3       C        8.002433        8.617129        8.670138
      4       C        8.218683        8.359915        8.279927
      5       C        4.625633       20.340450        3.443394
      6       C        2.309364       15.470905        9.082011
      7       C        1.553678       23.728325        3.318075
      8       H        1.845865        0.579303        4.143530
      9       H        1.844955        1.623833        3.099300
     10       H        1.844502        1.624072        3.099222
     11       H        1.845584        0.579704        4.142003
     12       H        0.819343        1.270162        4.327383
     13       H        4.239198        1.374235        0.664109
     14       H        4.674270        1.436407        0.675839
     15       H        0.831955        1.348240        4.605149
     16       H        0.709809        3.327864        2.756181
     17       H        0.319777        0.954619        4.800870

 **********************
 *                    *
 * JOB ENDED NORMALLY *
 *                    *
 **********************



 TOTAL JOB TIME:             6.20 SECONDS

 == MOPAC DONE ==
