 *******************************************************************************
 ** Site#: 14399        For non-commercial use only    Version 18.184L 64BITS **
 *******************************************************************************
 ** Cite this program as: MOPAC2016, Version: 18.184L, James J. P. Stewart,   **
 ** Stewart Computational Chemistry, web: HTTP://OpenMOPAC.net. Days left:  20**
 *******************************************************************************
 **                                                                           **
 **                                MOPAC2016                                  **
 **                                                                           **
 *******************************************************************************

                              PM3 CALCULATION RESULTS

 *******************************************************************************
 *  CALCULATION DONE:                                Thu Jun 13 16:02:25 2019  *
 *  PM3        - The PM3 Hamiltonian to be used
 *  PRECISE    - CRITERIA TO BE INCREASED BY 100 TIMES
 *  NOSYM      - POINT-GROUP SYMMETRY SET TO C1
 *  THREADS=1  - MULTI-THREADING NOT USED
 *  T=         - A TIME OF 172800.0 SECONDS REQUESTED
 *  DUMP=N     - RESTART FILE WRITTEN EVERY  7200.000 SECONDS
 *******************************************************************************
pm3  precise nosym THREADS=1
 InChI=1S/C10H12/c1-2-3-4-7-10-8-5-6-9-10/h2-6,8H,1,7,9H2

   ATOM   CHEMICAL          X               Y               Z
  NUMBER   SYMBOL      (ANGSTROMS)     (ANGSTROMS)     (ANGSTROMS)
 
     1       C         -1.93950000  *   0.92950000  *   0.27180000  *
     2       C         -0.25390000  *   0.18310000  *  -1.63830000  *
     3       C         -1.30000000  *  -0.10340000  *  -0.60050000  *
     4       C         -2.87410000  *   0.08700000  *   1.07540000  *
     5       C          0.99580000  *   0.71590000  *  -1.00250000  *
     6       C         -1.78860000  *  -1.30650000  *  -0.33550000  *
     7       C         -2.77710000  *  -1.18380000  *   0.71950000  *
     8       C          1.76460000  *  -0.05220000  *  -0.22620000  *
     9       C          2.98710000  *   0.48130000  *   0.39480000  *
    10       C          3.75180000  *  -0.27950000  *   1.17230000  *
    11       H         -2.49870000  *   1.67280000  *  -0.33470000  *
    12       H         -1.18930000  *   1.42080000  *   0.92680000  *
    13       H         -0.01110000  *  -0.73160000  *  -2.22270000  *
    14       H         -0.65620000  *   0.93930000  *  -2.34510000  *
    15       H         -3.54080000  *   0.45520000  *   1.84390000  *
    16       H          1.27100000  *   1.74750000  *  -1.19010000  *
    17       H          3.27600000  *   1.51140000  *   0.22150000  *
    18       H         -1.49610000  *  -2.22650000  *  -0.82480000  *
    19       H          1.48300000  *  -1.08440000  *  -0.04760000  *
    20       H         -3.34790000  *  -1.99510000  *   1.15110000  *
    21       H          4.64680000  *   0.13250000  *   1.62000000  *
    22       H          3.49730000  *  -1.31350000  *   1.37070000  *
 


          CARTESIAN COORDINATES 

    NO.       ATOM           X           Y           Z

     1         C         -1.9395      0.9295      0.2718
     2         C         -0.2539      0.1831     -1.6383
     3         C         -1.3000     -0.1034     -0.6005
     4         C         -2.8741      0.0870      1.0754
     5         C          0.9958      0.7159     -1.0025
     6         C         -1.7886     -1.3065     -0.3355
     7         C         -2.7771     -1.1838      0.7195
     8         C          1.7646     -0.0522     -0.2262
     9         C          2.9871      0.4813      0.3948
    10         C          3.7518     -0.2795      1.1723
    11         H         -2.4987      1.6728     -0.3347
    12         H         -1.1893      1.4208      0.9268
    13         H         -0.0111     -0.7316     -2.2227
    14         H         -0.6562      0.9393     -2.3451
    15         H         -3.5408      0.4552      1.8439
    16         H          1.2710      1.7475     -1.1901
    17         H          3.2760      1.5114      0.2215
    18         H         -1.4961     -2.2265     -0.8248
    19         H          1.4830     -1.0844     -0.0476
    20         H         -3.3479     -1.9951      1.1511
    21         H          4.6468      0.1325      1.6200
    22         H          3.4973     -1.3135      1.3707

  H: (PM3): J. J. P. STEWART, J. COMP. CHEM. 10, 209 (1989).
  C: (PM3): J. J. P. STEWART, J. COMP. CHEM. 10, 209 (1989).

           Empirical Formula: C10 H12  =    22 atoms



      MOLECULAR POINT GROUP   :   C1  


      RHF CALCULATION, NO. OF DOUBLY OCCUPIED LEVELS = 26


          Geometry optimization using EF

          DIAGONAL MATRIX USED AS START HESSIAN

 CYCLE:     1 TIME:   0.031 TIME LEFT:  2.00D  GRAD.:   118.413 HEAT:  61.72883
 CYCLE:     2 TIME:   0.051 TIME LEFT:  2.00D  GRAD.:    62.906 HEAT:  59.82211
 CYCLE:     3 TIME:   0.020 TIME LEFT:  2.00D  GRAD.:    44.211 HEAT:  58.92947
 CYCLE:     4 TIME:   0.031 TIME LEFT:  2.00D  GRAD.:    33.420 HEAT:  58.43730
 CYCLE:     5 TIME:   0.035 TIME LEFT:  2.00D  GRAD.:    33.686 HEAT:  58.23508
 CYCLE:     6 TIME:   0.027 TIME LEFT:  2.00D  GRAD.:    20.301 HEAT:  57.95549
 CYCLE:     7 TIME:   0.031 TIME LEFT:  2.00D  GRAD.:    19.086 HEAT:  57.84071
 CYCLE:     8 TIME:   0.023 TIME LEFT:  2.00D  GRAD.:    26.619 HEAT:  57.78781
 CYCLE:     9 TIME:   0.031 TIME LEFT:  2.00D  GRAD.:    14.914 HEAT:  57.68251
 CYCLE:    10 TIME:   0.035 TIME LEFT:  2.00D  GRAD.:     9.107 HEAT:  57.64197
 CYCLE:    11 TIME:   0.027 TIME LEFT:  2.00D  GRAD.:     4.919 HEAT:  57.60678
 CYCLE:    12 TIME:   0.031 TIME LEFT:  2.00D  GRAD.:    11.444 HEAT:  57.60327
 CYCLE:    13 TIME:   0.023 TIME LEFT:  2.00D  GRAD.:     6.754 HEAT:  57.57946
 CYCLE:    14 TIME:   0.031 TIME LEFT:  2.00D  GRAD.:     6.164 HEAT:  57.57145
 CYCLE:    15 TIME:   0.027 TIME LEFT:  2.00D  GRAD.:     3.649 HEAT:  57.55931
 CYCLE:    16 TIME:   0.023 TIME LEFT:  2.00D  GRAD.:     7.314 HEAT:  57.55894
 CYCLE:    17 TIME:   0.023 TIME LEFT:  2.00D  GRAD.:     3.789 HEAT:  57.54303
 CYCLE:    18 TIME:   0.031 TIME LEFT:  2.00D  GRAD.:     5.846 HEAT:  57.54229
 CYCLE:    19 TIME:   0.023 TIME LEFT:  2.00D  GRAD.:     3.178 HEAT:  57.53130
 CYCLE:    20 TIME:   0.039 TIME LEFT:  2.00D  GRAD.:     2.857 HEAT:  57.52895
 CYCLE:    21 TIME:   0.035 TIME LEFT:  2.00D  GRAD.:     2.851 HEAT:  57.51958
 CYCLE:    22 TIME:   0.031 TIME LEFT:  2.00D  GRAD.:     4.365 HEAT:  57.51436
 CYCLE:    23 TIME:   0.027 TIME LEFT:  2.00D  GRAD.:     2.263 HEAT:  57.50821
 CYCLE:    24 TIME:   0.023 TIME LEFT:  2.00D  GRAD.:     3.279 HEAT:  57.50863
 CYCLE:    25 TIME:   0.020 TIME LEFT:  2.00D  GRAD.:     1.606 HEAT:  57.50583
 CYCLE:    26 TIME:   0.027 TIME LEFT:  2.00D  GRAD.:     2.293 HEAT:  57.50632
 CYCLE:    27 TIME:   0.023 TIME LEFT:  2.00D  GRAD.:     0.999 HEAT:  57.50436
 CYCLE:    28 TIME:   0.027 TIME LEFT:  2.00D  GRAD.:     1.737 HEAT:  57.50454
 CYCLE:    29 TIME:   0.020 TIME LEFT:  2.00D  GRAD.:     0.558 HEAT:  57.50331
 CYCLE:    30 TIME:   0.027 TIME LEFT:  2.00D  GRAD.:     0.807 HEAT:  57.50286
 CYCLE:    31 TIME:   0.027 TIME LEFT:  2.00D  GRAD.:     0.838 HEAT:  57.50215
 CYCLE:    32 TIME:   0.020 TIME LEFT:  2.00D  GRAD.:     0.701 HEAT:  57.50150
 CYCLE:    33 TIME:   0.027 TIME LEFT:  2.00D  GRAD.:     0.702 HEAT:  57.50078
 CYCLE:    34 TIME:   0.020 TIME LEFT:  2.00D  GRAD.:     1.187 HEAT:  57.49998
 CYCLE:    35 TIME:   0.023 TIME LEFT:  2.00D  GRAD.:     1.043 HEAT:  57.49876
 CYCLE:    36 TIME:   0.023 TIME LEFT:  2.00D  GRAD.:     0.967 HEAT:  57.49730
 CYCLE:    37 TIME:   0.023 TIME LEFT:  2.00D  GRAD.:     1.275 HEAT:  57.49571
 CYCLE:    38 TIME:   0.023 TIME LEFT:  2.00D  GRAD.:     1.352 HEAT:  57.49356
 CYCLE:    39 TIME:   0.023 TIME LEFT:  2.00D  GRAD.:     1.552 HEAT:  57.48808
 CYCLE:    40 TIME:   0.020 TIME LEFT:  2.00D  GRAD.:     1.788 HEAT:  57.48408
 CYCLE:    41 TIME:   0.023 TIME LEFT:  2.00D  GRAD.:     1.848 HEAT:  57.47867
 CYCLE:    42 TIME:   0.023 TIME LEFT:  2.00D  GRAD.:     1.936 HEAT:  57.47181
 CYCLE:    43 TIME:   0.023 TIME LEFT:  2.00D  GRAD.:     2.434 HEAT:  57.46281
 CYCLE:    44 TIME:   0.023 TIME LEFT:  2.00D  GRAD.:     2.313 HEAT:  57.45570
 CYCLE:    45 TIME:   0.023 TIME LEFT:  2.00D  GRAD.:     2.057 HEAT:  57.44808
 CYCLE:    46 TIME:   0.023 TIME LEFT:  2.00D  GRAD.:     2.437 HEAT:  57.43846
 CYCLE:    47 TIME:   0.020 TIME LEFT:  2.00D  GRAD.:     2.398 HEAT:  57.42873
 CYCLE:    48 TIME:   0.023 TIME LEFT:  2.00D  GRAD.:     3.524 HEAT:  57.41543
 CYCLE:    49 TIME:   0.023 TIME LEFT:  2.00D  GRAD.:     2.985 HEAT:  57.40809
 CYCLE:    50 TIME:   0.023 TIME LEFT:  2.00D  GRAD.:     3.486 HEAT:  57.39680
 CYCLE:    51 TIME:   0.023 TIME LEFT:  2.00D  GRAD.:     1.347 HEAT:  57.38934
 CYCLE:    52 TIME:   0.023 TIME LEFT:  2.00D  GRAD.:     1.451 HEAT:  57.38380
 CYCLE:    53 TIME:   0.023 TIME LEFT:  2.00D  GRAD.:     1.991 HEAT:  57.37230
 CYCLE:    54 TIME:   0.020 TIME LEFT:  2.00D  GRAD.:     2.867 HEAT:  57.36306
 CYCLE:    55 TIME:   0.023 TIME LEFT:  2.00D  GRAD.:     2.260 HEAT:  57.34976
 CYCLE:    56 TIME:   0.023 TIME LEFT:  2.00D  GRAD.:     4.838 HEAT:  57.34135
 CYCLE:    57 TIME:   0.023 TIME LEFT:  2.00D  GRAD.:     3.079 HEAT:  57.32402
 CYCLE:    58 TIME:   0.023 TIME LEFT:  2.00D  GRAD.:     2.582 HEAT:  57.30896
 CYCLE:    59 TIME:   0.023 TIME LEFT:  2.00D  GRAD.:     5.314 HEAT:  57.28670
 CYCLE:    60 TIME:   0.020 TIME LEFT:  2.00D  GRAD.:     5.264 HEAT:  57.27769
 CYCLE:    61 TIME:   0.023 TIME LEFT:  2.00D  GRAD.:     2.468 HEAT:  57.26048
 CYCLE:    62 TIME:   0.023 TIME LEFT:  2.00D  GRAD.:     3.789 HEAT:  57.24084
 CYCLE:    63 TIME:   0.023 TIME LEFT:  2.00D  GRAD.:     5.067 HEAT:  57.22105
 CYCLE:    64 TIME:   0.023 TIME LEFT:  2.00D  GRAD.:     3.571 HEAT:  57.18830
 CYCLE:    65 TIME:   0.023 TIME LEFT:  2.00D  GRAD.:     6.546 HEAT:  57.18553
 CYCLE:    66 TIME:   0.020 TIME LEFT:  2.00D  GRAD.:     1.951 HEAT:  57.16030
 CYCLE:    67 TIME:   0.023 TIME LEFT:  2.00D  GRAD.:     1.760 HEAT:  57.15274
 CYCLE:    68 TIME:   0.023 TIME LEFT:  2.00D  GRAD.:     2.518 HEAT:  57.14320
 CYCLE:    69 TIME:   0.023 TIME LEFT:  2.00D  GRAD.:     2.226 HEAT:  57.13598
 CYCLE:    70 TIME:   0.023 TIME LEFT:  2.00D  GRAD.:     2.615 HEAT:  57.11889
 CYCLE:    71 TIME:   0.035 TIME LEFT:  2.00D  GRAD.:     3.840 HEAT:  57.08836
 CYCLE:    72 TIME:   0.020 TIME LEFT:  2.00D  GRAD.:     4.429 HEAT:  57.05946
 CYCLE:    73 TIME:   0.023 TIME LEFT:  2.00D  GRAD.:     5.200 HEAT:  57.04992
 CYCLE:    74 TIME:   0.023 TIME LEFT:  2.00D  GRAD.:     3.478 HEAT:  57.02368
 CYCLE:    75 TIME:   0.023 TIME LEFT:  2.00D  GRAD.:     2.701 HEAT:  57.01193
 CYCLE:    76 TIME:   0.023 TIME LEFT:  2.00D  GRAD.:     3.617 HEAT:  56.99660
 CYCLE:    77 TIME:   0.023 TIME LEFT:  2.00D  GRAD.:     2.225 HEAT:  56.99027
 CYCLE:    78 TIME:   0.023 TIME LEFT:  2.00D  GRAD.:     2.950 HEAT:  56.97644
 CYCLE:    79 TIME:   0.020 TIME LEFT:  2.00D  GRAD.:     3.146 HEAT:  56.96347
 CYCLE:    80 TIME:   0.023 TIME LEFT:  2.00D  GRAD.:     3.863 HEAT:  56.94860
 CYCLE:    81 TIME:   0.023 TIME LEFT:  2.00D  GRAD.:     2.472 HEAT:  56.93623
 CYCLE:    82 TIME:   0.023 TIME LEFT:  2.00D  GRAD.:     2.602 HEAT:  56.92274
 CYCLE:    83 TIME:   0.023 TIME LEFT:  2.00D  GRAD.:     3.162 HEAT:  56.90305
 CYCLE:    84 TIME:   0.023 TIME LEFT:  2.00D  GRAD.:     3.716 HEAT:  56.88769
 CYCLE:    85 TIME:   0.020 TIME LEFT:  2.00D  GRAD.:     3.481 HEAT:  56.86344
 CYCLE:    86 TIME:   0.023 TIME LEFT:  2.00D  GRAD.:     5.325 HEAT:  56.83670
 CYCLE:    87 TIME:   0.023 TIME LEFT:  2.00D  GRAD.:     5.203 HEAT:  56.79590
 CYCLE:    88 TIME:   0.023 TIME LEFT:  2.00D  GRAD.:     9.399 HEAT:  56.76815
 CYCLE:    89 TIME:   0.023 TIME LEFT:  2.00D  GRAD.:     4.993 HEAT:  56.72806
 CYCLE:    90 TIME:   0.023 TIME LEFT:  2.00D  GRAD.:     5.821 HEAT:  56.70604
 CYCLE:    91 TIME:   0.023 TIME LEFT:  2.00D  GRAD.:     4.203 HEAT:  56.68045
 CYCLE:    92 TIME:   0.020 TIME LEFT:  2.00D  GRAD.:     3.472 HEAT:  56.66118
 CYCLE:    93 TIME:   0.023 TIME LEFT:  2.00D  GRAD.:     5.444 HEAT:  56.62092
 CYCLE:    94 TIME:   0.023 TIME LEFT:  2.00D  GRAD.:     5.642 HEAT:  56.58802
 CYCLE:    95 TIME:   0.023 TIME LEFT:  2.00D  GRAD.:     6.072 HEAT:  56.54058
 CYCLE:    96 TIME:   0.031 TIME LEFT:  2.00D  GRAD.:     7.535 HEAT:  56.53793
 CYCLE:    97 TIME:   0.027 TIME LEFT:  2.00D  GRAD.:     3.465 HEAT:  56.51526
 CYCLE:    98 TIME:   0.023 TIME LEFT:  2.00D  GRAD.:     3.482 HEAT:  56.50994
 CYCLE:    99 TIME:   0.020 TIME LEFT:  2.00D  GRAD.:     2.296 HEAT:  56.50458
 CYCLE:   100 TIME:   0.023 TIME LEFT:  2.00D  GRAD.:     1.805 HEAT:  56.49986
 CYCLE:   101 TIME:   0.023 TIME LEFT:  2.00D  GRAD.:     1.891 HEAT:  56.49636
 CYCLE:   102 TIME:   0.023 TIME LEFT:  2.00D  GRAD.:     1.871 HEAT:  56.49247
 CYCLE:   103 TIME:   0.023 TIME LEFT:  2.00D  GRAD.:     2.189 HEAT:  56.48622
 CYCLE:   104 TIME:   0.023 TIME LEFT:  2.00D  GRAD.:     2.596 HEAT:  56.48081
 CYCLE:   105 TIME:   0.023 TIME LEFT:  2.00D  GRAD.:     3.303 HEAT:  56.46966
 CYCLE:   106 TIME:   0.020 TIME LEFT:  2.00D  GRAD.:     2.885 HEAT:  56.46353
 CYCLE:   107 TIME:   0.023 TIME LEFT:  2.00D  GRAD.:     2.174 HEAT:  56.45619
 CYCLE:   108 TIME:   0.133 TIME LEFT:  2.00D  GRAD.:     2.697 HEAT:  56.44932
 CYCLE:   109 TIME:   0.023 TIME LEFT:  2.00D  GRAD.:     3.195 HEAT:  56.43470
 CYCLE:   110 TIME:   0.023 TIME LEFT:  2.00D  GRAD.:     3.193 HEAT:  56.41378
 CYCLE:   111 TIME:   0.023 TIME LEFT:  2.00D  GRAD.:     3.489 HEAT:  56.40233
 CYCLE:   112 TIME:   0.020 TIME LEFT:  2.00D  GRAD.:     4.832 HEAT:  56.40150
 CYCLE:   113 TIME:   0.023 TIME LEFT:  2.00D  GRAD.:     3.666 HEAT:  56.38715
 CYCLE:   114 TIME:   0.023 TIME LEFT:  2.00D  GRAD.:     3.282 HEAT:  56.38485
 CYCLE:   115 TIME:   0.023 TIME LEFT:  2.00D  GRAD.:     1.815 HEAT:  56.37774
 CYCLE:   116 TIME:   0.023 TIME LEFT:  2.00D  GRAD.:     1.815 HEAT:  56.37148
 CYCLE:   117 TIME:   0.023 TIME LEFT:  2.00D  GRAD.:     2.292 HEAT:  56.36440
 CYCLE:   118 TIME:   0.020 TIME LEFT:  2.00D  GRAD.:     1.794 HEAT:  56.35914
 CYCLE:   119 TIME:   0.023 TIME LEFT:  2.00D  GRAD.:     2.074 HEAT:  56.35426
 CYCLE:   120 TIME:   0.023 TIME LEFT:  2.00D  GRAD.:     1.855 HEAT:  56.34869
 CYCLE:   121 TIME:   0.023 TIME LEFT:  2.00D  GRAD.:     2.120 HEAT:  56.34445
 CYCLE:   122 TIME:   0.023 TIME LEFT:  2.00D  GRAD.:     1.720 HEAT:  56.33909
 CYCLE:   123 TIME:   0.023 TIME LEFT:  2.00D  GRAD.:     2.385 HEAT:  56.33379
 CYCLE:   124 TIME:   0.023 TIME LEFT:  2.00D  GRAD.:     1.547 HEAT:  56.32799
 CYCLE:   125 TIME:   0.020 TIME LEFT:  2.00D  GRAD.:     2.002 HEAT:  56.32314
 CYCLE:   126 TIME:   0.023 TIME LEFT:  2.00D  GRAD.:     2.125 HEAT:  56.31948
 CYCLE:   127 TIME:   0.023 TIME LEFT:  2.00D  GRAD.:     1.772 HEAT:  56.31663
 CYCLE:   128 TIME:   0.023 TIME LEFT:  2.00D  GRAD.:     2.095 HEAT:  56.31422
 CYCLE:   129 TIME:   0.023 TIME LEFT:  2.00D  GRAD.:     1.376 HEAT:  56.31251
 CYCLE:   130 TIME:   0.023 TIME LEFT:  2.00D  GRAD.:     1.070 HEAT:  56.31100
 CYCLE:   131 TIME:   0.023 TIME LEFT:  2.00D  GRAD.:     0.802 HEAT:  56.30998
 CYCLE:   132 TIME:   0.020 TIME LEFT:  2.00D  GRAD.:     0.638 HEAT:  56.30963
 CYCLE:   133 TIME:   0.023 TIME LEFT:  2.00D  GRAD.:     0.463 HEAT:  56.30938
 CYCLE:   134 TIME:   0.023 TIME LEFT:  2.00D  GRAD.:     0.311 HEAT:  56.30917
 CYCLE:   135 TIME:   0.023 TIME LEFT:  2.00D  GRAD.:     0.432 HEAT:  56.30898
 CYCLE:   136 TIME:   0.023 TIME LEFT:  2.00D  GRAD.:     0.387 HEAT:  56.30882
 CYCLE:   137 TIME:   0.023 TIME LEFT:  2.00D  GRAD.:     0.421 HEAT:  56.30865
 CYCLE:   138 TIME:   0.020 TIME LEFT:  2.00D  GRAD.:     0.401 HEAT:  56.30853
 CYCLE:   139 TIME:   0.023 TIME LEFT:  2.00D  GRAD.:     0.372 HEAT:  56.30840
 CYCLE:   140 TIME:   0.023 TIME LEFT:  2.00D  GRAD.:     0.324 HEAT:  56.30829
 CYCLE:   141 TIME:   0.023 TIME LEFT:  2.00D  GRAD.:     0.324 HEAT:  56.30815
 CYCLE:   142 TIME:   0.027 TIME LEFT:  2.00D  GRAD.:     0.332 HEAT:  56.30804
 CYCLE:   143 TIME:   0.023 TIME LEFT:  2.00D  GRAD.:     0.289 HEAT:  56.30792
 CYCLE:   144 TIME:   0.023 TIME LEFT:  2.00D  GRAD.:     0.498 HEAT:  56.30784
 CYCLE:   145 TIME:   0.027 TIME LEFT:  2.00D  GRAD.:     0.273 HEAT:  56.30769
 CYCLE:   146 TIME:   0.023 TIME LEFT:  2.00D  GRAD.:     0.278 HEAT:  56.30757
 CYCLE:   147 TIME:   0.023 TIME LEFT:  2.00D  GRAD.:     0.207 HEAT:  56.30751
 CYCLE:   148 TIME:   0.023 TIME LEFT:  2.00D  GRAD.:     0.163 HEAT:  56.30742
 CYCLE:   149 TIME:   0.023 TIME LEFT:  2.00D  GRAD.:     0.185 HEAT:  56.30734
 CYCLE:   150 TIME:   0.023 TIME LEFT:  2.00D  GRAD.:     0.376 HEAT:  56.30734
 CYCLE:   151 TIME:   0.023 TIME LEFT:  2.00D  GRAD.:     0.239 HEAT:  56.30720
 CYCLE:   152 TIME:   0.020 TIME LEFT:  2.00D  GRAD.:     0.219 HEAT:  56.30713
 CYCLE:   153 TIME:   0.023 TIME LEFT:  2.00D  GRAD.:     0.376 HEAT:  56.30699
 CYCLE:   154 TIME:   0.023 TIME LEFT:  2.00D  GRAD.:     0.298 HEAT:  56.30674
 CYCLE:   155 TIME:   0.023 TIME LEFT:  2.00D  GRAD.:     0.288 HEAT:  56.30625
 CYCLE:   156 TIME:   0.023 TIME LEFT:  2.00D  GRAD.:     0.270 HEAT:  56.30596
 CYCLE:   157 TIME:   0.023 TIME LEFT:  2.00D  GRAD.:     0.229 HEAT:  56.30582
 CYCLE:   158 TIME:   0.023 TIME LEFT:  2.00D  GRAD.:     0.259 HEAT:  56.30572
 CYCLE:   159 TIME:   0.020 TIME LEFT:  2.00D  GRAD.:     0.299 HEAT:  56.30566
 CYCLE:   160 TIME:   0.023 TIME LEFT:  2.00D  GRAD.:     0.210 HEAT:  56.30557
 CYCLE:   161 TIME:   0.023 TIME LEFT:  2.00D  GRAD.:     0.215 HEAT:  56.30544
 CYCLE:   162 TIME:   0.023 TIME LEFT:  2.00D  GRAD.:     0.129 HEAT:  56.30537
 CYCLE:   163 TIME:   0.023 TIME LEFT:  2.00D  GRAD.:     0.053 HEAT:  56.30535
 CYCLE:   164 TIME:   0.020 TIME LEFT:  2.00D  GRAD.:     0.048 HEAT:  56.30535

     GRADIENT =  0.04806  IS LESS THAN CUTOFF =  0.05000



 -------------------------------------------------------------------------------
 pm3  precise nosym THREADS=1
 InChI=1S/C10H12/c1-2-3-4-7-10-8-5-6-9-10/h2-6,8H,1,7,9H2



     GEOMETRY OPTIMISED USING EIGENVECTOR FOLLOWING (EF).     
     SCF FIELD WAS ACHIEVED                                   


                              PM3 CALCULATION
                                                       MOPAC2016 (Version: 18.184L)
                                                       Thu Jun 13 16:02:29 2019
                                                       No. of days remaining =  20




          FINAL HEAT OF FORMATION =         56.30535 KCAL/MOL =     235.58157 KJ/MOL


          TOTAL ENERGY            =      -1367.95467 EV
          ELECTRONIC ENERGY       =      -6994.84416 EV  POINT GROUP:     C1  
          CORE-CORE REPULSION     =       5626.88949 EV
          COSMO AREA              =        197.09 SQUARE ANGSTROMS
          COSMO VOLUME            =        192.51 CUBIC ANGSTROMS

          GRADIENT NORM           =          0.04806 = 0.01025 PER ATOM
          IONIZATION POTENTIAL    =          9.092776 EV
          HOMO LUMO ENERGIES (EV) =         -9.093  0.158
          NO. OF FILLED LEVELS    =         26
          MOLECULAR WEIGHT        =        132.2048

          MOLECULAR DIMENSIONS (Angstroms)

            Atom       Atom       Distance
            H    21    H    15     9.53865
            H    18    H    17     4.12677
            H    20    H    14     3.81564


          SCF CALCULATIONS        =        179
 
          WALL-CLOCK TIME         =          4.117 SECONDS
          COMPUTATION TIME        =          1.748 SECONDS




   ATOM   CHEMICAL          X               Y               Z
  NUMBER   SYMBOL      (ANGSTROMS)     (ANGSTROMS)     (ANGSTROMS)
 
     1       C         -2.25830500  *   0.98097360  *  -0.01344173  *
     2       C         -0.13231240  *  -0.01756891  *  -1.18766556  *
     3       C         -1.40847453  *  -0.18218150  *  -0.45567552  *
     4       C         -3.41835718  *   0.30619444  *   0.66070611  *
     5       C          0.95712648  *   0.44790943  *  -0.28453206  *
     6       C         -2.00458339  *  -1.34224931  *  -0.08465267  *
     7       C         -3.25479123  *  -1.03539132  *   0.61025195  *
     8       C          2.19187772  *  -0.06457883  *  -0.32209135  *
     9       C          3.25171391  *   0.41372815  *   0.55260271  *
    10       C          4.48588634  *  -0.08454755  *   0.51136753  *
    11       H         -2.58461554  *   1.59852394  *  -0.86986195  *
    12       H         -1.71166138  *   1.64658939  *   0.68015621  *
    13       H          0.13899106  *  -0.96793557  *  -1.69024427  *
    14       H         -0.26607503  *   0.73103068  *  -1.99563961  *
    15       H         -4.23996184  *   0.86230046  *   1.10602595  *
    16       H          0.69280234  *   1.24680787  *   0.42065324  *
    17       H          2.99041912  *   1.21175330  *   1.25906496  *
    18       H         -1.64314608  *  -2.35419624  *  -0.25835992  *
    19       H          2.44991899  *  -0.87073118  *  -1.02171763  *
    20       H         -3.91943841  *  -1.79907971  *   1.00904838  *
    21       H          5.27997285  *   0.26774286  *   1.16225385  *
    22       H          4.78642060  *  -0.87486789  *  -0.17114333  *

                             CARTESIAN COORDINATES

   1    C       -2.258305002     0.980973604    -0.013441733
   2    C       -0.132312396    -0.017568914    -1.187665557
   3    C       -1.408474530    -0.182181498    -0.455675515
   4    C       -3.418357181     0.306194439     0.660706111
   5    C        0.957126482     0.447909428    -0.284532063
   6    C       -2.004583391    -1.342249313    -0.084652671
   7    C       -3.254791228    -1.035391324     0.610251953
   8    C        2.191877716    -0.064578834    -0.322091349
   9    C        3.251713910     0.413728146     0.552602706
  10    C        4.485886345    -0.084547546     0.511367533
  11    H       -2.584615541     1.598523936    -0.869861952
  12    H       -1.711661380     1.646589394     0.680156210
  13    H        0.138991057    -0.967935565    -1.690244274
  14    H       -0.266075035     0.731030682    -1.995639606
  15    H       -4.239961843     0.862300459     1.106025948
  16    H        0.692802341     1.246807866     0.420653238
  17    H        2.990419117     1.211753299     1.259064963
  18    H       -1.643146075    -2.354196242    -0.258359919
  19    H        2.449918985    -0.870731183    -1.021717629
  20    H       -3.919438408    -1.799079708     1.009048376
  21    H        5.279972853     0.267742861     1.162253845
  22    H        4.786420599    -0.874867893    -0.171143329


           Empirical Formula: C10 H12  =    22 atoms



      MOLECULAR POINT GROUP   :   C1  


                  EIGENVALUES  
 -40.40777 -36.47177 -32.35372 -27.69702 -27.43754 -24.13782 -20.44426 -19.87005
 -19.05129 -18.46017 -17.31026 -16.39818 -15.87429 -14.92356 -14.29014 -14.03851
 -13.83239 -13.64699 -13.21409 -12.81264 -12.31586 -12.15236 -11.69252 -10.87970
  -9.23695  -9.09278   0.15777   0.30893   1.94806   2.12135   3.10072   3.30265
   3.38429   3.60950   3.65757   3.80371   3.84314   3.91430   4.07289   4.13654
   4.23494   4.25341   4.35811   4.45693   4.84914   5.07467   5.34670   5.74317
   5.81577   5.96936   6.03966   6.19295


              NET ATOMIC CHARGES AND DIPOLE CONTRIBUTIONS

  ATOM NO.   TYPE          CHARGE      No. of ELECS.   s-Pop       p-Pop       
    1          C          -0.041619        4.0416     1.14439     2.89723
    2          C          -0.002713        4.0027     1.12760     2.87511
    3          C          -0.143567        4.1436     1.21062     2.93294
    4          C          -0.164616        4.1646     1.20710     2.95751
    5          C          -0.128778        4.1288     1.19769     2.93108
    6          C          -0.115609        4.1156     1.19057     2.92504
    7          C          -0.116581        4.1166     1.19137     2.92521
    8          C          -0.122358        4.1224     1.18305     2.93931
    9          C          -0.103720        4.1037     1.18069     2.92303
   10          C          -0.152398        4.1524     1.18368     2.96872
   11          H           0.081635        0.9184     0.91837
   12          H           0.082254        0.9177     0.91775
   13          H           0.058876        0.9411     0.94112
   14          H           0.060237        0.9398     0.93976
   15          H           0.115569        0.8844     0.88443
   16          H           0.102756        0.8972     0.89724
   17          H           0.097207        0.9028     0.90279
   18          H           0.116655        0.8833     0.88335
   19          H           0.103174        0.8968     0.89683
   20          H           0.113765        0.8862     0.88624
   21          H           0.078829        0.9212     0.92117
   22          H           0.081004        0.9190     0.91900
 DIPOLE           X         Y         Z       TOTAL
 POINT-CHG.    -0.051     0.532    -0.214     0.575
 HYBRID         0.001     0.028     0.033     0.043
 SUM           -0.049     0.560    -0.180     0.590


          ATOMIC ORBITAL ELECTRON POPULATIONS

     Atom    s        px        py        pz   
    1  C   1.14439   0.94484   0.96228   0.99010
    2  C   1.12760   0.91269   1.00808   0.95434
    3  C   1.21062   0.96522   0.96261   1.00511
    4  C   1.20710   0.98412   0.96346   1.00993
    5  C   1.19769   0.94846   0.99282   0.98980
    6  C   1.19057   0.95970   0.96765   0.99768
    7  C   1.19137   0.96855   0.95885   0.99782
    8  C   1.18305   0.94548   1.00050   0.99333
    9  C   1.18069   0.94808   0.99218   0.98277
   10  C   1.18368   0.96266   0.99951   1.00655
   11  H   0.91837
   12  H   0.91775
   13  H   0.94112
   14  H   0.93976
   15  H   0.88443
   16  H   0.89724
   17  H   0.90279
   18  H   0.88335
   19  H   0.89683
   20  H   0.88624
   21  H   0.92117
   22  H   0.91900
 *******************************************************************************
 ** Site#: 14399        For non-commercial use only    Version 18.184L 64BITS **
 *******************************************************************************
 ** Cite this program as: MOPAC2016, Version: 18.184L, James J. P. Stewart,   **
 ** Stewart Computational Chemistry, web: HTTP://OpenMOPAC.net. Days left:  20**
 *******************************************************************************
 **                                                                           **
 **                                MOPAC2016                                  **
 **                                                                           **
 *******************************************************************************

                              PM3 CALCULATION RESULTS

 *******************************************************************************
 *  CALCULATION DONE:                                Thu Jun 13 16:02:29 2019  *
 *  PM3        - The PM3 Hamiltonian to be used
 *  OLDGEO     - PREVIOUS GEOMETRY TO BE USED
 *  PRECISE    - CRITERIA TO BE INCREASED BY 100 TIMES
 *  NOSYM      - POINT-GROUP SYMMETRY SET TO C1
 *  THREADS=1  - MULTI-THREADING NOT USED
 *  T=         - A TIME OF 172800.0 SECONDS REQUESTED
 *  DUMP=N     - RESTART FILE WRITTEN EVERY  7200.000 SECONDS
 *  THERMO     - THERMODYNAMIC QUANTITIES TO BE CALCULATED
 *******************************************************************************
oldgeo thermo nosym precise THREADS=1  pm3
 InChI=1S/C10H12/c1-2-3-4-7-10-8-5-6-9-10/h2-6,8H,1,7,9H2

   ATOM   CHEMICAL          X               Y               Z
  NUMBER   SYMBOL      (ANGSTROMS)     (ANGSTROMS)     (ANGSTROMS)
 
     1       C         -2.25830500  *   0.98097360  *  -0.01344173  *
     2       C         -0.13231240  *  -0.01756891  *  -1.18766556  *
     3       C         -1.40847453  *  -0.18218150  *  -0.45567552  *
     4       C         -3.41835718  *   0.30619444  *   0.66070611  *
     5       C          0.95712648  *   0.44790943  *  -0.28453206  *
     6       C         -2.00458339  *  -1.34224931  *  -0.08465267  *
     7       C         -3.25479123  *  -1.03539132  *   0.61025195  *
     8       C          2.19187772  *  -0.06457883  *  -0.32209135  *
     9       C          3.25171391  *   0.41372815  *   0.55260271  *
    10       C          4.48588634  *  -0.08454755  *   0.51136753  *
    11       H         -2.58461554  *   1.59852394  *  -0.86986195  *
    12       H         -1.71166138  *   1.64658939  *   0.68015621  *
    13       H          0.13899106  *  -0.96793557  *  -1.69024427  *
    14       H         -0.26607503  *   0.73103068  *  -1.99563961  *
    15       H         -4.23996184  *   0.86230046  *   1.10602595  *
    16       H          0.69280234  *   1.24680787  *   0.42065324  *
    17       H          2.99041912  *   1.21175330  *   1.25906496  *
    18       H         -1.64314608  *  -2.35419624  *  -0.25835992  *
    19       H          2.44991899  *  -0.87073118  *  -1.02171763  *
    20       H         -3.91943841  *  -1.79907971  *   1.00904838  *
    21       H          5.27997285  *   0.26774286  *   1.16225385  *
    22       H          4.78642060  *  -0.87486789  *  -0.17114333  *
 


          CARTESIAN COORDINATES 

    NO.       ATOM           X           Y           Z

     1         C         -2.2583      0.9810     -0.0134
     2         C         -0.1323     -0.0176     -1.1877
     3         C         -1.4085     -0.1822     -0.4557
     4         C         -3.4184      0.3062      0.6607
     5         C          0.9571      0.4479     -0.2845
     6         C         -2.0046     -1.3422     -0.0847
     7         C         -3.2548     -1.0354      0.6103
     8         C          2.1919     -0.0646     -0.3221
     9         C          3.2517      0.4137      0.5526
    10         C          4.4859     -0.0845      0.5114
    11         H         -2.5846      1.5985     -0.8699
    12         H         -1.7117      1.6466      0.6802
    13         H          0.1390     -0.9679     -1.6902
    14         H         -0.2661      0.7310     -1.9956
    15         H         -4.2400      0.8623      1.1060
    16         H          0.6928      1.2468      0.4207
    17         H          2.9904      1.2118      1.2591
    18         H         -1.6431     -2.3542     -0.2584
    19         H          2.4499     -0.8707     -1.0217
    20         H         -3.9194     -1.7991      1.0090
    21         H          5.2800      0.2677      1.1623
    22         H          4.7864     -0.8749     -0.1711

  H: (PM3): J. J. P. STEWART, J. COMP. CHEM. 10, 209 (1989).
  C: (PM3): J. J. P. STEWART, J. COMP. CHEM. 10, 209 (1989).

           Empirical Formula: C10 H12  =    22 atoms



      MOLECULAR POINT GROUP   :   C1  


      RHF CALCULATION, NO. OF DOUBLY OCCUPIED LEVELS = 26



          HEAT OF FORMATION =      56.305348 KCALS/MOLE


          CARTESIAN COORDINATE DERIVATIVES

   NUMBER  ATOM         X            Y            Z

     1       C      0.000399     0.004944     0.000209
     2       C     -0.001131    -0.003474    -0.001703
     3       C     -0.003640    -0.007762    -0.000760
     4       C     -0.002598    -0.002444     0.002449
     5       C     -0.002743    -0.010368     0.005573
     6       C     -0.010062     0.003576    -0.003165
     7       C      0.010866    -0.003507    -0.002826
     8       C      0.002994    -0.001736    -0.004999
     9       C      0.015896     0.007602    -0.014244
    10       C     -0.013582    -0.005294     0.016641
    11       H     -0.004728     0.005660     0.005848
    12       H     -0.006314    -0.003199     0.005632
    13       H      0.001794    -0.002529    -0.000533
    14       H     -0.001586    -0.002639     0.001242
    15       H      0.002552    -0.001013     0.002959
    16       H      0.002426     0.004232     0.001484
    17       H      0.008572     0.012966     0.000228
    18       H      0.008371    -0.001178    -0.006071
    19       H     -0.002164     0.003199    -0.001470
    20       H      0.006145    -0.003238    -0.008553
    21       H     -0.006830     0.005932     0.002654
    22       H     -0.004636     0.000268    -0.000594
 


          GRADIENT NORM =   0.04914


          TIME FOR SCF CALCULATION =    0.02

          TIME FOR DERIVATIVES     =    0.02

          MOLECULAR WEIGHT =  132.20



          ROTATIONAL CONSTANTS IN CM(-1)

          A =    0.13707649   B =    0.01677536   C =    0.01649079



           PRINCIPAL MOMENTS OF INERTIA IN UNITS OF 10**(-40)*GRAM-CM**2

          A =      204.2128   B =     1668.6843   C =     1697.4792


          ORIENTATION OF MOLECULE IN FORCE CALCULATION

    NO.       ATOM         X         Y         Z

     1          C      -2.1103   -0.2785    1.0288
     2          C       0.5157   -0.2785    1.0288
     3          C      -0.7822    0.4335    1.0288
     4          C      -3.0943    0.8560    1.0374
     5          C       0.8169   -0.8613   -0.3087
     6          C      -0.9896    1.7735    1.0369
     7          C      -2.4292    2.0336    1.0418
     8          C       2.0282   -0.7864   -0.8706
     9          C       2.3132   -1.3778   -2.1691
    10          C       3.5203   -1.3166   -2.7280
    11          H      -2.2263   -0.9284    1.9150
    12          H      -2.2310   -0.9191    0.1355
    13          H       1.3215    0.4071    1.3606
    14          H       0.4840   -1.1002    1.7737
    15          H      -4.1701    0.6969    1.0395
    16          H      -0.0163   -1.3659   -0.8153
    17          H       1.4823   -1.8823   -2.6783
    18          H      -0.2345    2.5575    1.0404
    19          H       2.8565   -0.2719   -0.3655
    20          H      -2.8552    3.0348    1.0474
    21          H       3.7382   -1.7550   -3.6968
    22          H       4.3694   -0.8266   -2.2592


    FIRST DERIVATIVES WILL BE USED IN THE CALCULATION OF SECOND DERIVATIVES

          ESTIMATED TIME TO COMPLETE CALCULATION =       10.31 SECONDS

    FOR POINT-GROUP C1   THERE ARE   1 UNIQUE SYMMETRY FUNCTIONS.

 STEP:   1 TIME =     0.05 SECS, INTEGRAL =      0.05 TIME LEFT: 172799.91
 STEP:   2 TIME =     0.05 SECS, INTEGRAL =      0.11 TIME LEFT: 172799.86
 STEP:   3 TIME =     0.05 SECS, INTEGRAL =      0.16 TIME LEFT: 172799.80
 STEP:   4 TIME =     0.05 SECS, INTEGRAL =      0.21 TIME LEFT: 172799.75
 STEP:   5 TIME =     0.05 SECS, INTEGRAL =      0.26 TIME LEFT: 172799.70
 STEP:   6 TIME =     0.05 SECS, INTEGRAL =      0.31 TIME LEFT: 172799.65
 STEP:   7 TIME =     0.05 SECS, INTEGRAL =      0.36 TIME LEFT: 172799.60
 STEP:   8 TIME =     0.05 SECS, INTEGRAL =      0.41 TIME LEFT: 172799.55
 STEP:   9 TIME =     0.05 SECS, INTEGRAL =      0.46 TIME LEFT: 172799.50
 STEP:  10 TIME =     0.05 SECS, INTEGRAL =      0.51 TIME LEFT: 172799.45
 STEP:  11 TIME =     0.05 SECS, INTEGRAL =      0.56 TIME LEFT: 172799.40
 STEP:  12 TIME =     0.05 SECS, INTEGRAL =      0.61 TIME LEFT: 172799.35
 STEP:  13 TIME =     0.05 SECS, INTEGRAL =      0.66 TIME LEFT: 172799.30
 STEP:  14 TIME =     0.05 SECS, INTEGRAL =      0.71 TIME LEFT: 172799.25
 STEP:  15 TIME =     0.05 SECS, INTEGRAL =      0.77 TIME LEFT: 172799.20
 STEP:  16 TIME =     0.05 SECS, INTEGRAL =      0.82 TIME LEFT: 172799.14
 STEP:  17 TIME =     0.05 SECS, INTEGRAL =      0.87 TIME LEFT: 172799.09
 STEP:  18 TIME =     0.05 SECS, INTEGRAL =      0.92 TIME LEFT: 172799.04
 STEP:  19 TIME =     0.05 SECS, INTEGRAL =      0.97 TIME LEFT: 172798.99
 STEP:  20 TIME =     0.05 SECS, INTEGRAL =      1.02 TIME LEFT: 172798.94
 STEP:  21 TIME =     0.05 SECS, INTEGRAL =      1.08 TIME LEFT: 172798.88
 STEP:  22 TIME =     0.05 SECS, INTEGRAL =      1.13 TIME LEFT: 172798.83
 STEP:  23 TIME =     0.05 SECS, INTEGRAL =      1.18 TIME LEFT: 172798.78
 STEP:  24 TIME =     0.05 SECS, INTEGRAL =      1.23 TIME LEFT: 172798.73
 STEP:  25 TIME =     0.05 SECS, INTEGRAL =      1.28 TIME LEFT: 172798.68
 STEP:  26 TIME =     0.05 SECS, INTEGRAL =      1.33 TIME LEFT: 172798.63
 STEP:  27 TIME =     0.05 SECS, INTEGRAL =      1.38 TIME LEFT: 172798.58
 STEP:  28 TIME =     0.05 SECS, INTEGRAL =      1.43 TIME LEFT: 172798.53
 STEP:  29 TIME =     0.05 SECS, INTEGRAL =      1.48 TIME LEFT: 172798.48
 STEP:  30 TIME =     0.05 SECS, INTEGRAL =      1.54 TIME LEFT: 172798.43
 STEP:  31 TIME =     0.05 SECS, INTEGRAL =      1.59 TIME LEFT: 172798.38
 STEP:  32 TIME =     0.05 SECS, INTEGRAL =      1.64 TIME LEFT: 172798.32
 STEP:  33 TIME =     0.05 SECS, INTEGRAL =      1.69 TIME LEFT: 172798.27
 STEP:  34 TIME =     0.05 SECS, INTEGRAL =      1.74 TIME LEFT: 172798.22
 STEP:  35 TIME =     0.05 SECS, INTEGRAL =      1.79 TIME LEFT: 172798.17
 STEP:  36 TIME =     0.05 SECS, INTEGRAL =      1.84 TIME LEFT: 172798.12
 STEP:  37 TIME =     0.05 SECS, INTEGRAL =      1.89 TIME LEFT: 172798.07
 STEP:  38 TIME =     0.05 SECS, INTEGRAL =      1.94 TIME LEFT: 172798.02
 STEP:  39 TIME =     0.05 SECS, INTEGRAL =      2.00 TIME LEFT: 172797.96
 STEP:  40 TIME =     0.05 SECS, INTEGRAL =      2.05 TIME LEFT: 172797.91
 STEP:  41 TIME =     0.05 SECS, INTEGRAL =      2.10 TIME LEFT: 172797.86
 STEP:  42 TIME =     0.05 SECS, INTEGRAL =      2.15 TIME LEFT: 172797.81
 STEP:  43 TIME =     0.05 SECS, INTEGRAL =      2.20 TIME LEFT: 172797.77
 STEP:  44 TIME =     0.05 SECS, INTEGRAL =      2.25 TIME LEFT: 172797.71
 STEP:  45 TIME =     0.05 SECS, INTEGRAL =      2.30 TIME LEFT: 172797.66
 STEP:  46 TIME =     0.05 SECS, INTEGRAL =      2.35 TIME LEFT: 172797.61
 STEP:  47 TIME =     0.05 SECS, INTEGRAL =      2.40 TIME LEFT: 172797.56
 STEP:  48 TIME =     0.05 SECS, INTEGRAL =      2.45 TIME LEFT: 172797.51
 STEP:  49 TIME =     0.05 SECS, INTEGRAL =      2.50 TIME LEFT: 172797.46
 STEP:  50 TIME =     0.05 SECS, INTEGRAL =      2.56 TIME LEFT: 172797.40
 STEP:  51 TIME =     0.05 SECS, INTEGRAL =      2.61 TIME LEFT: 172797.35
 STEP:  52 TIME =     0.05 SECS, INTEGRAL =      2.66 TIME LEFT: 172797.30
 STEP:  53 TIME =     0.05 SECS, INTEGRAL =      2.71 TIME LEFT: 172797.25
 STEP:  54 TIME =     0.05 SECS, INTEGRAL =      2.77 TIME LEFT: 172797.20
 STEP:  55 TIME =     0.05 SECS, INTEGRAL =      2.82 TIME LEFT: 172797.14
 STEP:  56 TIME =     0.05 SECS, INTEGRAL =      2.87 TIME LEFT: 172797.09
 STEP:  57 TIME =     0.05 SECS, INTEGRAL =      2.92 TIME LEFT: 172797.04
 STEP:  58 TIME =     0.05 SECS, INTEGRAL =      2.97 TIME LEFT: 172796.99
 STEP:  59 TIME =     0.05 SECS, INTEGRAL =      3.02 TIME LEFT: 172796.94
 STEP:  60 TIME =     0.05 SECS, INTEGRAL =      3.07 TIME LEFT: 172796.89
 STEP:  61 TIME =     0.05 SECS, INTEGRAL =      3.12 TIME LEFT: 172796.84
 STEP:  62 TIME =     0.05 SECS, INTEGRAL =      3.18 TIME LEFT: 172796.79
 STEP:  63 TIME =     0.05 SECS, INTEGRAL =      3.23 TIME LEFT: 172796.73
 STEP:  64 TIME =     0.05 SECS, INTEGRAL =      3.28 TIME LEFT: 172796.68
 STEP:  65 TIME =     0.05 SECS, INTEGRAL =      3.33 TIME LEFT: 172796.63
 STEP:  66 TIME =     0.05 SECS, INTEGRAL =      3.38 TIME LEFT: 172796.58

(To convert to Hartree/Bohr^2, multiply by (10^(-21) x N x a0^2)/(4.184 x 627.51) =  0.0642)


           FORCE MATRIX IN MILLIDYNES/ANGSTROM


                  C  1       C  2       C  3       C  4       C  5       C  6
 ------------------------------------------------------------------------------
     C    1  14.825615
     C    2   0.467226  15.094564
     C    3   4.205197   5.179149  18.392545
     C    4   4.422390   0.048124   1.107157  17.903748
     C    5   0.032935   4.863861   0.754365   0.007657  18.010579
     C    6   1.206514   0.668703   9.405453   1.601673   0.024539  18.250693
     C    7   1.251787   0.108820   1.592355   9.674627   0.016615   5.207304
     C    8   0.003460   0.830658   0.043551   0.003528  10.405327   0.003528
     C    9   0.001569   0.140800   0.019399   0.001228   1.072388   0.003649
     C   10   0.000497   0.015579   0.002789   0.001300   0.100596   0.001992
     H   11   4.518398   0.011736   0.425432   0.414196   0.002370   0.044745
     H   12   4.491299   0.009624   0.426816   0.416063   0.014189   0.044770
     H   13   0.038824   4.436282   0.443615   0.007393   0.459304   0.029516
     H   14   0.016866   4.385048   0.439254   0.005338   0.415360   0.033848
     H   15   0.403099   0.011722   0.043277   5.085801   0.001799   0.101583
     H   16   0.010140   0.431229   0.029799   0.002491   4.758319   0.002028
     H   17   0.000444   0.002617   0.000938   0.000404   0.041456   0.000415
     H   18   0.105127   0.048012   0.456384   0.048605   0.006713   5.061126
     H   19   0.001103   0.079103   0.007162   0.000966   0.464899   0.001249
     H   20   0.113769   0.006740   0.049581   0.445988   0.000851   0.419519
     H   21   0.000466   0.009863   0.001652   0.000426   0.008394   0.000602
     H   22   0.000490   0.005105   0.001437   0.000575   0.005757   0.000597


                  C  7       C  8       C  9       C 10       H 11       H 12
 ------------------------------------------------------------------------------
     C    7  18.293548
     C    8   0.002720  18.485574
     C    9   0.002519   5.599035  18.475660
     C   10   0.001750   1.071728  10.794146  17.906876
     H   11   0.044568   0.000975   0.000454   0.000351   5.122125
     H   12   0.045119   0.002284   0.000998   0.000455   0.542487   5.099208
     H   13   0.002503   0.048485   0.003988   0.001351   0.001121   0.001549
     H   14   0.012641   0.031645   0.020282   0.001943   0.006700   0.001539
     H   15   0.444035   0.000447   0.000318   0.000376   0.011122   0.011217
     H   16   0.001563   0.466961   0.087604   0.006363   0.000800   0.019033
     H   17   0.000946   0.445000   4.773324   0.451257   0.000152   0.000456
     H   18   0.418086   0.001998   0.001089   0.000602   0.014296   0.014528
     H   19   0.001244   4.750697   0.443787   0.038287   0.000209   0.000506
     H   20   5.071290   0.000705   0.000387   0.000561   0.015308   0.015298
     H   21   0.000435   0.134120   0.460182   5.114711   0.000151   0.000180
     H   22   0.000433   0.099583   0.487951   5.076954   0.000148   0.000214


                  H 13       H 14       H 15       H 16       H 17       H 18
 ------------------------------------------------------------------------------
     H   13   5.018391
     H   14   0.549423   4.956781
     H   15   0.001556   0.000772   5.486204
     H   16   0.037604   0.014375   0.000436   5.141528
     H   17   0.000646   0.000720   0.000169   0.028404   5.142209
     H   18   0.010650   0.004297   0.005359   0.000823   0.000259   5.455337
     H   19   0.029955   0.009483   0.000184   0.099932   0.035768   0.001038
     H   20   0.000613   0.001107   0.041800   0.000422   0.000168   0.009207
     H   21   0.000324   0.001575   0.000141   0.004165   0.076369   0.000248
     H   22   0.000294   0.000771   0.000164   0.002791   0.113997   0.000238


                  H 19       H 20       H 21       H 22
 ------------------------------------------------------
     H   19   5.127116
     H   20   0.000228   5.462011
     H   21   0.002273   0.000124   5.499455
     H   22   0.025607   0.000120   0.419919   5.471281


          HEAT OF FORMATION =      56.305348 KCALS/MOLE

          ZERO POINT ENERGY     117.152 KCAL/MOL


           NORMAL COORDINATE ANALYSIS (Total motion = 1 Angstrom)


   Root No.       1         2         3         4         5         6         7         8

                 1 A       2 A       3 A       4 A       5 A       6 A       7 A       8 A   

                  46.1      74.0     110.5     153.6     207.5     222.5     294.0     341.4
  
           1   -0.0099   -0.0155   -0.0046    0.0041   -0.0154   -0.0218    0.0254    0.0261
           2    0.0019    0.0038    0.0089   -0.0043    0.0010   -0.0006   -0.0064    0.0155
           3    0.0406    0.0330   -0.0133    0.0182   -0.0253    0.0177   -0.0246    0.0137
           4   -0.0111   -0.0155   -0.0041    0.0026   -0.0086   -0.0094   -0.0053   -0.0247
           5   -0.0373   -0.0058    0.0116    0.0045   -0.0077   -0.0120   -0.0189   -0.0356
           6    0.0168   -0.0323   -0.0164    0.0048    0.0127   -0.0011    0.0099    0.0008
           7    0.0000   -0.0128   -0.0051    0.0009   -0.0103   -0.0126    0.0154    0.0128
           8   -0.0170   -0.0015    0.0100    0.0021   -0.0070   -0.0162    0.0082    0.0382
           9    0.0048   -0.0156   -0.0179    0.0183   -0.0292    0.0180   -0.0041   -0.0078
          10    0.0063   -0.0109   -0.0060   -0.0014   -0.0091   -0.0091    0.0178   -0.0001
          11    0.0163    0.0079    0.0076   -0.0089    0.0067    0.0119   -0.0164   -0.0116
          12    0.0045    0.0545    0.0166   -0.0149    0.0292   -0.0137    0.0160   -0.0107
          13   -0.0056   -0.0100   -0.0000    0.0002    0.0360    0.0134   -0.0226    0.0052
          14   -0.0237    0.0132   -0.0147    0.0477   -0.0005    0.0331    0.0356   -0.0249
          15    0.0120   -0.0394   -0.0041   -0.0146    0.0225   -0.0154   -0.0141   -0.0004
          16    0.0195   -0.0073   -0.0070   -0.0054   -0.0040    0.0011    0.0109   -0.0149
          17   -0.0137   -0.0005    0.0098    0.0011   -0.0060   -0.0140    0.0064    0.0349
          18   -0.0446   -0.0257   -0.0012    0.0040   -0.0316    0.0204   -0.0234    0.0123
          19    0.0232   -0.0061   -0.0073   -0.0068   -0.0022    0.0048    0.0075   -0.0254
          20    0.0070    0.0054    0.0083   -0.0058    0.0028    0.0039   -0.0100    0.0023
          21   -0.0448    0.0185    0.0217   -0.0194    0.0136   -0.0053   -0.0016    0.0067
          22   -0.0080    0.0034    0.0128    0.0253    0.0371    0.0165   -0.0166    0.0061
          23   -0.0022   -0.0040   -0.0524   -0.0418    0.0113    0.0385    0.0198   -0.0005
          24    0.0098   -0.0132    0.0181    0.0278    0.0251   -0.0106    0.0023    0.0006
          25   -0.0037    0.0270    0.0236   -0.0056    0.0004    0.0198   -0.0144    0.0137
          26    0.0177    0.0015   -0.0535    0.0097    0.0206   -0.0248   -0.0120    0.0045
          27    0.0017   -0.0104    0.0211   -0.0028    0.0116    0.0173    0.0196   -0.0023
          28   -0.0079    0.0443   -0.0022   -0.0115   -0.0164   -0.0004   -0.0156    0.0074
          29    0.0481   -0.0177    0.0564   -0.0038   -0.0187   -0.0130    0.0040   -0.0072
          30   -0.0041    0.0247   -0.0233   -0.0167   -0.0269   -0.0246    0.0206   -0.0177
          31   -0.0133    0.0100    0.0066   -0.0020   -0.0035   -0.0391    0.0342    0.0489
          32    0.0365    0.0113   -0.0060    0.0143   -0.0327    0.0222   -0.0520    0.0479
          33    0.0655    0.0418   -0.0228    0.0312   -0.0489    0.0324   -0.0576    0.0416
          34   -0.0237   -0.0450   -0.0145    0.0157   -0.0349   -0.0202    0.0320    0.0390
          35   -0.0296   -0.0028    0.0237   -0.0242    0.0365   -0.0203    0.0359   -0.0241
          36    0.0650    0.0418   -0.0226    0.0310   -0.0485    0.0320   -0.0569    0.0409
          37   -0.0051   -0.0143   -0.0046    0.0026   -0.0201   -0.0159    0.0114    0.0075
          38   -0.0533   -0.0134    0.0192   -0.0064   -0.0098   -0.0216   -0.0638   -0.1076
          39    0.0353   -0.0193   -0.0304    0.0262    0.0441    0.0342    0.0593    0.0665
          40   -0.0329   -0.0177   -0.0008    0.0018   -0.0374   -0.0117   -0.0487   -0.1200
          41   -0.0459   -0.0188    0.0254   -0.0196   -0.0100   -0.0435   -0.0562   -0.0647
          42    0.0062   -0.0465   -0.0007   -0.0219    0.0091   -0.0358   -0.0327   -0.0335
          43    0.0041   -0.0114   -0.0057   -0.0006   -0.0099   -0.0111    0.0193    0.0039
          44    0.0318    0.0123    0.0062   -0.0139    0.0129    0.0252   -0.0260   -0.0391
          45    0.0186    0.0927    0.0299   -0.0299    0.0695   -0.0367    0.0489   -0.0338
          46   -0.0010   -0.0122   -0.0049   -0.0298    0.0473    0.0227   -0.0319    0.0199
          47   -0.0290    0.0392    0.0029    0.1542   -0.0082    0.0264    0.0727   -0.0450
          48    0.0097   -0.0611   -0.0131   -0.0723    0.0097   -0.0252   -0.0364   -0.0052
          49    0.0033    0.0314    0.0526   -0.0286   -0.0285    0.0309   -0.0012    0.0098
          50    0.0074    0.0212   -0.1378    0.0633    0.0534   -0.0998   -0.0567    0.0090
          51    0.0005   -0.0370    0.0573   -0.0188    0.0246    0.0723    0.0426   -0.0013
          52    0.0308   -0.0040   -0.0081   -0.0092    0.0005    0.0107    0.0046   -0.0377
          53   -0.0245   -0.0036    0.0108    0.0047   -0.0102   -0.0232    0.0122    0.0564
          54   -0.0797   -0.0574    0.0002    0.0023   -0.0455    0.0295   -0.0393    0.0267
          55   -0.0134    0.0015    0.0154    0.0623    0.0429    0.0112   -0.0120   -0.0038
          56    0.0032   -0.0253   -0.0689   -0.1531    0.0064    0.0600    0.0011    0.0167
          57    0.0134    0.0120    0.0311    0.0796    0.0184   -0.0254    0.0135   -0.0014
          58    0.0375   -0.0019   -0.0083   -0.0117    0.0042    0.0174   -0.0036   -0.0500
          59    0.0133    0.0071    0.0078   -0.0077    0.0054    0.0094   -0.0148   -0.0081
          60   -0.0798    0.0216    0.0407   -0.0396    0.0381   -0.0196    0.0081    0.0094
          61   -0.0047    0.0646    0.0040   -0.0405   -0.0678   -0.0149    0.0022   -0.0132
          62    0.0638   -0.0161    0.0689    0.0358   -0.0184   -0.0739   -0.0278   -0.0113
          63   -0.0105    0.0285   -0.0276   -0.0411   -0.0388   -0.0006    0.0392   -0.0208
          64   -0.0149    0.0400   -0.0320    0.0114    0.0182   -0.0060   -0.0340    0.0204
          65    0.0593   -0.0370    0.1427   -0.0549   -0.0555    0.0578    0.0519   -0.0164
          66   -0.0031    0.0526   -0.0595   -0.0052   -0.0519   -0.0891    0.0041   -0.0323


   Root No.       9        10        11        12        13        14        15        16

                 9 A      10 A      11 A      12 A      13 A      14 A      15 A      16 A   

                 414.3     456.0     496.6     570.2     626.5     695.8     752.7     821.3
  
           1   -0.0048    0.0076   -0.0001    0.0017   -0.0004    0.0009    0.0004    0.0351
           2    0.0094   -0.0041   -0.0011    0.0090   -0.0104    0.0352   -0.0067   -0.0377
           3   -0.0104   -0.0011    0.0007    0.0086   -0.0010   -0.0119   -0.0214   -0.0019
           4    0.0027   -0.0067   -0.0028    0.0025   -0.0130    0.0608   -0.0139   -0.0045
           5   -0.0060    0.0037   -0.0019   -0.0115    0.0117   -0.0273    0.0021   -0.0227
           6    0.0247   -0.0321   -0.0191   -0.0344    0.0048    0.0126   -0.0040    0.0112
           7    0.0001    0.0007   -0.0008    0.0055   -0.0087    0.0387   -0.0086   -0.0152
           8    0.0058    0.0014   -0.0002    0.0023    0.0011   -0.0136    0.0032   -0.0274
           9    0.0428    0.0030   -0.0394    0.0494   -0.0032   -0.0132    0.0291   -0.0032
          10   -0.0112    0.0093    0.0008   -0.0063    0.0092   -0.0357    0.0086    0.0753
          11    0.0043   -0.0043   -0.0005    0.0030   -0.0045    0.0146   -0.0022    0.0240
          12    0.0340    0.0177    0.0200   -0.0080    0.0003   -0.0002   -0.0223    0.0028
          13    0.0083   -0.0311    0.0290    0.0190   -0.0077   -0.0097    0.0025    0.0017
          14    0.0012   -0.0230    0.0021   -0.0159    0.0234   -0.0038   -0.0012   -0.0053
          15    0.0125   -0.0225   -0.0047   -0.0243    0.0014   -0.0127   -0.0018   -0.0005
          16   -0.0119    0.0069    0.0012   -0.0070    0.0075   -0.0206    0.0020   -0.0615
          17    0.0056    0.0019   -0.0007    0.0029    0.0019   -0.0220    0.0064   -0.0216
          18    0.0153    0.0213    0.0331   -0.0089   -0.0004   -0.0043   -0.0009   -0.0031
          19   -0.0142    0.0070    0.0012   -0.0093    0.0098   -0.0267    0.0030   -0.0383
          20    0.0054   -0.0022   -0.0004    0.0037   -0.0033    0.0030    0.0024    0.0898
          21   -0.0413   -0.0268   -0.0278    0.0072   -0.0004   -0.0044   -0.0268    0.0025
          22   -0.0038   -0.0073    0.0259    0.0306   -0.0107   -0.0079    0.0056    0.0007
          23   -0.0126    0.0101    0.0046    0.0081    0.0070    0.0100   -0.0018    0.0091
          24   -0.0214    0.0295   -0.0017    0.0066   -0.0071   -0.0017    0.0016   -0.0036
          25    0.0129    0.0188   -0.0323   -0.0193    0.0163    0.0044   -0.0017    0.0000
          26   -0.0094    0.0240   -0.0125   -0.0091   -0.0418   -0.0046    0.0003   -0.0032
          27   -0.0258    0.0359   -0.0042    0.0087    0.0183    0.0170   -0.0034   -0.0005
          28    0.0202   -0.0043   -0.0210   -0.0195    0.0033   -0.0037   -0.0003   -0.0001
          29   -0.0020   -0.0074    0.0090    0.0057    0.0040    0.0013   -0.0003   -0.0011
          30   -0.0148   -0.0134    0.0281    0.0183   -0.0075    0.0039   -0.0006   -0.0007
          31   -0.0196    0.0207    0.0491   -0.0521    0.0054    0.0098   -0.0423    0.0290
          32   -0.0856   -0.0341    0.0183   -0.0447   -0.0062    0.0851    0.0799   -0.0409
          33   -0.0847   -0.0221    0.0223   -0.0401    0.0033    0.0263    0.0402   -0.0032
          34    0.0088    0.0004   -0.0469    0.0578   -0.0024   -0.0333    0.0491    0.0059
          35    0.1056    0.0246   -0.0208    0.0640   -0.0173   -0.0003   -0.0977   -0.0448
          36   -0.0837   -0.0216    0.0221   -0.0404    0.0042    0.0212    0.0403    0.0055
          37    0.0076   -0.0007   -0.0079    0.0120   -0.0168    0.0812   -0.0175   -0.0294
          38   -0.0192    0.0234   -0.0101   -0.0144   -0.0031   -0.0399    0.0114    0.0305
          39    0.0376   -0.0830    0.0093   -0.0502    0.0420   -0.0084   -0.0143   -0.0362
          40   -0.0048    0.0323   -0.0300    0.0306   -0.0345    0.0909    0.0046    0.0624
          41   -0.0195    0.0263   -0.0097   -0.0252   -0.0124   -0.0350   -0.0002    0.0039
          42    0.0098   -0.0061   -0.0283   -0.0479   -0.0217    0.0049   -0.0060    0.0424
          43   -0.0104    0.0095    0.0007   -0.0054    0.0082   -0.0329    0.0092    0.0866
          44   -0.0010   -0.0049    0.0003   -0.0041    0.0026   -0.0071   -0.0018   -0.0436
          45    0.0874    0.0425    0.0448   -0.0292    0.0036    0.0547    0.2994   -0.0229
          46    0.0009   -0.0167    0.0412    0.0504    0.0036   -0.0340    0.0156   -0.0050
          47   -0.0002   -0.0367   -0.0104   -0.0575   -0.0306    0.0374   -0.0201    0.0448
          48    0.0255   -0.0302   -0.0136   -0.0339    0.0359   -0.0121   -0.0045   -0.0394
          49    0.0219    0.0064   -0.0388   -0.0360   -0.0022    0.0009   -0.0034    0.0031
          50   -0.0123    0.0331   -0.0047    0.0151    0.0336    0.0006    0.0027   -0.0171
          51   -0.0368    0.0436    0.0011    0.0129   -0.0260    0.0170   -0.0030    0.0082
          52   -0.0182    0.0087    0.0022   -0.0144    0.0156   -0.0475    0.0070   -0.0191
          53    0.0117   -0.0000   -0.0022    0.0105   -0.0060    0.0035    0.0014   -0.0637
          54    0.0274    0.0591    0.1392   -0.1102    0.0079    0.0523    0.0570    0.0134
          55    0.0019   -0.0346    0.0386    0.0258   -0.0364   -0.0175    0.0065    0.0062
          56   -0.0104    0.0245    0.0060    0.0349    0.0954    0.0150    0.0017   -0.0066
          57   -0.0318    0.0585   -0.0247   -0.0139   -0.0548    0.0094   -0.0036    0.0032
          58   -0.0155    0.0036    0.0013   -0.0101    0.0065    0.0001   -0.0054   -0.0620
          59    0.0054   -0.0034    0.0000    0.0034   -0.0048    0.0146   -0.0024    0.0814
          60   -0.1183   -0.0870   -0.0993    0.0172    0.0015    0.0336    0.1881   -0.0080
          61    0.0352   -0.0790    0.0292   -0.0059   -0.0700   -0.0435    0.0120    0.0022
          62    0.0025   -0.0229    0.0349    0.0573    0.2451    0.0524   -0.0088    0.0223
          63   -0.0137   -0.0241    0.0292   -0.0007   -0.1332   -0.0282    0.0062   -0.0107
          64    0.0135    0.0381   -0.0511   -0.0278    0.0555    0.0186   -0.0074   -0.0007
          65    0.0006   -0.0327    0.0165   -0.0189   -0.1677   -0.0414    0.0093   -0.0129
          66   -0.0048   -0.0667    0.0770    0.0602    0.0771    0.0071    0.0027    0.0130


   Root No.      17        18        19        20        21        22        23        24

                17 A      18 A      19 A      20 A      21 A      22 A      23 A      24 A   

                 851.5     873.5     919.5     926.6     942.1     948.5     953.5     968.3
  
           1    0.0013   -0.0001    0.0057   -0.0088   -0.0155    0.0013   -0.0237   -0.0100
           2    0.0129   -0.0008    0.0085   -0.0122   -0.0161   -0.0009   -0.0258   -0.0080
           3    0.0012    0.0482   -0.0110    0.0159   -0.0239    0.0048   -0.0002   -0.0164
           4   -0.0266    0.0018   -0.0100    0.0127    0.0087    0.0077    0.0181    0.0017
           5   -0.0330    0.0026   -0.0107    0.0112    0.0042    0.0110   -0.0004   -0.0092
           6    0.0177   -0.0012    0.0066   -0.0070   -0.0012    0.0013    0.0025    0.0042
           7   -0.0041    0.0004   -0.0015    0.0021   -0.0014    0.0041    0.0028   -0.0018
           8    0.0083   -0.0004   -0.0013    0.0027    0.0080   -0.0022    0.0110    0.0056
           9   -0.0007   -0.0078    0.0076   -0.0122    0.0249   -0.0054    0.0007    0.0105
          10   -0.0081    0.0000   -0.0023    0.0040    0.0079   -0.0017    0.0125    0.0059
          11   -0.0072    0.0004   -0.0009    0.0007   -0.0023    0.0019   -0.0020   -0.0022
          12    0.0012   -0.0052    0.0083   -0.0127    0.0185   -0.0036    0.0002    0.0233
          13    0.0067   -0.0008   -0.0034    0.0080    0.0005   -0.0158    0.0012   -0.0004
          14   -0.0157    0.0013    0.0088   -0.0226   -0.0081   -0.0037   -0.0147    0.0051
          15    0.0047   -0.0020   -0.0032    0.0102   -0.0024   -0.0028   -0.0018   -0.0039
          16    0.0136   -0.0005    0.0019   -0.0021    0.0025   -0.0032    0.0013    0.0037
          17    0.0138   -0.0006   -0.0001    0.0020    0.0151   -0.0067    0.0193    0.0134
          18   -0.0036   -0.0359   -0.0112    0.0184   -0.0321    0.0081   -0.0015    0.0200
          19    0.0050   -0.0001   -0.0005    0.0009    0.0028   -0.0006    0.0025    0.0012
          20   -0.0138    0.0004   -0.0015    0.0018    0.0000    0.0008    0.0015   -0.0001
          21   -0.0001   -0.0223    0.0044   -0.0069    0.0136   -0.0047    0.0013   -0.0373
          22    0.0049    0.0003    0.0084    0.0017    0.0057    0.0043   -0.0031    0.0034
          23    0.0258   -0.0025   -0.0211   -0.0141   -0.0104    0.0066    0.0248   -0.0059
          24   -0.0077    0.0009    0.0146    0.0018    0.0064    0.0275   -0.0103    0.0017
          25   -0.0006   -0.0000    0.0054   -0.0025   -0.0039    0.0085    0.0058   -0.0015
          26   -0.0063    0.0001   -0.0179    0.0064    0.0144    0.0071   -0.0170    0.0028
          27   -0.0057    0.0006    0.0068   -0.0003   -0.0065   -0.0043    0.0103   -0.0016
          28    0.0007   -0.0003    0.0007   -0.0007   -0.0026   -0.0046    0.0016   -0.0008
          29   -0.0044    0.0004   -0.0040    0.0058    0.0050   -0.0215   -0.0125    0.0041
          30   -0.0052    0.0005   -0.0035    0.0063   -0.0039   -0.0462    0.0025    0.0008
          31    0.0212   -0.0125    0.0271   -0.0329   -0.0597    0.0122   -0.0768    0.1143
          32    0.0089   -0.1255    0.0341   -0.0514    0.0435   -0.0145   -0.0256    0.0047
          33    0.0006   -0.0497    0.0115   -0.0173    0.0170   -0.0044   -0.0062    0.0112
          34    0.0152    0.0100    0.0068   -0.0216   -0.0201   -0.0166   -0.0617   -0.1609
          35    0.0156    0.1249   -0.0165    0.0256   -0.0798    0.0144   -0.0297   -0.0230
          36   -0.0026   -0.0481    0.0080   -0.0114    0.0242   -0.0041    0.0070    0.0162
          37   -0.0506    0.0026   -0.0295    0.0421    0.0300    0.0231    0.0620   -0.0025
          38    0.0670   -0.0027    0.0284   -0.0369   -0.0241   -0.0195   -0.0460    0.0045
          39   -0.1207    0.0071   -0.0241    0.0193    0.0051    0.0269   -0.0089   -0.0124
          40    0.0679   -0.0030    0.0545   -0.0677    0.0155   -0.0338   -0.0233    0.0607
          41    0.0781   -0.0056   -0.0073    0.0189   -0.0240    0.0054    0.0169   -0.0270
          42    0.1400   -0.0105    0.0121   -0.0009   -0.0316   -0.0058    0.0202   -0.0129
          43   -0.0081   -0.0003   -0.0004    0.0010    0.0023   -0.0016    0.0038    0.0019
          44   -0.0088    0.0014   -0.0141    0.0209    0.0337    0.0016    0.0549    0.0224
          45   -0.0125   -0.0751   -0.0322    0.0477   -0.0606    0.0093    0.0015   -0.1113
          46   -0.0096    0.0022   -0.0051   -0.0557   -0.0110   -0.0240   -0.0113    0.0055
          47    0.1254   -0.0119    0.0399    0.1751    0.0283   -0.0003    0.0169   -0.0246
          48   -0.1085    0.0062   -0.0315   -0.0821   -0.0195    0.0076   -0.0120    0.0163
          49    0.0102   -0.0022   -0.0532    0.0118    0.0217   -0.0320   -0.0359    0.0052
          50   -0.0574    0.0080    0.1758   -0.0247   -0.0858   -0.0078    0.1039   -0.0167
          51    0.0276   -0.0038   -0.0894    0.0070    0.0510    0.0779   -0.0412    0.0069
          52    0.0029   -0.0004    0.0027   -0.0058   -0.0141   -0.0002   -0.0285   -0.0137
          53    0.0246   -0.0020   -0.0011    0.0062    0.0312   -0.0097    0.0492    0.0315
          54    0.0215    0.2562    0.0410   -0.0716    0.1264   -0.0330    0.0072   -0.0946
          55    0.0261   -0.0028   -0.0459   -0.0384   -0.0167   -0.0516    0.0238    0.0009
          56   -0.0228    0.0051    0.1596    0.1311    0.0563    0.0576   -0.0787    0.0122
          57    0.0072   -0.0019   -0.0805   -0.0803   -0.0245    0.0678    0.0514   -0.0125
          58   -0.0064    0.0015    0.0007   -0.0048   -0.0296    0.0138   -0.0451   -0.0328
          59   -0.0190   -0.0003   -0.0010   -0.0007   -0.0132    0.0068   -0.0184   -0.0155
          60    0.0059    0.2079   -0.0201    0.0306   -0.0611    0.0216   -0.0066    0.1633
          61    0.0253   -0.0020    0.0330   -0.0359    0.0130    0.2391    0.0047   -0.0070
          62    0.0562   -0.0053   -0.0273   -0.0198   -0.0191    0.0433    0.0524   -0.0163
          63   -0.0267    0.0027    0.0145    0.0096    0.0108   -0.0178   -0.0257    0.0086
          64   -0.0085   -0.0002   -0.0426    0.0264    0.0130   -0.1290   -0.0389    0.0114
          65   -0.0333    0.0047    0.1087   -0.0253   -0.0639    0.0121    0.0911   -0.0198
          66    0.0437   -0.0042   -0.0417   -0.0121    0.0402    0.1554   -0.0313    0.0033


   Root No.      25        26        27        28        29        30        31        32

                25 A      26 A      27 A      28 A      29 A      30 A      31 A      32 A   

                 991.5    1027.5    1032.6    1040.9    1047.0    1079.6    1120.3    1156.0
  
           1   -0.0146   -0.0007    0.0057    0.0003    0.0020    0.0036    0.0166   -0.0067
           2   -0.0071    0.0111   -0.0321   -0.0090   -0.0062    0.0043    0.0242   -0.0057
           3    0.0193    0.0026    0.0034   -0.0003    0.0002   -0.0009   -0.0017    0.0005
           4    0.0047   -0.0016   -0.0004    0.0011    0.0012   -0.0111   -0.0091    0.0189
           5   -0.0255    0.0042   -0.0025   -0.0093   -0.0017    0.0026    0.0075    0.0142
           6    0.0137   -0.0082    0.0029    0.0077   -0.0048   -0.0056   -0.0072    0.0326
           7    0.0022   -0.0064   -0.0024    0.0046   -0.0040    0.0096    0.0135   -0.0013
           8    0.0060   -0.0015    0.0074    0.0015    0.0017   -0.0035   -0.0196    0.0031
           9   -0.0228    0.0032    0.0120   -0.0161   -0.0169    0.0049    0.0083    0.0005
          10    0.0131    0.0050   -0.0238   -0.0025   -0.0049    0.0155    0.0223   -0.0055
          11   -0.0043   -0.0046    0.0149    0.0034    0.0031   -0.0045   -0.0009    0.0013
          12   -0.0250   -0.0110   -0.0233    0.0170    0.0155   -0.0015   -0.0007   -0.0007
          13   -0.0059    0.0060    0.0000   -0.0059    0.0063    0.0019    0.0011   -0.0045
          14    0.0222   -0.0121   -0.0018    0.0164   -0.0132   -0.0011   -0.0016   -0.0226
          15   -0.0098    0.0136   -0.0011   -0.0097    0.0148    0.0043   -0.0017   -0.0447
          16    0.0058    0.0071   -0.0136   -0.0051   -0.0014   -0.0152   -0.0153    0.0060
          17    0.0194    0.0052    0.0032    0.0001    0.0064   -0.0082   -0.0269    0.0089
          18    0.0057   -0.0045   -0.0105    0.0109    0.0099   -0.0019   -0.0027    0.0010
          19    0.0002   -0.0011    0.0077    0.0021    0.0032    0.0139    0.0104   -0.0015
          20   -0.0002   -0.0007   -0.0001   -0.0003   -0.0010   -0.0077   -0.0146    0.0036
          21    0.0139    0.0075    0.0162   -0.0123   -0.0110    0.0010    0.0007    0.0005
          22    0.0042   -0.0045    0.0015    0.0051   -0.0093   -0.0015   -0.0007    0.0139
          23   -0.0143   -0.0014   -0.0008   -0.0155    0.0092    0.0014    0.0003    0.0018
          24    0.0076   -0.0004    0.0005    0.0086   -0.0061   -0.0006   -0.0008   -0.0023
          25   -0.0005   -0.0036   -0.0014   -0.0064    0.0048   -0.0000   -0.0006   -0.0054
          26    0.0023    0.0181    0.0031    0.0207   -0.0102   -0.0012   -0.0011   -0.0073
          27   -0.0011   -0.0073   -0.0023   -0.0114    0.0078   -0.0004   -0.0013   -0.0109
          28   -0.0027    0.0079    0.0014    0.0071   -0.0037    0.0002   -0.0003   -0.0044
          29    0.0095   -0.0288   -0.0045   -0.0242    0.0106    0.0006    0.0004    0.0025
          30   -0.0052    0.0121    0.0032    0.0131   -0.0087   -0.0003    0.0006    0.0073
          31   -0.0573    0.0333    0.2478   -0.0880   -0.0580   -0.0797   -0.0007    0.0100
          32   -0.0480    0.0039   -0.0984    0.0025   -0.0017    0.0268    0.0614   -0.0174
          33   -0.0177    0.0013   -0.0130   -0.0034   -0.0043    0.0045    0.0203   -0.0050
          34   -0.0563   -0.0627    0.0177    0.1154    0.1445   -0.1137   -0.0307   -0.0019
          35    0.0412    0.0324   -0.0418   -0.0340   -0.0342    0.0281    0.0589   -0.0152
          36   -0.0120   -0.0045    0.0077    0.0018    0.0004   -0.0016   -0.0165    0.0059
          37   -0.0202   -0.0593    0.0056    0.0101   -0.0678   -0.0460   -0.0729   -0.1045
          38    0.0247    0.0440   -0.0052   -0.0049    0.0527    0.0339    0.0554    0.0842
          39   -0.0251    0.0467   -0.0062   -0.0213    0.0478    0.0103    0.0437    0.1941
          40    0.1151    0.0895    0.0288   -0.0035    0.1045   -0.0145   -0.0754   -0.0025
          41   -0.0319   -0.0883   -0.0164    0.0268   -0.0886   -0.0008    0.0331    0.0318
          42    0.0104   -0.1064   -0.0106    0.0470   -0.0966   -0.0101    0.0175    0.0532
          43    0.0095    0.0111   -0.0479   -0.0098   -0.0132    0.0338   -0.0048    0.0006
          44    0.0205   -0.0470    0.1856    0.0540    0.0615   -0.1237    0.1996   -0.0444
          45    0.0846    0.0269    0.0582   -0.0376   -0.0336    0.0012    0.0008    0.0016
          46    0.0180   -0.0293    0.0057    0.0227   -0.0262   -0.0047    0.0004    0.0667
          47   -0.0696    0.0470   -0.0037   -0.0481    0.0515    0.0101    0.0038   -0.0522
          48    0.0425    0.0120   -0.0084    0.0078    0.0029    0.0034   -0.0063   -0.1311
          49    0.0029    0.0119    0.0038    0.0193   -0.0110    0.0014    0.0027    0.0215
          50   -0.0119   -0.0463   -0.0109   -0.0604    0.0345    0.0006   -0.0017   -0.0179
          51    0.0075    0.0314    0.0032    0.0269   -0.0107   -0.0044   -0.0064   -0.0465
          52   -0.0332    0.0245   -0.0724   -0.0413   -0.0340   -0.1926   -0.1053    0.0220
          53    0.0584   -0.0113    0.0601    0.0352    0.0385    0.1623    0.0564   -0.0051
          54   -0.0191    0.0101    0.0241   -0.0262   -0.0228    0.0057    0.0075   -0.0043
          55   -0.0104   -0.0156    0.0026   -0.0092   -0.0117   -0.0012   -0.0157   -0.0914
          56    0.0366    0.0027    0.0020    0.0427   -0.0264   -0.0045    0.0033    0.0419
          57   -0.0203    0.0130   -0.0040   -0.0272    0.0331    0.0046    0.0196    0.1253
          58   -0.0720   -0.0449    0.1217    0.0286    0.0157    0.2133   -0.1469    0.0118
          59   -0.0305   -0.0196    0.0504    0.0111    0.0045    0.0768   -0.0835    0.0097
          60   -0.0521   -0.0217   -0.0451    0.0325    0.0277   -0.0022   -0.0014   -0.0004
          61    0.0145   -0.0225   -0.0086   -0.0278    0.0218   -0.0001   -0.0049   -0.0455
          62   -0.0453    0.1123    0.0184    0.0899   -0.0408   -0.0019   -0.0015   -0.0109
          63    0.0234   -0.0584   -0.0094   -0.0464    0.0205    0.0007    0.0004    0.0044
          64    0.0118   -0.0330   -0.0029   -0.0215    0.0046    0.0020    0.0011    0.0013
          65   -0.0422    0.0944    0.0156    0.0784   -0.0368   -0.0021   -0.0007   -0.0015
          66    0.0226   -0.0422   -0.0101   -0.0422    0.0261   -0.0007   -0.0013   -0.0033


   Root No.      33        34        35        36        37        38        39        40

                33 A      34 A      35 A      36 A      37 A      38 A      39 A      40 A   

                1170.6    1204.9    1215.1    1237.6    1265.9    1280.9    1330.6    1363.5
  
           1   -0.0018    0.0303   -0.0002   -0.0047    0.0239   -0.0153    0.0432   -0.0280
           2   -0.0038   -0.0050   -0.0049    0.0088   -0.0191    0.0070   -0.0031    0.0558
           3   -0.0013    0.0001   -0.0010    0.0008   -0.0009   -0.0002    0.0007    0.0004
           4    0.0028   -0.0076   -0.0020   -0.0086   -0.0021    0.0056   -0.0271    0.0037
           5   -0.0144   -0.0051   -0.0179    0.0092   -0.0087   -0.0071    0.0245   -0.0006
           6   -0.0040    0.0025   -0.0224    0.0076   -0.0185   -0.0014    0.0253    0.0069
           7   -0.0009    0.0138    0.0056   -0.0121    0.0323   -0.0116   -0.0121    0.0158
           8    0.0013    0.0209    0.0003   -0.0014   -0.0008    0.0022   -0.0067    0.0070
           9    0.0058   -0.0005    0.0044   -0.0043    0.0049    0.0018   -0.0056   -0.0006
          10   -0.0043    0.0017   -0.0056    0.0112   -0.0296    0.0145   -0.0215    0.0244
          11    0.0017   -0.0215    0.0043   -0.0065    0.0219   -0.0126    0.0192   -0.0146
          12    0.0006   -0.0002    0.0004   -0.0003    0.0000   -0.0001    0.0001   -0.0002
          13    0.0112    0.0012    0.0202    0.0095    0.0098    0.0224   -0.0084   -0.0065
          14   -0.0026   -0.0007    0.0149    0.0097    0.0172    0.0079   -0.0137   -0.0007
          15   -0.0231   -0.0014    0.0105    0.0177    0.0259   -0.0008   -0.0148    0.0017
          16    0.0044   -0.0236    0.0059   -0.0094    0.0246   -0.0109    0.0077   -0.0293
          17    0.0051    0.0113    0.0007   -0.0031   -0.0054    0.0063   -0.0093   -0.0048
          18   -0.0014    0.0002   -0.0015    0.0009   -0.0013   -0.0003    0.0012    0.0002
          19   -0.0021   -0.0150   -0.0038    0.0071   -0.0149    0.0033    0.0085    0.0138
          20    0.0031   -0.0123    0.0040   -0.0052    0.0109   -0.0039   -0.0014   -0.0108
          21    0.0001    0.0001   -0.0001   -0.0001    0.0002    0.0000    0.0000   -0.0000
          22    0.0130    0.0027    0.0117   -0.0071   -0.0240   -0.0138    0.0182    0.0022
          23   -0.0134    0.0008    0.0065   -0.0059   -0.0130   -0.0263    0.0080    0.0054
          24   -0.0293    0.0000    0.0081   -0.0083   -0.0112   -0.0418    0.0032    0.0093
          25    0.0059   -0.0012   -0.0075   -0.0038    0.0064    0.0316    0.0081    0.0010
          26    0.0010   -0.0020   -0.0086   -0.0112    0.0059    0.0279   -0.0052   -0.0054
          27   -0.0015   -0.0031   -0.0126   -0.0197    0.0078    0.0365   -0.0148   -0.0111
          28    0.0099    0.0009   -0.0079    0.0128    0.0009   -0.0178    0.0085    0.0079
          29    0.0073    0.0008   -0.0013    0.0061   -0.0013   -0.0085    0.0018    0.0014
          30    0.0089    0.0011    0.0020    0.0048   -0.0029   -0.0068   -0.0012   -0.0016
          31    0.0117   -0.1230    0.0022    0.0160   -0.0596    0.0323   -0.0616    0.0083
          32   -0.0131    0.0307   -0.0175    0.0311   -0.0750    0.0353   -0.0319   -0.1702
          33   -0.0053    0.0049   -0.0087    0.0175   -0.0469    0.0240   -0.0306   -0.1426
          34    0.0145   -0.1247    0.0023    0.0159   -0.0746    0.0275   -0.0532    0.0075
          35   -0.0178    0.0314   -0.0207    0.0337   -0.0769    0.0350   -0.0303   -0.1717
          36    0.0057   -0.0037    0.0088   -0.0176    0.0483   -0.0232    0.0295    0.1409
          37   -0.0655   -0.0306    0.0068    0.0971   -0.0652    0.0085    0.0700   -0.0183
          38    0.0448    0.0242   -0.0064   -0.0731    0.0655   -0.0097   -0.0669    0.0448
          39    0.0362   -0.0017   -0.0683   -0.0729   -0.0263   -0.0005   -0.0167   -0.0477
          40   -0.0445    0.0283   -0.0322    0.0427   -0.0599    0.0001    0.0635   -0.0427
          41    0.0458   -0.0136    0.0200   -0.0279    0.0040    0.0141   -0.0240   -0.0292
          42    0.0607   -0.0062    0.0168   -0.0312   -0.0115    0.0226   -0.0216   -0.0338
          43   -0.0019   -0.0241   -0.0036    0.0097   -0.0254    0.0115   -0.0173    0.0235
          44   -0.0171    0.1569   -0.0130    0.0105   -0.0219    0.0134   -0.0114    0.0061
          45   -0.0017    0.0012   -0.0014    0.0010   -0.0006   -0.0001    0.0010    0.0000
          46   -0.1380   -0.0072   -0.0802    0.0988    0.1020    0.0418   -0.0477   -0.0021
          47    0.0426    0.0019    0.0492   -0.0193   -0.0173   -0.0014    0.0056   -0.0035
          48    0.1729    0.0095    0.1460   -0.0962   -0.0886   -0.0202    0.0280   -0.0035
          49   -0.1696   -0.0040    0.1115   -0.1005   -0.0249    0.0758   -0.0003   -0.0112
          50    0.0644   -0.0010   -0.0521    0.0219    0.0171    0.0146   -0.0021   -0.0015
          51    0.2188    0.0002   -0.1622    0.0986    0.0468   -0.0147   -0.0037    0.0039
          52    0.0072    0.1247    0.0005   -0.0122    0.0003    0.0111   -0.0307    0.0131
          53    0.0033   -0.1319    0.0065   -0.0020    0.0205   -0.0154    0.0268   -0.0492
          54    0.0048   -0.0013    0.0051   -0.0031    0.0039    0.0011   -0.0042   -0.0008
          55   -0.0453   -0.0107   -0.1481   -0.1231   -0.0447   -0.0438    0.0267    0.0142
          56    0.0141    0.0057    0.0696    0.0332   -0.0073   -0.0150    0.0037    0.0018
          57    0.0367    0.0169    0.2083    0.1380    0.0119   -0.0069   -0.0018   -0.0050
          58    0.0032    0.1331   -0.0109    0.0109   -0.0531    0.0345   -0.0476    0.0182
          59    0.0058    0.0504    0.0015   -0.0046   -0.0033    0.0086   -0.0255   -0.0117
          60   -0.0003   -0.0001    0.0002    0.0000    0.0002    0.0000   -0.0002   -0.0001
          61   -0.0403   -0.0054   -0.0328   -0.0275   -0.0042   -0.1332   -0.1321   -0.0509
          62   -0.0078   -0.0013   -0.0097   -0.0071   -0.0026   -0.0431   -0.0424   -0.0172
          63    0.0067    0.0005   -0.0005    0.0012   -0.0025   -0.0073   -0.0076   -0.0050
          64    0.0138    0.0042   -0.0102    0.0322   -0.0156   -0.1608   -0.0692   -0.0196
          65    0.0062   -0.0007   -0.0023   -0.0022    0.0056    0.0467    0.0311    0.0119
          66    0.0031   -0.0036    0.0010   -0.0224    0.0192    0.1802    0.0986    0.0339


   Root No.      41        42        43        44        45        46        47        48

                41 A      42 A      43 A      44 A      45 A      46 A      47 A      48 A   

                1368.2    1388.0    1414.0    1462.0    1747.4    1826.5    1839.1    1884.1
  
           1    0.0209   -0.0127    0.0056   -0.0616    0.0035    0.0074   -0.0002   -0.0002
           2    0.0190    0.0047   -0.0318   -0.0275   -0.0115   -0.0026    0.0002    0.0001
           3   -0.0000   -0.0005   -0.0005    0.0005   -0.0002   -0.0002   -0.0000    0.0000
           4   -0.0139   -0.0046    0.0130   -0.0851    0.0224    0.0397    0.0068    0.0094
           5    0.0037   -0.0103   -0.0207    0.0395   -0.0150   -0.0299   -0.0053   -0.0067
           6   -0.0109   -0.0524   -0.0201    0.0212   -0.0022   -0.0047   -0.0151   -0.0187
           7   -0.0187    0.0097    0.0128    0.1218   -0.0482   -0.0747    0.0033    0.0033
           8   -0.0030   -0.0005    0.0246    0.0387    0.0666    0.1936   -0.0099   -0.0077
           9    0.0006    0.0039    0.0023   -0.0038    0.0013    0.0026   -0.0011   -0.0019
          10   -0.0032    0.0083   -0.0254    0.0097    0.0880   -0.0145    0.0005    0.0001
          11    0.0035   -0.0095    0.0419    0.0139    0.1801   -0.0526    0.0021    0.0009
          12    0.0000    0.0001    0.0003   -0.0000    0.0007   -0.0002    0.0000    0.0000
          13    0.0164   -0.0108   -0.0032    0.0077   -0.0005   -0.0083   -0.0802   -0.1373
          14    0.0008    0.0098    0.0068   -0.0101    0.0003    0.0007    0.0066    0.0063
          15   -0.0061    0.0260    0.0123   -0.0142    0.0008    0.0065    0.0585    0.0905
          16   -0.0098    0.0114   -0.0860   -0.0056    0.0161    0.0346   -0.0020   -0.0015
          17    0.0002   -0.0026    0.0176   -0.0477   -0.0363   -0.1635    0.0084    0.0060
          18   -0.0002   -0.0012   -0.0003    0.0006   -0.0004   -0.0012    0.0000    0.0000
          19    0.0140   -0.0177    0.0921   -0.0095   -0.1054    0.0342   -0.0013   -0.0006
          20   -0.0066    0.0039   -0.0196    0.0034   -0.1657    0.0540   -0.0023   -0.0010
          21   -0.0001   -0.0002   -0.0004    0.0002   -0.0006    0.0002   -0.0000   -0.0000
          22   -0.0037   -0.0099   -0.0071    0.0130   -0.0003    0.0071    0.0644    0.1467
          23   -0.0137    0.0122    0.0039   -0.0065    0.0001    0.0001    0.0053   -0.0137
          24   -0.0248    0.0286    0.0123   -0.0227    0.0008   -0.0035   -0.0272   -0.1111
          25   -0.0016   -0.0002   -0.0009    0.0033   -0.0005    0.0047    0.1386   -0.0838
          26    0.0137   -0.0134   -0.0049    0.0075   -0.0002   -0.0001   -0.0049    0.0139
          27    0.0275   -0.0260   -0.0088    0.0121    0.0001   -0.0026   -0.0870    0.0736
          28   -0.0201    0.0220    0.0083   -0.0122    0.0005   -0.0049   -0.1337    0.0647
          29   -0.0035    0.0031    0.0010   -0.0013    0.0000   -0.0001   -0.0046    0.0033
          30    0.0043   -0.0062   -0.0027    0.0043   -0.0002    0.0025    0.0657   -0.0297
          31   -0.0301    0.0125   -0.0035    0.0385    0.0161   -0.0385    0.0016    0.0009
          32   -0.0611   -0.0042    0.0315    0.0120   -0.0138    0.0034   -0.0002   -0.0003
          33   -0.0581   -0.0033    0.0385    0.0355   -0.0058   -0.0042    0.0000   -0.0000
          34   -0.0306    0.0096   -0.0058    0.0436    0.0165   -0.0393    0.0022    0.0018
          35   -0.0620   -0.0056    0.0313    0.0134   -0.0140    0.0030   -0.0001   -0.0002
          36    0.0576    0.0034   -0.0380   -0.0363    0.0058    0.0047   -0.0003   -0.0003
          37    0.0456   -0.0067   -0.0415    0.0102   -0.0073   -0.0215   -0.0122   -0.0197
          38   -0.1026   -0.0985    0.0187   -0.0558    0.0171    0.0372    0.0030    0.0068
          39    0.0975    0.1867    0.0359    0.0104    0.0022    0.0061    0.0137    0.0213
          40    0.1101    0.1294    0.0119    0.1294    0.0026    0.0196   -0.0041   -0.0055
          41    0.0579    0.1073    0.0181   -0.0021   -0.0070   -0.0148    0.0003   -0.0031
          42    0.0700    0.1075    0.0260   -0.0072    0.0026    0.0038   -0.0051   -0.0069
          43   -0.0018    0.0036    0.0001    0.0164    0.1545   -0.0311    0.0012    0.0003
[...]
 T-DIPOLE    0.2261         C  1 -- C  4         +10.1% ( 44.3%)     74.9%
 TRAVEL      0.0877         C  2 -- C  5          +9.5% ( 43.0%)     87.6%
 RED. MASS   0.7433         C  2 -- H 14          +8.3% ( 40.3%)      0.0%
 EFF. MASS   6.5843

 VIBRATION   40   40A         ATOM PAIR      ENERGY CONTRIBUTION    RADIAL
 FREQ.      1363.46         C  1 -- H 12         +20.7% ( 58.9%)      4.7%
 T-DIPOLE    0.3118         C  1 -- H 11         +20.7% ( 58.9%)      4.6%
 TRAVEL      0.0951         C  1 -- C  4         +16.0% ( 51.8%)     99.4%
 RED. MASS   0.8877         C  1 -- C  3         +10.8% ( 42.6%)      5.6%
 EFF. MASS   5.4712

 VIBRATION   41   41A         ATOM PAIR      ENERGY CONTRIBUTION    RADIAL
 FREQ.      1368.15         C  8 -- C  9         +12.1% ( 42.7%)     94.4%
 T-DIPOLE    0.1568         C 10 -- H 21          +8.9% ( 36.5%)      0.9%
 TRAVEL      0.0989         C  2 -- H 13          +8.7% ( 36.1%)      3.4%
 RED. MASS   0.3197         C  2 -- H 14          +8.1% ( 34.8%)      3.1%
 EFF. MASS   5.0396

 VIBRATION   42   42A         ATOM PAIR      ENERGY CONTRIBUTION    RADIAL
 FREQ.      1388.02         C  2 -- H 13         +17.7% ( 54.1%)      4.3%
 T-DIPOLE    0.0760         C  2 -- H 14         +15.9% ( 51.3%)      5.6%
 TRAVEL      0.0917         C  2 -- C  5         +13.5% ( 47.3%)     95.9%
 RED. MASS   0.6368         C  8 -- C  9          +9.0% ( 38.5%)     99.8%
 EFF. MASS   5.7807

 VIBRATION   43   43A         ATOM PAIR      ENERGY CONTRIBUTION    RADIAL
 FREQ.      1414.00         C  6 -- C  7         +24.1% ( 81.3%)     99.9%
 T-DIPOLE    0.3754         C  4 -- C  7         +11.0% ( 54.8%)      0.1%
 TRAVEL      0.0678         C  4 -- C  6         +10.0% ( 52.5%)     99.9%
 RED. MASS   2.4696         C  3 -- C  7          +9.9% ( 52.2%)     93.2%
 EFF. MASS  10.3830

 VIBRATION   44   44A         ATOM PAIR      ENERGY CONTRIBUTION    RADIAL
 FREQ.      1461.96         C  2 -- C  3         +21.1% ( 76.6%)     76.1%
 T-DIPOLE    0.4463         C  1 -- C  3         +17.0% ( 68.6%)     97.8%
 TRAVEL      0.0644         C  3 -- C  6         +13.8% ( 61.8%)     18.3%
 RED. MASS   3.2643         C  3 -- C  7         +10.4% ( 53.8%)     26.2%
 EFF. MASS  11.1179

 VIBRATION   45   45A         ATOM PAIR      ENERGY CONTRIBUTION    RADIAL
 FREQ.      1747.39         C  4 -- C  7         +32.4% ( 96.3%)    100.0%
 T-DIPOLE    0.4070         C  3 -- C  7         +11.3% ( 56.9%)     25.5%
 TRAVEL      0.0568         C  4 -- C  6         +10.2% ( 53.9%)     44.6%
 RED. MASS   4.4395         C  1 -- C  4         +10.1% ( 53.8%)     18.2%
 EFF. MASS  11.9500

 VIBRATION   46   46A         ATOM PAIR      ENERGY CONTRIBUTION    RADIAL
 FREQ.      1826.48         C  3 -- C  6         +30.6% ( 92.1%)     98.0%
 T-DIPOLE    0.2103         C  2 -- C  3         +13.9% ( 62.1%)     68.4%
 TRAVEL      0.0559         C  3 -- C  7         +13.2% ( 60.4%)     98.1%
 RED. MASS   4.5952         C  1 -- C  3         +12.1% ( 57.8%)      0.9%
 EFF. MASS  11.8104

 VIBRATION   47   47A         ATOM PAIR      ENERGY CONTRIBUTION    RADIAL
 FREQ.      1839.06         C  9 -- C 10         +35.8% ( 88.3%)     99.2%
 T-DIPOLE    0.0763         C  8 -- C  9         +12.5% ( 52.2%)     56.5%
 TRAVEL      0.0556         C  9 -- H 17         +11.6% ( 50.3%)      4.8%
 RED. MASS   3.4775         C  5 -- C  8         +10.3% ( 47.3%)     98.6%
 EFF. MASS  11.8426

 VIBRATION   48   48A         ATOM PAIR      ENERGY CONTRIBUTION    RADIAL
 FREQ.      1884.13         C  5 -- C  8         +33.5% ( 85.9%)     95.4%
 T-DIPOLE    0.3957         C  8 -- C  9         +18.5% ( 63.8%)     55.6%
 TRAVEL      0.0551         C  8 -- H 19         +11.7% ( 50.7%)      2.4%
 RED. MASS   3.6983         C  2 -- C  5          +9.6% ( 46.0%)     52.4%
 EFF. MASS  11.7825

 VIBRATION   49   49A         ATOM PAIR      ENERGY CONTRIBUTION    RADIAL
 FREQ.      2936.15         C  2 -- H 14         +57.4% ( 78.6%)     97.3%
 T-DIPOLE    0.0515         C  2 -- H 13         +40.1% ( 65.7%)     95.4%
 TRAVEL      0.1218         C  2 -- C  5          +1.2% ( 11.3%)      0.0%
 RED. MASS   0.5333         C  2 -- C  3          +1.2% ( 11.2%)      0.1%
 EFF. MASS   1.5476

 VIBRATION   50   50A         ATOM PAIR      ENERGY CONTRIBUTION    RADIAL
 FREQ.      2981.19         C  1 -- H 12         +54.1% ( 76.1%)     97.4%
 T-DIPOLE    0.1566         C  1 -- H 11         +43.7% ( 68.4%)     96.2%
 TRAVEL      0.1215         C  1 -- C  4          +1.1% ( 10.7%)      0.1%
 RED. MASS   0.5218         C  1 -- C  3          +1.1% ( 10.7%)      0.1%
 EFF. MASS   1.5317

 VIBRATION   51   51A         ATOM PAIR      ENERGY CONTRIBUTION    RADIAL
 FREQ.      3010.15         C  2 -- H 13         +57.9% ( 75.1%)     98.5%
 T-DIPOLE    0.0678         C  2 -- H 14         +39.7% ( 62.2%)     96.3%
 TRAVEL      0.1321         C  5 -- H 16          +0.8% (  9.0%)     99.5%
 RED. MASS   0.4887         C  2 -- C  5          +0.7% (  8.2%)     29.0%
 EFF. MASS   1.2841

 VIBRATION   52   52A         ATOM PAIR      ENERGY CONTRIBUTION    RADIAL
 FREQ.      3029.27         C  8 -- H 19         +73.7% ( 87.3%)    100.0%
 T-DIPOLE    0.1124         C  9 -- H 17         +22.9% ( 48.7%)    100.0%
 TRAVEL      0.1206         C  8 -- C  9          +1.6% ( 12.9%)     17.3%
 RED. MASS   0.5905         C  5 -- C  8          +1.2% ( 10.9%)     37.1%
 EFF. MASS   1.5315

 VIBRATION   53   53A         ATOM PAIR      ENERGY CONTRIBUTION    RADIAL
 FREQ.      3035.04         C  5 -- H 16         +85.7% ( 93.7%)    100.0%
 T-DIPOLE    0.3751         C  9 -- H 17          +7.8% ( 28.3%)    100.0%
 TRAVEL      0.1224         C  8 -- H 19          +2.4% ( 15.8%)     99.5%
 RED. MASS   0.7246         C  2 -- C  5          +1.1% ( 10.8%)     15.3%
 EFF. MASS   1.4826

 VIBRATION   54   54A         ATOM PAIR      ENERGY CONTRIBUTION    RADIAL
 FREQ.      3038.70         C  9 -- H 17         +65.7% ( 82.2%)    100.0%
 T-DIPOLE    0.2000         C  8 -- H 19         +20.5% ( 45.9%)    100.0%
 TRAVEL      0.1208         C  5 -- H 16          +9.9% ( 31.9%)     99.9%
 RED. MASS   0.4769         C  8 -- C  9          +1.1% ( 10.5%)     23.6%
 EFF. MASS   1.5204

 VIBRATION   55   55A         ATOM PAIR      ENERGY CONTRIBUTION    RADIAL
 FREQ.      3048.76         C  1 -- H 11         +54.1% ( 72.8%)     97.9%
 T-DIPOLE    0.2534         C  1 -- H 12         +43.4% ( 65.1%)     96.5%
 TRAVEL      0.1310         C  5 -- H 16          +0.9% (  9.4%)    100.0%
 RED. MASS   0.4797         C  1 -- C  3          +0.7% (  8.4%)     37.7%
 EFF. MASS   1.2897

 VIBRATION   56   56A         ATOM PAIR      ENERGY CONTRIBUTION    RADIAL
 FREQ.      3133.22         C  7 -- H 20         +58.3% ( 78.3%)    100.0%
 T-DIPOLE    0.1671         C  6 -- H 18         +20.5% ( 46.4%)    100.0%
 TRAVEL      0.1197         C  4 -- H 15         +16.7% ( 41.9%)    100.0%
 RED. MASS   0.4179         C  6 -- C  7          +1.3% ( 11.5%)      2.5%
 EFF. MASS   1.5022

 VIBRATION   57   57A         ATOM PAIR      ENERGY CONTRIBUTION    RADIAL
 FREQ.      3136.68         C 10 -- H 22         +94.5% ( 98.8%)     99.9%
 T-DIPOLE    0.2199         C 10 -- H 21          +4.2% ( 20.7%)     59.7%
 TRAVEL      0.1188         C  9 -- C 10          +1.3% ( 11.7%)     27.4%
 RED. MASS   0.8907
 EFF. MASS   1.5238

 VIBRATION   58   58A         ATOM PAIR      ENERGY CONTRIBUTION    RADIAL
 FREQ.      3137.90         C  6 -- H 18         +68.0% ( 84.5%)    100.0%
 T-DIPOLE    0.5142         C  4 -- H 15         +21.2% ( 47.2%)    100.0%
 TRAVEL      0.1184         C  7 -- H 20          +5.9% ( 25.0%)     99.9%
 RED. MASS   0.5254         C  4 -- C  6          +1.4% ( 12.2%)     34.2%
 EFF. MASS   1.5342

 VIBRATION   59   59A         ATOM PAIR      ENERGY CONTRIBUTION    RADIAL
 FREQ.      3147.96         C 10 -- H 21         +94.3% ( 97.9%)     99.8%
 T-DIPOLE    0.3053         C 10 -- H 22          +3.4% ( 18.6%)     19.0%
 TRAVEL      0.1205         C  9 -- C 10          +1.5% ( 12.5%)     65.8%
 RED. MASS   0.8632         C  9 -- H 17          +0.7% (  8.3%)     94.8%
 EFF. MASS   1.4740

 VIBRATION   60   60A         ATOM PAIR      ENERGY CONTRIBUTION    RADIAL
 FREQ.      3153.66         C  4 -- H 15         +56.7% ( 77.5%)    100.0%
 T-DIPOLE    0.4269         C  7 -- H 20         +30.5% ( 56.9%)     99.9%
 TRAVEL      0.1135         C  6 -- H 18          +6.5% ( 26.1%)    100.0%
 RED. MASS   0.4446         C  4 -- C  7          +2.2% ( 15.4%)     98.0%
 EFF. MASS   1.6586

      SYMMETRY NUMBER FOR POINT-GROUP C1  =  1


          SYSTEM IS A GROUND STATE



 InChI=1S/C10H12/c1-2-3-4-7-10-8-5-6-9-10/h2-6,8H,1,7,9H2


          MOLECULE IS NOT LINEAR

          THERE ARE 60 GENUINE VIBRATIONS IN THIS SYSTEM
          THIS THERMODYNAMICS CALCULATION IS LIMITED TO
          MOLECULES WHICH HAVE NO INTERNAL ROTATIONS




                    CALCULATED THERMODYNAMIC PROPERTIES
                                          *
   TEMP. (K)   PARTITION FUNCTION   H.O.F.    ENTHALPY  HEAT CAPACITY ENTROPY
                                   KCAL/MOL   CAL/MOLE    CAL/K/MOL  CAL/K/MOL


 298.00  VIB.     0.6230D+03                  4399.1188    31.1809    27.5488
         ROT.     0.8580D+06                   888.2813     2.9808    30.1307
         INT.     0.5345D+09                  5287.4001    34.1617    57.6795
         TRA.     0.1470D+28                  1480.4688     4.9680    40.5480
         TOT.                       56.305    6767.8690    39.1297    98.2274

 200.00  VIB.     0.5618D+02                  1930.8368    19.5047    17.6597
         ROT.     0.4717D+06                   596.1620     2.9808    28.9420
         INT.     0.2650D+08                  2526.9987    22.4855    46.6017
         TRA.     0.8080D+27                   993.6033     4.9680    38.5668
         TOT.                       53.058    3520.6020    27.4535    85.1685

 210.00  VIB.     0.7163D+02                  2131.2951    20.5922    18.6375
         ROT.     0.5075D+06                   625.9700     2.9808    29.0874
         INT.     0.3636D+08                  2757.2651    23.5731    47.7249
         TRA.     0.8694D+27                  1043.2834     4.9680    38.8092
         TOT.                       53.338    3800.5486    28.5411    86.5342

 220.00  VIB.     0.9137D+02                  2342.7845    21.7106    19.6212
         ROT.     0.5442D+06                   655.7781     2.9808    29.2261
         INT.     0.4973D+08                  2998.5626    24.6914    48.8473
         TRA.     0.9322D+27                  1092.9636     4.9680    39.0403
         TOT.                       53.629    4091.5262    29.6595    87.8876

 230.00  VIB.     0.1166D+03                  2565.6039    22.8579    20.6114
         ROT.     0.5818D+06                   685.5862     2.9808    29.3586
         INT.     0.6783D+08                  3251.1902    25.8387    49.9700
         TRA.     0.9965D+27                  1142.6437     4.9680    39.2612
         TOT.                       53.931    4393.8339    30.8067    89.2312

 240.00  VIB.     0.1489D+03                  2800.0296    24.0314    21.6090
         ROT.     0.6201D+06                   715.3943     2.9808    29.4855
         INT.     0.9232D+08                  3515.4239    27.0122    51.0944
         TRA.     0.1062D+28                  1192.3239     4.9680    39.4726
         TOT.                       54.245    4707.7478    31.9802    90.5670

 250.00  VIB.     0.1902D+03                  3046.3087    25.2280    22.6142
         ROT.     0.6593D+06                   745.2024     2.9808    29.6071
         INT.     0.1254D+09                  3791.5111    28.2088    52.2213
         TRA.     0.1129D+28                  1242.0041     4.9680    39.6754
         TOT.                       54.571    5033.5152    33.1768    91.8967

 260.00  VIB.     0.2431D+03                  3304.6552    26.4443    23.6273
         ROT.     0.6992D+06                   775.0105     2.9808    29.7240
         INT.     0.1700D+09                  4079.6657    29.4251    53.3513
         TRA.     0.1198D+28                  1291.6842     4.9680    39.8703
         TOT.                       54.909    5371.3500    34.3931    93.2216

 270.00  VIB.     0.3111D+03                  3575.2475    27.6766    24.6483
         ROT.     0.7399D+06                   804.8186     2.9808    29.8365
         INT.     0.2302D+09                  4380.0662    30.6574    54.4849
         TRA.     0.1267D+28                  1341.3644     4.9680    40.0578
         TOT.                       55.259    5721.4306    35.6254    94.5426

 280.00  VIB.     0.3983D+03                  3858.2273    28.9211    25.6773
         ROT.     0.7814D+06                   834.6267     2.9808    29.9449
         INT.     0.3113D+09                  4692.8540    31.9020    55.6223
         TRA.     0.1338D+28                  1391.0445     4.9680    40.2384
         TOT.                       55.621    6083.8986    36.8700    95.8607

 290.00  VIB.     0.5105D+03                  4153.6993    30.1744    26.7141
         ROT.     0.8237D+06                   864.4348     2.9808    30.0495
         INT.     0.4205D+09                  5018.1341    33.1552    56.7636
         TRA.     0.1411D+28                  1440.7247     4.9680    40.4128
         TOT.                       55.996    6458.8589    38.1232    97.1764

 300.00  VIB.     0.6548D+03                  4461.7325    31.4328    27.7582
         ROT.     0.8666D+06                   894.2429     2.9808    30.1506
         INT.     0.5675D+09                  5355.9754    34.4136    57.9088
         TRA.     0.1484D+28                  1490.4049     4.9680    40.5812
         TOT.                       56.384    6846.3803    39.3816    98.4900

 310.00  VIB.     0.8408D+03                  4782.3614    32.6930    28.8094
         ROT.     0.9103D+06                   924.0510     2.9808    30.2483
         INT.     0.7654D+09                  5706.4124    35.6738    59.0578
         TRA.     0.1559D+28                  1540.0850     4.9680    40.7441
         TOT.                       56.784    7246.4975    40.6418    99.8019

 320.00  VIB.     0.1081D+04                  5115.5885    33.9519    29.8673
         ROT.     0.9547D+06                   953.8591     2.9808    30.3430
         INT.     0.1032D+10                  6069.4476    36.9327    60.2103
         TRA.     0.1635D+28                  1589.7652     4.9680    40.9018
         TOT.                       57.197    7659.2128    41.9008   101.1121

 330.00  VIB.     0.1390D+04                  5461.3862    35.2067    30.9313
         ROT.     0.9998D+06                   983.6672     2.9808    30.4347
         INT.     0.1390D+10                  6445.0534    38.1875    61.3660
         TRA.     0.1713D+28                  1639.4454     4.9680    41.0547
         TOT.                       57.622    8084.4988    43.1555   102.4207

 340.00  VIB.     0.1790D+04                  5819.6999    36.4547    32.0008
         ROT.     0.1046D+07                  1013.4753     2.9808    30.5237
         INT.     0.1872D+10                  6833.1752    39.4355    62.5245
         TRA.     0.1791D+28                  1689.1255     4.9680    41.2030
         TOT.                       58.060    8522.3008    44.4035   103.7275

 350.00  VIB.     0.2307D+04                  6190.4504    37.6937    33.0755
         ROT.     0.1092D+07                  1043.2834     2.9808    30.6101
         INT.     0.2520D+10                  7233.7338    40.6745    63.6856
         TRA.     0.1871D+28                  1738.8057     4.9680    41.3470
         TOT.                       58.510    8972.5395    45.6425   105.0326

 360.00  VIB.     0.2977D+04                  6573.5366    38.9216    34.1546
         ROT.     0.1139D+07                  1073.0915     2.9808    30.6941
         INT.     0.3391D+10                  7646.6281    41.9024    64.8487
         TRA.     0.1951D+28                  1788.4859     4.9680    41.4870
         TOT.                       58.973    9435.1140    46.8704   106.3356

 370.00  VIB.     0.3844D+04                  6968.8384    40.1365    35.2376
         ROT.     0.1187D+07                  1102.8996     2.9808    30.7757
         INT.     0.4563D+10                  8071.7380    43.1173    66.0133
         TRA.     0.2033D+28                  1838.1660     4.9680    41.6231
         TOT.                       59.447    9909.9041    48.0854   107.6364

 380.00  VIB.     0.4968D+04                  7376.2192    41.3371    36.3239
         ROT.     0.1235D+07                  1132.7077     2.9808    30.8552
         INT.     0.6138D+10                  8508.9269    44.3179    67.1792
         TRA.     0.2116D+28                  1887.8462     4.9680    41.7556
         TOT.                       59.934   10396.7731    49.2859   108.9348

 390.00  VIB.     0.6428D+04                  7795.5282    42.5220    37.4130
         ROT.     0.1285D+07                  1162.5158     2.9808    30.9327
         INT.     0.8256D+10                  8958.0440    45.5028    68.3457
         TRA.     0.2200D+28                  1937.5263     4.9680    41.8846
         TOT.                       60.433   10895.5703    50.4708   110.2303

 400.00  VIB.     0.8322D+04                  8226.6025    43.6900    38.5044
         ROT.     0.1334D+07                  1192.3239     2.9808    31.0081
         INT.     0.1110D+11                  9418.9264    46.6708    69.5125
         TRA.     0.2285D+28                  1987.2065     4.9680    42.0104
         TOT.                       60.944   11406.1329    51.6389   111.5229

   *: NOTE: HEATS OF FORMATION ARE RELATIVE TO THE
            ELEMENTS IN THEIR STANDARD STATE AT 298K
              (=  Standard Enthalpy of Formation).

            Hvib:  Zero-point energy is not included.
                   frequencies of less than zero cm-1 are not included.
            Hrot = (3/2)RT
            Htra = (3/2)RT + pV = (5/2)RT

            Heat capacity is Cp, not Cv

          For more information, see: HTTP://OpenMOPAC.net/Manual/thermochemistry.html


           FORCE CONSTANT IN CARTESIAN COORDINATES (Millidynes/A)

    ATOM   CHEMICAL       X               Y               Z
   NUMBER   SYMBOL  FORCE CONSTANT  FORCE CONSTANT  FORCE CONSTANT

      1       C        7.687376        9.977623        7.808840
      2       C        9.185227        8.493029        8.414162
      3       C       11.118776       13.903139        2.839629
      4       C       12.769194       11.663688        2.330912
      5       C       13.638098        4.211228        9.104686
      6       C       10.612872       14.579550        2.213897
      7       C       10.151058       15.043653        2.215618
      8       C       13.628472        4.271036        9.687218
      9       C       13.838175        4.200797        9.495926
     10       C       13.650213        3.813800        8.894706
     11       H        0.660329        2.079307        3.537451
     12       H        0.673786        2.026426        3.562862
     13       H        2.902744        2.390776        1.043429
     14       H        0.661019        3.022749        2.469208
     15       H        5.334217        0.795562        0.335863
     16       H        3.215842        1.382301        1.626114
     17       H        3.191173        1.381415        1.646873
     18       H        2.960461        3.138970        0.350301
     19       H        3.179299        1.413611        1.622506
     20       H        1.427656        4.678844        0.352329
     21       H        0.853925        1.213709        4.413729
     22       H        3.548092        1.398737        1.524329

 **********************
 *                    *
 * JOB ENDED NORMALLY *
 *                    *
 **********************



 TOTAL JOB TIME:            12.43 SECONDS

 == MOPAC DONE ==
