 *******************************************************************************
 ** Site#: 14399        For non-commercial use only    Version 18.184L 64BITS **
 *******************************************************************************
 ** Cite this program as: MOPAC2016, Version: 18.184L, James J. P. Stewart,   **
 ** Stewart Computational Chemistry, web: HTTP://OpenMOPAC.net. Days left:  20**
 *******************************************************************************
 **                                                                           **
 **                                MOPAC2016                                  **
 **                                                                           **
 *******************************************************************************

                              PM3 CALCULATION RESULTS

 *******************************************************************************
 *  CALCULATION DONE:                                Thu Jun 13 20:12:31 2019  *
 *  PM3        - The PM3 Hamiltonian to be used
 *  PRECISE    - CRITERIA TO BE INCREASED BY 100 TIMES
 *  NOSYM      - POINT-GROUP SYMMETRY SET TO C1
 *  THREADS=1  - MULTI-THREADING NOT USED
 *  T=         - A TIME OF 172800.0 SECONDS REQUESTED
 *  DUMP=N     - RESTART FILE WRITTEN EVERY  7200.000 SECONDS
 *******************************************************************************
pm3  precise nosym THREADS=1
 InChI=1S/C7H12/c1-4-7(3)5-6(7)2/h4,6H,1,5H2,2-3H3

   ATOM   CHEMICAL          X               Y               Z
  NUMBER   SYMBOL      (ANGSTROMS)     (ANGSTROMS)     (ANGSTROMS)
 
     1       C          0.27000000  *  -0.40690000  *  -0.08600000  *
     2       C         -1.24610000  *  -0.44500000  *   0.13050000  *
     3       C         -0.30810000  *  -0.26430000  *   1.32320000  *
     4       C          0.95110000  *  -1.74330000  *  -0.38950000  *
     5       C         -2.06330000  *   0.79910000  *  -0.23580000  *
     6       C          0.88440000  *   0.84070000  *  -0.66860000  *
     7       C          1.95260000  *   1.41620000  *  -0.11120000  *
     8       H         -1.73340000  *  -1.44210000  *   0.07230000  *
     9       H         -0.22750000  *  -1.16520000  *   1.96830000  *
    10       H         -0.27310000  *   0.75900000  *   1.75620000  *
    11       H          0.97490000  *  -1.90330000  *  -1.48770000  *
    12       H          0.41770000  *  -2.59800000  *   0.07960000  *
    13       H         -1.55520000  *   1.74830000  *   0.03780000  *
    14       H         -3.03670000  *   0.76070000  *   0.29550000  *
    15       H          1.99310000  *  -1.72460000  *  -0.00690000  *
    16       H         -2.25690000  *   0.79810000  *  -1.32850000  *
    17       H          0.46990000  *   1.25930000  *  -1.58060000  *
    18       H          2.39950000  *   1.00710000  *   0.79000000  *
    19       H          2.38680000  *   2.30410000  *  -0.55880000  *
 


          CARTESIAN COORDINATES 

    NO.       ATOM           X           Y           Z

     1         C          0.2700     -0.4069     -0.0860
     2         C         -1.2461     -0.4450      0.1305
     3         C         -0.3081     -0.2643      1.3232
     4         C          0.9511     -1.7433     -0.3895
     5         C         -2.0633      0.7991     -0.2358
     6         C          0.8844      0.8407     -0.6686
     7         C          1.9526      1.4162     -0.1112
     8         H         -1.7334     -1.4421      0.0723
     9         H         -0.2275     -1.1652      1.9683
    10         H         -0.2731      0.7590      1.7562
    11         H          0.9749     -1.9033     -1.4877
    12         H          0.4177     -2.5980      0.0796
    13         H         -1.5552      1.7483      0.0378
    14         H         -3.0367      0.7607      0.2955
    15         H          1.9931     -1.7246     -0.0069
    16         H         -2.2569      0.7981     -1.3285
    17         H          0.4699      1.2593     -1.5806
    18         H          2.3995      1.0071      0.7900
    19         H          2.3868      2.3041     -0.5588

  H: (PM3): J. J. P. STEWART, J. COMP. CHEM. 10, 209 (1989).
  C: (PM3): J. J. P. STEWART, J. COMP. CHEM. 10, 209 (1989).

           Empirical Formula: C7 H12  =    19 atoms



      MOLECULAR POINT GROUP   :   C1  


      RHF CALCULATION, NO. OF DOUBLY OCCUPIED LEVELS = 20


          Geometry optimization using EF

          DIAGONAL MATRIX USED AS START HESSIAN

 CYCLE:     1 TIME:   0.023 TIME LEFT:  2.00D  GRAD.:    82.744 HEAT:  27.22563
 CYCLE:     2 TIME:   0.031 TIME LEFT:  2.00D  GRAD.:   117.637 HEAT:  26.01678
 CYCLE:     3 TIME:   0.023 TIME LEFT:  2.00D  GRAD.:    93.176 HEAT:  24.06044
 CYCLE:     4 TIME:   0.039 TIME LEFT:  2.00D  GRAD.:    38.085 HEAT:  22.20933
 CYCLE:     5 TIME:   0.023 TIME LEFT:  2.00D  GRAD.:    45.863 HEAT:  21.76279
 CYCLE:     6 TIME:   0.031 TIME LEFT:  2.00D  GRAD.:    47.370 HEAT:  21.53682
 CYCLE:     7 TIME:   0.023 TIME LEFT:  2.00D  GRAD.:    29.959 HEAT:  21.16837
 CYCLE:     8 TIME:   0.031 TIME LEFT:  2.00D  GRAD.:    35.074 HEAT:  21.09606
 CYCLE:     9 TIME:   0.023 TIME LEFT:  2.00D  GRAD.:    26.159 HEAT:  20.89183
 CYCLE:    10 TIME:   0.070 TIME LEFT:  2.00D  GRAD.:    15.514 HEAT:  20.74098
 CYCLE:    11 TIME:   0.031 TIME LEFT:  2.00D  GRAD.:    11.811 HEAT:  20.67852
 CYCLE:    12 TIME:   0.023 TIME LEFT:  2.00D  GRAD.:    10.984 HEAT:  20.61927
 CYCLE:    13 TIME:   0.023 TIME LEFT:  2.00D  GRAD.:    11.663 HEAT:  20.54643
 CYCLE:    14 TIME:   0.023 TIME LEFT:  2.00D  GRAD.:    15.324 HEAT:  20.49706
 CYCLE:    15 TIME:   0.023 TIME LEFT:  2.00D  GRAD.:    17.924 HEAT:  20.47377
 CYCLE:    16 TIME:   0.031 TIME LEFT:  2.00D  GRAD.:    12.239 HEAT:  20.41370
 CYCLE:    17 TIME:   0.023 TIME LEFT:  2.00D  GRAD.:    12.790 HEAT:  20.39951
 CYCLE:    18 TIME:   0.023 TIME LEFT:  2.00D  GRAD.:     9.428 HEAT:  20.36208
 CYCLE:    19 TIME:   0.023 TIME LEFT:  2.00D  GRAD.:    11.075 HEAT:  20.35652
 CYCLE:    20 TIME:   0.023 TIME LEFT:  2.00D  GRAD.:     5.860 HEAT:  20.31605
 CYCLE:    21 TIME:   0.023 TIME LEFT:  2.00D  GRAD.:     6.007 HEAT:  20.30330
 CYCLE:    22 TIME:   0.023 TIME LEFT:  2.00D  GRAD.:     5.792 HEAT:  20.28842
 CYCLE:    23 TIME:   0.023 TIME LEFT:  2.00D  GRAD.:     5.082 HEAT:  20.27873
 CYCLE:    24 TIME:   0.023 TIME LEFT:  2.00D  GRAD.:     3.445 HEAT:  20.26976
 CYCLE:    25 TIME:   0.023 TIME LEFT:  2.00D  GRAD.:     1.989 HEAT:  20.26538
 CYCLE:    26 TIME:   0.023 TIME LEFT:  2.00D  GRAD.:     1.470 HEAT:  20.26218
 CYCLE:    27 TIME:   0.023 TIME LEFT:  2.00D  GRAD.:     1.525 HEAT:  20.25858
 CYCLE:    28 TIME:   0.023 TIME LEFT:  2.00D  GRAD.:     1.715 HEAT:  20.25758
 CYCLE:    29 TIME:   0.016 TIME LEFT:  2.00D  GRAD.:     0.899 HEAT:  20.25590
 CYCLE:    30 TIME:   0.023 TIME LEFT:  2.00D  GRAD.:     0.842 HEAT:  20.25477
 CYCLE:    31 TIME:   0.023 TIME LEFT:  2.00D  GRAD.:     0.806 HEAT:  20.25367
 CYCLE:    32 TIME:   0.023 TIME LEFT:  2.00D  GRAD.:     0.767 HEAT:  20.25278
 CYCLE:    33 TIME:   0.023 TIME LEFT:  2.00D  GRAD.:     0.747 HEAT:  20.25190
 CYCLE:    34 TIME:   0.023 TIME LEFT:  2.00D  GRAD.:     0.785 HEAT:  20.25070
 CYCLE:    35 TIME:   0.023 TIME LEFT:  2.00D  GRAD.:     0.752 HEAT:  20.24920
 CYCLE:    36 TIME:   0.023 TIME LEFT:  2.00D  GRAD.:     0.783 HEAT:  20.24855
 CYCLE:    37 TIME:   0.023 TIME LEFT:  2.00D  GRAD.:     0.480 HEAT:  20.24786
 CYCLE:    38 TIME:   0.023 TIME LEFT:  2.00D  GRAD.:     0.513 HEAT:  20.24711
 CYCLE:    39 TIME:   0.016 TIME LEFT:  2.00D  GRAD.:     0.545 HEAT:  20.24657
 CYCLE:    40 TIME:   0.023 TIME LEFT:  2.00D  GRAD.:     0.634 HEAT:  20.24570
 CYCLE:    41 TIME:   0.023 TIME LEFT:  2.00D  GRAD.:     0.555 HEAT:  20.24520
 CYCLE:    42 TIME:   0.023 TIME LEFT:  2.00D  GRAD.:     0.695 HEAT:  20.24426
 CYCLE:    43 TIME:   0.023 TIME LEFT:  2.00D  GRAD.:     0.512 HEAT:  20.24381
 CYCLE:    44 TIME:   0.023 TIME LEFT:  2.00D  GRAD.:     0.355 HEAT:  20.24294
 CYCLE:    45 TIME:   0.023 TIME LEFT:  2.00D  GRAD.:     0.384 HEAT:  20.24243
 CYCLE:    46 TIME:   0.023 TIME LEFT:  2.00D  GRAD.:     0.302 HEAT:  20.24215
 CYCLE:    47 TIME:   0.023 TIME LEFT:  2.00D  GRAD.:     0.300 HEAT:  20.24188
 CYCLE:    48 TIME:   0.023 TIME LEFT:  2.00D  GRAD.:     0.335 HEAT:  20.24165
 CYCLE:    49 TIME:   0.023 TIME LEFT:  2.00D  GRAD.:     0.611 HEAT:  20.24104
 CYCLE:    50 TIME:   0.023 TIME LEFT:  2.00D  GRAD.:     0.474 HEAT:  20.24067
 CYCLE:    51 TIME:   0.023 TIME LEFT:  2.00D  GRAD.:     0.407 HEAT:  20.23996
 CYCLE:    52 TIME:   0.016 TIME LEFT:  2.00D  GRAD.:     0.404 HEAT:  20.23967
 CYCLE:    53 TIME:   0.023 TIME LEFT:  2.00D  GRAD.:     0.557 HEAT:  20.23811
 CYCLE:    54 TIME:   0.023 TIME LEFT:  2.00D  GRAD.:     0.443 HEAT:  20.23770
 CYCLE:    55 TIME:   0.023 TIME LEFT:  2.00D  GRAD.:     0.560 HEAT:  20.23682
 CYCLE:    56 TIME:   0.023 TIME LEFT:  2.00D  GRAD.:     0.463 HEAT:  20.23642
 CYCLE:    57 TIME:   0.023 TIME LEFT:  2.00D  GRAD.:     0.423 HEAT:  20.23568
 CYCLE:    58 TIME:   0.023 TIME LEFT:  2.00D  GRAD.:     0.509 HEAT:  20.23501
 CYCLE:    59 TIME:   0.023 TIME LEFT:  2.00D  GRAD.:     0.481 HEAT:  20.23453
 CYCLE:    60 TIME:   0.023 TIME LEFT:  2.00D  GRAD.:     0.432 HEAT:  20.23387
 CYCLE:    61 TIME:   0.023 TIME LEFT:  2.00D  GRAD.:     0.374 HEAT:  20.23350
 CYCLE:    62 TIME:   0.023 TIME LEFT:  2.00D  GRAD.:     0.481 HEAT:  20.23289
 CYCLE:    63 TIME:   0.023 TIME LEFT:  2.00D  GRAD.:     0.402 HEAT:  20.23268
 CYCLE:    64 TIME:   0.023 TIME LEFT:  2.00D  GRAD.:     0.507 HEAT:  20.23185
 CYCLE:    65 TIME:   0.016 TIME LEFT:  2.00D  GRAD.:     0.448 HEAT:  20.23144
 CYCLE:    66 TIME:   0.023 TIME LEFT:  2.00D  GRAD.:     0.309 HEAT:  20.23069
 CYCLE:    67 TIME:   0.023 TIME LEFT:  2.00D  GRAD.:     0.250 HEAT:  20.23052
 CYCLE:    68 TIME:   0.023 TIME LEFT:  2.00D  GRAD.:     0.274 HEAT:  20.23026
 CYCLE:    69 TIME:   0.023 TIME LEFT:  2.00D  GRAD.:     0.288 HEAT:  20.23013
 CYCLE:    70 TIME:   0.023 TIME LEFT:  2.00D  GRAD.:     0.638 HEAT:  20.22911
 CYCLE:    71 TIME:   0.023 TIME LEFT:  2.00D  GRAD.:     0.724 HEAT:  20.22812
 CYCLE:    72 TIME:   0.023 TIME LEFT:  2.00D  GRAD.:     3.528 HEAT:  20.22935
 CYCLE:    73 TIME:   0.023 TIME LEFT:  2.00D  GRAD.:     0.826 HEAT:  20.22386
 CYCLE:    74 TIME:   0.023 TIME LEFT:  2.00D  GRAD.:     0.820 HEAT:  20.22125
 CYCLE:    75 TIME:   0.023 TIME LEFT:  2.00D  GRAD.:     3.405 HEAT:  20.21561
 CYCLE:    76 TIME:   0.023 TIME LEFT:  2.00D  GRAD.:     0.735 HEAT:  20.21183
 CYCLE:    77 TIME:   0.023 TIME LEFT:  2.00D  GRAD.:     0.787 HEAT:  20.20899
 CYCLE:    78 TIME:   0.023 TIME LEFT:  2.00D  GRAD.:     2.257 HEAT:  20.20574
 CYCLE:    79 TIME:   0.016 TIME LEFT:  2.00D  GRAD.:     0.852 HEAT:  20.20311
 CYCLE:    80 TIME:   0.023 TIME LEFT:  2.00D  GRAD.:     0.824 HEAT:  20.19993
 CYCLE:    81 TIME:   0.023 TIME LEFT:  2.00D  GRAD.:     1.008 HEAT:  20.19620
 CYCLE:    82 TIME:   0.023 TIME LEFT:  2.00D  GRAD.:     1.675 HEAT:  20.19229
 CYCLE:    83 TIME:   0.023 TIME LEFT:  2.00D  GRAD.:     1.572 HEAT:  20.18914
 CYCLE:    84 TIME:   0.023 TIME LEFT:  2.00D  GRAD.:     1.261 HEAT:  20.18558
 CYCLE:    85 TIME:   0.023 TIME LEFT:  2.00D  GRAD.:     1.352 HEAT:  20.17996
 CYCLE:    86 TIME:   0.023 TIME LEFT:  2.00D  GRAD.:     1.743 HEAT:  20.17768
 CYCLE:    87 TIME:   0.023 TIME LEFT:  2.00D  GRAD.:     0.968 HEAT:  20.17550
 CYCLE:    88 TIME:   0.023 TIME LEFT:  2.00D  GRAD.:     0.615 HEAT:  20.17376
 CYCLE:    89 TIME:   0.023 TIME LEFT:  2.00D  GRAD.:     0.539 HEAT:  20.17261
 CYCLE:    90 TIME:   0.023 TIME LEFT:  2.00D  GRAD.:     0.353 HEAT:  20.17207
 CYCLE:    91 TIME:   0.023 TIME LEFT:  2.00D  GRAD.:     0.305 HEAT:  20.17184
 CYCLE:    92 TIME:   0.016 TIME LEFT:  2.00D  GRAD.:     0.262 HEAT:  20.17176
 CYCLE:    93 TIME:   0.023 TIME LEFT:  2.00D  GRAD.:     0.226 HEAT:  20.17171
 CYCLE:    94 TIME:   0.023 TIME LEFT:  2.00D  GRAD.:     0.189 HEAT:  20.17163
 CYCLE:    95 TIME:   0.023 TIME LEFT:  2.00D  GRAD.:     0.171 HEAT:  20.17156
 CYCLE:    96 TIME:   0.023 TIME LEFT:  2.00D  GRAD.:     0.123 HEAT:  20.17152
 CYCLE:    97 TIME:   0.023 TIME LEFT:  2.00D  GRAD.:     0.128 HEAT:  20.17149
 CYCLE:    98 TIME:   0.023 TIME LEFT:  2.00D  GRAD.:     0.121 HEAT:  20.17146
 CYCLE:    99 TIME:   0.023 TIME LEFT:  2.00D  GRAD.:     0.085 HEAT:  20.17144
 CYCLE:   100 TIME:   0.023 TIME LEFT:  2.00D  GRAD.:     0.062 HEAT:  20.17142
 CYCLE:   101 TIME:   0.023 TIME LEFT:  2.00D  GRAD.:     0.050 HEAT:  20.17141

     GRADIENT =  0.04961  IS LESS THAN CUTOFF =  0.05000



 -------------------------------------------------------------------------------
 pm3  precise nosym THREADS=1
 InChI=1S/C7H12/c1-4-7(3)5-6(7)2/h4,6H,1,5H2,2-3H3



     GEOMETRY OPTIMISED USING EIGENVECTOR FOLLOWING (EF).     
     SCF FIELD WAS ACHIEVED                                   


                              PM3 CALCULATION
                                                       MOPAC2016 (Version: 18.184L)
                                                       Thu Jun 13 20:12:33 2019
                                                       No. of days remaining =  20




          FINAL HEAT OF FORMATION =         20.17141 KCAL/MOL =      84.39718 KJ/MOL


          TOTAL ENERGY            =      -1013.60034 EV
          ELECTRONIC ENERGY       =      -4927.74074 EV  POINT GROUP:     C1  
          CORE-CORE REPULSION     =       3914.14040 EV
          COSMO AREA              =        152.91 SQUARE ANGSTROMS
          COSMO VOLUME            =        151.48 CUBIC ANGSTROMS

          GRADIENT NORM           =          0.04961 = 0.01138 PER ATOM
          IONIZATION POTENTIAL    =         10.152651 EV
          HOMO LUMO ENERGIES (EV) =        -10.153  1.142
          NO. OF FILLED LEVELS    =         20
          MOLECULAR WEIGHT        =         96.1718

          MOLECULAR DIMENSIONS (Angstroms)

            Atom       Atom       Distance
            H    15    H    14     5.59048
            H    19    H    12     5.29275
            H    17    H     9     3.52182


          SCF CALCULATIONS        =        108
 
          WALL-CLOCK TIME         =          2.469 SECONDS
          COMPUTATION TIME        =          0.762 SECONDS




   ATOM   CHEMICAL          X               Y               Z
  NUMBER   SYMBOL      (ANGSTROMS)     (ANGSTROMS)     (ANGSTROMS)
 
     1       C          0.28430237  *  -0.43318330  *  -0.05186491  *
     2       C         -1.21552636  *  -0.38757779  *   0.16847373  *
     3       C         -0.27839096  *  -0.30083227  *   1.33902153  *
     4       C          0.90668442  *  -1.74087835  *  -0.45929450  *
     5       C         -2.01715104  *   0.80855481  *  -0.23635469  *
     6       C          0.96251406  *   0.71739121  *  -0.69377451  *
     7       C          1.81816271  *   1.50993571  *  -0.05987028  *
     8       H         -1.77614361  *  -1.33107196  *   0.02393236  *
     9       H         -0.20110446  *  -1.14008158  *   2.03921379  *
    10       H         -0.16695489  *   0.64751948  *   1.87857309  *
    11       H          0.88493472  *  -1.86135976  *  -1.55009299  *
    12       H          0.38210033  *  -2.59888746  *  -0.01822745  *
    13       H         -1.45105565  *   1.74411808  *  -0.12989423  *
    14       H         -2.92138301  *   0.89477548  *   0.37960309  *
    15       H          1.95480853  *  -1.79019304  *  -0.13731254  *
    16       H         -2.33166325  *   0.73130442  *  -1.28508545  *
    17       H          0.72212068  *   0.86056422  *  -1.75435478  *
    18       H          2.07159092  *   1.38985962  *   0.99010145  *
    19       H          2.32282464  *   2.33656102  *  -0.55023778  *

                             CARTESIAN COORDINATES

   1    C        0.284302369    -0.433183301    -0.051864912
   2    C       -1.215526355    -0.387577791     0.168473725
   3    C       -0.278390957    -0.300832272     1.339021530
   4    C        0.906684422    -1.740878355    -0.459294501
   5    C       -2.017151042     0.808554807    -0.236354686
   6    C        0.962514059     0.717391206    -0.693774511
   7    C        1.818162710     1.509935711    -0.059870277
   8    H       -1.776143615    -1.331071963     0.023932363
   9    H       -0.201104462    -1.140081583     2.039213789
  10    H       -0.166954888     0.647519479     1.878573091
  11    H        0.884934717    -1.861359756    -1.550092989
  12    H        0.382100330    -2.598887461    -0.018227454
  13    H       -1.451055646     1.744118076    -0.129894233
  14    H       -2.921383007     0.894775476     0.379603090
  15    H        1.954808531    -1.790193038    -0.137312536
  16    H       -2.331663249     0.731304422    -1.285085453
  17    H        0.722120677     0.860564219    -1.754354778
  18    H        2.071590919     1.389859622     0.990101447
  19    H        2.322824644     2.336561019    -0.550237781


           Empirical Formula: C7 H12  =    19 atoms



      MOLECULAR POINT GROUP   :   C1  


                  EIGENVALUES  
 -41.10766 -32.12384 -29.98849 -27.00949 -22.20162 -20.55170 -18.23542 -16.55613
 -16.44199 -15.83900 -14.37092 -13.97009 -13.58927 -13.28059 -13.19232 -12.36098
 -12.07686 -11.26937 -10.81448 -10.15265   1.14220   2.78268   3.14542   3.27552
   3.42587   3.79846   3.90162   4.11210   4.17355   4.26024   4.41683   4.43599
   4.58127   4.71468   4.83544   5.05555   5.09767   5.18889   5.69303   5.89180


              NET ATOMIC CHARGES AND DIPOLE CONTRIBUTIONS

  ATOM NO.   TYPE          CHARGE      No. of ELECS.   s-Pop       p-Pop       
    1          C          -0.083133        4.0831     1.17082     2.91231
    2          C          -0.123515        4.1235     1.17700     2.94651
    3          C          -0.150308        4.1503     1.16642     2.98389
    4          C          -0.071007        4.0710     1.13101     2.94000
    5          C          -0.083258        4.0833     1.12986     2.95339
    6          C          -0.097610        4.0976     1.18349     2.91412
    7          C          -0.161689        4.1617     1.18155     2.98014
    8          H           0.092194        0.9078     0.90781
    9          H           0.078397        0.9216     0.92160
   10          H           0.083927        0.9161     0.91607
   11          H           0.042058        0.9579     0.95794
   12          H           0.040074        0.9599     0.95993
   13          H           0.044904        0.9551     0.95510
   14          H           0.041117        0.9589     0.95888
   15          H           0.043582        0.9564     0.95642
   16          H           0.040461        0.9595     0.95954
   17          H           0.099885        0.9001     0.90012
   18          H           0.084231        0.9158     0.91577
   19          H           0.079691        0.9203     0.92031
 DIPOLE           X         Y         Z       TOTAL
 POINT-CHG.    -0.095    -0.063    -0.087     0.143
 HYBRID         0.024    -0.001     0.033     0.041
 SUM           -0.071    -0.063    -0.054     0.109


          ATOMIC ORBITAL ELECTRON POPULATIONS

     Atom    s        px        py        pz   
    1  C   1.17082   0.95650   0.96270   0.99311
    2  C   1.17700   0.91917   1.00189   1.02546
    3  C   1.16642   1.03726   1.03275   0.91388
    4  C   1.13101   0.99775   0.93784   1.00440
    5  C   1.12986   0.98787   0.96373   1.00180
    6  C   1.18349   0.97456   0.95280   0.98677
    7  C   1.18155   0.98667   0.98984   1.00363
    8  H   0.90781
    9  H   0.92160
   10  H   0.91607
   11  H   0.95794
   12  H   0.95993
   13  H   0.95510
   14  H   0.95888
   15  H   0.95642
   16  H   0.95954
   17  H   0.90012
   18  H   0.91577
   19  H   0.92031
 *******************************************************************************
 ** Site#: 14399        For non-commercial use only    Version 18.184L 64BITS **
 *******************************************************************************
 ** Cite this program as: MOPAC2016, Version: 18.184L, James J. P. Stewart,   **
 ** Stewart Computational Chemistry, web: HTTP://OpenMOPAC.net. Days left:  20**
 *******************************************************************************
 **                                                                           **
 **                                MOPAC2016                                  **
 **                                                                           **
 *******************************************************************************

                              PM3 CALCULATION RESULTS

 *******************************************************************************
 *  CALCULATION DONE:                                Thu Jun 13 20:12:33 2019  *
 *  PM3        - The PM3 Hamiltonian to be used
 *  OLDGEO     - PREVIOUS GEOMETRY TO BE USED
 *  PRECISE    - CRITERIA TO BE INCREASED BY 100 TIMES
 *  NOSYM      - POINT-GROUP SYMMETRY SET TO C1
 *  THREADS=1  - MULTI-THREADING NOT USED
 *  T=         - A TIME OF 172800.0 SECONDS REQUESTED
 *  DUMP=N     - RESTART FILE WRITTEN EVERY  7200.000 SECONDS
 *  THERMO     - THERMODYNAMIC QUANTITIES TO BE CALCULATED
 *******************************************************************************
oldgeo thermo nosym precise THREADS=1  pm3
 InChI=1S/C7H12/c1-4-7(3)5-6(7)2/h4,6H,1,5H2,2-3H3

   ATOM   CHEMICAL          X               Y               Z
  NUMBER   SYMBOL      (ANGSTROMS)     (ANGSTROMS)     (ANGSTROMS)
 
     1       C          0.28430237  *  -0.43318330  *  -0.05186491  *
     2       C         -1.21552636  *  -0.38757779  *   0.16847373  *
     3       C         -0.27839096  *  -0.30083227  *   1.33902153  *
     4       C          0.90668442  *  -1.74087835  *  -0.45929450  *
     5       C         -2.01715104  *   0.80855481  *  -0.23635469  *
     6       C          0.96251406  *   0.71739121  *  -0.69377451  *
     7       C          1.81816271  *   1.50993571  *  -0.05987028  *
     8       H         -1.77614361  *  -1.33107196  *   0.02393236  *
     9       H         -0.20110446  *  -1.14008158  *   2.03921379  *
    10       H         -0.16695489  *   0.64751948  *   1.87857309  *
    11       H          0.88493472  *  -1.86135976  *  -1.55009299  *
    12       H          0.38210033  *  -2.59888746  *  -0.01822745  *
    13       H         -1.45105565  *   1.74411808  *  -0.12989423  *
    14       H         -2.92138301  *   0.89477548  *   0.37960309  *
    15       H          1.95480853  *  -1.79019304  *  -0.13731254  *
    16       H         -2.33166325  *   0.73130442  *  -1.28508545  *
    17       H          0.72212068  *   0.86056422  *  -1.75435478  *
    18       H          2.07159092  *   1.38985962  *   0.99010145  *
    19       H          2.32282464  *   2.33656102  *  -0.55023778  *
 


          CARTESIAN COORDINATES 

    NO.       ATOM           X           Y           Z

     1         C          0.2843     -0.4332     -0.0519
     2         C         -1.2155     -0.3876      0.1685
     3         C         -0.2784     -0.3008      1.3390
     4         C          0.9067     -1.7409     -0.4593
     5         C         -2.0172      0.8086     -0.2364
     6         C          0.9625      0.7174     -0.6938
     7         C          1.8182      1.5099     -0.0599
     8         H         -1.7761     -1.3311      0.0239
     9         H         -0.2011     -1.1401      2.0392
    10         H         -0.1670      0.6475      1.8786
    11         H          0.8849     -1.8614     -1.5501
    12         H          0.3821     -2.5989     -0.0182
    13         H         -1.4511      1.7441     -0.1299
    14         H         -2.9214      0.8948      0.3796
    15         H          1.9548     -1.7902     -0.1373
    16         H         -2.3317      0.7313     -1.2851
    17         H          0.7221      0.8606     -1.7544
    18         H          2.0716      1.3899      0.9901
    19         H          2.3228      2.3366     -0.5502

  H: (PM3): J. J. P. STEWART, J. COMP. CHEM. 10, 209 (1989).
  C: (PM3): J. J. P. STEWART, J. COMP. CHEM. 10, 209 (1989).

           Empirical Formula: C7 H12  =    19 atoms



      MOLECULAR POINT GROUP   :   C1  


      RHF CALCULATION, NO. OF DOUBLY OCCUPIED LEVELS = 20



          HEAT OF FORMATION =      20.171410 KCALS/MOLE


          CARTESIAN COORDINATE DERIVATIVES

   NUMBER  ATOM         X            Y            Z

     1       C      0.002101    -0.001894    -0.002476
     2       C     -0.001886    -0.000167    -0.004319
     3       C     -0.000665    -0.001506    -0.002405
     4       C     -0.003201    -0.002756    -0.002803
     5       C      0.001851     0.001523    -0.003816
     6       C     -0.001022     0.011572    -0.012082
     7       C      0.000683     0.013689     0.003783
     8       H      0.007990    -0.002565    -0.002022
     9       H     -0.002194     0.004514     0.006811
    10       H      0.003739    -0.001712     0.011335
    11       H     -0.020380     0.002478     0.011018
    12       H      0.010568    -0.008781    -0.002910
    13       H     -0.002112    -0.001887     0.000168
    14       H     -0.010093     0.006511     0.004660
    15       H      0.006159     0.000887    -0.004196
    16       H      0.015185    -0.002465    -0.004757
    17       H     -0.003358    -0.014222     0.004089
    18       H     -0.010330    -0.000876     0.002817
    19       H      0.006964    -0.002342    -0.002894
 


          GRADIENT NORM =   0.05003


          TIME FOR SCF CALCULATION =    0.02

          TIME FOR DERIVATIVES     =    0.01

          MOLECULAR WEIGHT =   96.17



          ROTATIONAL CONSTANTS IN CM(-1)

          A =    0.10755400   B =    0.07972975   C =    0.06049226



           PRINCIPAL MOMENTS OF INERTIA IN UNITS OF 10**(-40)*GRAM-CM**2

          A =      260.2672   B =      351.0957   C =      462.7497


          ORIENTATION OF MOLECULE IN FORCE CALCULATION

    NO.       ATOM         X         Y         Z

     1          C      -0.2507   -0.0547   -0.4432
     2          C       1.2659   -0.0547   -0.4432
     3          C       0.5118    1.2442   -0.4432
     4          C      -0.9647   -0.4747   -1.6991
     5          C       2.0358   -0.4710    0.7697
     6          C      -0.9800   -0.4905    0.7708
     7          C      -1.7103    0.3271    1.5195
     8          H       1.7710   -0.3593   -1.3800
     9          H       0.5119    1.8749   -1.3392
    10          H       0.5086    1.8723    0.4559
    11          H      -1.1053   -1.5630   -1.7238
    12          H      -0.4076   -0.1896   -2.6015
    13          H       1.5196   -0.2039    1.7020
    14          H       3.0222    0.0100    0.7858
    15          H      -1.9559   -0.0071   -1.7583
    16          H       2.1922   -1.5574    0.7793
    17          H      -0.8921   -1.5590    1.0023
    18          H      -1.8120    1.3890    1.3122
    19          H      -2.2558   -0.0122    2.3946


    FIRST DERIVATIVES WILL BE USED IN THE CALCULATION OF SECOND DERIVATIVES

          ESTIMATED TIME TO COMPLETE CALCULATION =        7.12 SECONDS

    FOR POINT-GROUP C1   THERE ARE   1 UNIQUE SYMMETRY FUNCTIONS.

 STEP:   1 TIME =     0.05 SECS, INTEGRAL =      0.05 TIME LEFT: 172799.91
 STEP:   2 TIME =     0.05 SECS, INTEGRAL =      0.10 TIME LEFT: 172799.87
 STEP:   3 TIME =     0.04 SECS, INTEGRAL =      0.14 TIME LEFT: 172799.83
 STEP:   4 TIME =     0.04 SECS, INTEGRAL =      0.18 TIME LEFT: 172799.79
 STEP:   5 TIME =     0.03 SECS, INTEGRAL =      0.21 TIME LEFT: 172799.76
 STEP:   6 TIME =     0.03 SECS, INTEGRAL =      0.24 TIME LEFT: 172799.73
 STEP:   7 TIME =     0.03 SECS, INTEGRAL =      0.27 TIME LEFT: 172799.70
 STEP:   8 TIME =     0.04 SECS, INTEGRAL =      0.31 TIME LEFT: 172799.66
 STEP:   9 TIME =     0.03 SECS, INTEGRAL =      0.34 TIME LEFT: 172799.62
 STEP:  10 TIME =     0.03 SECS, INTEGRAL =      0.38 TIME LEFT: 172799.59
 STEP:  11 TIME =     0.03 SECS, INTEGRAL =      0.41 TIME LEFT: 172799.56
 STEP:  12 TIME =     0.04 SECS, INTEGRAL =      0.45 TIME LEFT: 172799.52
 STEP:  13 TIME =     0.04 SECS, INTEGRAL =      0.48 TIME LEFT: 172799.48
 STEP:  14 TIME =     0.03 SECS, INTEGRAL =      0.52 TIME LEFT: 172799.45
 STEP:  15 TIME =     0.03 SECS, INTEGRAL =      0.55 TIME LEFT: 172799.42
 STEP:  16 TIME =     0.03 SECS, INTEGRAL =      0.58 TIME LEFT: 172799.39
 STEP:  17 TIME =     0.03 SECS, INTEGRAL =      0.61 TIME LEFT: 172799.36
 STEP:  18 TIME =     0.04 SECS, INTEGRAL =      0.65 TIME LEFT: 172799.32
 STEP:  19 TIME =     0.04 SECS, INTEGRAL =      0.69 TIME LEFT: 172799.28
 STEP:  20 TIME =     0.03 SECS, INTEGRAL =      0.72 TIME LEFT: 172799.25
 STEP:  21 TIME =     0.03 SECS, INTEGRAL =      0.75 TIME LEFT: 172799.22
 STEP:  22 TIME =     0.04 SECS, INTEGRAL =      0.79 TIME LEFT: 172799.18
 STEP:  23 TIME =     0.03 SECS, INTEGRAL =      0.82 TIME LEFT: 172799.15
 STEP:  24 TIME =     0.05 SECS, INTEGRAL =      0.87 TIME LEFT: 172799.10
 STEP:  25 TIME =     0.04 SECS, INTEGRAL =      0.91 TIME LEFT: 172799.06
 STEP:  26 TIME =     0.03 SECS, INTEGRAL =      0.94 TIME LEFT: 172799.03
 STEP:  27 TIME =     0.03 SECS, INTEGRAL =      0.97 TIME LEFT: 172799.00
 STEP:  28 TIME =     0.03 SECS, INTEGRAL =      1.00 TIME LEFT: 172798.97
 STEP:  29 TIME =     0.03 SECS, INTEGRAL =      1.03 TIME LEFT: 172798.94
 STEP:  30 TIME =     0.03 SECS, INTEGRAL =      1.06 TIME LEFT: 172798.91
 STEP:  31 TIME =     0.03 SECS, INTEGRAL =      1.09 TIME LEFT: 172798.88
 STEP:  32 TIME =     0.03 SECS, INTEGRAL =      1.12 TIME LEFT: 172798.84
 STEP:  33 TIME =     0.04 SECS, INTEGRAL =      1.16 TIME LEFT: 172798.80
 STEP:  34 TIME =     0.03 SECS, INTEGRAL =      1.20 TIME LEFT: 172798.77
 STEP:  35 TIME =     0.03 SECS, INTEGRAL =      1.23 TIME LEFT: 172798.74
 STEP:  36 TIME =     0.04 SECS, INTEGRAL =      1.27 TIME LEFT: 172798.70
 STEP:  37 TIME =     0.04 SECS, INTEGRAL =      1.30 TIME LEFT: 172798.66
 STEP:  38 TIME =     0.03 SECS, INTEGRAL =      1.34 TIME LEFT: 172798.63
 STEP:  39 TIME =     0.04 SECS, INTEGRAL =      1.38 TIME LEFT: 172798.59
 STEP:  40 TIME =     0.03 SECS, INTEGRAL =      1.41 TIME LEFT: 172798.56
 STEP:  41 TIME =     0.03 SECS, INTEGRAL =      1.44 TIME LEFT: 172798.53
 STEP:  42 TIME =     0.03 SECS, INTEGRAL =      1.47 TIME LEFT: 172798.50
 STEP:  43 TIME =     0.04 SECS, INTEGRAL =      1.51 TIME LEFT: 172798.46
 STEP:  44 TIME =     0.03 SECS, INTEGRAL =      1.54 TIME LEFT: 172798.43
 STEP:  45 TIME =     0.03 SECS, INTEGRAL =      1.57 TIME LEFT: 172798.40
 STEP:  46 TIME =     0.04 SECS, INTEGRAL =      1.61 TIME LEFT: 172798.36
 STEP:  47 TIME =     0.05 SECS, INTEGRAL =      1.66 TIME LEFT: 172798.31
 STEP:  48 TIME =     0.05 SECS, INTEGRAL =      1.70 TIME LEFT: 172798.27
 STEP:  49 TIME =     0.04 SECS, INTEGRAL =      1.74 TIME LEFT: 172798.23
 STEP:  50 TIME =     0.04 SECS, INTEGRAL =      1.78 TIME LEFT: 172798.19
 STEP:  51 TIME =     0.03 SECS, INTEGRAL =      1.81 TIME LEFT: 172798.16
 STEP:  52 TIME =     0.04 SECS, INTEGRAL =      1.85 TIME LEFT: 172798.12
 STEP:  53 TIME =     0.03 SECS, INTEGRAL =      1.88 TIME LEFT: 172798.09
 STEP:  54 TIME =     0.03 SECS, INTEGRAL =      1.91 TIME LEFT: 172798.05
 STEP:  55 TIME =     0.04 SECS, INTEGRAL =      1.95 TIME LEFT: 172798.02
 STEP:  56 TIME =     0.03 SECS, INTEGRAL =      1.98 TIME LEFT: 172797.98
 STEP:  57 TIME =     0.03 SECS, INTEGRAL =      2.02 TIME LEFT: 172797.95

(To convert to Hartree/Bohr^2, multiply by (10^(-21) x N x a0^2)/(4.184 x 627.51) =  0.0642)


           FORCE MATRIX IN MILLIDYNES/ANGSTROM


                  C  1       C  2       C  3       C  4       C  5       C  6
 ------------------------------------------------------------------------------
     C    1  16.012686
     C    2   4.283527  15.420699
     C    3   4.715197   4.918434  15.297315
     C    4   4.534864   0.542459   0.543079  14.572687
     C    5   0.521568   4.871478   0.556571   0.045024  14.605525
     C    6   5.073820   0.544773   0.544830   0.683796   0.043113  18.363753
     C    7   0.825605   0.046694   0.038201   0.035274   0.007628  11.090175
     H    8   0.443342   4.519530   0.442137   0.025022   0.415654   0.037619
     H    9   0.460186   0.454977   4.827665   0.022719   0.044050   0.041964
     H   10   0.461625   0.467386   4.795121   0.041870   0.023688   0.018667
     H   11   0.457807   0.013181   0.048737   4.742072   0.002903   0.028359
     H   12   0.467398   0.028882   0.024739   4.723851   0.001433   0.044659
     H   13   0.020943   0.473021   0.020062   0.001437   4.710538   0.012572
     H   14   0.048957   0.450936   0.014496   0.008437   4.742824   0.006124
     H   15   0.454812   0.047658   0.014139   4.744872   0.008592   0.021427
     H   16   0.012545   0.450547   0.051084   0.002963   4.743300   0.003307
     H   17   0.434162   0.011986   0.039429   0.012479   0.005087   4.783673
     H   18   0.100854   0.009613   0.011229   0.012950   0.001598   0.493858
     H   19   0.137071   0.015661   0.005669   0.017671   0.001537   0.459160


                  C  7       H  8       H  9       H 10       H 11       H 12
 ------------------------------------------------------------------------------
     C    7  18.039529
     H    8   0.006208   5.047889
     H    9   0.004509   0.021167   5.432918
     H   10   0.011508   0.038689   0.484381   5.403777
     H   11   0.001768   0.002118   0.004042   0.007614   5.459576
     H   12   0.005114   0.023108   0.015514   0.001568   0.564509   5.452649
     H   13   0.005955   0.041734   0.001490   0.012712   0.000257   0.000426
     H   14   0.000620   0.027271   0.002550   0.002237   0.000568   0.000394
     H   15   0.002463   0.003525   0.002252   0.002307   0.565187   0.564398
     H   16   0.001468   0.029720   0.007856   0.004186   0.000371   0.000224
     H   17   0.456132   0.002170   0.006390   0.004093   0.007417   0.001459
     H   18   5.072312   0.001638   0.001318   0.018436   0.000630   0.002290
     H   19   5.109112   0.002215   0.000557   0.001596   0.000590   0.002987


                  H 13       H 14       H 15       H 16       H 17       H 18
 ------------------------------------------------------------------------------
     H   13   5.437624
     H   14   0.563363   5.459291
     H   15   0.000417   0.001683   5.460893
     H   16   0.569898   0.565449   0.000590   5.462418
     H   17   0.004278   0.000843   0.002300   0.002952   5.149119
     H   18   0.000660   0.000264   0.001400   0.000502   0.119248   5.462308
     H   19   0.000813   0.000356   0.000615   0.000385   0.078409   0.416649


                  H 19
 ------------------
     H   19   5.494396


          HEAT OF FORMATION =      20.171410 KCALS/MOLE

          ZERO POINT ENERGY     106.291 KCAL/MOL


           NORMAL COORDINATE ANALYSIS (Total motion = 1 Angstrom)


   Root No.       1         2         3         4         5         6         7         8

                 1 A       2 A       3 A       4 A       5 A       6 A       7 A       8 A   

                  88.0     144.4     151.4     198.4     230.1     283.9     352.1     441.0
  
           1   -0.0092   -0.0020   -0.0020   -0.0050   -0.0033   -0.0054    0.0222   -0.0112
           2   -0.0019   -0.0044    0.0022   -0.0051   -0.0149    0.0357    0.0119    0.0164
           3   -0.0176    0.0013    0.0014    0.0077    0.0108    0.0079   -0.0027   -0.0265
           4   -0.0088   -0.0016   -0.0025   -0.0049   -0.0011   -0.0040    0.0221   -0.0094
           5    0.0027   -0.0048    0.0017    0.0180   -0.0302   -0.0052    0.0210   -0.0225
           6    0.0082    0.0004    0.0001    0.0035    0.0053   -0.0031    0.0002   -0.0117
           7   -0.0127   -0.0014   -0.0017   -0.0246    0.0111    0.0297    0.0163    0.0272
           8    0.0003   -0.0048    0.0023    0.0064   -0.0240    0.0144    0.0164   -0.0045
           9   -0.0135    0.0064    0.0067    0.0337   -0.0005   -0.0328    0.0026    0.0472
          10    0.0124    0.0011    0.0109    0.0294   -0.0079    0.0262   -0.0361   -0.0170
          11   -0.0077   -0.0053   -0.0113   -0.0269    0.0266   -0.0159   -0.0207   -0.0249
          12   -0.0280   -0.0003   -0.0012   -0.0051   -0.0031    0.0055    0.0418   -0.0125
          13   -0.0330    0.0085   -0.0012    0.0261    0.0443    0.0057    0.0020   -0.0048
          14    0.0131   -0.0041   -0.0118   -0.0156    0.0379   -0.0103   -0.0038    0.0195
          15    0.0274   -0.0060   -0.0059   -0.0301    0.0002   -0.0130    0.0061   -0.0002
          16   -0.0184   -0.0104   -0.0066   -0.0280   -0.0374   -0.0217   -0.0122    0.0056
          17   -0.0090    0.0043    0.0067    0.0023   -0.0121    0.0300   -0.0091    0.0206
          18   -0.0258   -0.0002    0.0003   -0.0033   -0.0097   -0.0033   -0.0320   -0.0172
          19    0.0672    0.0035    0.0007   -0.0005   -0.0116   -0.0380    0.0025    0.0030
          20    0.0023    0.0174    0.0141    0.0252    0.0010   -0.0279   -0.0067   -0.0010
          21    0.0450   -0.0006   -0.0004   -0.0002    0.0015    0.0432   -0.0223    0.0030
          22    0.0097   -0.0029   -0.0071   -0.0133   -0.0190   -0.0256    0.0305   -0.0131
          23   -0.0028    0.0036    0.0059    0.0507   -0.0577   -0.0420    0.0346   -0.0200
          24    0.0201   -0.0032   -0.0038   -0.0130    0.0044   -0.0037    0.0007   -0.0132
          25   -0.0007   -0.0007    0.0001   -0.0337    0.0081    0.0436    0.0173    0.0630
          26   -0.0064   -0.0002    0.0080    0.0285   -0.0275   -0.0124    0.0174    0.0674
          27   -0.0183    0.0097    0.0106    0.0496   -0.0031   -0.0521    0.0033    0.1008
          28   -0.0265   -0.0002   -0.0015   -0.0350    0.0289    0.0509    0.0097    0.0376
          29    0.0078   -0.0096   -0.0027   -0.0156   -0.0193    0.0401    0.0152   -0.0775
          30   -0.0186    0.0096    0.0103    0.0494   -0.0035   -0.0514    0.0035    0.1012
          31    0.0151    0.0166    0.2419    0.0040   -0.0101    0.0498   -0.0380    0.0005
          32   -0.0081   -0.0071   -0.0385   -0.0246    0.0281   -0.0202   -0.0223   -0.0292
          33   -0.0274   -0.0070   -0.1071    0.0279   -0.0441    0.0435    0.0864    0.0358
          34    0.0266   -0.0045   -0.1012    0.0706   -0.0129    0.0416   -0.0895   -0.0258
          35   -0.0091    0.0086    0.2027   -0.0729    0.0600   -0.0403   -0.0485   -0.0545
          36   -0.0197    0.0006   -0.0028    0.0056    0.0042    0.0070    0.0022   -0.0262
          37   -0.0500   -0.1037    0.0150    0.0715    0.0728    0.0093   -0.0090   -0.0075
          38    0.0250   -0.2292    0.0058   -0.0065    0.0775   -0.0254   -0.0092    0.0501
          39    0.0147   -0.0035   -0.0020   -0.0082    0.0042   -0.0071    0.0016   -0.0097
          40   -0.0316   -0.0912    0.0116    0.0438    0.0347    0.0021    0.0102   -0.0169
          41    0.0096    0.1970   -0.0377   -0.0506    0.0610   -0.0028   -0.0220    0.0463
          42    0.0413    0.1148   -0.0177   -0.0644   -0.0621   -0.0145    0.0299   -0.0243
          43    0.0123   -0.0056   -0.0915    0.0433   -0.0074    0.0184   -0.0420   -0.0260
          44   -0.0101   -0.0190   -0.2159   -0.0051    0.0312   -0.0390   -0.0257   -0.0466
          45   -0.0461    0.0043    0.1047   -0.0607    0.0195   -0.0370    0.0887   -0.0266
          46   -0.0373    0.2329   -0.0298   -0.0110    0.0697    0.0149   -0.0177    0.0219
          47    0.0126    0.0270   -0.0159   -0.0213    0.0424   -0.0092   -0.0069    0.0247
          48    0.0420   -0.1341   -0.0030   -0.0474    0.0529   -0.0269   -0.0077    0.0487
          49   -0.0977   -0.0322   -0.0164   -0.0744   -0.0963   -0.0244   -0.0929    0.0449
          50   -0.0296    0.0023    0.0061   -0.0039   -0.0234    0.0187   -0.0296    0.0258
          51   -0.0906   -0.0021    0.0003   -0.0158   -0.0408   -0.0479   -0.0972   -0.0056
          52    0.1407    0.0237    0.0105    0.0442    0.0453   -0.0549    0.0877   -0.0510
          53    0.0225    0.0196    0.0150    0.0316    0.0123   -0.0155    0.0128   -0.0057
          54    0.1129    0.0005   -0.0010    0.0101    0.0317    0.1200    0.0363    0.0070
          55    0.0694   -0.0046   -0.0027   -0.0209   -0.0437   -0.0360   -0.0668    0.0521
          56   -0.0088    0.0271    0.0200    0.0398    0.0023   -0.1020   -0.0226   -0.0248
          57    0.0422   -0.0018   -0.0003   -0.0073   -0.0180    0.0167   -0.0719    0.0248


   Root No.       9        10        11        12        13        14        15        16

                 9 A      10 A      11 A      12 A      13 A      14 A      15 A      16 A   

                 457.9     544.2     669.2     778.9     850.7     897.3     929.8     931.1
  
           1   -0.0092    0.0283    0.0082    0.0177    0.0163    0.0075   -0.0017   -0.0090
           2    0.0026   -0.0407   -0.0043    0.0022   -0.0253   -0.0193   -0.0020   -0.0046
           3   -0.0285   -0.0138    0.0091    0.0059   -0.0033    0.0051   -0.0006    0.0096
           4   -0.0015    0.0420    0.0238   -0.0172   -0.0209   -0.0155    0.0016    0.0003
           5    0.0089    0.0098    0.0149   -0.0275    0.0033    0.0126   -0.0009    0.0007
           6    0.0513   -0.0253   -0.0117    0.0017    0.0141    0.0127    0.0005    0.0027
           7   -0.0157   -0.0145    0.0153   -0.0363    0.0204    0.0155    0.0010    0.0073
           8    0.0024   -0.0247    0.0001   -0.0026    0.0077    0.0120   -0.0070   -0.0124
           9   -0.0106    0.0039   -0.0042    0.0013    0.0033    0.0025    0.0091    0.0235
          10   -0.0299   -0.0056    0.0068    0.0262    0.0151   -0.0010    0.0063   -0.0154
          11   -0.0053   -0.0005    0.0032    0.0127   -0.0100   -0.0184    0.0067    0.0043
          12   -0.0203   -0.0108    0.0190    0.0373    0.0103   -0.0110    0.0069    0.0024
          13    0.0437   -0.0010    0.0016   -0.0073   -0.0278   -0.0112   -0.0031   -0.0068
          14   -0.0204    0.0027    0.0035   -0.0085    0.0092    0.0120   -0.0004   -0.0014
          15    0.0218    0.0013   -0.0028   -0.0011   -0.0234    0.0043   -0.0051   -0.0072
          16    0.0023   -0.0044   -0.0608    0.0113   -0.0019    0.0009   -0.0398    0.0086
          17    0.0205    0.0403   -0.0215    0.0243   -0.0024    0.0021   -0.0097    0.0010
          18   -0.0189    0.0035   -0.0284   -0.0349    0.0034   -0.0045   -0.0291   -0.0008
          19    0.0027   -0.0227   -0.0024    0.0136   -0.0010    0.0028   -0.0081    0.0087
          20   -0.0016    0.0083   -0.0001    0.0045    0.0012    0.0048   -0.0001    0.0096
          21    0.0043    0.0274    0.0073   -0.0213    0.0016   -0.0077   -0.0098   -0.0147
          22    0.0167    0.0741    0.0264   -0.0466   -0.0015   -0.0249    0.0280    0.0579
          23    0.0242    0.0616    0.0233   -0.0707    0.0483   -0.0457    0.0554    0.1236
          24    0.0539   -0.0231   -0.0129   -0.0001    0.0064    0.0260   -0.0039   -0.0067
          25    0.0472   -0.0488   -0.0149   -0.0909    0.2245   -0.0968    0.0059   -0.0002
          26   -0.0213    0.0051   -0.0068   -0.0009   -0.0119    0.0130   -0.0503   -0.1183
          27   -0.0282    0.0257   -0.0100    0.0035   -0.0103    0.0041   -0.0238   -0.0564
          28   -0.0929   -0.0501    0.0403   -0.0569   -0.1311    0.1697    0.0138    0.0537
          29    0.0265   -0.0535    0.0082   -0.0118    0.0231    0.0074    0.0371    0.0922
          30   -0.0285    0.0252   -0.0104    0.0076   -0.0093    0.0062   -0.0240   -0.0551
          31   -0.0341   -0.0395   -0.0008    0.0192   -0.0469   -0.0581    0.0162    0.0297
          32   -0.0048    0.0056    0.0037    0.0138    0.0010   -0.0085    0.0044   -0.0024
          33   -0.0177   -0.0521    0.0268    0.0513   -0.0553   -0.0828    0.0432    0.0062
          34   -0.0506   -0.0250   -0.0112    0.0078   -0.0103   -0.0189   -0.0100    0.0459
          35   -0.0049    0.0226   -0.0018    0.0107    0.0280    0.0171   -0.0114    0.0034
          36   -0.0321   -0.0153    0.0073    0.0262    0.0071   -0.0109   -0.0078    0.0383
          37    0.0952   -0.0463   -0.0290    0.0092    0.0136    0.0560   -0.0066   -0.0050
          38   -0.0463    0.0128   -0.0001    0.0096    0.0085   -0.0461    0.0113    0.0211
          39    0.0557   -0.0255   -0.0182    0.0027   -0.0017    0.0559   -0.0103   -0.0126
          40    0.0477    0.0081    0.0112   -0.0235   -0.0407    0.0007   -0.0084   -0.0179
          41   -0.0253   -0.0194   -0.0192    0.0271    0.0384   -0.0116    0.0112    0.0236
          42   -0.0171    0.0574    0.0431   -0.0466   -0.0936   -0.0348   -0.0116   -0.0326
          43   -0.0319    0.0057    0.0076    0.0313    0.0386    0.0183    0.0013   -0.0275
          44   -0.0050    0.0316    0.0091    0.0284    0.0532    0.0327   -0.0028   -0.0363
          45    0.0039    0.0379    0.0425    0.0759    0.0924    0.0460    0.0203   -0.0895
          46    0.0457   -0.0274   -0.0247    0.0308   -0.0075   -0.0348    0.0057    0.0142
          47   -0.0212   -0.0010   -0.0005   -0.0024    0.0131    0.0066    0.0015    0.0032
          48   -0.0183    0.0103   -0.0128    0.0340   -0.0388   -0.0896    0.0097    0.0194
          49    0.0459   -0.0342   -0.0123    0.0094   -0.0296   -0.0051    0.2805   -0.0538
          50    0.0272    0.0399   -0.0083    0.0200   -0.0022    0.0090    0.0659   -0.0061
          51   -0.0012    0.0189    0.0146   -0.0514    0.0168    0.0317    0.1991   -0.0080
          52   -0.0619   -0.0540   -0.1498   -0.0647   -0.0188   -0.0213    0.1844   -0.0682
          53   -0.0078    0.0195   -0.0394    0.0081    0.0004    0.0109    0.0490    0.0104
          54    0.0062    0.1058   -0.1235    0.0454    0.0073    0.0433    0.1482    0.0382
          55    0.0648   -0.0243    0.2468    0.0803    0.0084    0.0278    0.0108    0.0450
          56   -0.0261   -0.0676    0.0809   -0.0922   -0.0068   -0.0520   -0.0129   -0.0806
          57    0.0340   -0.0005    0.1940   -0.0167    0.0051   -0.0131   -0.0028   -0.0259


   Root No.      17        18        19        20        21        22        23        24

                17 A      18 A      19 A      20 A      21 A      22 A      23 A      24 A   

                 948.7     981.3     994.5    1020.7    1032.7    1068.4    1137.9    1157.2
  
           1    0.0161    0.0019   -0.0034    0.0051    0.0093   -0.0275   -0.0327   -0.0077
           2    0.0008   -0.0028    0.0015   -0.0070   -0.0017    0.0126    0.0447   -0.0064
           3   -0.0076   -0.0102   -0.0011    0.0006    0.0015   -0.0039    0.0098    0.0052
           4   -0.0032    0.0040    0.0026    0.0003    0.0018   -0.0217    0.0306    0.0337
           5   -0.0066   -0.0026    0.0027    0.0083   -0.0029   -0.0116    0.0086    0.0492
           6   -0.0013    0.0008   -0.0069   -0.0055    0.0013    0.0026   -0.0224    0.0041
           7   -0.0023   -0.0001    0.0004    0.0046   -0.0013   -0.0168    0.0143   -0.0444
           8    0.0168   -0.0270    0.0056    0.0202   -0.0012   -0.0140   -0.0225   -0.0238
           9    0.0087   -0.0097   -0.0226   -0.0223    0.0105   -0.0178    0.0078    0.0028
          10    0.0102    0.0060   -0.0125   -0.0019   -0.0055    0.0235    0.0117    0.0012
          11   -0.0024    0.0251   -0.0118    0.0134    0.0023   -0.0024   -0.0177    0.0040
          12   -0.0176    0.0044    0.0226   -0.0106   -0.0089    0.0028   -0.0079   -0.0022
          13   -0.0089   -0.0232   -0.0069    0.0004   -0.0037    0.0169   -0.0103   -0.0117
          14   -0.0229    0.0166   -0.0151   -0.0150    0.0056    0.0036   -0.0018   -0.0167
          15    0.0023    0.0068    0.0107    0.0081   -0.0021    0.0026    0.0127   -0.0056
          16   -0.0000    0.0008   -0.0010   -0.0049    0.0354    0.0089   -0.0043    0.0001
          17    0.0029    0.0031    0.0042   -0.0280    0.0135   -0.0026   -0.0202    0.0028
          18    0.0054    0.0010   -0.0048    0.0197    0.0212    0.0105    0.0171    0.0010
          19   -0.0079   -0.0014   -0.0062    0.0012   -0.0556   -0.0040    0.0016   -0.0010
          20   -0.0070   -0.0033   -0.0048    0.0141   -0.0164    0.0036    0.0158    0.0049
          21    0.0149    0.0082   -0.0016   -0.0160   -0.0336   -0.0114   -0.0105   -0.0005
          22    0.0353    0.0935    0.0702   -0.0046   -0.0216    0.0515    0.0160   -0.0506
          23    0.0652    0.0402    0.0663   -0.0160   -0.0471    0.1700   -0.0285   -0.1404
          24   -0.0036    0.0348    0.0095    0.0002    0.0027   -0.0156   -0.0180    0.0215
          25   -0.0791   -0.0133   -0.0097    0.0190   -0.0054    0.0712   -0.0551    0.1840
          26   -0.0224   -0.0017    0.0810    0.0921   -0.0281    0.0285   -0.0461   -0.0353
          27   -0.0212    0.0100    0.0331    0.0310   -0.0091    0.0137   -0.0108   -0.0047
          28    0.0494    0.0067    0.0209   -0.0207   -0.0319    0.1225   -0.1154    0.1755
          29    0.0593   -0.0657   -0.0642   -0.0443    0.0257   -0.0616   -0.0025   -0.0295
          30   -0.0234    0.0182    0.0297    0.0257   -0.0093    0.0170   -0.0066    0.0079
          31   -0.0187    0.0686   -0.0174    0.0337    0.0076   -0.0176   -0.0579    0.0051
          32    0.0001    0.0126   -0.0069    0.0055   -0.0004    0.0040   -0.0062    0.0029
          33    0.0189    0.1280   -0.0940    0.0685    0.0070    0.0138   -0.0671    0.0197
          34   -0.0721   -0.0168    0.0964   -0.0276   -0.0068   -0.0383   -0.0381   -0.0109
          35   -0.0320   -0.0406    0.0644   -0.0363   -0.0117   -0.0008    0.0094   -0.0065
          36   -0.0756   -0.0283    0.1105   -0.0410   -0.0146   -0.0323   -0.0299   -0.0122
          37    0.0177    0.1004    0.0473    0.0163    0.0033   -0.0262    0.0578    0.0004
          38    0.0365   -0.0566    0.0042    0.0095   -0.0092    0.0044   -0.0195    0.0224
          39   -0.0000    0.0916    0.0341    0.0102    0.0055   -0.0195    0.0536   -0.0103
          40   -0.0456   -0.0155   -0.0278   -0.0146    0.0006    0.0317   -0.0147   -0.0380
          41    0.0602    0.0064    0.0354    0.0198   -0.0041   -0.0301    0.0133    0.0419
          42   -0.0893   -0.0965   -0.0721   -0.0283   -0.0042    0.0769   -0.0521   -0.0699
          43    0.0113   -0.0194    0.0034   -0.0211   -0.0124    0.0378    0.0309   -0.0020
          44    0.0136   -0.0345    0.0104   -0.0307   -0.0154    0.0440    0.0393   -0.0014
          45    0.0703   -0.0144   -0.0565   -0.0276   -0.0284    0.1121    0.0750    0.0048
          46    0.0817   -0.0313    0.0563    0.0465   -0.0175   -0.0135    0.0200    0.0450
          47   -0.0069    0.0132   -0.0050   -0.0074    0.0032   -0.0012    0.0021   -0.0067
          48    0.1031   -0.1192    0.0518    0.0604   -0.0296    0.0087   -0.0081    0.0556
          49   -0.0140   -0.0049    0.0248   -0.0916   -0.0790   -0.0156    0.0355    0.0449
          50   -0.0017   -0.0007    0.0026   -0.0122   -0.0164   -0.0144   -0.0316   -0.0085
          51   -0.0124   -0.0150   -0.0227    0.1288   -0.0745   -0.0341   -0.0484   -0.0675
          52    0.0192    0.0023    0.0390   -0.0495    0.1954    0.0081   -0.0326   -0.0031
          53   -0.0153   -0.0094   -0.0000    0.0287    0.0370    0.0121    0.0243    0.0047
          54   -0.0484   -0.0292   -0.0018    0.0964    0.1128    0.0300    0.0508   -0.0000
          55   -0.0321   -0.0267    0.0160    0.0571    0.2011    0.0364    0.0234    0.0037
          56    0.0632    0.0282    0.0246   -0.0802    0.0763   -0.0248   -0.0368   -0.0100
          57    0.0266    0.0043    0.0228   -0.0143    0.1619    0.0028   -0.0165   -0.0038


   Root No.      25        26        27        28        29        30        31        32

                25 A      26 A      27 A      28 A      29 A      30 A      31 A      32 A   

                1167.2    1188.9    1207.5    1292.0    1310.0    1359.1    1395.5    1395.7
  
           1   -0.0115   -0.0118    0.0263    0.0215    0.0149    0.0028    0.0144   -0.0059
           2   -0.0066    0.0349   -0.0041    0.0255    0.0200    0.0004    0.0097   -0.0048
           3    0.0047   -0.0198    0.0117    0.0399   -0.0095    0.0233    0.0010   -0.0006
           4   -0.0030    0.0118   -0.0049    0.0208    0.0141   -0.0155   -0.0029   -0.0054
           5    0.0245   -0.0123   -0.0341   -0.0235   -0.0137    0.0107   -0.0016    0.0040
           6    0.0570    0.0050   -0.0114    0.0185    0.0196   -0.0053    0.0006   -0.0086
           7    0.0352   -0.0215   -0.0219   -0.0179   -0.0122    0.0036   -0.0029    0.0019
           8   -0.0203    0.0010    0.0334   -0.0031   -0.0043   -0.0011    0.0157    0.0003
           9   -0.0181    0.0117    0.0044   -0.0113   -0.0034   -0.0020   -0.0002    0.0011
          10    0.0003    0.0035   -0.0077   -0.0022   -0.0028    0.0111   -0.0265    0.0097
          11    0.0047   -0.0098   -0.0006   -0.0027   -0.0032    0.0073   -0.0060    0.0060
          12   -0.0036    0.0070   -0.0095   -0.0081    0.0042    0.0093    0.0000    0.0014
          13   -0.0025    0.0006    0.0027   -0.0033    0.0014   -0.0110    0.0046    0.0247
          14   -0.0069    0.0032    0.0070    0.0023    0.0007    0.0043    0.0000   -0.0238
          15   -0.0406   -0.0217   -0.0070    0.0002    0.0038   -0.0168   -0.0051   -0.0109
          16    0.0007    0.0064   -0.0132   -0.0064    0.0107    0.0055   -0.0035    0.0011
          17   -0.0022    0.0015   -0.0222    0.0081   -0.0184    0.0070   -0.0041    0.0018
          18    0.0069   -0.0062    0.0187   -0.0028   -0.0108   -0.0132    0.0038   -0.0015
          19   -0.0012    0.0032   -0.0042    0.0027    0.0060    0.0058   -0.0018    0.0005
          20    0.0071   -0.0154    0.0247   -0.0028   -0.0054   -0.0089    0.0033   -0.0012
          21   -0.0036   -0.0007    0.0007   -0.0002   -0.0059   -0.0044    0.0019   -0.0005
          22    0.0562    0.2138    0.1734   -0.0258   -0.0679    0.0348   -0.0024    0.0145
          23   -0.0139   -0.1270   -0.0548    0.0588    0.0395   -0.0044    0.0051   -0.0119
          24    0.1037    0.1565    0.0946   -0.0344   -0.0438    0.0289   -0.0014    0.0070
          25   -0.1296    0.0074    0.0514    0.0233   -0.0038    0.0105    0.0017    0.0030
          26    0.0254   -0.0203    0.0427    0.0288   -0.0082   -0.0611   -0.1104    0.0025
          27    0.0180   -0.0041    0.0110    0.0133   -0.0057   -0.0402   -0.0830    0.0020
          28   -0.0407    0.0246    0.0147    0.0024    0.0325   -0.0141   -0.0008   -0.0044
          29   -0.0901    0.0250    0.0553   -0.0345   -0.0203   -0.0741   -0.1122    0.0097
          30    0.0340   -0.0045   -0.0100    0.0129    0.0074    0.0464    0.0836   -0.0056
          31    0.0069   -0.0206   -0.0089   -0.0567   -0.0093   -0.0646    0.1954   -0.0676
          32    0.0027   -0.0038   -0.0019    0.0018   -0.0016    0.0115   -0.0282    0.0117
          33    0.0234   -0.0308   -0.0191   -0.0788   -0.0256   -0.0673   -0.0686    0.0025
          34   -0.0120    0.0205   -0.0131   -0.0660    0.0029   -0.0605    0.0051    0.0117
          35   -0.0107    0.0268   -0.0172   -0.0303    0.0082   -0.0413   -0.0833   -0.0018
          36   -0.0146    0.0302   -0.0186   -0.0607    0.0094   -0.0543   -0.0176    0.0046
          37   -0.1113   -0.0337   -0.0014   -0.0418   -0.0460    0.0633    0.0158    0.1335
          38    0.0697    0.0133   -0.0119    0.0184    0.0205   -0.0269   -0.0284    0.0350
          39   -0.1221   -0.0453   -0.0048   -0.0292   -0.0315    0.0397    0.0147    0.0544
          40   -0.0289    0.0024    0.0152   -0.0228   -0.0183    0.0227   -0.0174   -0.1271
          41    0.0418   -0.0002   -0.0189    0.0344    0.0328   -0.0517    0.0387    0.2683
          42   -0.0266   -0.0041    0.0203   -0.0614   -0.0539    0.0793    0.0154    0.1307
          43   -0.0059    0.0187   -0.0174   -0.0234   -0.0008   -0.0268    0.0589   -0.0289
          44   -0.0065    0.0274   -0.0237   -0.0437   -0.0005   -0.0664    0.1460   -0.0666
          45    0.0071    0.0447   -0.0359   -0.0728   -0.0217   -0.0588    0.0110    0.0121
          46   -0.0105   -0.0129   -0.0168   -0.0458   -0.0436    0.0611   -0.0521   -0.2455
          47   -0.0040    0.0004    0.0019   -0.0006   -0.0021    0.0089   -0.0074   -0.0455
          48    0.0225   -0.0191   -0.0273   -0.0637   -0.0574    0.0781    0.0327    0.0248
          49    0.0588   -0.1434    0.1329   -0.0135   -0.0125   -0.0080    0.0023   -0.0018
          50   -0.0189    0.0329   -0.0509    0.0173   -0.0127    0.0125   -0.0038    0.0016
          51   -0.0877    0.1865   -0.1589    0.0366    0.0276    0.0138    0.0033   -0.0019
          52   -0.0049    0.0211   -0.0609    0.0537   -0.1408   -0.0260    0.0075   -0.0015
          53    0.0106   -0.0182    0.0326   -0.0166    0.0251   -0.0027    0.0010   -0.0006
          54    0.0150   -0.0186    0.0604   -0.0794    0.1834    0.0344   -0.0119    0.0029
          55    0.0085   -0.0050    0.0044    0.0341   -0.0753   -0.0186    0.0075   -0.0025
          56   -0.0108    0.0082   -0.0035   -0.0788    0.2080    0.0597   -0.0186    0.0059
          57   -0.0048    0.0036   -0.0026   -0.0146    0.0367    0.0086   -0.0012    0.0004


   Root No.      33        34        35        36        37        38        39        40

                33 A      34 A      35 A      36 A      37 A      38 A      39 A      40 A   

                1400.4    1401.5    1407.2    1420.5    1441.7    1621.0    1865.0    2991.8
  
           1    0.0051   -0.0014   -0.0114   -0.0167   -0.0212    0.1207    0.0323   -0.0001
           2    0.0021    0.0005   -0.0058   -0.0152   -0.0191    0.0738    0.0111   -0.0008
           3    0.0055    0.0066    0.0166   -0.0372    0.0648   -0.0065   -0.0383   -0.0005
           4    0.0005    0.0038    0.0024   -0.0149   -0.0206   -0.1104   -0.0068    0.0299
           5   -0.0016   -0.0021    0.0029    0.0119    0.0152    0.0638    0.0052   -0.0182
           6    0.0036    0.0041    0.0013   -0.0177   -0.0344   -0.0334   -0.0023   -0.0530
           7   -0.0008   -0.0008    0.0026    0.0065    0.0088   -0.0005   -0.0021    0.0004
           8   -0.0011   -0.0079   -0.0222    0.0059    0.0090   -0.1043   -0.0077    0.0007
           9   -0.0009   -0.0014   -0.0019    0.0067   -0.0021    0.0029    0.0035    0.0039
          10    0.0031   -0.0094   -0.0057    0.0232   -0.0085   -0.0167   -0.0014    0.0004
          11   -0.0328    0.0054    0.0005    0.0124   -0.0062   -0.0111   -0.0000    0.0003
          12    0.0018    0.0001    0.0096    0.0523   -0.0293   -0.0153   -0.0004   -0.0003
          13   -0.0085   -0.0200    0.0011    0.0200    0.0219    0.0240    0.0013   -0.0033
          14   -0.0055   -0.0174    0.0075   -0.0120   -0.0143   -0.0132   -0.0004    0.0020
          15   -0.0093   -0.0021   -0.0110    0.0327    0.0377    0.0265    0.0012    0.0026
          16   -0.0004    0.0012    0.0046   -0.0004    0.0087   -0.0058   -0.1362   -0.0004
          17    0.0001    0.0020    0.0079   -0.0032    0.0231   -0.0259    0.1044   -0.0001
          18   -0.0008   -0.0027   -0.0094    0.0067   -0.0239    0.0057    0.1580    0.0002
          19    0.0007    0.0016    0.0050   -0.0045    0.0126   -0.0127    0.1091    0.0000
          20   -0.0006   -0.0022   -0.0073    0.0045   -0.0180    0.0176   -0.1181    0.0000
          21   -0.0005   -0.0014   -0.0044    0.0032   -0.0109    0.0149   -0.1132   -0.0000
          22    0.0043   -0.0044    0.0142    0.0183    0.0851    0.0131   -0.0078   -0.3597
          23    0.0019    0.0004    0.0003   -0.0296   -0.0207   -0.0149   -0.0039    0.2153
          24    0.0052   -0.0011    0.0092    0.0142    0.0371    0.0651   -0.0018    0.6443
          25    0.0001    0.0014    0.0054   -0.0073    0.0338    0.0049   -0.0092    0.0023
          26   -0.0002    0.0495    0.1285   -0.0287   -0.0109    0.0016   -0.0113    0.0169
          27   -0.0001    0.0372    0.0984   -0.0181   -0.0136    0.0749    0.0006   -0.0261
          28   -0.0003    0.0005   -0.0058    0.0053   -0.0387   -0.0076    0.0087   -0.0028
          29   -0.0052    0.0407    0.1166    0.0060   -0.0272    0.0192    0.0037   -0.0154
          30    0.0022   -0.0324   -0.0919    0.0047    0.0233   -0.0825   -0.0053   -0.0252
          31    0.0128    0.0707    0.0975    0.0044    0.0258   -0.0129   -0.0017    0.0000
          32   -0.0161   -0.0067   -0.0111    0.0108   -0.0081   -0.0081    0.0011   -0.0017
          33    0.1460   -0.0606   -0.0617   -0.1180    0.0638   -0.0203   -0.0059   -0.0001
          34   -0.1757    0.0264   -0.0567   -0.1239    0.0040    0.0425    0.0114   -0.0013
          35    0.2495   -0.0907   -0.0646   -0.0575    0.0134    0.0248    0.0057   -0.0015
          36   -0.0271   -0.0118   -0.0532   -0.0788   -0.0091    0.0331    0.0070    0.0050
          37    0.0656    0.1055    0.0009   -0.0739   -0.0787   -0.0404   -0.0009    0.0215
          38    0.0645    0.2201   -0.0908    0.0594    0.0480    0.0222    0.0001   -0.0111
          39    0.0149   -0.0046    0.0229   -0.0505   -0.0469   -0.0227   -0.0007   -0.0308
          40   -0.0129   -0.0116   -0.0015   -0.0015   -0.0036    0.0118    0.0010    0.0173
          41    0.0157   -0.0011    0.0048    0.0235    0.0268    0.0033   -0.0001    0.0115
          42    0.0756    0.1292   -0.0102   -0.0676   -0.0810    0.0022    0.0008   -0.0021
          43    0.0888    0.0038    0.0351    0.0174    0.0083   -0.0094   -0.0016    0.0017
          44    0.1542    0.0220    0.0739   -0.0021    0.0302   -0.0039   -0.0022   -0.0006
          45   -0.1896    0.0392   -0.0328   -0.1285    0.0474   -0.0144   -0.0045    0.0001
          46    0.0234    0.1164   -0.0410   -0.0129   -0.0157    0.0052    0.0004    0.0004
          47    0.0023    0.0118   -0.0032   -0.0102   -0.0135   -0.0120   -0.0003   -0.0237
          48   -0.0231   -0.1436    0.0843   -0.0896   -0.0797    0.0034    0.0009   -0.0027
          49    0.0008   -0.0022   -0.0051    0.0030   -0.0035   -0.0010    0.0261   -0.0001
          50    0.0006    0.0034    0.0106   -0.0075    0.0294   -0.0219    0.1057    0.0024
          51    0.0010    0.0029    0.0039   -0.0122    0.0017    0.0310   -0.0743   -0.0007
          52   -0.0020   -0.0049   -0.0146    0.0110   -0.0205   -0.0001   -0.0335    0.0001
          53   -0.0005   -0.0011   -0.0037    0.0032   -0.0120    0.0129   -0.1239   -0.0007
          54    0.0014    0.0061    0.0197   -0.0087    0.0297   -0.0203    0.0860    0.0001
          55   -0.0001   -0.0030   -0.0109    0.0018   -0.0168    0.0098    0.0525   -0.0000
          56    0.0029    0.0106    0.0350   -0.0192    0.0679   -0.0318    0.0923   -0.0000
          57    0.0004    0.0009    0.0026   -0.0021    0.0037    0.0127   -0.1028    0.0003


   Root No.      41        42        43        44        45        46        47        48

                41 A      42 A      43 A      44 A      45 A      46 A      47 A      48 A   

                3040.5    3075.1    3078.4    3081.4    3081.8    3085.7    3125.5    3135.1
  
           1   -0.0001   -0.0002    0.0004    0.0001    0.0002    0.0001   -0.0009    0.0002
           2   -0.0004    0.0000    0.0002   -0.0001   -0.0001   -0.0000    0.0001   -0.0001
           3    0.0000   -0.0001   -0.0001   -0.0001    0.0002   -0.0006   -0.0001   -0.0003
           4   -0.0001    0.0015   -0.0004    0.0000   -0.0002    0.0010    0.0011    0.0001
           5   -0.0000   -0.0009    0.0001   -0.0002   -0.0001   -0.0007   -0.0002    0.0000
           6    0.0004   -0.0023    0.0002   -0.0005    0.0002   -0.0024   -0.0004   -0.0001
           7    0.0003   -0.0001   -0.0001    0.0002   -0.0001    0.0001   -0.0001    0.0001
           8    0.0002   -0.0001    0.0004   -0.0003    0.0003   -0.0039    0.0403    0.0039
           9    0.0005    0.0020    0.0012   -0.0045    0.0032   -0.0489   -0.0065    0.0006
          10    0.0001    0.0006    0.0361    0.0221    0.0039   -0.0010   -0.0006   -0.0000
          11   -0.0001    0.0005    0.0198   -0.0393   -0.0072    0.0042   -0.0004    0.0000
          12   -0.0001   -0.0005   -0.0287    0.0004    0.0002   -0.0008    0.0002   -0.0000
          13    0.0001    0.0316   -0.0006    0.0043   -0.0241   -0.0009    0.0005    0.0001
          14   -0.0002   -0.0212    0.0003    0.0065   -0.0386   -0.0043   -0.0005   -0.0000
          15   -0.0001   -0.0296    0.0006   -0.0005    0.0021   -0.0009   -0.0003   -0.0000
          16    0.0083   -0.0001    0.0000    0.0000    0.0000   -0.0001    0.0001   -0.0026
          17   -0.0694    0.0001    0.0001   -0.0001    0.0001   -0.0006   -0.0003    0.0020
          18    0.0113   -0.0000    0.0004    0.0000   -0.0000    0.0002   -0.0002    0.0030
          19    0.0002   -0.0000   -0.0000    0.0000    0.0000    0.0001   -0.0003    0.0041
          20    0.0051    0.0000    0.0001   -0.0001    0.0000   -0.0007    0.0040   -0.0642
          21   -0.0019   -0.0000    0.0000    0.0000    0.0000    0.0000   -0.0008    0.0154
          22    0.0011   -0.0132    0.0013   -0.0022    0.0009   -0.0147   -0.0019   -0.0002
          23   -0.0009    0.0078   -0.0012    0.0017   -0.0020    0.0111    0.0012   -0.0000
          24   -0.0025    0.0304   -0.0044    0.0037   -0.0027    0.0240    0.0037    0.0003
          25    0.0002    0.0000   -0.0002    0.0000   -0.0001   -0.0003   -0.0006   -0.0002
          26    0.0039    0.0112    0.0019   -0.0186    0.0137   -0.1966   -0.2686   -0.0203
          27   -0.0050   -0.0153   -0.0032    0.0245   -0.0178    0.2582    0.4022    0.0312
          28   -0.0001   -0.0003   -0.0001    0.0001    0.0000   -0.0006    0.0005    0.0007
          29   -0.0035   -0.0073   -0.0092    0.0232   -0.0159    0.2433   -0.2094   -0.0256
          30   -0.0046   -0.0109   -0.0127    0.0313   -0.0216    0.3310   -0.3245   -0.0389
          31    0.0001   -0.0003   -0.0089    0.0540    0.0098   -0.0047    0.0004   -0.0001
          32    0.0006   -0.0048   -0.2251    0.3491    0.0642   -0.0351    0.0055   -0.0008
          33    0.0009   -0.0002   -0.0145    0.0004    0.0001   -0.0001    0.0000   -0.0000
          34   -0.0008   -0.0041   -0.2359    0.0070    0.0021   -0.0070    0.0017   -0.0002
          35   -0.0004   -0.0021   -0.1204   -0.0218   -0.0036   -0.0009    0.0013   -0.0000
          36    0.0013    0.0067    0.3775    0.0067   -0.0002    0.0105   -0.0025    0.0004
          37   -0.0008   -0.2130    0.0041   -0.0021    0.0054   -0.0076   -0.0022   -0.0000
          38   -0.0001    0.1087   -0.0021    0.0055   -0.0287    0.0011    0.0014    0.0001
          39    0.0006    0.3795   -0.0073    0.0072   -0.0291    0.0128    0.0038    0.0002
          40   -0.0002   -0.1474    0.0033   -0.0593    0.3406    0.0261   -0.0024   -0.0009
          41   -0.0003   -0.0932    0.0020   -0.0277    0.1588    0.0114   -0.0013   -0.0005
          42   -0.0000   -0.0134    0.0003    0.0003   -0.0022   -0.0009   -0.0002   -0.0000
          43   -0.0001   -0.0021   -0.1853   -0.3257   -0.0587    0.0255    0.0047    0.0003
          44   -0.0000    0.0014    0.1092    0.1444    0.0259   -0.0106   -0.0024   -0.0001
          45   -0.0001   -0.0003   -0.0215   -0.0115   -0.0020    0.0005    0.0004   -0.0001
          46   -0.0006   -0.0160    0.0002    0.0099   -0.0580   -0.0054   -0.0004   -0.0000
          47    0.0023    0.2374   -0.0039   -0.0560    0.3326    0.0359    0.0051    0.0009
          48    0.0000   -0.0116    0.0003   -0.0012    0.0063    0.0002    0.0001    0.0000
          49   -0.0630    0.0001    0.0001   -0.0000    0.0003   -0.0006    0.0001   -0.0031
          50    0.7927   -0.0013   -0.0007    0.0001   -0.0012    0.0049    0.0004    0.0086
          51   -0.1740    0.0002    0.0005   -0.0004    0.0002   -0.0008   -0.0002    0.0009
          52   -0.0022    0.0001    0.0002   -0.0002    0.0000   -0.0013    0.0045   -0.0680
          53    0.0075   -0.0006   -0.0012    0.0014   -0.0003    0.0093   -0.0452    0.7225
          54   -0.0001    0.0001    0.0003   -0.0002    0.0001   -0.0018    0.0089   -0.1429
          55   -0.0375    0.0002    0.0001   -0.0001    0.0000   -0.0007   -0.0022    0.0485
          56   -0.0290    0.0002    0.0001   -0.0001    0.0000   -0.0008   -0.0003    0.0126
          57    0.0626   -0.0003   -0.0004    0.0003   -0.0000    0.0013    0.0032   -0.0724


   Root No.      49        50        51

                49 A      50 A      51 A   

                3146.5    3173.5    3173.5
  
           1   -0.0003   -0.0002   -0.0001
           2    0.0002   -0.0001   -0.0000
           3    0.0003   -0.0004   -0.0001
           4    0.0000   -0.0000    0.0003
           5    0.0000    0.0001   -0.0002
           6   -0.0000    0.0001    0.0001
           7   -0.0000    0.0000   -0.0000
           8    0.0001   -0.0001   -0.0001
           9    0.0003    0.0003   -0.0002
          10   -0.0000   -0.0111   -0.0016
          11    0.0000   -0.0063   -0.0009
          12   -0.0001   -0.0172   -0.0025
          13    0.0000   -0.0018    0.0124
          14   -0.0000    0.0011   -0.0070
          15    0.0000   -0.0024    0.0162
          16   -0.0040   -0.0000    0.0000
          17    0.0093    0.0000    0.0000
          18    0.0025    0.0000   -0.0000
          19    0.0349   -0.0000   -0.0000
          20    0.0076   -0.0000    0.0000
          21   -0.0514    0.0000    0.0000
          22    0.0001    0.0007   -0.0009
          23   -0.0001   -0.0006    0.0005
          24   -0.0001   -0.0022    0.0029
          25   -0.0001   -0.0002   -0.0001
          26    0.0002    0.0020    0.0002
          27   -0.0001   -0.0034   -0.0005
          28   -0.0001    0.0000    0.0001
          29   -0.0022    0.0000    0.0015
          30   -0.0031    0.0002    0.0026
          31   -0.0000    0.0281    0.0041
          32   -0.0003    0.2823    0.0414
          33   -0.0002   -0.0072   -0.0011
          34   -0.0003   -0.1491   -0.0219
          35   -0.0001   -0.0768   -0.0113
          36    0.0005    0.2150    0.0316
          37    0.0001   -0.0199    0.1358
          38    0.0000    0.0104   -0.0713
          39   -0.0000    0.0318   -0.2175
          40   -0.0006    0.0371   -0.2523
          41   -0.0003    0.0196   -0.1331
          42    0.0000   -0.0013    0.0093
          43    0.0003    0.2556    0.0376
          44   -0.0001   -0.1295   -0.0190
          45    0.0000    0.0017    0.0002
          46    0.0000    0.0048   -0.0325
          47    0.0004   -0.0425    0.2888
          48    0.0000   -0.0017    0.0113
          49    0.0069   -0.0000    0.0001
          50   -0.0642   -0.0006   -0.0006
          51    0.0115   -0.0001    0.0001
          52    0.0004   -0.0000    0.0000
          53    0.1014    0.0003   -0.0005
          54   -0.0338   -0.0001    0.0001
          55   -0.3725    0.0001    0.0002
          56   -0.2412    0.0001    0.0001
          57    0.6008   -0.0002   -0.0003


           MASS-WEIGHTED COORDINATE ANALYSIS (NORMAL COORDINATES)


   Root No.       1         2         3         4         5         6         7         8

                 1 A       2 A       3 A       4 A       5 A       6 A       7 A       8 A   

                  88.0     144.4     151.4     198.4     230.1     283.9     352.1     441.0
  
           1   -0.0691   -0.0154   -0.0155   -0.0463   -0.0285   -0.0434    0.1903   -0.1000
           2   -0.0140   -0.0332    0.0172   -0.0470   -0.1310    0.2875    0.1017    0.1464
           3   -0.1324    0.0098    0.0108    0.0709    0.0951    0.0635   -0.0235   -0.2368
           4   -0.0660   -0.0120   -0.0194   -0.0447   -0.0096   -0.0324    0.1897   -0.0838
           5    0.0201   -0.0360    0.0130    0.1656   -0.2645   -0.0417    0.1796   -0.2007
           6    0.0611    0.0030    0.0007    0.0322    0.0462   -0.0248    0.0016   -0.1046
           7   -0.0953   -0.0108   -0.0131   -0.2261    0.0974    0.2396    0.1396    0.2423
           8    0.0021   -0.0366    0.0176    0.0588   -0.2103    0.1163    0.1403   -0.0400
           9   -0.1011    0.0480    0.0512    0.3095   -0.0042   -0.2640    0.0219    0.4215
          10    0.0927    0.0083    0.0837    0.2704   -0.0697    0.2113   -0.3096   -0.1517
          11   -0.0574   -0.0397   -0.0866   -0.2474    0.2336   -0.1278   -0.1774   -0.2219
          12   -0.2100   -0.0020   -0.0089   -0.0472   -0.0270    0.0445    0.3584   -0.1114
          13   -0.2475    0.0644   -0.0093    0.2398    0.3887    0.0457    0.0169   -0.0425
          14    0.0980   -0.0313   -0.0902   -0.1437    0.3320   -0.0827   -0.0325    0.1739
          15    0.2056   -0.0450   -0.0451   -0.2763    0.0017   -0.1047    0.0523   -0.0016
          16   -0.1378   -0.0785   -0.0504   -0.2574   -0.3282   -0.1749   -0.1045    0.0496
          17   -0.0673    0.0325    0.0514    0.0209   -0.1061    0.2420   -0.0777    0.1840
          18   -0.1938   -0.0018    0.0020   -0.0299   -0.0849   -0.0268   -0.2745   -0.1532
          19    0.5041    0.0265    0.0056   -0.0043   -0.1017   -0.3066    0.0216    0.0264
          20    0.0169    0.1315    0.1082    0.2312    0.0089   -0.2246   -0.0574   -0.0088
          21    0.3376   -0.0042   -0.0033   -0.0021    0.0132    0.3483   -0.1907    0.0267
          22    0.0211   -0.0064   -0.0157   -0.0355   -0.0483   -0.0597    0.0757   -0.0338
          23   -0.0061    0.0078    0.0132    0.1350   -0.1465   -0.0980    0.0858   -0.0517
          24    0.0436   -0.0070   -0.0083   -0.0347    0.0111   -0.0087    0.0017   -0.0342
          25   -0.0014   -0.0014    0.0002   -0.0897    0.0206    0.1017    0.0430    0.1629
          26   -0.0140   -0.0004    0.0177    0.0758   -0.0700   -0.0288    0.0431    0.1742
          27   -0.0397    0.0212    0.0235    0.1319   -0.0078   -0.1217    0.0082    0.2606
          28   -0.0576   -0.0004   -0.0034   -0.0931    0.0733    0.1189    0.0242    0.0973
          29    0.0169   -0.0210   -0.0060   -0.0415   -0.0490    0.0937    0.0377   -0.2002
          30   -0.0405    0.0210    0.0228    0.1315   -0.0090   -0.1200    0.0087    0.2616
          31    0.0329    0.0363    0.5371    0.0107   -0.0257    0.1162   -0.0944    0.0014
          32   -0.0176   -0.0155   -0.0855   -0.0655    0.0714   -0.0472   -0.0554   -0.0755
          33   -0.0596   -0.0154   -0.2377    0.0743   -0.1120    0.1015    0.2145    0.0925
          34    0.0578   -0.0098   -0.2247    0.1880   -0.0328    0.0971   -0.2222   -0.0667
          35   -0.0199    0.0187    0.4501   -0.1939    0.1525   -0.0940   -0.1203   -0.1410
          36   -0.0429    0.0014   -0.0062    0.0149    0.0106    0.0164    0.0054   -0.0677
          37   -0.1086   -0.2268    0.0332    0.1903    0.1849    0.0216   -0.0222   -0.0195
          38    0.0543   -0.5014    0.0129   -0.0174    0.1969   -0.0592   -0.0229    0.1294
          39    0.0319   -0.0076   -0.0045   -0.0217    0.0106   -0.0165    0.0040   -0.0251
          40   -0.0686   -0.1995    0.0258    0.1165    0.0882    0.0049    0.0253   -0.0436
          41    0.0207    0.4310   -0.0838   -0.1346    0.1548   -0.0065   -0.0545    0.1197
          42    0.0897    0.2510   -0.0394   -0.1715   -0.1576   -0.0339    0.0742   -0.0627
          43    0.0268   -0.0123   -0.2031    0.1151   -0.0188    0.0430   -0.1042   -0.0673
          44   -0.0219   -0.0416   -0.4794   -0.0135    0.0792   -0.0910   -0.0637   -0.1205
          45   -0.1001    0.0093    0.2326   -0.1615    0.0494   -0.0865    0.2201   -0.0687
          46   -0.0810    0.5093   -0.0662   -0.0293    0.1771    0.0348   -0.0438    0.0567
          47    0.0274    0.0591   -0.0353   -0.0567    0.1077   -0.0216   -0.0170    0.0640
          48    0.0913   -0.2933   -0.0066   -0.1262    0.1345   -0.0627   -0.0191    0.1260
          49   -0.2122   -0.0704   -0.0365   -0.1981   -0.2445   -0.0570   -0.2306    0.1161
          50   -0.0643    0.0050    0.0135   -0.0103   -0.0595    0.0436   -0.0735    0.0668
          51   -0.1968   -0.0047    0.0007   -0.0419   -0.1036   -0.1118   -0.2412   -0.0145
          52    0.3057    0.0518    0.0233    0.1176    0.1151   -0.1283    0.2176   -0.1319
          53    0.0489    0.0429    0.0332    0.0842    0.0313   -0.0361    0.0318   -0.0148
          54    0.2453    0.0010   -0.0023    0.0269    0.0805    0.2801    0.0901    0.0182
          55    0.1508   -0.0100   -0.0060   -0.0555   -0.1110   -0.0840   -0.1658    0.1347
          56   -0.0192    0.0593    0.0443    0.1059    0.0057   -0.2380   -0.0561   -0.0641
          57    0.0916   -0.0040   -0.0007   -0.0194   -0.0457    0.0391   -0.1785    0.0640


   Root No.       9        10        11        12        13        14        15        16

                 9 A      10 A      11 A      12 A      13 A      14 A      15 A      16 A   

                 457.9     544.2     669.2     778.9     850.7     897.3     929.8     931.1
  
           1   -0.0789    0.2398    0.0583    0.1566    0.1444    0.0779   -0.0124   -0.0942
           2    0.0222   -0.3449   -0.0303    0.0192   -0.2235   -0.2016   -0.0143   -0.0482
           3   -0.2439   -0.1170    0.0645    0.0525   -0.0293    0.0527   -0.0040    0.1005
           4   -0.0127    0.3553    0.1692   -0.1522   -0.1852   -0.1611    0.0117    0.0036
           5    0.0760    0.0832    0.1060   -0.2434    0.0296    0.1308   -0.0066    0.0070
           6    0.4388   -0.2142   -0.0833    0.0146    0.1249    0.1328    0.0037    0.0284
           7   -0.1338   -0.1231    0.1087   -0.3210    0.1808    0.1616    0.0074    0.0770
           8    0.0205   -0.2090    0.0007   -0.0230    0.0678    0.1248   -0.0501   -0.1307
           9   -0.0904    0.0334   -0.0299    0.0117    0.0295    0.0264    0.0652    0.2476
          10   -0.2558   -0.0476    0.0483    0.2314    0.1334   -0.0101    0.0456   -0.1617
          11   -0.0456   -0.0044    0.0226    0.1124   -0.0883   -0.1923    0.0486    0.0451
          12   -0.1737   -0.0911    0.1348    0.3292    0.0916   -0.1142    0.0495    0.0255
          13    0.3730   -0.0087    0.0110   -0.0648   -0.2464   -0.1171   -0.0221   -0.0719
          14   -0.1740    0.0230    0.0251   -0.0752    0.0816    0.1255   -0.0025   -0.0144
          15    0.1863    0.0108   -0.0200   -0.0094   -0.2068    0.0450   -0.0370   -0.0757
          16    0.0194   -0.0372   -0.4315    0.1001   -0.0171    0.0091   -0.2866    0.0902
          17    0.1748    0.3412   -0.1524    0.2150   -0.0214    0.0217   -0.0697    0.0103
          18   -0.1615    0.0294   -0.2015   -0.3080    0.0305   -0.0472   -0.2097   -0.0088
          19    0.0230   -0.1925   -0.0173    0.1202   -0.0090    0.0288   -0.0586    0.0918
          20   -0.0134    0.0704   -0.0008    0.0398    0.0108    0.0499   -0.0011    0.1010
          21    0.0369    0.2318    0.0518   -0.1884    0.0144   -0.0798   -0.0709   -0.1544
          22    0.0413    0.1817    0.0542   -0.1193   -0.0038   -0.0753    0.0585    0.1765
          23    0.0600    0.1510    0.0479   -0.1809    0.1238   -0.1379    0.1155    0.3766
          24    0.1336   -0.0568   -0.0265   -0.0003    0.0165    0.0786   -0.0082   -0.0204
          25    0.1168   -0.1196   -0.0306   -0.2326    0.5755   -0.2923    0.0124   -0.0005
          26   -0.0527    0.0125   -0.0139   -0.0024   -0.0305    0.0392   -0.1050   -0.3605
          27   -0.0697    0.0631   -0.0205    0.0090   -0.0265    0.0124   -0.0497   -0.1718
          28   -0.2299   -0.1228    0.0827   -0.1457   -0.3360    0.5123    0.0287    0.1635
          29    0.0656   -0.1314    0.0168   -0.0303    0.0593    0.0223    0.0773    0.2811
          30   -0.0705    0.0618   -0.0213    0.0195   -0.0238    0.0186   -0.0500   -0.1679
          31   -0.0843   -0.0969   -0.0016    0.0492   -0.1203   -0.1753    0.0337    0.0906
          32   -0.0118    0.0137    0.0076    0.0353    0.0025   -0.0256    0.0092   -0.0074
[...]
 FREQ.      1359.11         C  5 -- H 16          +9.3% ( 34.7%)      1.6%
 T-DIPOLE    0.0324         C  5 -- H 14          +8.9% ( 33.9%)      2.8%
 TRAVEL      0.1235         C  1 -- C  6          +7.6% ( 31.4%)     79.6%
 RED. MASS   0.2006         C  4 -- H 12          +7.5% ( 31.1%)      0.1%
 EFF. MASS   3.2552

 VIBRATION   31   31A         ATOM PAIR      ENERGY CONTRIBUTION    RADIAL
 FREQ.      1395.51         C  4 -- H 11         +27.2% ( 50.4%)      0.9%
 T-DIPOLE    0.0648         C  4 -- H 15         +16.3% ( 39.0%)      8.4%
 TRAVEL      0.1496         C  3 -- H 10         +12.9% ( 34.7%)      2.0%
 RED. MASS   0.2364         C  3 -- H  9         +12.6% ( 34.3%)      2.2%
 EFF. MASS   2.1603

 VIBRATION   32   32A         ATOM PAIR      ENERGY CONTRIBUTION    RADIAL
 FREQ.      1395.69         C  5 -- H 14         +45.4% ( 60.5%)      0.6%
 T-DIPOLE    0.0478         C  5 -- H 16         +27.6% ( 47.2%)      6.0%
 TRAVEL      0.1635         C  5 -- H 13         +10.8% ( 29.5%)     28.6%
 RED. MASS   0.3831         C  2 -- C  5          +6.4% ( 22.7%)     27.2%
 EFF. MASS   1.8063

 VIBRATION   33   33A         ATOM PAIR      ENERGY CONTRIBUTION    RADIAL
 FREQ.      1400.39         C  4 -- H 12         +42.3% ( 57.2%)      0.4%
 T-DIPOLE    0.0515         C  4 -- H 15         +30.8% ( 48.8%)      2.5%
 TRAVEL      0.1697         C  4 -- H 11         +10.5% ( 28.6%)     34.3%
 RED. MASS   0.3484         C  1 -- C  4          +5.1% ( 19.9%)     15.4%
 EFF. MASS   1.6728

 VIBRATION   34   34A         ATOM PAIR      ENERGY CONTRIBUTION    RADIAL
 FREQ.      1401.48         C  5 -- H 13         +38.4% ( 55.0%)      0.1%
 T-DIPOLE    0.0740         C  5 -- H 16         +22.8% ( 42.4%)      3.6%
 TRAVEL      0.1672         C  5 -- H 14         +11.5% ( 30.1%)     24.9%
 RED. MASS   0.2755         C  4 -- H 12          +5.8% ( 21.3%)      0.8%
 EFF. MASS   1.7208

 VIBRATION   35   35A         ATOM PAIR      ENERGY CONTRIBUTION    RADIAL
 FREQ.      1407.16         C  3 -- H  9         +20.0% ( 45.3%)      2.0%
 T-DIPOLE    0.0867         C  3 -- H 10         +17.1% ( 41.8%)      3.7%
 TRAVEL      0.1386         C  4 -- H 11          +8.0% ( 28.6%)      0.0%
 RED. MASS   0.1864         C  1 -- C  6          +6.3% ( 25.3%)     98.5%
 EFF. MASS   2.4960

 VIBRATION   36   36A         ATOM PAIR      ENERGY CONTRIBUTION    RADIAL
 FREQ.      1420.54         C  1 -- C  4         +17.1% ( 57.0%)     99.1%
 T-DIPOLE    0.0590         C  4 -- H 12         +13.6% ( 50.9%)      5.9%
 TRAVEL      0.0854         C  4 -- H 15         +11.8% ( 47.3%)      2.9%
 RED. MASS   1.0367         C  4 -- H 11         +11.3% ( 46.3%)      2.4%
 EFF. MASS   6.5076

 VIBRATION   37   37A         ATOM PAIR      ENERGY CONTRIBUTION    RADIAL
 FREQ.      1441.72         C  1 -- C  6         +15.0% ( 58.8%)     94.5%
 T-DIPOLE    0.0603         C  1 -- C  4         +12.7% ( 54.1%)     51.7%
 TRAVEL      0.0728         C  1 -- C  2         +12.6% ( 53.8%)      0.0%
 RED. MASS   1.6088         C  1 -- C  3         +10.1% ( 48.2%)     25.3%
 EFF. MASS   8.8334

 VIBRATION   38   38A         ATOM PAIR      ENERGY CONTRIBUTION    RADIAL
 FREQ.      1620.95         C  1 -- C  2         +20.0% ( 74.1%)     98.5%
 T-DIPOLE    0.0332         C  1 -- C  3         +17.1% ( 68.5%)     99.4%
 TRAVEL      0.0596         C  2 -- C  3         +15.4% ( 65.0%)     96.6%
 RED. MASS   3.3779         C  1 -- C  6          +9.4% ( 50.7%)     39.5%
 EFF. MASS  11.7173

 VIBRATION   39   39A         ATOM PAIR      ENERGY CONTRIBUTION    RADIAL
 FREQ.      1865.02         C  6 -- C  7         +44.4% ( 98.5%)     98.5%
 T-DIPOLE    0.1858         C  1 -- C  6         +17.4% ( 61.7%)     61.9%
 TRAVEL      0.0553         C  6 -- H 17         +15.4% ( 58.0%)      3.5%
 RED. MASS   5.2312         C  7 -- H 18         +10.6% ( 48.1%)     10.6%
 EFF. MASS  11.8270         C  7 -- H 19         +10.4% ( 47.6%)     13.0%

 VIBRATION   40   40A         ATOM PAIR      ENERGY CONTRIBUTION    RADIAL
 FREQ.      2991.77         C  2 -- H  8         +95.8% ( 99.6%)    100.0%
 T-DIPOLE    0.1939         C  2 -- C  5          +1.1% ( 10.8%)     10.9%
 TRAVEL      0.1246         C  2 -- C  3          +1.1% ( 10.8%)     21.7%
 RED. MASS   0.9159         C  1 -- C  2          +1.1% ( 10.7%)     22.7%
 EFF. MASS   1.4525

 VIBRATION   41   41A         ATOM PAIR      ENERGY CONTRIBUTION    RADIAL
 FREQ.      3040.52         C  6 -- H 17         +96.3% ( 99.5%)    100.0%
 T-DIPOLE    0.2414         C  6 -- C  7          +1.4% ( 12.1%)     31.8%
 TRAVEL      0.1214         C  1 -- C  6          +1.4% ( 11.8%)     12.9%
 RED. MASS   0.9133         C  7 -- H 19          +0.9% (  9.5%)     95.2%
 EFF. MASS   1.5042

 VIBRATION   42   42A         ATOM PAIR      ENERGY CONTRIBUTION    RADIAL
 FREQ.      3075.11         C  5 -- H 13         +67.5% ( 84.7%)     99.0%
 T-DIPOLE    0.0392         C  5 -- H 16         +19.9% ( 46.0%)     87.5%
 TRAVEL      0.1206         C  5 -- H 14         +11.1% ( 34.4%)     76.5%
 RED. MASS   0.5356         C  2 -- C  5          +1.0% ( 10.4%)      0.0%
 EFF. MASS   1.5067

 VIBRATION   43   43A         ATOM PAIR      ENERGY CONTRIBUTION    RADIAL
 FREQ.      3078.36         C  4 -- H 12         +66.7% ( 84.3%)     99.0%
 T-DIPOLE    0.0174         C  4 -- H 11         +16.7% ( 42.2%)     84.4%
 TRAVEL      0.1204         C  4 -- H 15         +15.4% ( 40.5%)     82.8%
 RED. MASS   0.5272         C  1 -- C  4          +1.0% ( 10.6%)      0.1%
 EFF. MASS   1.5113

 VIBRATION   44   44A         ATOM PAIR      ENERGY CONTRIBUTION    RADIAL
 FREQ.      3081.39         C  4 -- H 15         +47.6% ( 71.2%)     97.1%
 T-DIPOLE    0.0333         C  4 -- H 11         +46.7% ( 70.5%)     96.9%
 TRAVEL      0.1205         C  5 -- H 14          +1.6% ( 13.0%)     97.9%
 RED. MASS   0.4721         C  5 -- H 16          +1.2% ( 11.4%)     95.8%
 EFF. MASS   1.5062

 VIBRATION   45   45A         ATOM PAIR      ENERGY CONTRIBUTION    RADIAL
 FREQ.      3081.78         C  5 -- H 14         +52.0% ( 74.4%)     97.7%
 T-DIPOLE    0.0208         C  5 -- H 16         +42.1% ( 67.0%)     96.2%
 TRAVEL      0.1205         C  4 -- H 11          +1.6% ( 12.9%)     97.1%
 RED. MASS   0.4755         C  4 -- H 15          +1.5% ( 12.7%)     96.9%
 EFF. MASS   1.5071

 VIBRATION   46   46A         ATOM PAIR      ENERGY CONTRIBUTION    RADIAL
 FREQ.      3085.73         C  3 -- H 10         +58.1% ( 78.8%)     98.2%
 T-DIPOLE    0.1838         C  3 -- H  9         +37.6% ( 63.4%)     95.7%
 TRAVEL      0.1187         C  1 -- C  3          +1.1% ( 11.1%)      0.5%
 RED. MASS   0.5216         C  2 -- C  3          +1.1% ( 11.0%)      0.2%
 EFF. MASS   1.5519

 VIBRATION   47   47A         ATOM PAIR      ENERGY CONTRIBUTION    RADIAL
 FREQ.      3125.45         C  3 -- H  9         +60.1% ( 77.1%)     97.7%
 T-DIPOLE    0.2113         C  3 -- H 10         +37.6% ( 61.0%)     94.0%
 TRAVEL      0.1286         C  2 -- C  3          +0.8% (  9.1%)     75.5%
 RED. MASS   0.5007         C  1 -- C  3          +0.8% (  9.1%)     74.2%
 EFF. MASS   1.3035

 VIBRATION   48   48A         ATOM PAIR      ENERGY CONTRIBUTION    RADIAL
 FREQ.      3135.06         C  7 -- H 18         +95.0% ( 98.9%)    100.0%
 T-DIPOLE    0.1975         C  7 -- H 19          +3.1% ( 17.8%)     51.1%
 TRAVEL      0.1190         C  6 -- C  7          +1.3% ( 11.8%)     30.7%
 RED. MASS   0.8956         C  3 -- H 10          +0.4% (  6.0%)     97.7%
 EFF. MASS   1.5178

 VIBRATION   49   49A         ATOM PAIR      ENERGY CONTRIBUTION    RADIAL
 FREQ.      3146.55         C  7 -- H 19         +95.1% ( 98.5%)     99.9%
 T-DIPOLE    0.2455         C  7 -- H 18          +2.5% ( 15.9%)      8.1%
 TRAVEL      0.1201         C  6 -- C  7          +1.6% ( 12.6%)     63.2%
 RED. MASS   0.8800         C  6 -- H 17          +0.8% (  8.9%)     95.1%
 EFF. MASS   1.4857

 VIBRATION   50   50A         ATOM PAIR      ENERGY CONTRIBUTION    RADIAL
 FREQ.      3173.52         C  4 -- H 15         +33.9% ( 56.1%)     97.3%
 T-DIPOLE    0.0327         C  4 -- H 11         +33.2% ( 55.5%)     97.2%
 TRAVEL      0.1368         C  4 -- H 12         +30.5% ( 53.1%)     96.7%
 RED. MASS   0.3141         C  5 -- H 16          +0.8% (  8.4%)     97.5%
 EFF. MASS   1.1355

 VIBRATION   51   51A         ATOM PAIR      ENERGY CONTRIBUTION    RADIAL
 FREQ.      3173.53         C  5 -- H 16         +35.0% ( 57.0%)     97.5%
 T-DIPOLE    0.0232         C  5 -- H 14         +33.7% ( 55.9%)     97.3%
 TRAVEL      0.1367         C  5 -- H 13         +28.9% ( 51.8%)     96.3%
 RED. MASS   0.3152         C  4 -- H 15          +0.7% (  8.2%)     97.4%
 EFF. MASS   1.1375

      SYMMETRY NUMBER FOR POINT-GROUP C1  =  1


          SYSTEM IS A GROUND STATE



 InChI=1S/C7H12/c1-4-7(3)5-6(7)2/h4,6H,1,5H2,2-3H3


          MOLECULE IS NOT LINEAR

          THERE ARE 51 GENUINE VIBRATIONS IN THIS SYSTEM
          THIS THERMODYNAMICS CALCULATION IS LIMITED TO
          MOLECULES WHICH HAVE NO INTERNAL ROTATIONS




                    CALCULATED THERMODYNAMIC PROPERTIES
                                          *
   TEMP. (K)   PARTITION FUNCTION   H.O.F.    ENTHALPY  HEAT CAPACITY ENTROPY
                                   KCAL/MOL   CAL/MOLE    CAL/K/MOL  CAL/K/MOL


 298.00  VIB.     0.7345D+02                  3431.5644    24.6646    20.0536
         ROT.     0.2320D+06                   888.2813     2.9808    27.5315
         INT.     0.1704D+08                  4319.8457    27.6454    47.5851
         TRA.     0.9118D+27                  1480.4688     4.9680    39.5994
         TOT.                       20.171    5800.3145    32.6134    87.1845

 200.00  VIB.     0.1144D+02                  1468.2370    15.6736    12.1834
         ROT.     0.1275D+06                   596.1620     2.9808    26.3428
         INT.     0.1458D+07                  2064.3990    18.6544    38.5263
         TRA.     0.5013D+27                   993.6033     4.9680    37.6183
         TOT.                       17.429    3058.0022    23.6225    76.1445

 210.00  VIB.     0.1376D+02                  1629.1338    16.5091    12.9683
         ROT.     0.1372D+06                   625.9700     2.9808    26.4883
         INT.     0.1889D+07                  2255.1039    19.4899    39.4565
         TRA.     0.5394D+27                  1043.2834     4.9680    37.8607
         TOT.                       17.669    3298.3873    24.4579    77.3172

 220.00  VIB.     0.1658D+02                  1798.4882    17.3653    13.7560
         ROT.     0.1471D+06                   655.7781     2.9808    26.6269
         INT.     0.2440D+07                  2454.2664    20.3461    40.3829
         TRA.     0.5784D+27                  1092.9636     4.9680    38.0918
         TOT.                       17.918    3547.2299    25.3141    78.4747

 230.00  VIB.     0.2001D+02                  1976.5093    18.2424    14.5472
         ROT.     0.1573D+06                   685.5862     2.9808    26.7594
         INT.     0.3147D+07                  2662.0956    21.2232    41.3066
         TRA.     0.6182D+27                  1142.6437     4.9680    38.3126
         TOT.                       18.176    3804.7393    26.1913    79.6192

 240.00  VIB.     0.2416D+02                  2163.4050    19.1400    15.3424
         ROT.     0.1677D+06                   715.3943     2.9808    26.8863
         INT.     0.4050D+07                  2878.7994    22.1209    42.2287
         TRA.     0.6590D+27                  1192.3239     4.9680    38.5241
         TOT.                       18.442    4071.1233    27.0889    80.7528

 250.00  VIB.     0.2919D+02                  2359.3746    20.0570    16.1423
         ROT.     0.1782D+06                   745.2024     2.9808    27.0080
         INT.     0.5204D+07                  3104.5771    23.0378    43.1503
         TRA.     0.7006D+27                  1242.0041     4.9680    38.7269
         TOT.                       18.718    4346.5811    28.0058    81.8771

 260.00  VIB.     0.3532D+02                  2564.6031    20.9915    16.9471
         ROT.     0.1890D+06                   775.0105     2.9808    27.1249
         INT.     0.6677D+07                  3339.6136    23.9723    44.0720
         TRA.     0.7431D+27                  1291.6842     4.9680    38.9217
         TOT.                       19.002    4631.2978    28.9403    82.9937

 270.00  VIB.     0.4277D+02                  2779.2566    21.9416    17.7571
         ROT.     0.2001D+06                   804.8186     2.9808    27.2374
         INT.     0.8556D+07                  3584.0752    24.9224    44.9945
         TRA.     0.7864D+27                  1341.3644     4.9680    39.1092
         TOT.                       19.297    4925.4396    29.8904    84.1037

 280.00  VIB.     0.5184D+02                  3003.4795    22.9050    18.5724
         ROT.     0.2113D+06                   834.6267     2.9808    27.3458
         INT.     0.1095D+08                  3838.1063    25.8858    45.9182
         TRA.     0.8304D+27                  1391.0445     4.9680    39.2899
         TOT.                       19.600    5229.1508    30.8538    85.2081

 290.00  VIB.     0.6289D+02                  3237.3923    23.8792    19.3932
         ROT.     0.2227D+06                   864.4348     2.9808    27.4504
         INT.     0.1400D+08                  4101.8271    26.8600    46.8436
         TRA.     0.8753D+27                  1440.7247     4.9680    39.4642
         TOT.                       19.914    5542.5519    31.8280    86.3078

 300.00  VIB.     0.7637D+02                  3481.0906    24.8617    20.2193
         ROT.     0.2343D+06                   894.2429     2.9808    27.5514
         INT.     0.1789D+08                  4375.3335    27.8425    47.7707
         TRA.     0.9210D+27                  1490.4049     4.9680    39.6326
         TOT.                       20.237    5865.7384    32.8105    87.4033

 310.00  VIB.     0.9282D+02                  3734.6448    25.8499    21.0506
         ROT.     0.2461D+06                   924.0510     2.9808    27.6492
         INT.     0.2284D+08                  4658.6959    28.8308    48.6997
         TRA.     0.9674D+27                  1540.0850     4.9680    39.7955
         TOT.                       20.570    6198.7809    33.7988    88.4953

 320.00  VIB.     0.1129D+03                  3998.1008    26.8416    21.8869
         ROT.     0.2581D+06                   953.8591     2.9808    27.7438
         INT.     0.2915D+08                  4951.9599    29.8224    49.6307
         TRA.     0.1015D+28                  1589.7652     4.9680    39.9533
         TOT.                       20.913    6541.7251    34.7904    89.5840

 330.00  VIB.     0.1375D+03                  4271.4803    27.8343    22.7281
         ROT.     0.2703D+06                   983.6672     2.9808    27.8355
         INT.     0.3717D+08                  5255.1475    30.8151    50.5636
         TRA.     0.1063D+28                  1639.4454     4.9680    40.1062
         TOT.                       21.266    6894.5928    35.7831    90.6698

 340.00  VIB.     0.1676D+03                  4554.7826    28.8258    23.5737
         ROT.     0.2827D+06                  1013.4753     2.9808    27.9245
         INT.     0.4737D+08                  5568.2579    31.8066    51.4983
         TRA.     0.1111D+28                  1689.1255     4.9680    40.2545
         TOT.                       21.628    7257.3835    36.7746    91.7527

 350.00  VIB.     0.2044D+03                  4847.9861    29.8142    24.4236
         ROT.     0.2953D+06                  1043.2834     2.9808    28.0109
         INT.     0.6036D+08                  5891.2695    32.7950    52.4345
         TRA.     0.1161D+28                  1738.8057     4.9680    40.3985
         TOT.                       22.001    7630.0752    37.7630    92.8330

 360.00  VIB.     0.2496D+03                  5151.0496    30.7975    25.2773
         ROT.     0.3080D+06                  1073.0915     2.9808    28.0949
         INT.     0.7687D+08                  6224.1412    33.7783    53.3722
         TRA.     0.1211D+28                  1788.4859     4.9680    40.5384
         TOT.                       22.384    8012.6270    38.7464    93.9106

 370.00  VIB.     0.3049D+03                  5463.9146    31.7742    26.1344
         ROT.     0.3209D+06                  1102.8996     2.9808    28.1766
         INT.     0.9787D+08                  6566.8142    34.7550    54.3110
         TRA.     0.1261D+28                  1838.1660     4.9680    40.6745
         TOT.                       22.776    8404.9802    39.7230    94.9856

 380.00  VIB.     0.3729D+03                  5786.5066    32.7427    26.9947
         ROT.     0.3340D+06                  1132.7077     2.9808    28.2561
         INT.     0.1246D+09                  6919.2143    35.7235    55.2508
         TRA.     0.1313D+28                  1887.8462     4.9680    40.8070
         TOT.                       23.178    8807.0605    40.6915    96.0578

 390.00  VIB.     0.4564D+03                  6118.7375    33.7018    27.8576
         ROT.     0.3473D+06                  1162.5158     2.9808    28.3335
         INT.     0.1585D+09                  7281.2533    36.6826    56.1911
         TRA.     0.1365D+28                  1937.5263     4.9680    40.9361
         TOT.                       23.590    9218.7796    41.6506    97.1272

 400.00  VIB.     0.5591D+03                  6460.5070    34.6503    28.7228
         ROT.     0.3607D+06                  1192.3239     2.9808    28.4090
         INT.     0.2017D+09                  7652.8309    37.6311    57.1318
         TRA.     0.1418D+28                  1987.2065     4.9680    41.0619
         TOT.                       24.011    9640.0374    42.5991    98.1937

   *: NOTE: HEATS OF FORMATION ARE RELATIVE TO THE
            ELEMENTS IN THEIR STANDARD STATE AT 298K
              (=  Standard Enthalpy of Formation).

            Hvib:  Zero-point energy is not included.
                   frequencies of less than zero cm-1 are not included.
            Hrot = (3/2)RT
            Htra = (3/2)RT + pV = (5/2)RT

            Heat capacity is Cp, not Cv

          For more information, see: HTTP://OpenMOPAC.net/Manual/thermochemistry.html


           FORCE CONSTANT IN CARTESIAN COORDINATES (Millidynes/A)

    ATOM   CHEMICAL       X               Y               Z
   NUMBER   SYMBOL  FORCE CONSTANT  FORCE CONSTANT  FORCE CONSTANT

      1       C        9.916391        7.015261        9.557326
      2       C        9.628158        6.629475        9.118170
      3       C        4.606191       11.560379        8.895991
      4       C        8.394465        8.272886        8.569241
      5       C        8.468997        8.295230        8.526048
      6       C        6.957566       11.234356        9.402813
      7       C        6.546826       11.072932        8.907714
      8       H        1.664060        0.928392        3.719199
      9       H        0.529077        2.297182        3.819230
     10       H        0.534329        2.274705        3.808812
     11       H        0.721722        5.310311        0.697582
     12       H        1.983713        1.008618        3.781437
     13       H        1.789904        0.970439        3.980422
     14       H        4.424612        1.609098        0.689070
     15       H        4.474282        1.557327        0.694978
     16       H        0.736212        5.296709        0.697069
     17       H        0.509027        4.846662        0.812812
     18       H        0.517323        5.178606        0.754174
     19       H        1.660483        1.160409        3.657991

 **********************
 *                    *
 * JOB ENDED NORMALLY *
 *                    *
 **********************



 TOTAL JOB TIME:             7.56 SECONDS

 == MOPAC DONE ==
