 *******************************************************************************
 ** Site#: 14399        For non-commercial use only    Version 18.184L 64BITS **
 *******************************************************************************
 ** Cite this program as: MOPAC2016, Version: 18.184L, James J. P. Stewart,   **
 ** Stewart Computational Chemistry, web: HTTP://OpenMOPAC.net. Days left:  20**
 *******************************************************************************
 **                                                                           **
 **                                MOPAC2016                                  **
 **                                                                           **
 *******************************************************************************

                              PM3 CALCULATION RESULTS

 *******************************************************************************
 *  CALCULATION DONE:                                Thu Jun 13 15:46:15 2019  *
 *  PM3        - The PM3 Hamiltonian to be used
 *  PRECISE    - CRITERIA TO BE INCREASED BY 100 TIMES
 *  NOSYM      - POINT-GROUP SYMMETRY SET TO C1
 *  THREADS=1  - MULTI-THREADING NOT USED
 *  T=         - A TIME OF 172800.0 SECONDS REQUESTED
 *  DUMP=N     - RESTART FILE WRITTEN EVERY  7200.000 SECONDS
 *******************************************************************************
pm3  precise nosym THREADS=1
 InChI=1S/C8H8/c1-2-8-6-4-3-5-7-8/h2-7H,1H2

   ATOM   CHEMICAL          X               Y               Z
  NUMBER   SYMBOL      (ANGSTROMS)     (ANGSTROMS)     (ANGSTROMS)
 
     1       C          0.42090000  *  -0.22020000  *  -0.36540000  *
     2       C         -0.43350000  *  -1.33670000  *  -0.35330000  *
     3       C         -0.14780000  *   1.07080000  *  -0.34040000  *
     4       C          1.88560000  *  -0.45020000  *  -0.43460000  *
     5       C         -1.82060000  *  -1.17060000  *  -0.29600000  *
     6       C         -2.37140000  *   0.11170000  *  -0.25880000  *
     7       C         -1.53630000  *   1.23030000  *  -0.28390000  *
     8       C          2.80510000  *   0.47260000  *  -0.14840000  *
     9       H          2.23660000  *  -1.44050000  *  -0.70060000  *
    10       H         -0.02630000  *  -2.34020000  *  -0.38130000  *
    11       H         -2.46870000  *  -2.03740000  *  -0.28150000  *
    12       H         -3.44540000  *   0.23860000  *  -0.21590000  *
    13       H         -1.96550000  *   2.22390000  *  -0.26570000  *
    14       H          0.46520000  *   1.95940000  *  -0.38470000  *
    15       H          2.54700000  *   1.47020000  *   0.17520000  *
    16       H          3.85520000  *   0.21820000  *  -0.21180000  *
 


          CARTESIAN COORDINATES 

    NO.       ATOM           X           Y           Z

     1         C          0.4209     -0.2202     -0.3654
     2         C         -0.4335     -1.3367     -0.3533
     3         C         -0.1478      1.0708     -0.3404
     4         C          1.8856     -0.4502     -0.4346
     5         C         -1.8206     -1.1706     -0.2960
     6         C         -2.3714      0.1117     -0.2588
     7         C         -1.5363      1.2303     -0.2839
     8         C          2.8051      0.4726     -0.1484
     9         H          2.2366     -1.4405     -0.7006
    10         H         -0.0263     -2.3402     -0.3813
    11         H         -2.4687     -2.0374     -0.2815
    12         H         -3.4454      0.2386     -0.2159
    13         H         -1.9655      2.2239     -0.2657
    14         H          0.4652      1.9594     -0.3847
    15         H          2.5470      1.4702      0.1752
    16         H          3.8552      0.2182     -0.2118

  H: (PM3): J. J. P. STEWART, J. COMP. CHEM. 10, 209 (1989).
  C: (PM3): J. J. P. STEWART, J. COMP. CHEM. 10, 209 (1989).

           Empirical Formula: C8 H8  =    16 atoms



      MOLECULAR POINT GROUP   :   C1  


      RHF CALCULATION, NO. OF DOUBLY OCCUPIED LEVELS = 20


          Geometry optimization using EF

          DIAGONAL MATRIX USED AS START HESSIAN

 CYCLE:     1 TIME:   0.023 TIME LEFT:  2.00D  GRAD.:    63.344 HEAT:  41.04212
 CYCLE:     2 TIME:   0.035 TIME LEFT:  2.00D  GRAD.:    21.699 HEAT:  40.15308
 CYCLE:     3 TIME:   0.031 TIME LEFT:  2.00D  GRAD.:    27.208 HEAT:  40.04196
 CYCLE:     4 TIME:   0.020 TIME LEFT:  2.00D  GRAD.:    17.735 HEAT:  39.86955
 CYCLE:     5 TIME:   0.023 TIME LEFT:  2.00D  GRAD.:    21.440 HEAT:  39.75303
 CYCLE:     6 TIME:   0.023 TIME LEFT:  2.00D  GRAD.:    20.163 HEAT:  39.61586
 CYCLE:     7 TIME:   0.027 TIME LEFT:  2.00D  GRAD.:    23.728 HEAT:  39.60233
 CYCLE:     8 TIME:   0.023 TIME LEFT:  2.00D  GRAD.:    20.004 HEAT:  39.55162
 CYCLE:     9 TIME:   0.027 TIME LEFT:  2.00D  GRAD.:     9.962 HEAT:  39.48962
 CYCLE:    10 TIME:   0.027 TIME LEFT:  2.00D  GRAD.:     7.201 HEAT:  39.47406
 CYCLE:    11 TIME:   0.020 TIME LEFT:  2.00D  GRAD.:     6.299 HEAT:  39.45627
 CYCLE:    12 TIME:   0.023 TIME LEFT:  2.00D  GRAD.:     7.131 HEAT:  39.45231
 CYCLE:    13 TIME:   0.027 TIME LEFT:  2.00D  GRAD.:     3.556 HEAT:  39.43880
 CYCLE:    14 TIME:   0.027 TIME LEFT:  2.00D  GRAD.:     6.000 HEAT:  39.43937
 CYCLE:    15 TIME:   0.020 TIME LEFT:  2.00D  GRAD.:     3.699 HEAT:  39.43261
 CYCLE:    16 TIME:   0.023 TIME LEFT:  2.00D  GRAD.:     3.310 HEAT:  39.42967
 CYCLE:    17 TIME:   0.023 TIME LEFT:  2.00D  GRAD.:     1.477 HEAT:  39.42475
 CYCLE:    18 TIME:   0.023 TIME LEFT:  2.00D  GRAD.:     2.519 HEAT:  39.42062
 CYCLE:    19 TIME:   0.020 TIME LEFT:  2.00D  GRAD.:     3.618 HEAT:  39.41422
 CYCLE:    20 TIME:   0.023 TIME LEFT:  2.00D  GRAD.:     3.076 HEAT:  39.40620
 CYCLE:    21 TIME:   0.023 TIME LEFT:  2.00D  GRAD.:     1.919 HEAT:  39.39785
 CYCLE:    22 TIME:   0.023 TIME LEFT:  2.00D  GRAD.:     3.120 HEAT:  39.39172
 CYCLE:    23 TIME:   0.023 TIME LEFT:  2.00D  GRAD.:     2.919 HEAT:  39.38229
 CYCLE:    24 TIME:   0.020 TIME LEFT:  2.00D  GRAD.:     3.294 HEAT:  39.36301
 CYCLE:    25 TIME:   0.023 TIME LEFT:  2.00D  GRAD.:     3.889 HEAT:  39.34526
 CYCLE:    26 TIME:   0.023 TIME LEFT:  2.00D  GRAD.:     3.601 HEAT:  39.32799
 CYCLE:    27 TIME:   0.023 TIME LEFT:  2.00D  GRAD.:     3.372 HEAT:  39.29903
 CYCLE:    28 TIME:   0.023 TIME LEFT:  2.00D  GRAD.:     4.972 HEAT:  39.27888
 CYCLE:    29 TIME:   0.020 TIME LEFT:  2.00D  GRAD.:     3.894 HEAT:  39.26110
 CYCLE:    30 TIME:   0.023 TIME LEFT:  2.00D  GRAD.:     3.199 HEAT:  39.24514
 CYCLE:    31 TIME:   0.023 TIME LEFT:  2.00D  GRAD.:     1.916 HEAT:  39.23324
 CYCLE:    32 TIME:   0.023 TIME LEFT:  2.00D  GRAD.:     1.781 HEAT:  39.22548
 CYCLE:    33 TIME:   0.023 TIME LEFT:  2.00D  GRAD.:     2.396 HEAT:  39.20936
 CYCLE:    34 TIME:   0.023 TIME LEFT:  2.00D  GRAD.:     2.538 HEAT:  39.19864
 CYCLE:    35 TIME:   0.023 TIME LEFT:  2.00D  GRAD.:     2.698 HEAT:  39.18162
 CYCLE:    36 TIME:   0.023 TIME LEFT:  2.00D  GRAD.:     2.908 HEAT:  39.16373
 CYCLE:    37 TIME:   0.020 TIME LEFT:  2.00D  GRAD.:     3.137 HEAT:  39.14859
 CYCLE:    38 TIME:   0.023 TIME LEFT:  2.00D  GRAD.:     2.177 HEAT:  39.13664
 CYCLE:    39 TIME:   0.023 TIME LEFT:  2.00D  GRAD.:     1.713 HEAT:  39.12747
 CYCLE:    40 TIME:   0.023 TIME LEFT:  2.00D  GRAD.:     1.569 HEAT:  39.11791
 CYCLE:    41 TIME:   0.023 TIME LEFT:  2.00D  GRAD.:     1.404 HEAT:  39.11172
 CYCLE:    42 TIME:   0.023 TIME LEFT:  2.00D  GRAD.:     3.373 HEAT:  39.11052
 CYCLE:    43 TIME:   0.020 TIME LEFT:  2.00D  GRAD.:     1.178 HEAT:  39.10379
 CYCLE:    44 TIME:   0.031 TIME LEFT:  2.00D  GRAD.:     0.917 HEAT:  39.10122
 CYCLE:    45 TIME:   0.023 TIME LEFT:  2.00D  GRAD.:     0.919 HEAT:  39.09613
 CYCLE:    46 TIME:   0.023 TIME LEFT:  2.00D  GRAD.:     0.654 HEAT:  39.09460
 CYCLE:    47 TIME:   0.023 TIME LEFT:  2.00D  GRAD.:     0.492 HEAT:  39.09288
 CYCLE:    48 TIME:   0.023 TIME LEFT:  2.00D  GRAD.:     0.421 HEAT:  39.09211
 CYCLE:    49 TIME:   0.023 TIME LEFT:  2.00D  GRAD.:     0.315 HEAT:  39.09168
 CYCLE:    50 TIME:   0.023 TIME LEFT:  2.00D  GRAD.:     0.162 HEAT:  39.09155
 CYCLE:    51 TIME:   0.023 TIME LEFT:  2.00D  GRAD.:     0.116 HEAT:  39.09149
 CYCLE:    52 TIME:   0.023 TIME LEFT:  2.00D  GRAD.:     0.082 HEAT:  39.09145
 CYCLE:    53 TIME:   0.020 TIME LEFT:  2.00D  GRAD.:     0.053 HEAT:  39.09144
 CYCLE:    54 TIME:   0.023 TIME LEFT:  2.00D  GRAD.:     0.105 HEAT:  39.09145
 CYCLE:    55 TIME:   0.023 TIME LEFT:  2.00D  GRAD.:     0.027 HEAT:  39.09144

     GRADIENT =  0.02686  IS LESS THAN CUTOFF =  0.05000



 -------------------------------------------------------------------------------
 pm3  precise nosym THREADS=1
 InChI=1S/C8H8/c1-2-8-6-4-3-5-7-8/h2-7H,1H2



     GEOMETRY OPTIMISED USING EIGENVECTOR FOLLOWING (EF).     
     SCF FIELD WAS ACHIEVED                                   


                              PM3 CALCULATION
                                                       MOPAC2016 (Version: 18.184L)
                                                       Thu Jun 13 15:46:16 2019
                                                       No. of days remaining =  20




          FINAL HEAT OF FORMATION =         39.09144 KCAL/MOL =     163.55857 KJ/MOL


          TOTAL ENERGY            =      -1070.08959 EV
          ELECTRONIC ENERGY       =      -4883.02289 EV  POINT GROUP:     C1  
          CORE-CORE REPULSION     =       3812.93330 EV
          COSMO AREA              =        150.35 SQUARE ANGSTROMS
          COSMO VOLUME            =        143.37 CUBIC ANGSTROMS

          GRADIENT NORM           =          0.02686 = 0.00672 PER ATOM
          IONIZATION POTENTIAL    =          9.130549 EV
          HOMO LUMO ENERGIES (EV) =         -9.131 -0.122
          NO. OF FILLED LEVELS    =         20
          MOLECULAR WEIGHT        =        104.1512

          MOLECULAR DIMENSIONS (Angstroms)

            Atom       Atom       Distance
            H    16    H    12     7.24840
            H    13    H    10     4.63905
            H    14    H    10     0.00041


          SCF CALCULATIONS        =         61
 
          WALL-CLOCK TIME         =          1.359 SECONDS
          COMPUTATION TIME        =          0.470 SECONDS




   ATOM   CHEMICAL          X               Y               Z
  NUMBER   SYMBOL      (ANGSTROMS)     (ANGSTROMS)     (ANGSTROMS)
 
     1       C          0.41970740  *  -0.25823848  *  -0.31665598  *
     2       C         -0.44567250  *  -1.35543834  *  -0.37215427  *
     3       C         -0.11433712  *   1.03233296  *  -0.25030326  *
     4       C          1.86539714  *  -0.47200544  *  -0.32851268  *
     5       C         -1.82131326  *  -1.15926400  *  -0.36120927  *
     6       C         -2.34528964  *   0.12798566  *  -0.29495995  *
     7       C         -1.48979729  *   1.22361446  *  -0.23946204  *
     8       C          2.74447557  *   0.52692947  *  -0.27793413  *
     9       H          2.19913924  *  -1.51600112  *  -0.38213902  *
    10       H         -0.03807281  *  -2.37143855  *  -0.42433273  *
    11       H         -2.49490730  *  -2.02132734  *  -0.40485877  *
    12       H         -3.42961221  *   0.27820951  *  -0.28651699  *
    13       H         -1.89953830  *   2.23744790  *  -0.18715189  *
    14       H          0.57874072  *   1.88664948  *  -0.20717057  *
    15       H          2.42563184  *   1.56933006  *  -0.22439658  *
    16       H          3.81815805  *   0.37357079  *  -0.28646487  *

                             CARTESIAN COORDINATES

   1    C        0.419707399    -0.258238477    -0.316655982
   2    C       -0.445672503    -1.355438340    -0.372154272
   3    C       -0.114337123     1.032332962    -0.250303256
   4    C        1.865397143    -0.472005442    -0.328512676
   5    C       -1.821313260    -1.159264002    -0.361209273
   6    C       -2.345289636     0.127985658    -0.294959949
   7    C       -1.489797289     1.223614462    -0.239462043
   8    C        2.744475572     0.526929467    -0.277934134
   9    H        2.199139240    -1.516001121    -0.382139022
  10    H       -0.038072809    -2.371438553    -0.424332727
  11    H       -2.494907301    -2.021327341    -0.404858773
  12    H       -3.429612207     0.278209506    -0.286516994
  13    H       -1.899538303     2.237447897    -0.187151894
  14    H        0.578740721     1.886649482    -0.207170568
  15    H        2.425631836     1.569330062    -0.224396580
  16    H        3.818158045     0.373570791    -0.286464866


           Empirical Formula: C8 H8  =    16 atoms



      MOLECULAR POINT GROUP   :   C1  


                  EIGENVALUES  
 -40.03238 -33.80034 -29.74502 -27.78338 -22.60866 -21.48688 -19.49600 -18.09150
 -16.79113 -15.57370 -15.01170 -14.78466 -14.55752 -13.49464 -12.89625 -12.48348
 -12.04368 -11.23452  -9.78064  -9.13055  -0.12203   0.40250   1.53064   2.99143
   3.09963   3.32688   3.43167   3.51809   3.68578   3.85092   4.03890   4.08056
   4.82730   4.90008   5.02068   5.21599   5.55884   5.70167   6.20852   6.37206


              NET ATOMIC CHARGES AND DIPOLE CONTRIBUTIONS

  ATOM NO.   TYPE          CHARGE      No. of ELECS.   s-Pop       p-Pop       
    1          C          -0.051182        4.0512     1.16845     2.88274
    2          C          -0.089843        4.0898     1.17926     2.91059
    3          C          -0.098817        4.0988     1.18016     2.91866
    4          C          -0.090703        4.0907     1.17887     2.91183
    5          C          -0.103351        4.1034     1.17907     2.92429
    6          C          -0.100340        4.1003     1.17951     2.92083
    7          C          -0.099264        4.0993     1.17798     2.92128
    8          C          -0.158112        4.1581     1.18490     2.97322
    9          H           0.099169        0.9008     0.90083
   10          H           0.104771        0.8952     0.89523
   11          H           0.102534        0.8975     0.89747
   12          H           0.102519        0.8975     0.89748
   13          H           0.102646        0.8974     0.89735
   14          H           0.110876        0.8891     0.88912
   15          H           0.085269        0.9147     0.91473
   16          H           0.083828        0.9162     0.91617
 DIPOLE           X         Y         Z       TOTAL
 POINT-CHG.     0.005     0.021     0.001     0.022
 HYBRID         0.007    -0.004    -0.000     0.008
 SUM            0.011     0.018     0.001     0.021


          ATOMIC ORBITAL ELECTRON POPULATIONS

     Atom    s        px        py        pz   
    1  C   1.16845   0.93649   0.94460   1.00165
    2  C   1.17926   0.94285   0.97084   0.99690
    3  C   1.18016   0.95629   0.96442   0.99796
    4  C   1.17887   0.92717   0.98523   0.99943
    5  C   1.17907   0.95531   0.96697   1.00201
    6  C   1.17951   0.98130   0.94098   0.99855
    7  C   1.17798   0.94381   0.97651   1.00096
    8  C   1.18490   0.98548   0.98588   1.00186
    9  H   0.90083
   10  H   0.89523
   11  H   0.89747
   12  H   0.89748
   13  H   0.89735
   14  H   0.88912
   15  H   0.91473
   16  H   0.91617
 *******************************************************************************
 ** Site#: 14399        For non-commercial use only    Version 18.184L 64BITS **
 *******************************************************************************
 ** Cite this program as: MOPAC2016, Version: 18.184L, James J. P. Stewart,   **
 ** Stewart Computational Chemistry, web: HTTP://OpenMOPAC.net. Days left:  20**
 *******************************************************************************
 **                                                                           **
 **                                MOPAC2016                                  **
 **                                                                           **
 *******************************************************************************

                              PM3 CALCULATION RESULTS

 *******************************************************************************
 *  CALCULATION DONE:                                Thu Jun 13 15:46:16 2019  *
 *  PM3        - The PM3 Hamiltonian to be used
 *  OLDGEO     - PREVIOUS GEOMETRY TO BE USED
 *  PRECISE    - CRITERIA TO BE INCREASED BY 100 TIMES
 *  NOSYM      - POINT-GROUP SYMMETRY SET TO C1
 *  THREADS=1  - MULTI-THREADING NOT USED
 *  T=         - A TIME OF 172800.0 SECONDS REQUESTED
 *  DUMP=N     - RESTART FILE WRITTEN EVERY  7200.000 SECONDS
 *  THERMO     - THERMODYNAMIC QUANTITIES TO BE CALCULATED
 *******************************************************************************
oldgeo thermo nosym precise THREADS=1  pm3
 InChI=1S/C8H8/c1-2-8-6-4-3-5-7-8/h2-7H,1H2

   ATOM   CHEMICAL          X               Y               Z
  NUMBER   SYMBOL      (ANGSTROMS)     (ANGSTROMS)     (ANGSTROMS)
 
     1       C          0.41970740  *  -0.25823848  *  -0.31665598  *
     2       C         -0.44567250  *  -1.35543834  *  -0.37215427  *
     3       C         -0.11433712  *   1.03233296  *  -0.25030326  *
     4       C          1.86539714  *  -0.47200544  *  -0.32851268  *
     5       C         -1.82131326  *  -1.15926400  *  -0.36120927  *
     6       C         -2.34528964  *   0.12798566  *  -0.29495995  *
     7       C         -1.48979729  *   1.22361446  *  -0.23946204  *
     8       C          2.74447557  *   0.52692947  *  -0.27793413  *
     9       H          2.19913924  *  -1.51600112  *  -0.38213902  *
    10       H         -0.03807281  *  -2.37143855  *  -0.42433273  *
    11       H         -2.49490730  *  -2.02132734  *  -0.40485877  *
    12       H         -3.42961221  *   0.27820951  *  -0.28651699  *
    13       H         -1.89953830  *   2.23744790  *  -0.18715189  *
    14       H          0.57874072  *   1.88664948  *  -0.20717057  *
    15       H          2.42563184  *   1.56933006  *  -0.22439658  *
    16       H          3.81815805  *   0.37357079  *  -0.28646487  *
 


          CARTESIAN COORDINATES 

    NO.       ATOM           X           Y           Z

     1         C          0.4197     -0.2582     -0.3167
     2         C         -0.4457     -1.3554     -0.3722
     3         C         -0.1143      1.0323     -0.2503
     4         C          1.8654     -0.4720     -0.3285
     5         C         -1.8213     -1.1593     -0.3612
     6         C         -2.3453      0.1280     -0.2950
     7         C         -1.4898      1.2236     -0.2395
     8         C          2.7445      0.5269     -0.2779
     9         H          2.1991     -1.5160     -0.3821
    10         H         -0.0381     -2.3714     -0.4243
    11         H         -2.4949     -2.0213     -0.4049
    12         H         -3.4296      0.2782     -0.2865
    13         H         -1.8995      2.2374     -0.1872
    14         H          0.5787      1.8866     -0.2072
    15         H          2.4256      1.5693     -0.2244
    16         H          3.8182      0.3736     -0.2865

  H: (PM3): J. J. P. STEWART, J. COMP. CHEM. 10, 209 (1989).
  C: (PM3): J. J. P. STEWART, J. COMP. CHEM. 10, 209 (1989).

           Empirical Formula: C8 H8  =    16 atoms



      MOLECULAR POINT GROUP   :   C1  


      RHF CALCULATION, NO. OF DOUBLY OCCUPIED LEVELS = 20



          HEAT OF FORMATION =      39.091438 KCALS/MOLE


          CARTESIAN COORDINATE DERIVATIVES

   NUMBER  ATOM         X            Y            Z

     1       C      0.009646    -0.009479     0.001224
     2       C     -0.009007    -0.002453     0.001742
     3       C      0.004886     0.014303     0.000433
     4       C     -0.006319    -0.004091    -0.001721
     5       C     -0.001651     0.014895     0.003987
     6       C      0.008516    -0.004762    -0.007555
     7       C     -0.009498    -0.002382     0.007189
     8       C      0.008237     0.001886    -0.000114
     9       H     -0.002757     0.001119    -0.001044
    10       H     -0.005576    -0.002484    -0.002908
    11       H     -0.004900     0.000830     0.000430
    12       H      0.009361    -0.000608     0.002074
    13       H     -0.004559    -0.003452    -0.006172
    14       H      0.000123    -0.004645     0.002882
    15       H      0.000679    -0.001811    -0.001007
    16       H      0.002818     0.003135     0.000559
 


          GRADIENT NORM =   0.03835


          TIME FOR SCF CALCULATION =    0.03

          TIME FOR DERIVATIVES     =    0.01

          MOLECULAR WEIGHT =  104.15



          ROTATIONAL CONSTANTS IN CM(-1)

          A =    0.17078140   B =    0.05329440   C =    0.04061881



           PRINCIPAL MOMENTS OF INERTIA IN UNITS OF 10**(-40)*GRAM-CM**2

          A =      163.9100   B =      525.2479   C =      689.1579


          ORIENTATION OF MOLECULE IN FORCE CALCULATION

    NO.       ATOM         X         Y         Z

     1          C      -0.1613   -0.5672    0.0001
     2          C       1.2372   -0.5672    0.0001
     3          C      -0.8460    0.6520    0.0001
     4          C      -0.8877   -1.8353   -0.0000
     5          C       1.9341    0.6351    0.0001
     6          C       1.2458    1.8443   -0.0000
     7          C      -0.1454    1.8511   -0.0000
     8          C      -2.2174   -1.9070   -0.0001
     9          H      -0.2730   -2.7444    0.0000
    10          H       1.7842   -1.5169    0.0000
    11          H       3.0290    0.6301    0.0001
    12          H       1.7986    2.7892   -0.0001
    13          H      -0.6893    2.8011   -0.0002
    14          H      -1.9468    0.6369    0.0001
    15          H      -2.8400   -1.0106   -0.0002
    16          H      -2.7611   -2.8454   -0.0002


    FIRST DERIVATIVES WILL BE USED IN THE CALCULATION OF SECOND DERIVATIVES

          ESTIMATED TIME TO COMPLETE CALCULATION =        7.50 SECONDS

    FOR POINT-GROUP C1   THERE ARE   1 UNIQUE SYMMETRY FUNCTIONS.

 STEP:   1 TIME =     0.05 SECS, INTEGRAL =      0.05 TIME LEFT: 172799.91
 STEP:   2 TIME =     0.04 SECS, INTEGRAL =      0.08 TIME LEFT: 172799.88
 STEP:   3 TIME =     0.03 SECS, INTEGRAL =      0.11 TIME LEFT: 172799.85
 STEP:   4 TIME =     0.05 SECS, INTEGRAL =      0.16 TIME LEFT: 172799.80
 STEP:   5 TIME =     0.04 SECS, INTEGRAL =      0.21 TIME LEFT: 172799.75
 STEP:   6 TIME =     0.04 SECS, INTEGRAL =      0.25 TIME LEFT: 172799.71
 STEP:   7 TIME =     0.03 SECS, INTEGRAL =      0.28 TIME LEFT: 172799.68
 STEP:   8 TIME =     0.05 SECS, INTEGRAL =      0.33 TIME LEFT: 172799.63
 STEP:   9 TIME =     0.04 SECS, INTEGRAL =      0.37 TIME LEFT: 172799.59
 STEP:  10 TIME =     0.04 SECS, INTEGRAL =      0.41 TIME LEFT: 172799.55
 STEP:  11 TIME =     0.04 SECS, INTEGRAL =      0.45 TIME LEFT: 172799.52
 STEP:  12 TIME =     0.05 SECS, INTEGRAL =      0.50 TIME LEFT: 172799.46
 STEP:  13 TIME =     0.04 SECS, INTEGRAL =      0.54 TIME LEFT: 172799.42
 STEP:  14 TIME =     0.04 SECS, INTEGRAL =      0.58 TIME LEFT: 172799.38
 STEP:  15 TIME =     0.04 SECS, INTEGRAL =      0.62 TIME LEFT: 172799.34
 STEP:  16 TIME =     0.03 SECS, INTEGRAL =      0.65 TIME LEFT: 172799.31
 STEP:  17 TIME =     0.03 SECS, INTEGRAL =      0.68 TIME LEFT: 172799.28
 STEP:  18 TIME =     0.04 SECS, INTEGRAL =      0.71 TIME LEFT: 172799.25
 STEP:  19 TIME =     0.03 SECS, INTEGRAL =      0.75 TIME LEFT: 172799.21
 STEP:  20 TIME =     0.04 SECS, INTEGRAL =      0.78 TIME LEFT: 172799.18
 STEP:  21 TIME =     0.03 SECS, INTEGRAL =      0.81 TIME LEFT: 172799.15
 STEP:  22 TIME =     0.03 SECS, INTEGRAL =      0.84 TIME LEFT: 172799.12
 STEP:  23 TIME =     0.03 SECS, INTEGRAL =      0.87 TIME LEFT: 172799.09
 STEP:  24 TIME =     0.03 SECS, INTEGRAL =      0.89 TIME LEFT: 172799.07
 STEP:  25 TIME =     0.03 SECS, INTEGRAL =      0.93 TIME LEFT: 172799.04
 STEP:  26 TIME =     0.03 SECS, INTEGRAL =      0.95 TIME LEFT: 172799.01
 STEP:  27 TIME =     0.03 SECS, INTEGRAL =      0.98 TIME LEFT: 172798.98
 STEP:  28 TIME =     0.03 SECS, INTEGRAL =      1.01 TIME LEFT: 172798.95
 STEP:  29 TIME =     0.03 SECS, INTEGRAL =      1.04 TIME LEFT: 172798.92
 STEP:  30 TIME =     0.03 SECS, INTEGRAL =      1.07 TIME LEFT: 172798.89
 STEP:  31 TIME =     0.03 SECS, INTEGRAL =      1.10 TIME LEFT: 172798.86
 STEP:  32 TIME =     0.03 SECS, INTEGRAL =      1.13 TIME LEFT: 172798.83
 STEP:  33 TIME =     0.04 SECS, INTEGRAL =      1.17 TIME LEFT: 172798.79
 STEP:  34 TIME =     0.04 SECS, INTEGRAL =      1.21 TIME LEFT: 172798.75
 STEP:  35 TIME =     0.05 SECS, INTEGRAL =      1.25 TIME LEFT: 172798.71
 STEP:  36 TIME =     0.16 SECS, INTEGRAL =      1.41 TIME LEFT: 172798.55
 STEP:  37 TIME =     0.04 SECS, INTEGRAL =      1.45 TIME LEFT: 172798.51
 STEP:  38 TIME =     0.04 SECS, INTEGRAL =      1.48 TIME LEFT: 172798.48
 STEP:  39 TIME =     0.05 SECS, INTEGRAL =      1.53 TIME LEFT: 172798.43
 STEP:  40 TIME =     0.04 SECS, INTEGRAL =      1.57 TIME LEFT: 172798.39
 STEP:  41 TIME =     0.04 SECS, INTEGRAL =      1.60 TIME LEFT: 172798.36
 STEP:  42 TIME =     0.03 SECS, INTEGRAL =      1.63 TIME LEFT: 172798.33
 STEP:  43 TIME =     0.03 SECS, INTEGRAL =      1.66 TIME LEFT: 172798.30
 STEP:  44 TIME =     0.03 SECS, INTEGRAL =      1.69 TIME LEFT: 172798.27
 STEP:  45 TIME =     0.03 SECS, INTEGRAL =      1.72 TIME LEFT: 172798.24
 STEP:  46 TIME =     0.03 SECS, INTEGRAL =      1.75 TIME LEFT: 172798.21
 STEP:  47 TIME =     0.03 SECS, INTEGRAL =      1.78 TIME LEFT: 172798.18
 STEP:  48 TIME =     0.03 SECS, INTEGRAL =      1.80 TIME LEFT: 172798.16

(To convert to Hartree/Bohr^2, multiply by (10^(-21) x N x a0^2)/(4.184 x 627.51) =  0.0642)


           FORCE MATRIX IN MILLIDYNES/ANGSTROM


                  C  1       C  2       C  3       C  4       C  5       C  6
 ------------------------------------------------------------------------------
     C    1  18.176936
     C    2   6.728437  17.445225
     C    3   6.748323   2.259078  17.417991
     C    4   5.317507   0.893673   0.808110  18.443452
     C    5   2.342178   7.112691   1.726484   0.120563  17.335888
     C    6   1.665170   2.378932   2.388615   0.027750   7.058032  17.394189
     C    7   2.287455   1.692567   7.177928   0.101725   2.424590   7.059731
     C    8   1.017780   0.075476   0.123998  10.773059   0.028934   0.011512
     H    9   0.442152   0.047936   0.041933   4.774733   0.002178   0.001434
     H   10   0.447082   4.826821   0.081882   0.053229   0.435774   0.089515
     H   11   0.090583   0.436535   0.010053   0.008121   4.861734   0.437096
     H   12   0.007580   0.087793   0.087763   0.009608   0.437432   4.869046
     H   13   0.090837   0.009988   0.435487   0.008460   0.088809   0.437227
     H   14   0.450127   0.082366   4.660117   0.051518   0.009838   0.088546
     H   15   0.102755   0.003907   0.091469   0.492242   0.003628   0.000784
     H   16   0.138201   0.007669   0.010072   0.460038   0.006780   0.000913


                  C  7       C  8       H  9       H 10       H 11       H 12
 ------------------------------------------------------------------------------
     C    7  17.443321
     C    8   0.013001  17.843737
     H    9   0.008083   0.453526   5.139481
     H   10   0.010057   0.003967   0.029337   5.199955
     H   11   0.088036   0.001613   0.000679   0.042369   5.227002
     H   12   0.436489   0.000912   0.000388   0.006776   0.041194   5.233289
     H   13   4.866248   0.000947   0.001296   0.007854   0.006935   0.041008
     H   14   0.434204   0.094712   0.002066   0.006721   0.007672   0.006770
     H   15   0.004449   4.911687   0.117885   0.001596   0.000343   0.000424
     H   16   0.002947   5.144131   0.077755   0.002623   0.000597   0.000392


                  H 13       H 14       H 15       H 16
 ------------------------------------------------------
     H   13   5.230015
     H   14   0.040841   5.047499
     H   15   0.000534   0.064257   5.292462
     H   16   0.000499   0.004748   0.390665   5.507921


          HEAT OF FORMATION =      39.091438 KCALS/MOLE

          ZERO POINT ENERGY      82.937 KCAL/MOL


           NORMAL COORDINATE ANALYSIS (Total motion = 1 Angstrom)


   Root No.       1         2         3         4         5         6         7         8

                 1 A       2 A       3 A       4 A       5 A       6 A       7 A       8 A   

                  95.9     197.6     275.1     364.7     436.1     472.8     578.1     606.3
  
           1    0.0000   -0.0000    0.0376    0.0000   -0.0000   -0.0152    0.0410   -0.0000
           2   -0.0000    0.0000   -0.0339   -0.0000    0.0000    0.0363    0.0348   -0.0000
           3   -0.0419   -0.0337   -0.0000   -0.0055    0.0646   -0.0000    0.0000   -0.0167
           4   -0.0000   -0.0000    0.0366    0.0000   -0.0000   -0.0237    0.0500   -0.0000
           5    0.0000    0.0000   -0.0038   -0.0000   -0.0000   -0.0283   -0.0185   -0.0000
           6   -0.0045   -0.0538   -0.0000    0.0669   -0.0035    0.0000    0.0000    0.0264
           7   -0.0000   -0.0000    0.0110    0.0000   -0.0000   -0.0476   -0.0205    0.0000
           8   -0.0000    0.0000   -0.0480   -0.0000    0.0000    0.0210   -0.0072    0.0000
           9   -0.0498   -0.0483   -0.0000   -0.0650   -0.0117   -0.0000    0.0000    0.0305
          10    0.0000    0.0000   -0.0041   -0.0000    0.0000    0.0687   -0.0215    0.0000
          11   -0.0000    0.0000   -0.0104   -0.0000   -0.0000    0.0073    0.0882   -0.0000
          12   -0.0531    0.0593    0.0000   -0.0047    0.0084   -0.0000   -0.0000   -0.0333
          13    0.0000    0.0000    0.0002    0.0000   -0.0000   -0.0140    0.0356   -0.0000
          14    0.0000   -0.0000    0.0205    0.0000   -0.0000   -0.0459   -0.0138   -0.0000
          15    0.0370   -0.0037    0.0000   -0.0615   -0.0364    0.0000   -0.0000   -0.0261
          16    0.0000    0.0000   -0.0297   -0.0000   -0.0000   -0.0243   -0.0308    0.0000
          17    0.0000    0.0000    0.0037    0.0000   -0.0000   -0.0517   -0.0474    0.0000
          18    0.0323    0.0562    0.0000   -0.0029    0.0455   -0.0000    0.0000    0.0274
          19   -0.0000    0.0000   -0.0291   -0.0000   -0.0000   -0.0258   -0.0315    0.0000
          20    0.0000    0.0000   -0.0296    0.0000   -0.0000    0.0045   -0.0118    0.0000
          21   -0.0155    0.0070   -0.0000    0.0660   -0.0328    0.0000   -0.0000   -0.0263
          22   -0.0000    0.0000   -0.0116   -0.0000    0.0000    0.0728   -0.0174    0.0000
          23   -0.0000   -0.0000    0.0857    0.0000    0.0000    0.0514   -0.0089    0.0000
          24    0.0826    0.0054    0.0000    0.0039   -0.0059    0.0000    0.0000    0.0024
          25    0.0000    0.0000   -0.0527   -0.0000    0.0000    0.0832   -0.0186    0.0000
          26    0.0000    0.0000   -0.0413   -0.0000   -0.0000    0.0180    0.0883   -0.0000
          27   -0.1683    0.1942    0.0001   -0.0041   -0.0896    0.0000    0.0000    0.0360
          28    0.0000   -0.0000    0.0606    0.0000   -0.0000   -0.0602    0.0300   -0.0000
          29    0.0000   -0.0000    0.0107   -0.0000   -0.0000   -0.0497   -0.0298   -0.0000
          30   -0.0026   -0.0888   -0.0000    0.1854   -0.0496    0.0000    0.0000    0.0915
          31    0.0000    0.0000    0.0005    0.0000   -0.0000   -0.0146    0.0358   -0.0000
          32    0.0000   -0.0000    0.0535    0.0000   -0.0000   -0.0483    0.0388   -0.0000
          33    0.0733   -0.0006    0.0000   -0.1672   -0.1191    0.0000   -0.0001   -0.0969
          34   -0.0000    0.0000   -0.0546   -0.0000    0.0000   -0.0057   -0.0491    0.0000
          35    0.0000   -0.0000    0.0182    0.0000    0.0000   -0.0626   -0.0364    0.0000
          36    0.0653    0.1306    0.0000   -0.0075    0.1289   -0.0001    0.0001    0.0984
          37    0.0000    0.0000   -0.0579   -0.0000    0.0000    0.0108   -0.0168    0.0000
          38    0.0000    0.0000   -0.0463    0.0000   -0.0000    0.0252   -0.0039    0.0000
          39   -0.0226    0.0208   -0.0000    0.1825   -0.1066    0.0001   -0.0001   -0.1013
          40   -0.0000   -0.0000    0.0095    0.0000   -0.0000   -0.0477   -0.0196    0.0000
          41   -0.0000    0.0000   -0.0660   -0.0000    0.0000    0.0184   -0.0555    0.0000
          42   -0.0712   -0.0810   -0.0000   -0.1645   -0.0634   -0.0000    0.0000    0.0863
          43    0.0000    0.0000    0.0487   -0.0000    0.0000    0.1152   -0.1357    0.0001
          44    0.0000   -0.0000    0.1300    0.0000    0.0000    0.0834   -0.0955    0.0000
          45    0.1918   -0.1263   -0.0001   -0.0009    0.0986   -0.0000   -0.0001   -0.1137
          46   -0.0000    0.0000   -0.0851   -0.0000   -0.0000    0.0280    0.1145   -0.0001
          47    0.0000   -0.0000    0.1288    0.0000    0.0000    0.0798   -0.0877    0.0000
          48    0.0882    0.0902    0.0000    0.0116   -0.1355    0.0001    0.0001    0.1868


   Root No.       9        10        11        12        13        14        15        16

                 9 A      10 A      11 A      12 A      13 A      14 A      15 A      16 A   

                 631.5     684.6     787.0     846.1     853.3     928.0     954.2     982.8
  
           1    0.0356   -0.0000    0.0000    0.0032   -0.0000   -0.0000   -0.0000    0.0000
           2   -0.0159   -0.0000   -0.0000    0.0062    0.0000    0.0000   -0.0000    0.0000
           3    0.0000    0.0499    0.0466    0.0000   -0.0019   -0.0109    0.0340    0.0000
           4    0.0264   -0.0000   -0.0000    0.0250    0.0000    0.0000    0.0000    0.0000
           5   -0.0942    0.0000   -0.0000    0.0186    0.0000    0.0000    0.0000   -0.0000
           6   -0.0000   -0.0027   -0.0111    0.0000    0.0327    0.0253   -0.0257    0.0410
           7    0.0916    0.0000    0.0000    0.0027   -0.0000    0.0000   -0.0000   -0.0000
           8    0.0266    0.0000   -0.0000    0.0334   -0.0000    0.0000   -0.0000   -0.0000
           9   -0.0000   -0.0046   -0.0080    0.0000   -0.0248    0.0205   -0.0241   -0.0430
          10   -0.0006    0.0000    0.0000   -0.0122   -0.0000    0.0000    0.0000   -0.0000
          11    0.0068   -0.0000    0.0000   -0.0499   -0.0000   -0.0000   -0.0000    0.0000
          12    0.0000   -0.0314   -0.0130    0.0000   -0.0024   -0.0313   -0.0286    0.0060
          13   -0.0967    0.0000   -0.0000    0.0671    0.0000    0.0000   -0.0000   -0.0000
          14   -0.0269    0.0000   -0.0000   -0.0004   -0.0000   -0.0000    0.0000    0.0000
          15    0.0000    0.0170   -0.0180   -0.0000    0.0295   -0.0067   -0.0067   -0.0435
          16   -0.0363   -0.0000    0.0000   -0.0296   -0.0000   -0.0000   -0.0000    0.0000
          17    0.0189   -0.0000    0.0000   -0.0516   -0.0000   -0.0000    0.0000    0.0000
          18   -0.0000   -0.0037   -0.0300    0.0000   -0.0030   -0.0247    0.0306    0.0062
          19   -0.0267   -0.0000   -0.0000   -0.0335   -0.0000   -0.0000    0.0000    0.0000
          20    0.0998    0.0000   -0.0000    0.0606    0.0000    0.0000   -0.0000   -0.0000
          21    0.0000    0.0174   -0.0173   -0.0000   -0.0331    0.0072   -0.0088    0.0371
          22    0.0023   -0.0000    0.0000   -0.0218   -0.0000   -0.0000   -0.0000   -0.0000
          23   -0.0093   -0.0000    0.0000   -0.0338   -0.0000    0.0000    0.0000   -0.0000
          24   -0.0000    0.0015   -0.0024   -0.0000   -0.0019   -0.0013   -0.0149   -0.0040
          25   -0.0083   -0.0000    0.0000   -0.0119   -0.0000   -0.0000   -0.0000    0.0000
          26    0.0003   -0.0000    0.0000   -0.0491   -0.0000   -0.0000   -0.0000    0.0000
          27   -0.0001   -0.0108   -0.0465   -0.0000    0.0229    0.2506    0.1715   -0.0354
          28    0.0601   -0.0000    0.0000    0.0100    0.0000   -0.0000    0.0000    0.0000
          29   -0.0745    0.0000   -0.0000    0.0100    0.0000   -0.0000    0.0000   -0.0000
          30   -0.0001   -0.1752    0.0241    0.0001   -0.2078   -0.1151    0.1097   -0.1752
          31   -0.0961    0.0000   -0.0000    0.0689    0.0000    0.0000   -0.0000   -0.0000
          32    0.0153    0.0000   -0.0000    0.0657   -0.0000    0.0000    0.0000    0.0000
          33    0.0000   -0.0521    0.2019    0.0001   -0.1983    0.0301    0.0392    0.1866
          34    0.0503    0.0000   -0.0000   -0.0277    0.0000   -0.0000    0.0000   -0.0000
          35   -0.0317   -0.0000    0.0000   -0.0525   -0.0000    0.0000   -0.0000    0.0000
          36   -0.0001   -0.1279    0.2142   -0.0000    0.0225    0.1331   -0.1504   -0.0253
          37   -0.0591   -0.0000   -0.0000    0.0273   -0.0000   -0.0000    0.0000    0.0000
          38    0.0810   -0.0000    0.0000    0.0973    0.0000   -0.0000    0.0000   -0.0000
          39    0.0001   -0.0476    0.1936   -0.0000    0.2123   -0.0400    0.0485   -0.1634
          40    0.0918    0.0000    0.0000    0.0022    0.0000    0.0000    0.0000   -0.0000
          41   -0.0177   -0.0000   -0.0000    0.0133    0.0000   -0.0000    0.0000    0.0000
          42   -0.0000   -0.1700    0.0088    0.0000    0.1884   -0.1104    0.1059    0.2031
          43   -0.0088    0.0000    0.0000    0.1020    0.0000   -0.0000   -0.0000    0.0001
          44   -0.0185    0.0000    0.0000    0.0580    0.0000   -0.0000   -0.0000    0.0000
          45    0.0001   -0.1103   -0.0632    0.0000    0.0141    0.1519    0.1386   -0.0081
          46    0.0231   -0.0000   -0.0000   -0.1805   -0.0000    0.0000    0.0000   -0.0001
          47   -0.0218    0.0000   -0.0000    0.0588    0.0000   -0.0000   -0.0000    0.0000
          48   -0.0002    0.1778    0.1013    0.0000    0.0045   -0.0410    0.0630    0.0221


   Root No.      17        18        19        20        21        22        23        24

                17 A      18 A      19 A      20 A      21 A      22 A      23 A      24 A   

                 998.7    1016.3    1038.7    1054.4    1109.4    1122.0    1154.8    1163.4
  
           1   -0.0114    0.0000   -0.0000    0.0028    0.0076   -0.0190   -0.0111   -0.0074
           2   -0.0268    0.0000   -0.0000   -0.0031   -0.0053   -0.0157    0.0063   -0.0008
           3   -0.0000   -0.0143   -0.0246   -0.0000    0.0000   -0.0000   -0.0000    0.0000
           4   -0.0277    0.0000   -0.0000    0.0271   -0.0038   -0.0225    0.0008    0.0166
           5    0.0325   -0.0000    0.0000   -0.0233    0.0285    0.0225    0.0005   -0.0097
           6    0.0000    0.0243    0.0166    0.0000    0.0000    0.0000    0.0000   -0.0000
           7    0.0306   -0.0000    0.0000   -0.0447   -0.0124    0.0429   -0.0005   -0.0123
           8   -0.0015   -0.0000   -0.0000    0.0148   -0.0130   -0.0079   -0.0042    0.0158
           9   -0.0000    0.0268    0.0223    0.0000    0.0000    0.0000   -0.0000   -0.0000
          10    0.0081   -0.0000   -0.0000    0.0028   -0.0012   -0.0041    0.0005   -0.0007
          11   -0.0277    0.0000    0.0000   -0.0274    0.0067    0.0182   -0.0023   -0.0106
          12   -0.0000   -0.0098    0.0416    0.0000   -0.0000   -0.0000   -0.0000    0.0000
          13    0.0250   -0.0000    0.0000   -0.0167   -0.0168   -0.0165    0.0041    0.0107
          14   -0.0010   -0.0000   -0.0000    0.0090    0.0029   -0.0013    0.0000   -0.0097
          15   -0.0001   -0.0370   -0.0138   -0.0000   -0.0000   -0.0000   -0.0000    0.0000
          16   -0.0124    0.0000   -0.0000    0.0043    0.0049   -0.0247    0.0046    0.0031
          17   -0.0245    0.0000   -0.0000    0.0030   -0.0101   -0.0404   -0.0006    0.0012
          18    0.0000    0.0416    0.0134    0.0000   -0.0000    0.0000    0.0000   -0.0000
          19   -0.0165    0.0000   -0.0000    0.0121   -0.0122    0.0170    0.0050   -0.0054
          20    0.0273   -0.0000    0.0000   -0.0043    0.0081   -0.0178   -0.0021    0.0038
          21   -0.0000   -0.0386   -0.0172   -0.0000    0.0000   -0.0000   -0.0000    0.0000
          22    0.0075   -0.0000    0.0000   -0.0024   -0.0032    0.0004    0.0010   -0.0036
          23    0.0454   -0.0000    0.0000    0.0140   -0.0010    0.0006    0.0013    0.0037
          24    0.0001    0.0255   -0.0565   -0.0000    0.0000    0.0000    0.0000   -0.0000
          25   -0.0816    0.0001    0.0000   -0.0700    0.0353    0.1320   -0.0045    0.0201
          26   -0.0897    0.0001    0.0000   -0.0770    0.0321    0.1103   -0.0060    0.0033
          27   -0.0000    0.0235   -0.1080   -0.0001    0.0000    0.0000   -0.0000   -0.0000
          28   -0.0515    0.0000   -0.0001    0.1144    0.1583    0.1044   -0.1118    0.1979
          29    0.0205   -0.0000    0.0000    0.0262    0.1242    0.0990   -0.0633    0.0933
          30   -0.0001   -0.0735   -0.0518   -0.0001   -0.0000    0.0000    0.0000    0.0000
          31    0.0253   -0.0000    0.0000   -0.0160   -0.0168   -0.0176    0.0064    0.0122
          32   -0.0410   -0.0000   -0.0001    0.1427   -0.1139    0.1511    0.2975   -0.1272
          33    0.0002    0.1255    0.0395    0.0000    0.0000   -0.0000    0.0000    0.0000
          34   -0.0011   -0.0000    0.0000    0.0272    0.2512   -0.0666    0.2364    0.0020
          35   -0.0322    0.0000   -0.0000   -0.0087   -0.1550   -0.0194   -0.1356    0.0005
          36   -0.0001   -0.1423   -0.0388   -0.0000    0.0000    0.0000    0.0000    0.0000
          37   -0.0200   -0.0000   -0.0001    0.1692    0.0474    0.0829   -0.1831   -0.2308
          38    0.0263   -0.0000   -0.0000    0.0861    0.0413    0.0174   -0.1112   -0.1233
          39    0.0000    0.1315    0.0538    0.0001   -0.0000    0.0000    0.0000   -0.0000
          40    0.0327   -0.0000    0.0000   -0.0456   -0.0134    0.0461   -0.0015   -0.0141
          41   -0.0044   -0.0000   -0.0001    0.0975   -0.1421    0.1209    0.0346    0.2450
          42    0.0001   -0.0857   -0.0896   -0.0001    0.0000   -0.0000    0.0000   -0.0000
          43   -0.1626    0.0001   -0.0000   -0.0672    0.0005    0.0280   -0.0014   -0.0155
          44   -0.0818    0.0001    0.0000   -0.0346    0.0036    0.0197   -0.0008   -0.0068
          45   -0.0002   -0.0935    0.2054    0.0001   -0.0000   -0.0000   -0.0000    0.0000
          46    0.2189   -0.0002    0.0001    0.0623   -0.0206    0.0062    0.0069    0.0179
          47   -0.0802    0.0001   -0.0000   -0.0257    0.0093   -0.0007   -0.0021   -0.0094
          48   -0.0002   -0.1064    0.2071    0.0001   -0.0000   -0.0000   -0.0000    0.0000


   Root No.      25        26        27        28        29        30        31        32

                25 A      26 A      27 A      28 A      29 A      30 A      31 A      32 A   

                1212.9    1238.3    1310.7    1393.0    1394.9    1543.3    1608.1    1778.9
  
           1   -0.0195    0.0086   -0.0140   -0.0373    0.0891    0.0683    0.0503   -0.1154
           2   -0.0018   -0.0124   -0.0248   -0.0511   -0.0626   -0.0396    0.0931    0.0705
           3    0.0000   -0.0000    0.0000   -0.0000   -0.0000    0.0000    0.0000    0.0000
           4    0.0047    0.0223   -0.0014   -0.0236   -0.0961    0.0027   -0.0506    0.0866
           5   -0.0225    0.0030   -0.0161   -0.0250   -0.0606    0.0640    0.0051    0.0038
           6   -0.0000   -0.0000   -0.0000   -0.0000    0.0000   -0.0000    0.0000   -0.0000
           7   -0.0154   -0.0031   -0.0114   -0.0081    0.0032   -0.0520    0.0336    0.0428
           8    0.0055   -0.0203   -0.0072   -0.0432    0.0970   -0.0409   -0.0362   -0.0662
           9   -0.0000    0.0000    0.0000    0.0000   -0.0000    0.0000    0.0000    0.0000
          10   -0.0025   -0.0032   -0.0328    0.0099   -0.0009    0.0010    0.0101   -0.0172
          11   -0.0333   -0.0102    0.0115    0.0516    0.0097    0.0086   -0.0341   -0.0106
          12    0.0000    0.0000   -0.0000    0.0000    0.0000    0.0000   -0.0000   -0.0000
          13    0.0182    0.0050    0.0218    0.0456    0.0071   -0.0494    0.0135   -0.0474
          14   -0.0107    0.0123    0.0017   -0.0212    0.1089   -0.0455   -0.0704    0.0590
          15    0.0000    0.0000    0.0000    0.0000   -0.0000   -0.0000    0.0000    0.0000
          16    0.0177   -0.0174    0.0095    0.0146    0.0979    0.0651    0.0215    0.1209
          17    0.0151    0.0164    0.0160    0.0394   -0.0505   -0.0332    0.0462   -0.0670
          18   -0.0000   -0.0000   -0.0000   -0.0000    0.0000    0.0000   -0.0000    0.0000
          19    0.0015   -0.0137   -0.0157   -0.0326   -0.1020    0.0058   -0.0668   -0.0853
          20    0.0193   -0.0016    0.0120    0.0311   -0.0495    0.0654   -0.0283    0.0032
          21   -0.0000   -0.0000   -0.0000   -0.0000    0.0000   -0.0000    0.0000    0.0000
          22   -0.0176   -0.0118   -0.0089    0.0355    0.0004   -0.0115   -0.0328    0.0221
          23    0.0235    0.0070   -0.0039   -0.0062   -0.0029   -0.0036   -0.0000    0.0043
          24   -0.0000   -0.0000    0.0000    0.0000   -0.0000   -0.0000   -0.0000    0.0000
          25    0.2455    0.1474   -0.0116   -0.0591    0.0817    0.0296    0.0093   -0.0314
          26    0.1305    0.0888    0.0285    0.0097    0.0615    0.0266   -0.0401   -0.0133
          27   -0.0000   -0.0000    0.0000    0.0000    0.0000   -0.0000   -0.0000   -0.0000
          28    0.0550   -0.1402    0.0224    0.0638   -0.0184   -0.0884    0.0576   -0.0012
          29    0.0034   -0.0935   -0.0047    0.0222   -0.0178    0.0214    0.0761   -0.0535
          30   -0.0000    0.0000    0.0000    0.0000   -0.0000    0.0000    0.0000   -0.0000
          31    0.0208    0.0049    0.0249    0.0530    0.0079   -0.0580    0.0169   -0.0567
          32    0.0675   -0.1034    0.0134    0.0660    0.0340    0.0724    0.0816   -0.0228
          33   -0.0000    0.0000   -0.0000   -0.0000   -0.0001   -0.0000   -0.0000   -0.0000
          34   -0.0495    0.0917    0.0223    0.0285    0.0217   -0.1078    0.0349   -0.0481
          35    0.0573   -0.0466    0.0119    0.0397   -0.0049    0.0690    0.0492    0.0326
          36   -0.0000    0.0000    0.0000   -0.0000   -0.0000   -0.0000   -0.0000   -0.0000
          37   -0.0428    0.0849    0.0164    0.0403   -0.0107   -0.0826    0.0691   -0.0015
          38   -0.0042    0.0560    0.0332    0.0805    0.0036    0.0263    0.0516    0.0609
          39   -0.0000   -0.0000   -0.0000   -0.0000    0.0001   -0.0000   -0.0000   -0.0000
          40   -0.0171   -0.0031   -0.0155   -0.0112    0.0052   -0.0613    0.0410    0.0483
          41   -0.1663    0.1791   -0.0086    0.0620    0.0540    0.0751    0.0876    0.0285
          42    0.0000   -0.0000    0.0000   -0.0000   -0.0000   -0.0000    0.0000   -0.0000
          43   -0.0894   -0.0320    0.3014   -0.0513   -0.0313    0.0131    0.0007   -0.0019
          44   -0.0247   -0.0076    0.2054   -0.0651   -0.0249    0.0140    0.0244   -0.0150
          45   -0.0000   -0.0000   -0.0000    0.0000    0.0000   -0.0000   -0.0000   -0.0000
          46    0.0316    0.0048    0.2703   -0.1110   -0.0403   -0.0025    0.0224    0.0084
          47   -0.0057   -0.0032   -0.1526    0.0782    0.0190   -0.0097   -0.0364    0.0164
          48    0.0000   -0.0000   -0.0000    0.0000    0.0000   -0.0000   -0.0000    0.0000


   Root No.      33        34        35        36        37        38        39        40

                33 A      34 A      35 A      36 A      37 A      38 A      39 A      40 A   

                1799.9    1849.8    3003.4    3035.9    3051.9    3059.1    3067.1    3078.9
  
           1   -0.0317   -0.0541    0.0008    0.0005   -0.0014   -0.0007    0.0009    0.0006
           2   -0.0732   -0.0386   -0.0020    0.0002   -0.0001   -0.0005   -0.0001    0.0005
           3   -0.0000   -0.0000   -0.0000    0.0000    0.0000    0.0000    0.0000    0.0000
           4    0.0879    0.0205   -0.0002    0.0015    0.0198    0.0077   -0.0071   -0.0038
           5    0.0810   -0.0009    0.0007   -0.0037   -0.0328   -0.0139    0.0143    0.0084
           6    0.0000    0.0000    0.0000   -0.0000   -0.0000   -0.0000    0.0000    0.0000
           7    0.0223    0.0083   -0.0593    0.0012   -0.0007   -0.0027   -0.0028    0.0023
           8    0.1263    0.0121   -0.0008    0.0007    0.0002   -0.0006   -0.0012    0.0009
           9   -0.0000    0.0000    0.0000   -0.0000   -0.0000    0.0000    0.0000   -0.0000
          10   -0.0193    0.2140    0.0014    0.0406   -0.0012   -0.0002    0.0003   -0.0004
          11    0.0090    0.0578   -0.0005   -0.0535    0.0020    0.0007   -0.0004   -0.0002
          12   -0.0000    0.0000    0.0000    0.0000   -0.0000   -0.0000   -0.0000    0.0000
          13   -0.0230   -0.0035   -0.0002   -0.0009   -0.0240    0.0095   -0.0269   -0.0214
          14   -0.1136    0.0068    0.0001    0.0002    0.0012    0.0015   -0.0008    0.0008
          15    0.0000    0.0000    0.0000    0.0000   -0.0000    0.0000   -0.0000   -0.0000
          16    0.0175    0.0122    0.0002   -0.0001    0.0054   -0.0139    0.0042   -0.0136
          17    0.0435   -0.0056   -0.0001    0.0000    0.0081   -0.0245    0.0030   -0.0235
          18   -0.0000   -0.0000   -0.0000    0.0000   -0.0000    0.0000   -0.0000    0.0000
          19   -0.0801   -0.0139    0.0046   -0.0002    0.0019   -0.0098   -0.0142    0.0106
          20   -0.0780   -0.0055   -0.0034    0.0002   -0.0036    0.0193    0.0249   -0.0166
          21    0.0000    0.0000    0.0000   -0.0000    0.0000   -0.0000   -0.0000    0.0000
          22    0.0253   -0.1806   -0.0072   -0.0016   -0.0000   -0.0009   -0.0014    0.0032
          23    0.0010   -0.0133    0.0084    0.0037   -0.0001    0.0010    0.0016   -0.0035
          24    0.0000   -0.0000   -0.0000   -0.0000   -0.0000   -0.0000   -0.0000    0.0000
          25   -0.0025   -0.0007   -0.0075   -0.4256    0.0169    0.0056   -0.0033   -0.0013
          26    0.0250   -0.1253    0.0131    0.6384   -0.0230   -0.0073    0.0042    0.0011
          27   -0.0000   -0.0000    0.0000   -0.0000    0.0000    0.0000   -0.0000    0.0000
          28   -0.0618   -0.0058    0.0076   -0.0239   -0.2215   -0.0896    0.0863    0.0466
          29   -0.0002   -0.0219   -0.0129    0.0366    0.3783    0.1557   -0.1522   -0.0829
          30   -0.0000   -0.0000   -0.0000    0.0000    0.0000    0.0000   -0.0000   -0.0000
          31   -0.0266   -0.0036    0.0019    0.0109    0.2835   -0.1078    0.3040    0.2314
          32    0.0425   -0.0046    0.0000   -0.0003   -0.0032   -0.0025   -0.0001   -0.0022
          33    0.0000    0.0000    0.0000   -0.0000    0.0000   -0.0000    0.0000    0.0000
          34    0.0303   -0.0015    0.0033    0.0002   -0.0584    0.1649   -0.0306    0.1489
          35    0.0459    0.0027    0.0045    0.0004   -0.0970    0.2836   -0.0452    0.2549
          36   -0.0000    0.0000    0.0000   -0.0000    0.0000   -0.0000    0.0000   -0.0000
          37    0.0506    0.0029   -0.0409    0.0016   -0.0227    0.1224    0.1617   -0.1071
          38   -0.0093    0.0049    0.0635   -0.0027    0.0409   -0.2178   -0.2818    0.1840
          39    0.0000   -0.0000   -0.0000   -0.0000   -0.0000    0.0000    0.0001   -0.0000
          40    0.0285    0.0087    0.6725   -0.0132    0.0043    0.0257    0.0260   -0.0170
          41   -0.0576   -0.0157   -0.0015    0.0005   -0.0003    0.0013    0.0016   -0.0008
          42   -0.0000   -0.0000   -0.0000    0.0000   -0.0000   -0.0000   -0.0000    0.0000
          43   -0.0010   -0.0090    0.0767   -0.0109    0.0009    0.0097    0.0148   -0.0326
          44   -0.0211    0.1413   -0.1021    0.0113   -0.0011   -0.0134   -0.0208    0.0461
          45    0.0000   -0.0000    0.0000   -0.0000    0.0000    0.0000    0.0000   -0.0000
          46   -0.0034   -0.0254    0.0001   -0.0296    0.0013    0.0007    0.0001   -0.0010
          47    0.0220   -0.1352    0.0059   -0.0603    0.0026    0.0020    0.0012   -0.0041
          48   -0.0000   -0.0000    0.0000   -0.0000   -0.0000    0.0000   -0.0000   -0.0000


   Root No.      41        42

                41 A      42 A   

                3085.5    3152.1
  
           1    0.0004    0.0008
           2   -0.0006    0.0003
           3    0.0000    0.0000
           4    0.0006   -0.0002
           5   -0.0010    0.0000
           6   -0.0000    0.0000
           7   -0.0108   -0.0003
           8   -0.0003    0.0001
           9    0.0000    0.0000
          10   -0.0049    0.0086
          11    0.0002   -0.0043
          12   -0.0000    0.0000
          13    0.0023    0.0000
          14   -0.0002   -0.0000
          15    0.0000   -0.0000
          16    0.0021    0.0000
          17    0.0032    0.0001
          18   -0.0000    0.0000
          19   -0.0026   -0.0000
          20    0.0050    0.0001
          21   -0.0000   -0.0000
          22    0.0344   -0.0362
          23   -0.0370   -0.0610
          24    0.0000   -0.0000
          25    0.0028   -0.0381
          26   -0.0084    0.0498
          27   -0.0000   -0.0000
          28   -0.0058    0.0001
          29    0.0105   -0.0005
          30    0.0000    0.0000
          31   -0.0246   -0.0004
          32    0.0003    0.0000
          33   -0.0000   -0.0000
          34   -0.0204   -0.0004
          35   -0.0345   -0.0007
          36    0.0000    0.0000
          37    0.0294    0.0004
          38   -0.0523   -0.0008
          39    0.0000   -0.0000
          40    0.1216    0.0052
          41    0.0037    0.0015
          42   -0.0000   -0.0000
          43   -0.3460   -0.0389
          44    0.4931    0.0283
          45   -0.0000   -0.0000
          46   -0.0140    0.3975
          47   -0.0485    0.6932
          48   -0.0000    0.0000


           MASS-WEIGHTED COORDINATE ANALYSIS (NORMAL COORDINATES)


   Root No.       1         2         3         4         5         6         7         8

                 1 A       2 A       3 A       4 A       5 A       6 A       7 A       8 A   

                  95.9     197.6     275.1     364.7     436.1     472.8     578.1     606.3
  
           1    0.0000   -0.0001    0.2500    0.0001   -0.0001   -0.0897    0.2526   -0.0001
           2   -0.0000    0.0001   -0.2252   -0.0001    0.0000    0.2138    0.2145   -0.0001
           3   -0.2711   -0.2327   -0.0001   -0.0334    0.5108   -0.0002    0.0000   -0.1461
           4   -0.0000   -0.0001    0.2431    0.0001   -0.0001   -0.1398    0.3078   -0.0001
           5    0.0000    0.0000   -0.0251   -0.0000   -0.0000   -0.1666   -0.1142   -0.0002
           6   -0.0291   -0.3714   -0.0002    0.4052   -0.0277    0.0001    0.0001    0.2314
           7   -0.0000   -0.0000    0.0732    0.0000   -0.0001   -0.2804   -0.1260    0.0002
           8   -0.0000    0.0001   -0.3188   -0.0001    0.0000    0.1237   -0.0446    0.0001
           9   -0.3216   -0.3334   -0.0000   -0.3937   -0.0923   -0.0000    0.0002    0.2666
          10    0.0000    0.0000   -0.0271   -0.0001    0.0002    0.4046   -0.1324    0.0001
          11   -0.0000    0.0000   -0.0688   -0.0000   -0.0001    0.0431    0.5432   -0.0003
          12   -0.3432    0.4093    0.0001   -0.0288    0.0661   -0.0000   -0.0002   -0.2914
          13    0.0000    0.0000    0.0016    0.0000   -0.0001   -0.0824    0.2191   -0.0004
          14    0.0000   -0.0001    0.1364    0.0000   -0.0001   -0.2702   -0.0853   -0.0000
          15    0.2390   -0.0253    0.0001   -0.3730   -0.2875    0.0001   -0.0002   -0.2286
          16    0.0000    0.0001   -0.1975   -0.0000   -0.0000   -0.1428   -0.1896    0.0001
          17    0.0000    0.0000    0.0245    0.0001   -0.0000   -0.3045   -0.2917    0.0002
          18    0.2088    0.3876    0.0001   -0.0176    0.3593   -0.0002    0.0003    0.2396
          19   -0.0000    0.0000   -0.1935   -0.0000   -0.0001   -0.1521   -0.1938    0.0000
          20    0.0000    0.0001   -0.1969    0.0000   -0.0000    0.0263   -0.0729    0.0002
          21   -0.1001    0.0481   -0.0001    0.3999   -0.2591    0.0002   -0.0002   -0.2298
          22   -0.0000    0.0000   -0.0768   -0.0001    0.0002    0.4288   -0.1069    0.0001
          23   -0.0000   -0.0002    0.5693    0.0001    0.0002    0.3028   -0.0549    0.0000
          24    0.5339    0.0374    0.0000    0.0235   -0.0465    0.0000    0.0000    0.0208
          25    0.0000    0.0000   -0.1014   -0.0000    0.0001    0.1419   -0.0333    0.0000
          26    0.0000    0.0000   -0.0795   -0.0000   -0.0000    0.0308    0.1576   -0.0001
          27   -0.3150    0.3881    0.0002   -0.0071   -0.2051    0.0001    0.0000    0.0912
          28    0.0000   -0.0001    0.1167    0.0000   -0.0001   -0.1027    0.0535   -0.0000
          29    0.0000   -0.0000    0.0206   -0.0000   -0.0000   -0.0848   -0.0533   -0.0000
          30   -0.0048   -0.1776   -0.0001    0.3255   -0.1136    0.0001    0.0001    0.2321
          31    0.0000    0.0000    0.0009    0.0000   -0.0000   -0.0250    0.0638   -0.0001
          32    0.0000   -0.0000    0.1031    0.0000   -0.0000   -0.0824    0.0693   -0.0001
          33    0.1372   -0.0012    0.0001   -0.2936   -0.2728    0.0001   -0.0002   -0.2457
          34   -0.0000    0.0000   -0.1052   -0.0000    0.0000   -0.0096   -0.0876    0.0001
          35    0.0000   -0.0000    0.0350    0.0000    0.0000   -0.1068   -0.0650    0.0000
          36    0.1221    0.2611    0.0001   -0.0132    0.2951   -0.0002    0.0001    0.2496
          37    0.0000    0.0000   -0.1115   -0.0000    0.0000    0.0185   -0.0299    0.0000
          38    0.0000    0.0000   -0.0891    0.0000   -0.0000    0.0430   -0.0070    0.0000
          39   -0.0423    0.0416   -0.0000    0.3205   -0.2442    0.0002   -0.0002   -0.2569
          40   -0.0000   -0.0000    0.0182    0.0000   -0.0000   -0.0814   -0.0350    0.0001
          41   -0.0000    0.0000   -0.1271   -0.0001    0.0000    0.0314   -0.0991    0.0001
          42   -0.1333   -0.1620   -0.0000   -0.2889   -0.1452   -0.0000    0.0001    0.2188
          43    0.0000    0.0000    0.0937   -0.0000    0.0001    0.1965   -0.2422    0.0002
          44    0.0000   -0.0001    0.2502    0.0000    0.0001    0.1422   -0.1704    0.0001
          45    0.3590   -0.2526   -0.0001   -0.0016    0.2257   -0.0000   -0.0002   -0.2882
          46   -0.0000    0.0001   -0.1638   -0.0000   -0.0000    0.0477    0.2043   -0.0001
          47    0.0000   -0.0001    0.2480    0.0000    0.0001    0.1361   -0.1564    0.0001
          48    0.1652    0.1804    0.0001    0.0203   -0.3102    0.0001    0.0002    0.4737


   Root No.       9        10        11        12        13        14        15        16

                 9 A      10 A      11 A      12 A      13 A      14 A      15 A      16 A   

                 631.5     684.6     787.0     846.1     853.3     928.0     954.2     982.8
  
           1    0.1654   -0.0000    0.0000    0.0201   -0.0000   -0.0000   -0.0000    0.0001
           2   -0.0739   -0.0000   -0.0000    0.0390    0.0000    0.0000   -0.0000    0.0001
           3    0.0001    0.4130    0.3692    0.0000   -0.0147   -0.0921    0.2969    0.0002
           4    0.1227   -0.0000   -0.0000    0.1562    0.0001    0.0000    0.0000    0.0001
           5   -0.4379    0.0000   -0.0000    0.1166    0.0001    0.0000    0.0000   -0.0002
           6   -0.0001   -0.0225   -0.0877    0.0000    0.2472    0.2135   -0.2244    0.3028
           7    0.4256    0.0001    0.0000    0.0166   -0.0000    0.0001   -0.0000   -0.0001
           8    0.1234    0.0000   -0.0000    0.2086   -0.0000    0.0000   -0.0000   -0.0000
           9   -0.0001   -0.0384   -0.0632    0.0000   -0.1875    0.1732   -0.2103   -0.3182
          10   -0.0029    0.0000    0.0000   -0.0766   -0.0000    0.0000    0.0000   -0.0000
          11    0.0315   -0.0000    0.0001   -0.3121   -0.0000   -0.0001   -0.0000    0.0001
          12    0.0002   -0.2602   -0.1033    0.0000   -0.0179   -0.2640   -0.2502    0.0441
          13   -0.4492    0.0000   -0.0000    0.4194    0.0001    0.0001   -0.0000   -0.0002
          14   -0.1250    0.0000   -0.0000   -0.0027   -0.0000   -0.0000    0.0000    0.0000
          15    0.0002    0.1411   -0.1430   -0.0002    0.2232   -0.0563   -0.0582   -0.3219
          16   -0.1687   -0.0000    0.0000   -0.1852   -0.0000   -0.0000   -0.0000    0.0001
          17    0.0877   -0.0000    0.0000   -0.3229   -0.0001   -0.0000    0.0000    0.0001
          18   -0.0001   -0.0309   -0.2378    0.0001   -0.0226   -0.2081    0.2673    0.0455
          19   -0.1241   -0.0000   -0.0000   -0.2094   -0.0000   -0.0000    0.0000    0.0001
          20    0.4638    0.0001   -0.0000    0.3790    0.0000    0.0001   -0.0000   -0.0001
          21    0.0000    0.1442   -0.1372   -0.0000   -0.2505    0.0609   -0.0770    0.2743
          22    0.0106   -0.0000    0.0000   -0.1360   -0.0000   -0.0000   -0.0000   -0.0000
          23   -0.0434   -0.0000    0.0000   -0.2114   -0.0000    0.0000    0.0001   -0.0001
          24   -0.0000    0.0123   -0.0190   -0.0001   -0.0144   -0.0106   -0.1301   -0.0295
          25   -0.0112   -0.0000    0.0000   -0.0216   -0.0000   -0.0000   -0.0000    0.0001
          26    0.0003   -0.0000    0.0000   -0.0890   -0.0000   -0.0000   -0.0000    0.0001
          27   -0.0001   -0.0259   -0.1069   -0.0001    0.0502    0.6126    0.4346   -0.0758
          28    0.0809   -0.0000    0.0000    0.0181    0.0000   -0.0001    0.0000    0.0000
          29   -0.1003    0.0000   -0.0000    0.0181    0.0000   -0.0000    0.0000   -0.0000
          30   -0.0001   -0.4202    0.0553    0.0001   -0.4556   -0.2814    0.2778   -0.3752
          31   -0.1294    0.0000   -0.0000    0.1249    0.0000    0.0000   -0.0000   -0.0001
          32    0.0205    0.0000   -0.0000    0.1191   -0.0000    0.0000    0.0000    0.0001
          33    0.0001   -0.1250    0.4638    0.0002   -0.4348    0.0735    0.0993    0.3996
          34    0.0677    0.0000   -0.0000   -0.0502    0.0000   -0.0000    0.0000   -0.0000
          35   -0.0427   -0.0000    0.0000   -0.0950   -0.0000    0.0000   -0.0000    0.0001
          36   -0.0001   -0.3068    0.4921   -0.0000    0.0493    0.3253   -0.3811   -0.0542
          37   -0.0795   -0.0000   -0.0001    0.0494   -0.0000   -0.0000    0.0000    0.0001
          38    0.1090   -0.0000    0.0001    0.1763    0.0001   -0.0000    0.0000   -0.0001
          39    0.0001   -0.1141    0.4448   -0.0001    0.4655   -0.0977    0.1228   -0.3499
          40    0.1235    0.0000    0.0000    0.0041    0.0000    0.0000    0.0000   -0.0000
          41   -0.0238   -0.0000   -0.0000    0.0241    0.0000   -0.0000    0.0000    0.0000
          42   -0.0001   -0.4077    0.0203    0.0001    0.4130   -0.2699    0.2684    0.4350
          43   -0.0119    0.0001    0.0000    0.1848    0.0000   -0.0001   -0.0001    0.0002
          44   -0.0248    0.0000    0.0000    0.1051    0.0000   -0.0000   -0.0000    0.0001
          45    0.0002   -0.2644   -0.1451    0.0000    0.0310    0.3712    0.3510   -0.0174
          46    0.0311   -0.0001   -0.0000   -0.3269   -0.0000    0.0001    0.0001   -0.0002
          47   -0.0294    0.0000   -0.0000    0.1066    0.0000   -0.0000   -0.0001    0.0001
          48   -0.0002    0.4263    0.2326    0.0000    0.0099   -0.1003    0.1596    0.0473


   Root No.      17        18        19        20        21        22        23        24

                17 A      18 A      19 A      20 A      21 A      22 A      23 A      24 A   

                 998.7    1016.3    1038.7    1054.4    1109.4    1122.0    1154.8    1163.4
  
           1   -0.0844    0.0000   -0.0001    0.0242    0.0599   -0.1515   -0.0798   -0.0561
           2   -0.1983    0.0002   -0.0001   -0.0267   -0.0419   -0.1253    0.0452   -0.0057
           3   -0.0001   -0.1202   -0.1917   -0.0001    0.0000   -0.0000   -0.0000    0.0000
           4   -0.2050    0.0001   -0.0002    0.2313   -0.0299   -0.1801    0.0056    0.1252
           5    0.2407   -0.0002    0.0002   -0.1991    0.2252    0.1798    0.0039   -0.0734
           6    0.0003    0.2047    0.1290    0.0001    0.0000    0.0000    0.0000   -0.0000
           7    0.2267   -0.0001    0.0003   -0.3811   -0.0983    0.3430   -0.0038   -0.0929
           8   -0.0113   -0.0000   -0.0001    0.1265   -0.1026   -0.0628   -0.0306    0.1196
           9   -0.0000    0.2257    0.1734    0.0002    0.0000    0.0000   -0.0000   -0.0000
          10    0.0600   -0.0000   -0.0000    0.0241   -0.0091   -0.0329    0.0037   -0.0051
          11   -0.2049    0.0002    0.0001   -0.2335    0.0528    0.1453   -0.0167   -0.0803
          12   -0.0002   -0.0826    0.3243    0.0002   -0.0000   -0.0000   -0.0000    0.0000
          13    0.1852   -0.0001    0.0001   -0.1425   -0.1330   -0.1315    0.0296    0.0806
          14   -0.0078   -0.0000   -0.0001    0.0769    0.0231   -0.0106    0.0003   -0.0733
          15   -0.0004   -0.3116   -0.1073   -0.0001   -0.0000   -0.0000   -0.0000    0.0000
          16   -0.0916    0.0001   -0.0001    0.0364    0.0387   -0.1969    0.0334    0.0233
          17   -0.1810    0.0002   -0.0001    0.0256   -0.0800   -0.3229   -0.0046    0.0089
          18    0.0003    0.3502    0.1043    0.0001   -0.0000    0.0000    0.0000   -0.0000
          19   -0.1218    0.0001   -0.0001    0.1033   -0.0961    0.1355    0.0357   -0.0410
          20    0.2022   -0.0002    0.0001   -0.0365    0.0643   -0.1422   -0.0150    0.0288
          21   -0.0001   -0.3246   -0.1341   -0.0001    0.0000   -0.0000   -0.0000    0.0000
          22    0.0557   -0.0000    0.0001   -0.0203   -0.0251    0.0030    0.0074   -0.0275
          23    0.3358   -0.0003    0.0001    0.1191   -0.0081    0.0047    0.0095    0.0276
          24    0.0004    0.2143   -0.4401   -0.0002    0.0000    0.0000    0.0000   -0.0000
          25   -0.1749    0.0002    0.0001   -0.1729    0.0809    0.3055   -0.0094    0.0439
          26   -0.1923    0.0002    0.0001   -0.1903    0.0734    0.2553   -0.0124    0.0072
          27   -0.0000    0.0573   -0.2438   -0.0002    0.0001    0.0000   -0.0000   -0.0000
          28   -0.1104    0.0000   -0.0002    0.2825    0.3624    0.2417   -0.2334    0.4333
          29    0.0440   -0.0001    0.0000    0.0648    0.2843    0.2292   -0.1322    0.2042
          30   -0.0003   -0.1792   -0.1169   -0.0001   -0.0000    0.0000    0.0000    0.0000
          31    0.0541   -0.0001    0.0000   -0.0395   -0.0385   -0.0408    0.0134    0.0267
          32   -0.0878   -0.0000   -0.0002    0.3526   -0.2607    0.3497    0.6209   -0.2784
          33    0.0004    0.3059    0.0892    0.0001    0.0000   -0.0000    0.0000    0.0000
          34   -0.0024   -0.0000    0.0000    0.0673    0.5748   -0.1541    0.4934    0.0045
          35   -0.0691    0.0001   -0.0001   -0.0215   -0.3547   -0.0450   -0.2830    0.0010
          36   -0.0002   -0.3468   -0.0875   -0.0001    0.0000    0.0000    0.0000    0.0000
          37   -0.0429   -0.0001   -0.0003    0.4181    0.1085    0.1919   -0.3820   -0.5053
          38    0.0564   -0.0001   -0.0001    0.2127    0.0944    0.0402   -0.2321   -0.2700
          39    0.0000    0.3206    0.1214    0.0001   -0.0000    0.0000    0.0000   -0.0000
          40    0.0701   -0.0001    0.0001   -0.1128   -0.0306    0.1067   -0.0032   -0.0310
          41   -0.0095   -0.0000   -0.0002    0.2408   -0.3251    0.2798    0.0722    0.5364
          42    0.0001   -0.2090   -0.2021   -0.0003    0.0000   -0.0000    0.0000   -0.0000
          43   -0.3486    0.0003   -0.0000   -0.1661    0.0012    0.0647   -0.0029   -0.0340
          44   -0.1754    0.0001    0.0000   -0.0856    0.0082    0.0456   -0.0016   -0.0150
          45   -0.0005   -0.2279    0.4635    0.0002   -0.0000   -0.0001   -0.0000    0.0000
          46    0.4694   -0.0004    0.0002    0.1540   -0.0471    0.0144    0.0145    0.0391
          47   -0.1719    0.0002   -0.0001   -0.0635    0.0213   -0.0017   -0.0043   -0.0206
          48   -0.0003   -0.2592    0.4671    0.0003   -0.0001   -0.0001   -0.0000    0.0000


   Root No.      25        26        27        28        29        30        31        32

                25 A      26 A      27 A      28 A      29 A      30 A      31 A      32 A   

                1212.9    1238.3    1310.7    1393.0    1394.9    1543.3    1608.1    1778.9
  
           1   -0.1571    0.0764   -0.0915   -0.2511    0.3303    0.3731    0.2691   -0.4472
           2   -0.0141   -0.1103   -0.1619   -0.3435   -0.2321   -0.2162    0.4978    0.2734
           3    0.0000   -0.0000    0.0000   -0.0000   -0.0000    0.0000    0.0000    0.0000
           4    0.0382    0.1976   -0.0093   -0.1585   -0.3562    0.0148   -0.2706    0.3355
           5   -0.1808    0.0264   -0.1050   -0.1681   -0.2245    0.3500    0.0271    0.0147
           6   -0.0000   -0.0000   -0.0000   -0.0000    0.0000   -0.0000    0.0000   -0.0000
           7   -0.1238   -0.0273   -0.0747   -0.0547    0.0120   -0.2841    0.1796    0.1657
           8    0.0442   -0.1805   -0.0471   -0.2904    0.3595   -0.2238   -0.1933   -0.2564
           9   -0.0000    0.0000    0.0000    0.0000   -0.0000    0.0000    0.0000    0.0000
          10   -0.0199   -0.0286   -0.2144    0.0664   -0.0033    0.0056    0.0542   -0.0667
          11   -0.2675   -0.0902    0.0755    0.3469    0.0358    0.0472   -0.1824   -0.0409
          12    0.0000    0.0000   -0.0000    0.0000    0.0000    0.0000   -0.0000   -0.0000
          13    0.1466    0.0447    0.1425    0.3063    0.0263   -0.2701    0.0723   -0.1837
          14   -0.0860    0.1094    0.0114   -0.1428    0.4036   -0.2487   -0.3767    0.2286
          15    0.0000    0.0000    0.0000    0.0000   -0.0000   -0.0000    0.0000    0.0000
          16    0.1420   -0.1540    0.0622    0.0985    0.3626    0.3560    0.1151    0.4685
          17    0.1211    0.1454    0.1049    0.2651   -0.1870   -0.1814    0.2468   -0.2597
          18   -0.0000   -0.0000   -0.0000   -0.0000    0.0000    0.0000   -0.0000    0.0000
          19    0.0118   -0.1218   -0.1027   -0.2190   -0.3779    0.0315   -0.3573   -0.3304
          20    0.1549   -0.0139    0.0784    0.2088   -0.1834    0.3573   -0.1511    0.0125
          21   -0.0000   -0.0000   -0.0000   -0.0000    0.0000   -0.0000    0.0000    0.0000
          22   -0.1417   -0.1047   -0.0580    0.2388    0.0014   -0.0628   -0.1756    0.0857
          23    0.1892    0.0618   -0.0255   -0.0414   -0.0107   -0.0197   -0.0002    0.0169
          24   -0.0000   -0.0000    0.0000    0.0000   -0.0000   -0.0000   -0.0000    0.0000
          25    0.5718    0.3788   -0.0219   -0.1152    0.0877    0.0468    0.0144   -0.0353
          26    0.3039    0.2283    0.0541    0.0189    0.0660    0.0422   -0.0621   -0.0149
          27   -0.0000   -0.0000    0.0000    0.0000    0.0000   -0.0000   -0.0000   -0.0000
          28    0.1282   -0.3603    0.0425    0.1243   -0.0197   -0.1399    0.0892   -0.0013
          29    0.0080   -0.2403   -0.0089    0.0433   -0.0191    0.0339    0.1179   -0.0601
          30   -0.0000    0.0000    0.0000    0.0000   -0.0000    0.0000    0.0000   -0.0000
          31    0.0484    0.0125    0.0471    0.1032    0.0085   -0.0918    0.0262   -0.0637
          32    0.1572   -0.2658    0.0253    0.1285    0.0365    0.1146    0.1263   -0.0256
          33   -0.0000    0.0000   -0.0000   -0.0000   -0.0001   -0.0000   -0.0000   -0.0000
          34   -0.1152    0.2356    0.0423    0.0556    0.0233   -0.1707    0.0540   -0.0540
          35    0.1336   -0.1198    0.0225    0.0773   -0.0052    0.1092    0.0762    0.0366
          36   -0.0000    0.0000    0.0000   -0.0000   -0.0000   -0.0000   -0.0000   -0.0000
          37   -0.0996    0.2182    0.0311    0.0784   -0.0115   -0.1308    0.1071   -0.0017
          38   -0.0097    0.1440    0.0629    0.1567    0.0038    0.0417    0.0799    0.0684
          39   -0.0000   -0.0000   -0.0000   -0.0000    0.0001   -0.0000   -0.0000   -0.0000
          40   -0.0399   -0.0080   -0.0294   -0.0217    0.0056   -0.0970    0.0636    0.0542
          41   -0.3874    0.4602   -0.0163    0.1207    0.0580    0.1189    0.1358    0.0320
          42    0.0000   -0.0000    0.0000   -0.0000   -0.0000   -0.0000    0.0000   -0.0000
          43   -0.2083   -0.0823    0.5707   -0.0999   -0.0336    0.0208    0.0011   -0.0021
          44   -0.0575   -0.0195    0.3889   -0.1269   -0.0267    0.0221    0.0379   -0.0169
          45   -0.0000   -0.0000   -0.0000    0.0000    0.0000   -0.0000   -0.0000   -0.0000
          46    0.0736    0.0123    0.5117   -0.2163   -0.0433   -0.0039    0.0347    0.0094
          47   -0.0132   -0.0081   -0.2890    0.1523    0.0204   -0.0154   -0.0563    0.0184
          48    0.0000   -0.0000   -0.0001    0.0000    0.0000   -0.0000   -0.0000    0.0000


   Root No.      33        34        35        36        37        38        39        40

                33 A      34 A      35 A      36 A      37 A      38 A      39 A      40 A   

                1799.9    1849.8    3003.4    3035.9    3051.9    3059.1    3067.1    3078.9
  
           1   -0.1217   -0.1783    0.0038    0.0022   -0.0084   -0.0053    0.0059    0.0045
           2   -0.2809   -0.1272   -0.0095    0.0007   -0.0006   -0.0035   -0.0008    0.0037
           3   -0.0000   -0.0000   -0.0000    0.0000    0.0000    0.0000    0.0000    0.0000
           4    0.3374    0.0676   -0.0010    0.0066    0.1217    0.0551   -0.0482   -0.0279
           5    0.3112   -0.0029    0.0034   -0.0158   -0.2018   -0.0988    0.0981    0.0619
           6    0.0000    0.0000    0.0000   -0.0000   -0.0000   -0.0000    0.0000    0.0000
           7    0.0856    0.0273   -0.2843    0.0053   -0.0045   -0.0190   -0.0193    0.0171
           8    0.4850    0.0400   -0.0037    0.0030    0.0015   -0.0046   -0.0085    0.0064
           9   -0.0000    0.0000    0.0000   -0.0000   -0.0000    0.0000    0.0000   -0.0000
          10   -0.0740    0.7051    0.0068    0.1739   -0.0076   -0.0016    0.0024   -0.0030
          11    0.0347    0.1904   -0.0025   -0.2292    0.0126    0.0053   -0.0025   -0.0018
          12   -0.0000    0.0000    0.0000    0.0000   -0.0000   -0.0000   -0.0000    0.0000
          13   -0.0885   -0.0115   -0.0009   -0.0037   -0.1479    0.0676   -0.1837   -0.1581
          14   -0.4363    0.0226    0.0007    0.0007    0.0074    0.0107   -0.0055    0.0062
          15    0.0000    0.0000    0.0000    0.0000   -0.0000    0.0000   -0.0000   -0.0000
          16    0.0673    0.0400    0.0008   -0.0002    0.0332   -0.0991    0.0289   -0.1004
          17    0.1669   -0.0183   -0.0007    0.0000    0.0502   -0.1747    0.0207   -0.1731
          18   -0.0000   -0.0000   -0.0000    0.0000   -0.0000    0.0000   -0.0000    0.0000
          19   -0.3077   -0.0457    0.0221   -0.0007    0.0115   -0.0698   -0.0969    0.0784
          20   -0.2997   -0.0182   -0.0161    0.0007   -0.0225    0.1379    0.1703   -0.1227
          21    0.0000    0.0000    0.0000   -0.0000    0.0000   -0.0000   -0.0000    0.0000
          22    0.0971   -0.5950   -0.0345   -0.0070   -0.0002   -0.0067   -0.0098    0.0235
          23    0.0039   -0.0438    0.0402    0.0157   -0.0005    0.0070    0.0112   -0.0259
          24    0.0000   -0.0000   -0.0000   -0.0000   -0.0000   -0.0000   -0.0000    0.0000
          25   -0.0028   -0.0007   -0.0104   -0.5279    0.0302    0.0115   -0.0065   -0.0029
          26    0.0278   -0.1196    0.0182    0.7919   -0.0410   -0.0150    0.0084    0.0022
          27   -0.0000   -0.0000    0.0000   -0.0000    0.0000    0.0000   -0.0000    0.0000
          28   -0.0687   -0.0056    0.0105   -0.0297   -0.3952   -0.1851    0.1710    0.0996
          29   -0.0003   -0.0209   -0.0180    0.0454    0.6749    0.3216   -0.3016   -0.1771
          30   -0.0000   -0.0000   -0.0000    0.0000    0.0000    0.0000   -0.0000   -0.0000
          31   -0.0295   -0.0034    0.0027    0.0135    0.5057   -0.2227    0.6021    0.4947
          32    0.0472   -0.0044    0.0001   -0.0004   -0.0057   -0.0051   -0.0003   -0.0047
          33    0.0000    0.0000    0.0000   -0.0000    0.0000   -0.0000    0.0000    0.0000
          34    0.0337   -0.0014    0.0045    0.0002   -0.1043    0.3407   -0.0606    0.3184
          35    0.0511    0.0026    0.0062    0.0006   -0.1731    0.5861   -0.0896    0.5449
          36   -0.0000    0.0000    0.0000   -0.0000    0.0000   -0.0000    0.0000   -0.0000
          37    0.0563    0.0028   -0.0568    0.0020   -0.0404    0.2529    0.3202   -0.2290
          38   -0.0103    0.0047    0.0882   -0.0034    0.0730   -0.4500   -0.5582    0.3933
          39    0.0000   -0.0000   -0.0000   -0.0000   -0.0000    0.0001    0.0001   -0.0001
          40    0.0317    0.0083    0.9338   -0.0164    0.0077    0.0532    0.0516   -0.0364
          41   -0.0641   -0.0150   -0.0021    0.0007   -0.0005    0.0027    0.0032   -0.0017
          42   -0.0000   -0.0000   -0.0000    0.0000   -0.0000   -0.0000   -0.0000    0.0000
          43   -0.0012   -0.0086    0.1066   -0.0135    0.0016    0.0200    0.0293   -0.0698
          44   -0.0235    0.1349   -0.1418    0.0141   -0.0020   -0.0277   -0.0412    0.0986
          45    0.0000   -0.0000    0.0000   -0.0000    0.0000    0.0000    0.0000   -0.0000
          46   -0.0038   -0.0242    0.0001   -0.0368    0.0023    0.0014    0.0002   -0.0022
          47    0.0245   -0.1291    0.0081   -0.0748    0.0047    0.0042    0.0024   -0.0087
          48   -0.0000   -0.0000    0.0000   -0.0000   -0.0000    0.0000   -0.0000   -0.0000


   Root No.      41        42

                41 A      42 A   

                3085.5    3152.1
  
           1    0.0023    0.0032
           2   -0.0030    0.0013
           3    0.0000    0.0000
           4    0.0034   -0.0009
           5   -0.0056    0.0000
           6   -0.0000    0.0000
           7   -0.0574   -0.0013
           8   -0.0016    0.0005
           9    0.0000    0.0000
          10   -0.0264    0.0352
          11    0.0013   -0.0175
          12   -0.0000    0.0000
          13    0.0125    0.0001
          14   -0.0009   -0.0000
          15    0.0000   -0.0000
          16    0.0111    0.0001
          17    0.0172    0.0003
          18   -0.0000    0.0000
          19   -0.0138   -0.0001
          20    0.0269    0.0003
          21   -0.0000   -0.0000
          22    0.1834   -0.1485
          23   -0.1972   -0.2506
          24    0.0000   -0.0000
          25    0.0043   -0.0454
          26   -0.0130    0.0593
          27   -0.0000   -0.0000
          28   -0.0090    0.0001
          29    0.0162   -0.0006
          30    0.0000    0.0000
          31   -0.0380   -0.0005
          32    0.0004    0.0000
          33   -0.0000   -0.0000
          34   -0.0315   -0.0005
          35   -0.0533   -0.0008
          36    0.0000    0.0000
          37    0.0454    0.0005
          38   -0.0808   -0.0009
          39    0.0000   -0.0000
          40    0.1878    0.0062
          41    0.0057    0.0018
          42   -0.0000   -0.0000
          43   -0.5345   -0.0463
          44    0.7619    0.0337
          45   -0.0000   -0.0000
          46   -0.0216    0.4731
          47   -0.0750    0.8251
          48   -0.0000    0.0000


          DESCRIPTION OF VIBRATIONS


 VIBRATION    1    1A         ATOM PAIR      ENERGY CONTRIBUTION    RADIAL
 FREQ.        95.92         C  4 -- C  8         +34.5% (429.4%)      0.0%
 T-DIPOLE    0.0430         C  8 -- H 16          +8.7% (215.4%)      0.0%
 TRAVEL      0.0755         C  8 -- H 15          +7.1% (195.4%)      0.0%
 RED. MASS   1.4273         C  1 -- C  4          +7.1% (195.1%)      0.0%
 EFF. MASS 123.4656

 VIBRATION    2    2A         ATOM PAIR      ENERGY CONTRIBUTION    RADIAL
 FREQ.       197.56         C  1 -- C  4         +18.1% (162.6%)      0.0%
 T-DIPOLE    0.0912         C  5 -- C  6          +9.3% (116.6%)      0.0%
 TRAVEL      0.1085         C  4 -- C  8          +8.6% (112.3%)      0.0%
 RED. MASS   1.0548         C  8 -- H 15          +7.9% (107.5%)      0.0%
 EFF. MASS  28.9701

 VIBRATION    3    3A         ATOM PAIR      ENERGY CONTRIBUTION    RADIAL
[...]
 FREQ.      1109.43         C  6 -- H 12         +33.4% ( 67.8%)      0.3%
 T-DIPOLE    0.0351         C  2 -- H 10         +18.5% ( 50.5%)     13.3%
 TRAVEL      0.1448         C  3 -- H 14          +9.2% ( 35.6%)      7.7%
 RED. MASS   0.3163         C  2 -- C  5          +8.0% ( 33.1%)     99.7%
 EFF. MASS   2.8986

 VIBRATION   22   22A         ATOM PAIR      ENERGY CONTRIBUTION    RADIAL
 FREQ.      1122.00         C  6 -- C  7         +13.0% ( 53.2%)     76.8%
 T-DIPOLE    0.0976         C  5 -- C  6         +10.4% ( 47.6%)     56.1%
 TRAVEL      0.0907         C  1 -- C  3         +10.0% ( 46.6%)     14.2%
 RED. MASS   0.5825         C  3 -- C  7          +9.4% ( 45.4%)     60.8%
 EFF. MASS   7.3087

 VIBRATION   23   23A         ATOM PAIR      ENERGY CONTRIBUTION    RADIAL
 FREQ.      1154.77         C  5 -- H 11         +37.1% ( 60.9%)      0.1%
 T-DIPOLE    0.0064         C  6 -- H 12         +30.4% ( 55.1%)      0.0%
 TRAVEL      0.2222         C  7 -- H 13         +19.8% ( 44.4%)      0.2%
 RED. MASS   0.3018         C  2 -- H 10          +7.2% ( 26.9%)      0.0%
 EFF. MASS   1.1822

 VIBRATION   24   24A         ATOM PAIR      ENERGY CONTRIBUTION    RADIAL
 FREQ.      1163.40         C  7 -- H 13         +28.3% ( 55.3%)      0.3%
 T-DIPOLE    0.0326         C  3 -- H 14         +26.7% ( 53.7%)      2.6%
 TRAVEL      0.1729         C  2 -- H 10         +20.9% ( 47.5%)      4.4%
 RED. MASS   0.2658         C  5 -- H 11          +7.1% ( 27.7%)      6.2%
 EFF. MASS   1.9383

 VIBRATION   25   25A         ATOM PAIR      ENERGY CONTRIBUTION    RADIAL
 FREQ.      1212.90         C  4 -- H  9         +30.3% ( 68.5%)      3.0%
 T-DIPOLE    0.0509         C  3 -- H 14         +10.4% ( 40.2%)      3.1%
 TRAVEL      0.1123         C  4 -- C  8          +8.6% ( 36.4%)      4.2%
 RED. MASS   0.3611         C  1 -- C  2          +5.3% ( 28.7%)     57.8%
 EFF. MASS   4.4078

 VIBRATION   26   26A         ATOM PAIR      ENERGY CONTRIBUTION    RADIAL
 FREQ.      1238.26         C  3 -- H 14         +19.2% ( 51.0%)      0.2%
 T-DIPOLE    0.0282         C  2 -- H 10         +17.3% ( 48.4%)      0.6%
 TRAVEL      0.1495         C  4 -- H  9         +14.0% ( 43.6%)      0.5%
 RED. MASS   0.2030         C  6 -- H 12          +9.5% ( 35.9%)      0.5%
 EFF. MASS   2.4370

 VIBRATION   27   27A         ATOM PAIR      ENERGY CONTRIBUTION    RADIAL
 FREQ.      1310.73         C  8 -- H 15         +33.8% ( 60.4%)      0.1%
 T-DIPOLE    0.1430         C  8 -- H 16         +22.4% ( 49.2%)      0.8%
 TRAVEL      0.1345         C  1 -- C  4          +8.7% ( 30.7%)     29.4%
 RED. MASS   0.4094         C  4 -- H  9          +4.7% ( 22.6%)     42.0%
 EFF. MASS   2.8445

 VIBRATION   28   28A         ATOM PAIR      ENERGY CONTRIBUTION    RADIAL
 FREQ.      1393.02         C  1 -- C  4         +16.2% ( 60.6%)     99.2%
 T-DIPOLE    0.3100         C  5 -- C  6          +9.7% ( 47.1%)     99.8%
 TRAVEL      0.0686         C  3 -- C  7          +8.7% ( 44.6%)     43.9%
 RED. MASS   1.0903         C  1 -- C  3          +8.4% ( 43.6%)      6.0%
 EFF. MASS  10.2877

 VIBRATION   29   29A         ATOM PAIR      ENERGY CONTRIBUTION    RADIAL
 FREQ.      1394.86         C  6 -- C  7         +13.0% ( 63.9%)    100.0%
 T-DIPOLE    0.0929         C  2 -- C  5         +12.9% ( 63.8%)    100.0%
 TRAVEL      0.0642         C  1 -- C  2         +12.2% ( 61.9%)    100.0%
 RED. MASS   1.9260         C  5 -- C  6         +11.7% ( 60.7%)    100.0%
 EFF. MASS  11.7384         C  3 -- C  7         +11.3% ( 59.5%)     99.1%
                            C  1 -- C  3         +11.0% ( 58.7%)    100.0%

 VIBRATION   30   30A         ATOM PAIR      ENERGY CONTRIBUTION    RADIAL
 FREQ.      1543.29         C  3 -- C  7         +12.9% ( 53.2%)     99.9%
 T-DIPOLE    0.5301         C  2 -- C  5         +12.8% ( 52.8%)     99.3%
 TRAVEL      0.0633         C  1 -- C  2         +11.7% ( 50.6%)     28.6%
 RED. MASS   1.5285         C  1 -- C  3         +11.6% ( 50.3%)     23.0%
 EFF. MASS  10.9195         C  6 -- C  7         +10.5% ( 47.9%)     27.1%
                            C  5 -- C  6         +10.3% ( 47.4%)     15.9%

 VIBRATION   31   31A         ATOM PAIR      ENERGY CONTRIBUTION    RADIAL
 FREQ.      1608.13         C  1 -- C  2         +15.5% ( 57.6%)     56.8%
 T-DIPOLE    0.4162         C  1 -- C  3         +15.4% ( 57.4%)     64.3%
 TRAVEL      0.0617         C  1 -- C  4         +13.5% ( 53.8%)     95.5%
 RED. MASS   1.9822         C  5 -- C  6          +9.3% ( 44.8%)     69.4%
 EFF. MASS  11.0311

 VIBRATION   32   32A         ATOM PAIR      ENERGY CONTRIBUTION    RADIAL
 FREQ.      1778.87         C  6 -- C  7         +15.6% ( 54.9%)     89.9%
 T-DIPOLE    0.0633         C  1 -- C  2         +15.1% ( 54.1%)     90.2%
 TRAVEL      0.0565         C  1 -- C  3         +14.4% ( 52.8%)     88.5%
 RED. MASS   2.3857         C  5 -- C  6         +14.3% ( 52.7%)     84.1%
 EFF. MASS  11.8640

 VIBRATION   33   33A         ATOM PAIR      ENERGY CONTRIBUTION    RADIAL
 FREQ.      1799.90         C  3 -- C  7         +17.0% ( 57.6%)     99.6%
 T-DIPOLE    0.1271         C  2 -- C  5         +16.1% ( 56.0%)    100.0%
 TRAVEL      0.0563         C  1 -- C  3         +12.2% ( 48.7%)     50.9%
 RED. MASS   2.2397         C  1 -- C  2         +10.5% ( 45.3%)     37.5%
 EFF. MASS  11.8232

 VIBRATION   34   34A         ATOM PAIR      ENERGY CONTRIBUTION    RADIAL
 FREQ.      1849.82         C  4 -- C  8         +42.7% ( 96.5%)     98.5%
 T-DIPOLE    0.0554         C  1 -- C  4         +18.6% ( 63.7%)     58.0%
 TRAVEL      0.0555         C  4 -- H  9         +15.5% ( 58.2%)      3.2%
 RED. MASS   4.9689         C  8 -- H 15         +10.0% ( 46.6%)      9.4%
 EFF. MASS  11.8137

 VIBRATION   35   35A         ATOM PAIR      ENERGY CONTRIBUTION    RADIAL
 FREQ.      3003.42         C  3 -- H 14         +92.2% ( 97.7%)    100.0%
 T-DIPOLE    0.3549         C  8 -- H 15          +3.5% ( 19.0%)     99.7%
 TRAVEL      0.1214         C  1 -- C  3          +1.5% ( 12.4%)     25.7%
 RED. MASS   0.8461         C  3 -- C  7          +1.5% ( 12.4%)     22.0%
 EFF. MASS   1.5242

 VIBRATION   36   36A         ATOM PAIR      ENERGY CONTRIBUTION    RADIAL
 FREQ.      3035.89         C  4 -- H  9         +96.0% ( 99.4%)    100.0%
 T-DIPOLE    0.2647         C  4 -- C  8          +1.5% ( 12.3%)     30.2%
 TRAVEL      0.1212         C  1 -- C  4          +1.4% ( 12.1%)     15.8%
 RED. MASS   0.9094         C  8 -- H 16          +0.7% (  8.6%)     95.7%
 EFF. MASS   1.5126

 VIBRATION   37   37A         ATOM PAIR      ENERGY CONTRIBUTION    RADIAL
 FREQ.      3051.88         C  2 -- H 10         +64.7% ( 81.8%)    100.0%
 T-DIPOLE    0.1809         C  5 -- H 11         +27.1% ( 52.9%)    100.0%
 TRAVEL      0.1213         C  6 -- H 12          +4.3% ( 21.2%)     99.9%
 RED. MASS   0.4878         C  2 -- C  5          +1.3% ( 11.5%)      1.8%
 EFF. MASS   1.5010

 VIBRATION   38   38A         ATOM PAIR      ENERGY CONTRIBUTION    RADIAL
 FREQ.      3059.13         C  6 -- H 12         +48.6% ( 70.9%)    100.0%
 T-DIPOLE    0.1870         C  7 -- H 13         +28.2% ( 54.0%)    100.0%
 TRAVEL      0.1211         C  2 -- H 10         +14.5% ( 38.7%)    100.0%
 RED. MASS   0.3347         C  5 -- H 11          +5.3% ( 23.3%)     99.7%
 EFF. MASS   1.5023

 VIBRATION   39   39A         ATOM PAIR      ENERGY CONTRIBUTION    RADIAL
 FREQ.      3067.12         C  7 -- H 13         +43.9% ( 67.3%)    100.0%
 T-DIPOLE    0.5258         C  5 -- H 11         +38.4% ( 62.9%)    100.0%
 TRAVEL      0.1197         C  2 -- H 10         +12.7% ( 36.2%)    100.0%
 RED. MASS   0.3532         C  6 -- H 12          +1.2% ( 11.3%)     97.7%
 EFF. MASS   1.5345

 VIBRATION   40   40A         ATOM PAIR      ENERGY CONTRIBUTION    RADIAL
 FREQ.      3078.89         C  6 -- H 12         +42.3% ( 66.0%)    100.0%
 T-DIPOLE    0.3927         C  5 -- H 11         +26.0% ( 51.7%)    100.0%
 TRAVEL      0.1173         C  7 -- H 13         +22.0% ( 47.6%)    100.0%
 RED. MASS   0.2979         C  2 -- H 10          +4.4% ( 21.3%)     99.9%
 EFF. MASS   1.5913

 VIBRATION   41   41A         ATOM PAIR      ENERGY CONTRIBUTION    RADIAL
 FREQ.      3085.47         C  8 -- H 15         +91.9% ( 96.7%)     99.9%
 T-DIPOLE    0.1725         C  3 -- H 14          +3.6% ( 19.1%)    100.0%
 TRAVEL      0.1214         C  8 -- H 16          +1.4% ( 11.9%)      0.0%
 RED. MASS   0.8208         C  4 -- C  8          +1.3% ( 11.7%)     47.4%
 EFF. MASS   1.4832

 VIBRATION   42   42A         ATOM PAIR      ENERGY CONTRIBUTION    RADIAL
 FREQ.      3152.13         C  8 -- H 16         +96.0% ( 99.4%)    100.0%
 T-DIPOLE    0.3055         C  8 -- H 15          +1.9% ( 13.9%)     33.6%
 TRAVEL      0.1183         C  4 -- C  8          +1.5% ( 12.5%)     43.6%
 RED. MASS   0.9115         C  4 -- H  9          +0.6% (  7.9%)     95.4%
 EFF. MASS   1.5293

      SYMMETRY NUMBER FOR POINT-GROUP C1  =  1


          SYSTEM IS A GROUND STATE



 InChI=1S/C8H8/c1-2-8-6-4-3-5-7-8/h2-7H,1H2


          MOLECULE IS NOT LINEAR

          THERE ARE 42 GENUINE VIBRATIONS IN THIS SYSTEM
          THIS THERMODYNAMICS CALCULATION IS LIMITED TO
          MOLECULES WHICH HAVE NO INTERNAL ROTATIONS




                    CALCULATED THERMODYNAMIC PROPERTIES
                                          *
   TEMP. (K)   PARTITION FUNCTION   H.O.F.    ENTHALPY  HEAT CAPACITY ENTROPY
                                   KCAL/MOL   CAL/MOLE    CAL/K/MOL  CAL/K/MOL


 298.00  VIB.     0.1293D+02                  2411.9858    20.0998    13.1801
         ROT.     0.2748D+06                   888.2813     2.9808    27.8680
         INT.     0.3553D+07                  3300.2671    23.0806    41.0481
         TRA.     0.1028D+28                  1480.4688     4.9680    39.8370
         TOT.                       39.091    4780.7360    28.0486    80.8851

 200.00  VIB.     0.3807D+01                   889.1121    11.1487     7.1019
         ROT.     0.1511D+06                   596.1620     2.9808    26.6794
         INT.     0.5751D+06                  1485.2740    14.1295    33.7813
         TRA.     0.5650D+27                   993.6033     4.9680    37.8559
         TOT.                       36.790    2478.8773    19.0975    71.6372

 210.00  VIB.     0.4263D+01                  1004.8420    12.0009     7.6664
         ROT.     0.1626D+06                   625.9700     2.9808    26.8248
         INT.     0.6930D+06                  1630.8120    14.9817    34.4912
         TRA.     0.6079D+27                  1043.2834     4.9680    38.0983
         TOT.                       36.985    2674.0955    19.9497    72.5895

 220.00  VIB.     0.4788D+01                  1129.1974    12.8734     8.2448
         ROT.     0.1743D+06                   655.7781     2.9808    26.9635
         INT.     0.8345D+06                  1784.9755    15.8542    35.2082
         TRA.     0.6518D+27                  1092.9636     4.9680    38.3294
         TOT.                       37.189    2877.9391    20.8223    73.5376

 230.00  VIB.     0.5391D+01                  1262.3710    13.7641     8.8366
         ROT.     0.1863D+06                   685.5862     2.9808    27.0960
         INT.     0.1004D+07                  1947.9573    16.7449    35.9325
         TRA.     0.6968D+27                  1142.6437     4.9680    38.5502
         TOT.                       37.401    3090.6010    21.7129    74.4828

 240.00  VIB.     0.6087D+01                  1404.5316    14.6704     9.4415
         ROT.     0.1986D+06                   715.3943     2.9808    27.2228
         INT.     0.1209D+07                  2119.9259    17.6512    36.6643
         TRA.     0.7427D+27                  1192.3239     4.9680    38.7617
         TOT.                       37.623    3312.2498    22.6192    75.4260

 250.00  VIB.     0.6891D+01                  1555.8218    15.5896    10.0589
         ROT.     0.2111D+06                   745.2024     2.9808    27.3445
         INT.     0.1455D+07                  2301.0243    18.5704    37.4035
         TRA.     0.7896D+27                  1242.0041     4.9680    38.9645
         TOT.                       37.854    3543.0283    23.5384    76.3679

 260.00  VIB.     0.7820D+01                  1716.3583    16.5192    10.6885
         ROT.     0.2239D+06                   775.0105     2.9808    27.4614
         INT.     0.1751D+07                  2491.3688    19.5000    38.1499
         TRA.     0.8374D+27                  1291.6842     4.9680    39.1593
         TOT.                       38.094    3783.0530    24.4680    77.3092

 270.00  VIB.     0.8897D+01                  1886.2306    17.4564    11.3295
         ROT.     0.2370D+06                   804.8186     2.9808    27.5739
         INT.     0.2108D+07                  2691.0493    20.4372    38.9034
         TRA.     0.8862D+27                  1341.3644     4.9680    39.3468
         TOT.                       38.343    4032.4136    25.4052    78.2502

 280.00  VIB.     0.1015D+02                  2065.5025    18.3987    11.9813
         ROT.     0.2503D+06                   834.6267     2.9808    27.6823
         INT.     0.2539D+07                  2900.1293    21.3795    39.6636
         TRA.     0.9359D+27                  1391.0445     4.9680    39.5275
         TOT.                       38.602    4291.1738    26.3475    79.1911

 290.00  VIB.     0.1160D+02                  2254.2123    19.3435    12.6434
         ROT.     0.2638D+06                   864.4348     2.9808    27.7869
         INT.     0.3059D+07                  3118.6471    22.3244    40.4304
         TRA.     0.9865D+27                  1440.7247     4.9680    39.7018
         TOT.                       38.870    4559.3718    27.2924    80.1322

 300.00  VIB.     0.1329D+02                  2452.3743    20.2887    13.3151
         ROT.     0.2776D+06                   894.2429     2.9808    27.8880
         INT.     0.3688D+07                  3346.6172    23.2695    41.2031
         TRA.     0.1038D+28                  1490.4049     4.9680    39.8702
         TOT.                       39.148    4837.0221    28.2375    81.0734

 310.00  VIB.     0.1526D+02                  2659.9804    21.2320    13.9958
         ROT.     0.2915D+06                   924.0510     2.9808    27.9857
         INT.     0.4448D+07                  3584.0315    24.2128    41.9815
         TRA.     0.1090D+28                  1540.0850     4.9680    40.0331
         TOT.                       39.435    5124.1165    29.1808    82.0147

 320.00  VIB.     0.1756D+02                  2877.0018    22.1715    14.6847
         ROT.     0.3058D+06                   953.8591     2.9808    28.0804
         INT.     0.5368D+07                  3830.8610    25.1523    42.7651
         TRA.     0.1143D+28                  1589.7652     4.9680    40.1909
         TOT.                       39.731    5420.6262    30.1203    82.9560

 330.00  VIB.     0.2024D+02                  3103.3908    23.1052    15.3813
         ROT.     0.3202D+06                   983.6672     2.9808    28.1721
         INT.     0.6482D+07                  4087.0580    26.0861    43.5534
         TRA.     0.1197D+28                  1639.4454     4.9680    40.3437
         TOT.                       40.037    5726.5033    31.0541    83.8971

 340.00  VIB.     0.2339D+02                  3339.0824    24.0318    16.0848
         ROT.     0.3349D+06                  1013.4753     2.9808    28.2611
         INT.     0.7832D+07                  4352.5577    27.0126    44.3459
         TRA.     0.1252D+28                  1689.1255     4.9680    40.4921
         TOT.                       40.352    6041.6832    31.9806    84.8380

 350.00  VIB.     0.2707D+02                  3583.9968    24.9496    16.7947
         ROT.     0.3498D+06                  1043.2834     2.9808    28.3475
         INT.     0.9468D+07                  4627.2802    27.9304    45.1422
         TRA.     0.1308D+28                  1738.8057     4.9680    40.6361
         TOT.                       40.677    6366.0859    32.8984    85.7783

 360.00  VIB.     0.3139D+02                  3838.0406    25.8574    17.5103
         ROT.     0.3648D+06                  1073.0915     2.9808    28.4314
         INT.     0.1145D+08                  4911.1321    28.8382    45.9418
         TRA.     0.1364D+28                  1788.4859     4.9680    40.7760
         TOT.                       41.010    6699.6179    33.8063    86.7178

 370.00  VIB.     0.3647D+02                  4101.1088    26.7543    18.2310
         ROT.     0.3802D+06                  1102.8996     2.9808    28.5131
         INT.     0.1386D+08                  5204.0084    29.7351    46.7442
         TRA.     0.1422D+28                  1838.1660     4.9680    40.9121
         TOT.                       41.353    7042.1744    34.7031    87.6563

 380.00  VIB.     0.4244D+02                  4373.0866    27.6392    18.9563
         ROT.     0.3957D+06                  1132.7077     2.9808    28.5926
         INT.     0.1679D+08                  5505.7943    30.6200    47.5489
         TRA.     0.1480D+28                  1887.8462     4.9680    41.0446
         TOT.                       41.704    7393.6405    35.5880    88.5935

 390.00  VIB.     0.4946D+02                  4653.8507    28.5114    19.6856
         ROT.     0.4114D+06                  1162.5158     2.9808    28.6700
         INT.     0.2035D+08                  5816.3665    31.4923    48.3556
         TRA.     0.1538D+28                  1937.5263     4.9680    41.1737
         TOT.                       42.065    7753.8929    36.4603    89.5293

 400.00  VIB.     0.5774D+02                  4943.2710    29.3704    20.4183
         ROT.     0.4273D+06                  1192.3239     2.9808    28.7455
         INT.     0.2467D+08                  6135.5949    32.3512    49.1638
         TRA.     0.1598D+28                  1987.2065     4.9680    41.2995
         TOT.                       42.434    8122.8014    37.3192    90.4632

   *: NOTE: HEATS OF FORMATION ARE RELATIVE TO THE
            ELEMENTS IN THEIR STANDARD STATE AT 298K
              (=  Standard Enthalpy of Formation).

            Hvib:  Zero-point energy is not included.
                   frequencies of less than zero cm-1 are not included.
            Hrot = (3/2)RT
            Htra = (3/2)RT + pV = (5/2)RT

            Heat capacity is Cp, not Cv

          For more information, see: HTTP://OpenMOPAC.net/Manual/thermochemistry.html


           FORCE CONSTANT IN CARTESIAN COORDINATES (Millidynes/A)

    ATOM   CHEMICAL       X               Y               Z
   NUMBER   SYMBOL  FORCE CONSTANT  FORCE CONSTANT  FORCE CONSTANT

      1       C       12.721916       12.717810        2.596571
      2       C       12.124687       12.315804        2.345901
      3       C       11.876261       12.511824        2.345201
      4       C       15.432272        9.827192        2.250086
      5       C       12.094941       12.196898        2.341093
      6       C       12.206863       12.168906        2.338031
      7       C       12.214416       12.231292        2.336420
      8       C       15.135966        9.190768        1.955756
      9       H        2.108605        3.750170        0.353751
     10       H        1.878992        4.032964        0.353940
     11       H        5.159097        0.759976        0.356168
     12       H        1.882822        4.043150        0.354622
     13       H        1.846182        4.074594        0.355303
     14       H        4.966654        0.816450        0.378148
     15       H        2.240063        3.724692        0.360597
     16       H        1.867104        4.269885        0.332679

 **********************
 *                    *
 * JOB ENDED NORMALLY *
 *                    *
 **********************



 TOTAL JOB TIME:             5.14 SECONDS

 == MOPAC DONE ==
