 *******************************************************************************
 ** Site#: 14399        For non-commercial use only    Version 18.184L 64BITS **
 *******************************************************************************
 ** Cite this program as: MOPAC2016, Version: 18.184L, James J. P. Stewart,   **
 ** Stewart Computational Chemistry, web: HTTP://OpenMOPAC.net. Days left:  20**
 *******************************************************************************
 **                                                                           **
 **                                MOPAC2016                                  **
 **                                                                           **
 *******************************************************************************

                              PM3 CALCULATION RESULTS

 *******************************************************************************
 *  CALCULATION DONE:                                Thu Jun 13 15:47:04 2019  *
 *  PM3        - The PM3 Hamiltonian to be used
 *  PRECISE    - CRITERIA TO BE INCREASED BY 100 TIMES
 *  NOSYM      - POINT-GROUP SYMMETRY SET TO C1
 *  THREADS=1  - MULTI-THREADING NOT USED
 *  T=         - A TIME OF 172800.0 SECONDS REQUESTED
 *  DUMP=N     - RESTART FILE WRITTEN EVERY  7200.000 SECONDS
 *******************************************************************************
pm3  precise nosym THREADS=1
 InChI=1S/C9H10/c1-2-5-9-7-3-6-8(9)4-1/h1-2,4-5H,3,6-7H2

   ATOM   CHEMICAL          X               Y               Z
  NUMBER   SYMBOL      (ANGSTROMS)     (ANGSTROMS)     (ANGSTROMS)
 
     1       C         -2.24230000  *  -0.01060000  *   0.02970000  *
     2       C         -1.33870000  *   1.23620000  *  -0.04030000  *
     3       C         -1.32550000  *  -1.24880000  *   0.07560000  *
     4       C          0.03530000  *   0.68540000  *  -0.03250000  *
     5       C          0.04260000  *  -0.68510000  *   0.03150000  *
     6       C          1.22760000  *   1.41250000  *  -0.08200000  *
     7       C          1.24260000  *  -1.40080000  *   0.04930000  *
     8       C          2.44490000  *   0.71410000  *  -0.06520000  *
     9       C          2.45240000  *  -0.69100000  *   0.00040000  *
    10       H         -2.90290000  *  -0.05580000  *  -0.86370000  *
    11       H         -2.87940000  *   0.02850000  *   0.94020000  *
    12       H         -1.51800000  *   1.80610000  *  -0.97740000  *
    13       H         -1.49430000  *   1.89120000  *   0.84390000  *
    14       H         -1.49820000  *  -1.90530000  *  -0.80430000  *
    15       H         -1.47450000  *  -1.82020000  *   1.01700000  *
    16       H          1.21450000  *   2.49360000  *  -0.13230000  *
    17       H          3.37980000  *   1.25800000  *  -0.10270000  *
    18       H          3.39300000  *  -1.22600000  *   0.01310000  *
    19       H          1.24110000  *  -2.48200000  *   0.09980000  *
 


          CARTESIAN COORDINATES 

    NO.       ATOM           X           Y           Z

     1         C         -2.2423     -0.0106      0.0297
     2         C         -1.3387      1.2362     -0.0403
     3         C         -1.3255     -1.2488      0.0756
     4         C          0.0353      0.6854     -0.0325
     5         C          0.0426     -0.6851      0.0315
     6         C          1.2276      1.4125     -0.0820
     7         C          1.2426     -1.4008      0.0493
     8         C          2.4449      0.7141     -0.0652
     9         C          2.4524     -0.6910      0.0004
    10         H         -2.9029     -0.0558     -0.8637
    11         H         -2.8794      0.0285      0.9402
    12         H         -1.5180      1.8061     -0.9774
    13         H         -1.4943      1.8912      0.8439
    14         H         -1.4982     -1.9053     -0.8043
    15         H         -1.4745     -1.8202      1.0170
    16         H          1.2145      2.4936     -0.1323
    17         H          3.3798      1.2580     -0.1027
    18         H          3.3930     -1.2260      0.0131
    19         H          1.2411     -2.4820      0.0998

  H: (PM3): J. J. P. STEWART, J. COMP. CHEM. 10, 209 (1989).
  C: (PM3): J. J. P. STEWART, J. COMP. CHEM. 10, 209 (1989).

           Empirical Formula: C9 H10  =    19 atoms



      MOLECULAR POINT GROUP   :   C1  


      RHF CALCULATION, NO. OF DOUBLY OCCUPIED LEVELS = 23


          Geometry optimization using EF

          DIAGONAL MATRIX USED AS START HESSIAN

 CYCLE:     1 TIME:   0.020 TIME LEFT:  2.00D  GRAD.:    88.199 HEAT:  13.33920
 CYCLE:     2 TIME:   0.047 TIME LEFT:  2.00D  GRAD.:    44.643 HEAT:  12.06722
 CYCLE:     3 TIME:   0.027 TIME LEFT:  2.00D  GRAD.:    55.745 HEAT:  11.94984
 CYCLE:     4 TIME:   0.020 TIME LEFT:  2.00D  GRAD.:    45.252 HEAT:  11.78219
 CYCLE:     5 TIME:   0.023 TIME LEFT:  2.00D  GRAD.:    29.756 HEAT:  11.52556
 CYCLE:     6 TIME:   0.023 TIME LEFT:  2.00D  GRAD.:    28.781 HEAT:  11.44601
 CYCLE:     7 TIME:   0.027 TIME LEFT:  2.00D  GRAD.:    29.234 HEAT:  11.43823
 CYCLE:     8 TIME:   0.043 TIME LEFT:  2.00D  GRAD.:    17.564 HEAT:  11.26190
 CYCLE:     9 TIME:   0.031 TIME LEFT:  2.00D  GRAD.:     5.502 HEAT:  11.17554
 CYCLE:    10 TIME:   0.035 TIME LEFT:  2.00D  GRAD.:     6.443 HEAT:  11.17086
 CYCLE:    11 TIME:   0.023 TIME LEFT:  2.00D  GRAD.:     5.814 HEAT:  11.16220
 CYCLE:    12 TIME:   0.023 TIME LEFT:  2.00D  GRAD.:     5.582 HEAT:  11.15519
 CYCLE:    13 TIME:   0.027 TIME LEFT:  2.00D  GRAD.:     5.191 HEAT:  11.14915
 CYCLE:    14 TIME:   0.023 TIME LEFT:  2.00D  GRAD.:     3.747 HEAT:  11.14301
 CYCLE:    15 TIME:   0.023 TIME LEFT:  2.00D  GRAD.:     2.979 HEAT:  11.13935
 CYCLE:    16 TIME:   0.031 TIME LEFT:  2.00D  GRAD.:     3.141 HEAT:  11.13770
 CYCLE:    17 TIME:   0.027 TIME LEFT:  2.00D  GRAD.:     4.159 HEAT:  11.13909
 CYCLE:    18 TIME:   0.027 TIME LEFT:  2.00D  GRAD.:     1.510 HEAT:  11.13423
 CYCLE:    19 TIME:   0.027 TIME LEFT:  2.00D  GRAD.:     2.700 HEAT:  11.13494
 CYCLE:    20 TIME:   0.031 TIME LEFT:  2.00D  GRAD.:     1.167 HEAT:  11.13356
 CYCLE:    21 TIME:   0.027 TIME LEFT:  2.00D  GRAD.:     0.952 HEAT:  11.13348
 CYCLE:    22 TIME:   0.027 TIME LEFT:  2.00D  GRAD.:     0.629 HEAT:  11.13321
 CYCLE:    23 TIME:   0.027 TIME LEFT:  2.00D  GRAD.:     0.594 HEAT:  11.13312
 CYCLE:    24 TIME:   0.023 TIME LEFT:  2.00D  GRAD.:     0.253 HEAT:  11.13303
 CYCLE:    25 TIME:   0.023 TIME LEFT:  2.00D  GRAD.:     0.387 HEAT:  11.13304
 CYCLE:    26 TIME:   0.023 TIME LEFT:  2.00D  GRAD.:     0.163 HEAT:  11.13300
 CYCLE:    27 TIME:   0.020 TIME LEFT:  2.00D  GRAD.:     0.141 HEAT:  11.13299
 CYCLE:    28 TIME:   0.023 TIME LEFT:  2.00D  GRAD.:     0.090 HEAT:  11.13298
 CYCLE:    29 TIME:   0.023 TIME LEFT:  2.00D  GRAD.:     0.101 HEAT:  11.13298
 CYCLE:    30 TIME:   0.023 TIME LEFT:  2.00D  GRAD.:     0.043 HEAT:  11.13297

     GRADIENT =  0.04263  IS LESS THAN CUTOFF =  0.05000



 -------------------------------------------------------------------------------
 pm3  precise nosym THREADS=1
 InChI=1S/C9H10/c1-2-5-9-7-3-6-8(9)4-1/h1-2,4-5H,3,6-7H2



     GEOMETRY OPTIMISED USING EIGENVECTOR FOLLOWING (EF).     
     SCF FIELD WAS ACHIEVED                                   


                              PM3 CALCULATION
                                                       MOPAC2016 (Version: 18.184L)
                                                       Thu Jun 13 15:47:05 2019
                                                       No. of days remaining =  20




          FINAL HEAT OF FORMATION =         11.13297 KCAL/MOL =      46.58036 KJ/MOL


          TOTAL ENERGY            =      -1220.60776 EV
          ELECTRONIC ENERGY       =      -6236.69284 EV  POINT GROUP:     C1  
          CORE-CORE REPULSION     =       5016.08508 EV
          COSMO AREA              =        160.00 SQUARE ANGSTROMS
          COSMO VOLUME            =        156.98 CUBIC ANGSTROMS

          GRADIENT NORM           =          0.04263 = 0.00978 PER ATOM
          IONIZATION POTENTIAL    =          9.219020 EV
          HOMO LUMO ENERGIES (EV) =         -9.219  0.413
          NO. OF FILLED LEVELS    =         23
          MOLECULAR WEIGHT        =        118.1780

          MOLECULAR DIMENSIONS (Angstroms)

            Atom       Atom       Distance
            H    17    H    10     6.49033
            H    19    H    13     4.96304
            H    15    H    12     2.63979


          SCF CALCULATIONS        =         36
 
          WALL-CLOCK TIME         =          0.863 SECONDS
          COMPUTATION TIME        =          0.382 SECONDS




   ATOM   CHEMICAL          X               Y               Z
  NUMBER   SYMBOL      (ANGSTROMS)     (ANGSTROMS)     (ANGSTROMS)
 
     1       C         -2.24784861  *  -0.01060819  *   0.02986754  *
     2       C         -1.34441564  *   1.23203362  *  -0.04017693  *
     3       C         -1.33119546  *  -1.24467682  *   0.07550570  *
     4       C          0.04978793  *   0.70115216  *  -0.03346139  *
     5       C          0.05727431  *  -0.70067072  *   0.03190263  *
     6       C          1.23646552  *   1.41340742  *  -0.08205142  *
     7       C          1.25148192  *  -1.40167584  *   0.04908551  *
     8       C          2.43969154  *   0.70592689  *  -0.06460296  *
     9       C          2.44710482  *  -0.68286327  *   0.00005437  *
    10       H         -2.92683004  *  -0.05489086  *  -0.84053859  *
    11       H         -2.90359371  *   0.02738637  *   0.91819858  *
    12       H         -1.53414380  *   1.83038477  *  -0.95037849  *
    13       H         -1.51115574  *   1.91318244  *   0.81464378  *
    14       H         -1.51418027  *  -1.92734529  *  -0.77475226  *
    15       H         -1.49099717  *  -1.84481265  *   0.99027560  *
    16       H          1.23011672  *   2.50642394  *  -0.13298446  *
    17       H          3.38737310  *   1.25287545  *  -0.10232281  *
    18       H          3.40057312  *  -1.22083194  *   0.01280403  *
    19       H          1.25680751  *  -2.49470461  *   0.09995588  *

                             CARTESIAN COORDINATES

   1    C       -2.247848610    -0.010608189     0.029867538
   2    C       -1.344415644     1.232033625    -0.040176929
   3    C       -1.331195459    -1.244676824     0.075505701
   4    C        0.049787927     0.701152162    -0.033461386
   5    C        0.057274308    -0.700670724     0.031902629
   6    C        1.236465518     1.413407415    -0.082051421
   7    C        1.251481916    -1.401675835     0.049085509
   8    C        2.439691543     0.705926894    -0.064602957
   9    C        2.447104825    -0.682863275     0.000054367
  10    H       -2.926830038    -0.054890858    -0.840538593
  11    H       -2.903593709     0.027386371     0.918198575
  12    H       -1.534143799     1.830384774    -0.950378486
  13    H       -1.511155742     1.913182441     0.814643784
  14    H       -1.514180266    -1.927345291    -0.774752261
  15    H       -1.490997170    -1.844812646     0.990275604
  16    H        1.230116723     2.506423943    -0.132984459
  17    H        3.387373096     1.252875452    -0.102322815
  18    H        3.400573125    -1.220831941     0.012804026
  19    H        1.256807510    -2.494704612     0.099955882


           Empirical Formula: C9 H10  =    19 atoms



      MOLECULAR POINT GROUP   :   C1  


                  EIGENVALUES  
 -41.42503 -35.42795 -30.81699 -27.34691 -26.27193 -21.64979 -20.63210 -19.99618
 -17.51402 -16.46923 -16.39204 -15.08862 -14.62345 -14.46690 -13.73177 -13.13900
 -12.97798 -12.88447 -12.56533 -12.21216 -11.55985  -9.57579  -9.21902   0.41272
   0.46219   2.81370   3.17619   3.35798   3.53062   3.55582   3.68259   3.69481
   3.78024   4.01021   4.06006   4.22462   4.29684   4.48894   4.85607   4.97806
   5.12996   5.26605   5.35367   5.51458   6.21903   6.45421


              NET ATOMIC CHARGES AND DIPOLE CONTRIBUTIONS

  ATOM NO.   TYPE          CHARGE      No. of ELECS.   s-Pop       p-Pop       
    1          C          -0.096328        4.0963     1.16637     2.92996
    2          C          -0.044897        4.0449     1.14841     2.89649
    3          C          -0.044897        4.0449     1.14841     2.89649
    4          C          -0.086252        4.0863     1.18650     2.89975
    5          C          -0.086251        4.0863     1.18650     2.89975
    6          C          -0.087798        4.0878     1.17203     2.91577
    7          C          -0.087797        4.0878     1.17203     2.91577
    8          C          -0.104662        4.1047     1.17905     2.92561
    9          C          -0.104662        4.1047     1.17905     2.92561
   10          H           0.050069        0.9499     0.94993
   11          H           0.050068        0.9499     0.94993
   12          H           0.057765        0.9422     0.94223
   13          H           0.057765        0.9422     0.94224
   14          H           0.057767        0.9422     0.94223
   15          H           0.057763        0.9422     0.94224
   16          H           0.105268        0.8947     0.89473
   17          H           0.100906        0.8991     0.89909
   18          H           0.100907        0.8991     0.89909
   19          H           0.105267        0.8947     0.89473
 DIPOLE           X         Y         Z       TOTAL
 POINT-CHG.    -0.467    -0.002     0.006     0.467
 HYBRID         0.017     0.000    -0.000     0.017
 SUM           -0.449    -0.002     0.006     0.449


          ATOMIC ORBITAL ELECTRON POPULATIONS

     Atom    s        px        py        pz   
    1  C   1.16637   0.96930   0.94450   1.01617
    2  C   1.14841   0.91939   0.96456   1.01254
    3  C   1.14841   0.91942   0.96453   1.01254
    4  C   1.18650   0.95174   0.94765   1.00035
    5  C   1.18650   0.95164   0.94774   1.00037
    6  C   1.17203   0.92887   0.97871   1.00819
    7  C   1.17203   0.92874   0.97882   1.00820
    8  C   1.17905   0.96965   0.94934   1.00662
    9  C   1.17905   0.97006   0.94898   1.00657
   10  H   0.94993
   11  H   0.94993
   12  H   0.94223
   13  H   0.94224
   14  H   0.94223
   15  H   0.94224
   16  H   0.89473
   17  H   0.89909
   18  H   0.89909
   19  H   0.89473
 *******************************************************************************
 ** Site#: 14399        For non-commercial use only    Version 18.184L 64BITS **
 *******************************************************************************
 ** Cite this program as: MOPAC2016, Version: 18.184L, James J. P. Stewart,   **
 ** Stewart Computational Chemistry, web: HTTP://OpenMOPAC.net. Days left:  20**
 *******************************************************************************
 **                                                                           **
 **                                MOPAC2016                                  **
 **                                                                           **
 *******************************************************************************

                              PM3 CALCULATION RESULTS

 *******************************************************************************
 *  CALCULATION DONE:                                Thu Jun 13 15:47:05 2019  *
 *  PM3        - The PM3 Hamiltonian to be used
 *  OLDGEO     - PREVIOUS GEOMETRY TO BE USED
 *  PRECISE    - CRITERIA TO BE INCREASED BY 100 TIMES
 *  NOSYM      - POINT-GROUP SYMMETRY SET TO C1
 *  THREADS=1  - MULTI-THREADING NOT USED
 *  T=         - A TIME OF 172800.0 SECONDS REQUESTED
 *  DUMP=N     - RESTART FILE WRITTEN EVERY  7200.000 SECONDS
 *  THERMO     - THERMODYNAMIC QUANTITIES TO BE CALCULATED
 *******************************************************************************
oldgeo thermo nosym precise THREADS=1  pm3
 InChI=1S/C9H10/c1-2-5-9-7-3-6-8(9)4-1/h1-2,4-5H,3,6-7H2

   ATOM   CHEMICAL          X               Y               Z
  NUMBER   SYMBOL      (ANGSTROMS)     (ANGSTROMS)     (ANGSTROMS)
 
     1       C         -2.24784861  *  -0.01060819  *   0.02986754  *
     2       C         -1.34441564  *   1.23203362  *  -0.04017693  *
     3       C         -1.33119546  *  -1.24467682  *   0.07550570  *
     4       C          0.04978793  *   0.70115216  *  -0.03346139  *
     5       C          0.05727431  *  -0.70067072  *   0.03190263  *
     6       C          1.23646552  *   1.41340742  *  -0.08205142  *
     7       C          1.25148192  *  -1.40167584  *   0.04908551  *
     8       C          2.43969154  *   0.70592689  *  -0.06460296  *
     9       C          2.44710482  *  -0.68286327  *   0.00005437  *
    10       H         -2.92683004  *  -0.05489086  *  -0.84053859  *
    11       H         -2.90359371  *   0.02738637  *   0.91819858  *
    12       H         -1.53414380  *   1.83038477  *  -0.95037849  *
    13       H         -1.51115574  *   1.91318244  *   0.81464378  *
    14       H         -1.51418027  *  -1.92734529  *  -0.77475226  *
    15       H         -1.49099717  *  -1.84481265  *   0.99027560  *
    16       H          1.23011672  *   2.50642394  *  -0.13298446  *
    17       H          3.38737310  *   1.25287545  *  -0.10232281  *
    18       H          3.40057312  *  -1.22083194  *   0.01280403  *
    19       H          1.25680751  *  -2.49470461  *   0.09995588  *
 


          CARTESIAN COORDINATES 

    NO.       ATOM           X           Y           Z

     1         C         -2.2478     -0.0106      0.0299
     2         C         -1.3444      1.2320     -0.0402
     3         C         -1.3312     -1.2447      0.0755
     4         C          0.0498      0.7012     -0.0335
     5         C          0.0573     -0.7007      0.0319
     6         C          1.2365      1.4134     -0.0821
     7         C          1.2515     -1.4017      0.0491
     8         C          2.4397      0.7059     -0.0646
     9         C          2.4471     -0.6829      0.0001
    10         H         -2.9268     -0.0549     -0.8405
    11         H         -2.9036      0.0274      0.9182
    12         H         -1.5341      1.8304     -0.9504
    13         H         -1.5112      1.9132      0.8146
    14         H         -1.5142     -1.9273     -0.7748
    15         H         -1.4910     -1.8448      0.9903
    16         H          1.2301      2.5064     -0.1330
    17         H          3.3874      1.2529     -0.1023
    18         H          3.4006     -1.2208      0.0128
    19         H          1.2568     -2.4947      0.1000

  H: (PM3): J. J. P. STEWART, J. COMP. CHEM. 10, 209 (1989).
  C: (PM3): J. J. P. STEWART, J. COMP. CHEM. 10, 209 (1989).

           Empirical Formula: C9 H10  =    19 atoms



      MOLECULAR POINT GROUP   :   C1  


      RHF CALCULATION, NO. OF DOUBLY OCCUPIED LEVELS = 23



          HEAT OF FORMATION =      11.132975 KCALS/MOLE


          CARTESIAN COORDINATE DERIVATIVES

   NUMBER  ATOM         X            Y            Z

     1       C      0.003182     0.003078    -0.002557
     2       C      0.001159     0.001350     0.000247
     3       C     -0.000940     0.002377     0.011057
     4       C     -0.027773     0.000412     0.002836
     5       C      0.012403    -0.005909     0.001251
     6       C      0.029477     0.034795    -0.001442
     7       C      0.016365     0.015471    -0.001758
     8       C      0.010729    -0.037830     0.000376
     9       C     -0.030066     0.003818     0.000980
    10       H     -0.007659    -0.009469     0.001355
    11       H     -0.005382    -0.007690     0.000315
    12       H     -0.003158     0.002577     0.005142
    13       H     -0.002300     0.002397    -0.004705
    14       H      0.005766    -0.003183    -0.002526
    15       H      0.003073    -0.000347    -0.009579
    16       H     -0.001146    -0.003921    -0.000525
    17       H     -0.001643     0.003129    -0.002048
    18       H      0.003316    -0.000672    -0.001130
    19       H     -0.005403    -0.000384     0.002710
 


          GRADIENT NORM =   0.08206


          TIME FOR SCF CALCULATION =    0.02

          TIME FOR DERIVATIVES     =    0.02

          MOLECULAR WEIGHT =  118.18



          ROTATIONAL CONSTANTS IN CM(-1)

          A =    0.11809271   B =    0.05030243   C =    0.03598559



           PRINCIPAL MOMENTS OF INERTIA IN UNITS OF 10**(-40)*GRAM-CM**2

          A =      237.0407   B =      556.4895   C =      777.8885


          ORIENTATION OF MOLECULE IN FORCE CALCULATION

    NO.       ATOM         X         Y         Z

     1          C      -1.4711   -2.0039    0.0003
     2          C       0.0668   -2.0039    0.0003
     3          C      -1.9318   -0.5365    0.0003
     4          C       0.4566   -0.5638    0.0000
     5          C      -0.6747    0.2667    0.0002
     6          C       1.7314   -0.0227   -0.0003
     7          C      -0.5404    1.6450    0.0000
     8          C       1.8657    1.3667   -0.0006
     9          C       0.7450    2.1895   -0.0003
    10          H      -1.8661   -2.5419    0.8807
    11          H      -1.8661   -2.5419   -0.8801
    12          H       0.4803   -2.5241    0.8840
    13          H       0.4803   -2.5245   -0.8831
    14          H      -2.5522   -0.2979    0.8839
    15          H      -2.5523   -0.2980   -0.8832
    16          H       2.6131   -0.6707   -0.0005
    17          H       2.8661    1.8117   -0.0009
    18          H       0.8699    3.2772   -0.0005
    19          H      -1.4227    2.2922    0.0002


    FIRST DERIVATIVES WILL BE USED IN THE CALCULATION OF SECOND DERIVATIVES

          ESTIMATED TIME TO COMPLETE CALCULATION =        8.91 SECONDS

    FOR POINT-GROUP C1   THERE ARE   1 UNIQUE SYMMETRY FUNCTIONS.

 STEP:   1 TIME =     0.06 SECS, INTEGRAL =      0.06 TIME LEFT: 172799.90
 STEP:   2 TIME =     0.05 SECS, INTEGRAL =      0.11 TIME LEFT: 172799.85
 STEP:   3 TIME =     0.05 SECS, INTEGRAL =      0.16 TIME LEFT: 172799.80
 STEP:   4 TIME =     0.04 SECS, INTEGRAL =      0.20 TIME LEFT: 172799.76
 STEP:   5 TIME =     0.04 SECS, INTEGRAL =      0.23 TIME LEFT: 172799.73
 STEP:   6 TIME =     0.03 SECS, INTEGRAL =      0.27 TIME LEFT: 172799.70
 STEP:   7 TIME =     0.04 SECS, INTEGRAL =      0.30 TIME LEFT: 172799.66
 STEP:   8 TIME =     0.04 SECS, INTEGRAL =      0.34 TIME LEFT: 172799.62
 STEP:   9 TIME =     0.04 SECS, INTEGRAL =      0.37 TIME LEFT: 172799.59
 STEP:  10 TIME =     0.04 SECS, INTEGRAL =      0.41 TIME LEFT: 172799.55
 STEP:  11 TIME =     0.04 SECS, INTEGRAL =      0.45 TIME LEFT: 172799.51
 STEP:  12 TIME =     0.04 SECS, INTEGRAL =      0.49 TIME LEFT: 172799.47
 STEP:  13 TIME =     0.04 SECS, INTEGRAL =      0.53 TIME LEFT: 172799.43
 STEP:  14 TIME =     0.04 SECS, INTEGRAL =      0.57 TIME LEFT: 172799.39
 STEP:  15 TIME =     0.04 SECS, INTEGRAL =      0.60 TIME LEFT: 172799.36
 STEP:  16 TIME =     0.04 SECS, INTEGRAL =      0.64 TIME LEFT: 172799.32
 STEP:  17 TIME =     0.04 SECS, INTEGRAL =      0.68 TIME LEFT: 172799.28
 STEP:  18 TIME =     0.04 SECS, INTEGRAL =      0.71 TIME LEFT: 172799.25
 STEP:  19 TIME =     0.04 SECS, INTEGRAL =      0.75 TIME LEFT: 172799.21
 STEP:  20 TIME =     0.04 SECS, INTEGRAL =      0.79 TIME LEFT: 172799.17
 STEP:  21 TIME =     0.05 SECS, INTEGRAL =      0.84 TIME LEFT: 172799.12
 STEP:  22 TIME =     0.05 SECS, INTEGRAL =      0.89 TIME LEFT: 172799.07
 STEP:  23 TIME =     0.04 SECS, INTEGRAL =      0.93 TIME LEFT: 172799.03
 STEP:  24 TIME =     0.05 SECS, INTEGRAL =      0.98 TIME LEFT: 172798.98
 STEP:  25 TIME =     0.05 SECS, INTEGRAL =      1.03 TIME LEFT: 172798.93
 STEP:  26 TIME =     0.05 SECS, INTEGRAL =      1.08 TIME LEFT: 172798.88
 STEP:  27 TIME =     0.04 SECS, INTEGRAL =      1.12 TIME LEFT: 172798.84
 STEP:  28 TIME =     0.04 SECS, INTEGRAL =      1.15 TIME LEFT: 172798.81
 STEP:  29 TIME =     0.04 SECS, INTEGRAL =      1.19 TIME LEFT: 172798.77
 STEP:  30 TIME =     0.04 SECS, INTEGRAL =      1.22 TIME LEFT: 172798.74
 STEP:  31 TIME =     0.04 SECS, INTEGRAL =      1.26 TIME LEFT: 172798.70
 STEP:  32 TIME =     0.04 SECS, INTEGRAL =      1.29 TIME LEFT: 172798.67
 STEP:  33 TIME =     0.04 SECS, INTEGRAL =      1.33 TIME LEFT: 172798.63
 STEP:  34 TIME =     0.04 SECS, INTEGRAL =      1.36 TIME LEFT: 172798.60
 STEP:  35 TIME =     0.04 SECS, INTEGRAL =      1.40 TIME LEFT: 172798.56
 STEP:  36 TIME =     0.04 SECS, INTEGRAL =      1.43 TIME LEFT: 172798.53
 STEP:  37 TIME =     0.04 SECS, INTEGRAL =      1.47 TIME LEFT: 172798.49
 STEP:  38 TIME =     0.03 SECS, INTEGRAL =      1.50 TIME LEFT: 172798.46
 STEP:  39 TIME =     0.04 SECS, INTEGRAL =      1.54 TIME LEFT: 172798.43
 STEP:  40 TIME =     0.04 SECS, INTEGRAL =      1.57 TIME LEFT: 172798.39
 STEP:  41 TIME =     0.04 SECS, INTEGRAL =      1.61 TIME LEFT: 172798.36
 STEP:  42 TIME =     0.04 SECS, INTEGRAL =      1.64 TIME LEFT: 172798.32
 STEP:  43 TIME =     0.04 SECS, INTEGRAL =      1.68 TIME LEFT: 172798.29
 STEP:  44 TIME =     0.04 SECS, INTEGRAL =      1.71 TIME LEFT: 172798.25
 STEP:  45 TIME =     0.04 SECS, INTEGRAL =      1.75 TIME LEFT: 172798.21
 STEP:  46 TIME =     0.04 SECS, INTEGRAL =      1.78 TIME LEFT: 172798.18
 STEP:  47 TIME =     0.04 SECS, INTEGRAL =      1.82 TIME LEFT: 172798.14
 STEP:  48 TIME =     0.04 SECS, INTEGRAL =      1.85 TIME LEFT: 172798.11
 STEP:  49 TIME =     0.04 SECS, INTEGRAL =      1.89 TIME LEFT: 172798.07
 STEP:  50 TIME =     0.04 SECS, INTEGRAL =      1.92 TIME LEFT: 172798.04
 STEP:  51 TIME =     0.04 SECS, INTEGRAL =      1.96 TIME LEFT: 172798.00
 STEP:  52 TIME =     0.04 SECS, INTEGRAL =      2.00 TIME LEFT: 172797.96
 STEP:  53 TIME =     0.04 SECS, INTEGRAL =      2.04 TIME LEFT: 172797.93
 STEP:  54 TIME =     0.04 SECS, INTEGRAL =      2.07 TIME LEFT: 172797.89
 STEP:  55 TIME =     0.04 SECS, INTEGRAL =      2.11 TIME LEFT: 172797.85
 STEP:  56 TIME =     0.04 SECS, INTEGRAL =      2.14 TIME LEFT: 172797.82
 STEP:  57 TIME =     0.04 SECS, INTEGRAL =      2.18 TIME LEFT: 172797.78

(To convert to Hartree/Bohr^2, multiply by (10^(-21) x N x a0^2)/(4.184 x 627.51) =  0.0642)


           FORCE MATRIX IN MILLIDYNES/ANGSTROM


                  C  1       C  2       C  3       C  4       C  5       C  6
 ------------------------------------------------------------------------------
     C    1  14.197596
     C    2   3.714607  14.653644
     C    3   3.714549   0.695890  14.655358
     C    4   0.874547   4.786096   0.987828  18.400440
     C    5   0.873796   0.986346   4.792211   6.471948  18.486528
     C    6   0.050588   0.567614   0.085670   7.242980   2.266106  17.504331
     C    7   0.052251   0.085605   0.568281   2.279190   7.302026   1.649220
     C    8   0.009434   0.098012   0.016177   2.477980   1.723837   6.886051
     C    9   0.008713   0.015217   0.098612   1.787614   2.459257   2.379764
     H   10   4.568504   0.439695   0.439576   0.026772   0.026512   0.003048
     H   11   4.568552   0.439789   0.439690   0.026745   0.026463   0.003027
     H   12   0.437324   4.521417   0.025414   0.435963   0.030433   0.018687
     H   13   0.437249   4.521457   0.025466   0.435954   0.030457   0.018651
     H   14   0.437345   0.025470   4.521800   0.030552   0.435755   0.010346
     H   15   0.437285   0.025512   4.521239   0.030481   0.435725   0.010335
     H   16   0.001814   0.037345   0.007918   0.448345   0.089932   4.879292
     H   17   0.001561   0.006854   0.007373   0.088551   0.008016   0.434860
     H   18   0.001498   0.007310   0.006885   0.008898   0.088750   0.087683
     H   19   0.001931   0.008039   0.037355   0.090013   0.448702   0.010579


                  C  7       C  8       C  9       H 10       H 11       H 12
 ------------------------------------------------------------------------------
     C    7  17.559300
     C    8   2.337296  17.271764
     C    9   6.877471   7.080186  17.228745
     H   10   0.003313   0.000547   0.000814   5.171527
     H   11   0.003315   0.000558   0.000814   0.584456   5.171568
     H   12   0.010356   0.010806   0.002957   0.028795   0.026891   5.122397
     H   13   0.010347   0.010744   0.002959   0.026874   0.028794   0.571110
     H   14   0.018088   0.002623   0.010877   0.028779   0.026961   0.000710
     H   15   0.018072   0.002605   0.010821   0.026950   0.028773   0.003235
     H   16   0.010894   0.437629   0.087055   0.000296   0.000298   0.005472
     H   17   0.087783   4.861309   0.436279   0.000222   0.000224   0.000612
     H   18   0.433955   0.436109   4.860310   0.000211   0.000210   0.000958
     H   19   4.879443   0.086573   0.437578   0.000281   0.000275   0.001010


                  H 13       H 14       H 15       H 16       H 17       H 18
 ------------------------------------------------------------------------------
     H   13   5.122472
     H   14   0.003236   5.122684
     H   15   0.000730   0.571153   5.122149
     H   16   0.005457   0.000997   0.000999   5.248571
     H   17   0.000626   0.000982   0.000985   0.039504   5.225759
     H   18   0.000961   0.000626   0.000625   0.006655   0.043081   5.226406
     H   19   0.001003   0.005478   0.005463   0.008304   0.006580   0.039486


                  H 19
 ------------------
     H   19   5.248470


          HEAT OF FORMATION =      11.132975 KCALS/MOLE

          ZERO POINT ENERGY     102.262 KCAL/MOL


           NORMAL COORDINATE ANALYSIS (Total motion = 1 Angstrom)


   Root No.       1         2         3         4         5         6         7         8

                 1 A       2 A       3 A       4 A       5 A       6 A       7 A       8 A   

                  88.1     166.2     232.6     394.5     400.2     471.2     545.1     584.3
  
           1   -0.0000   -0.0000    0.0000   -0.0309   -0.0001   -0.0000   -0.0403    0.0247
           2    0.0000    0.0000   -0.0000    0.0227    0.0001   -0.0000   -0.0554   -0.0169
           3    0.0628   -0.0001   -0.0116    0.0000   -0.0048   -0.0000    0.0000    0.0000
           4   -0.0000   -0.0000    0.0000   -0.0223   -0.0001   -0.0000   -0.0376    0.0108
           5   -0.0000   -0.0000   -0.0000   -0.0279   -0.0001   -0.0000   -0.0224   -0.0587
           6   -0.0318   -0.0484   -0.0253    0.0000   -0.0013   -0.0013    0.0000    0.0000
           7   -0.0000    0.0000    0.0000    0.0199    0.0001   -0.0000   -0.0091    0.0591
           8    0.0000    0.0000   -0.0000    0.0297    0.0001   -0.0000   -0.0425    0.0086
           9   -0.0317    0.0485   -0.0252   -0.0000   -0.0013    0.0013    0.0000   -0.0000
          10   -0.0000    0.0000    0.0000    0.0391    0.0001    0.0000   -0.0094   -0.0311
          11   -0.0000   -0.0000    0.0000   -0.0349   -0.0001    0.0000   -0.0089   -0.0388
          12   -0.0183    0.0013    0.0489   -0.0001    0.0564    0.0430   -0.0000    0.0000
          13   -0.0000    0.0000    0.0000    0.0450    0.0002   -0.0000   -0.0051    0.0276
          14   -0.0000   -0.0000    0.0000   -0.0268   -0.0001   -0.0000   -0.0109    0.0413
          15   -0.0183   -0.0013    0.0489   -0.0002    0.0567   -0.0428    0.0000   -0.0000
          16    0.0000    0.0000    0.0000    0.0230    0.0001    0.0000   -0.0245   -0.0531
          17    0.0000    0.0000    0.0000    0.0142    0.0001    0.0000    0.0525   -0.0245
          18   -0.0010    0.0394    0.0345    0.0001   -0.0539    0.0260    0.0000    0.0000
          19   -0.0000   -0.0000    0.0000   -0.0067   -0.0000    0.0000    0.0577    0.0064
          20   -0.0000   -0.0000    0.0000   -0.0262   -0.0001   -0.0000   -0.0066    0.0576
          21   -0.0011   -0.0395    0.0345    0.0002   -0.0539   -0.0261    0.0000   -0.0000
          22    0.0000    0.0000   -0.0000   -0.0207   -0.0001   -0.0000    0.0359   -0.0591
          23    0.0000    0.0000   -0.0000    0.0238    0.0001    0.0000    0.0530   -0.0224
          24    0.0180    0.0303   -0.0375   -0.0001    0.0195   -0.0556   -0.0000    0.0000
          25    0.0000   -0.0000   -0.0000   -0.0289   -0.0001    0.0000    0.0399    0.0030
          26    0.0000    0.0000   -0.0000    0.0126    0.0001    0.0000    0.0515    0.0621
          27    0.0180   -0.0303   -0.0375   -0.0001    0.0194    0.0558   -0.0000   -0.0000
          28    0.0583    0.0280    0.0111   -0.0502   -0.0014   -0.0002   -0.0438    0.0025
          29    0.0793   -0.0207    0.0151    0.0369   -0.0015    0.0001   -0.0596   -0.0004
          30    0.1378   -0.0001    0.0029    0.0000   -0.0064   -0.0000   -0.0029    0.0001
          31   -0.0583   -0.0281   -0.0111   -0.0502    0.0010    0.0002   -0.0438    0.0025
          32   -0.0793    0.0207   -0.0151    0.0368    0.0017   -0.0001   -0.0596   -0.0004
          33    0.1378   -0.0001    0.0029    0.0000   -0.0064   -0.0000    0.0029   -0.0001
          34    0.0558    0.0299    0.0111   -0.0492    0.0015    0.0097   -0.0413    0.0162
          35   -0.0291   -0.0469   -0.0614   -0.0479   -0.0526   -0.0587   -0.0242   -0.0601
          36   -0.0754   -0.0905   -0.0672    0.0003   -0.0337   -0.0418    0.0002   -0.0024
          37   -0.0557   -0.0300   -0.0111   -0.0492   -0.0018   -0.0098   -0.0413    0.0162
          38    0.0290    0.0468    0.0613   -0.0482    0.0523    0.0586   -0.0243   -0.0601
          39   -0.0754   -0.0905   -0.0673   -0.0000   -0.0337   -0.0418   -0.0001    0.0024
          40   -0.0443    0.0538   -0.0619    0.0312   -0.0507    0.0587   -0.0097    0.0621
          41    0.0445   -0.0146   -0.0079    0.0614   -0.0140    0.0083   -0.0467    0.0039
          42   -0.0752    0.0906   -0.0672   -0.0001   -0.0339    0.0417    0.0002    0.0024
          43    0.0443   -0.0538    0.0619    0.0309    0.0509   -0.0587   -0.0096    0.0621
          44   -0.0445    0.0147    0.0079    0.0613    0.0144   -0.0083   -0.0467    0.0038
          45   -0.0752    0.0906   -0.0672    0.0002   -0.0339    0.0417   -0.0002   -0.0024
          46    0.0000    0.0000    0.0000    0.0533    0.0001    0.0000   -0.0191   -0.0439
          47    0.0000    0.0000    0.0000    0.0556    0.0002    0.0000    0.0590   -0.0117
          48   -0.0001    0.0705    0.0502    0.0005   -0.1899    0.0530    0.0000   -0.0000
          49    0.0000    0.0000   -0.0000   -0.0311   -0.0001   -0.0000    0.0501   -0.0357
          50    0.0000    0.0000   -0.0000    0.0481    0.0002   -0.0000    0.0222   -0.0749
          51    0.0339    0.0626   -0.0955   -0.0002    0.0451   -0.1754    0.0000   -0.0000
          52    0.0000   -0.0000   -0.0000   -0.0552   -0.0002    0.0000    0.0074    0.0602
          53    0.0000   -0.0000   -0.0000    0.0153    0.0001    0.0000    0.0556    0.0554
          54    0.0338   -0.0624   -0.0954   -0.0001    0.0445    0.1750   -0.0000   -0.0000
          55   -0.0000   -0.0000    0.0000   -0.0371   -0.0001   -0.0000    0.0619   -0.0032
          56   -0.0000   -0.0000    0.0000   -0.0676   -0.0002   -0.0000    0.0001    0.0449
          57   -0.0002   -0.0705    0.0501    0.0006   -0.1898   -0.0539    0.0000    0.0000


   Root No.       9        10        11        12        13        14        15        16

                 9 A      10 A      11 A      12 A      13 A      14 A      15 A      16 A   

                 667.7     689.3     753.0     788.3     859.9     860.2     913.3     928.8
  
           1   -0.0000    0.0385   -0.0000    0.0000   -0.0027   -0.0000   -0.0030   -0.0000
           2   -0.0000    0.0526   -0.0000    0.0000    0.0021    0.0000   -0.0041   -0.0000
           3    0.0000    0.0000    0.0149   -0.0178    0.0000   -0.0000    0.0000    0.0000
           4   -0.0000    0.0506   -0.0000    0.0000   -0.0021   -0.0000   -0.0094    0.0000
           5    0.0000   -0.0381    0.0000    0.0000    0.0445    0.0008    0.0478   -0.0000
           6    0.0153    0.0000    0.0127   -0.0066    0.0009   -0.0197   -0.0000   -0.0232
           7   -0.0000   -0.0519    0.0000    0.0000   -0.0432   -0.0008    0.0482   -0.0000
           8   -0.0000    0.0368   -0.0000    0.0000   -0.0113   -0.0002    0.0053    0.0000
           9   -0.0153    0.0000    0.0126   -0.0067   -0.0009    0.0198   -0.0000    0.0231
          10    0.0000   -0.0208    0.0000   -0.0000    0.0206    0.0004   -0.0203    0.0000
          11    0.0000   -0.0297    0.0000    0.0000   -0.0000    0.0000    0.0069    0.0000
          12    0.0487   -0.0000   -0.0028    0.0140   -0.0004    0.0091    0.0000    0.0297
          13   -0.0000   -0.0222    0.0000    0.0000    0.0061    0.0001    0.0127   -0.0000
          14   -0.0000   -0.0290    0.0000    0.0000   -0.0194   -0.0004   -0.0175   -0.0000
          15   -0.0486   -0.0000   -0.0028    0.0139    0.0004   -0.0091   -0.0000   -0.0297
          16    0.0000   -0.0492    0.0000   -0.0000    0.0316    0.0006   -0.0473    0.0000
          17    0.0000    0.0198   -0.0000   -0.0000   -0.0388   -0.0007    0.0068   -0.0000
          18   -0.0198    0.0000   -0.0092   -0.0088   -0.0011    0.0247    0.0000   -0.0144
          19    0.0000    0.0336   -0.0000   -0.0000    0.0461    0.0009    0.0207    0.0000
          20    0.0000   -0.0413    0.0000   -0.0000   -0.0185   -0.0004   -0.0431    0.0000
          21    0.0198   -0.0000   -0.0092   -0.0088    0.0011   -0.0247    0.0000    0.0148
          22    0.0000    0.0063    0.0000   -0.0000   -0.0655   -0.0012   -0.0045   -0.0000
          23    0.0000    0.0151   -0.0000   -0.0000   -0.0272   -0.0005   -0.0042   -0.0000
          24    0.0196   -0.0000   -0.0111   -0.0175   -0.0005    0.0129    0.0000   -0.0164
          25   -0.0000    0.0125   -0.0000   -0.0000    0.0064    0.0001   -0.0027    0.0000
          26   -0.0000    0.0101   -0.0000   -0.0000    0.0706    0.0013   -0.0054    0.0000
          27   -0.0197   -0.0000   -0.0109   -0.0173    0.0005   -0.0130    0.0000    0.0162
          28   -0.0170    0.0446   -0.0556    0.0544    0.0327    0.0381   -0.0016    0.0639
          29    0.0124    0.0608   -0.0755    0.0741   -0.0238   -0.0280   -0.0022   -0.0472
          30   -0.0001    0.0054   -0.0596    0.0553    0.0000   -0.0000    0.0011   -0.0001
          31    0.0170    0.0447    0.0555   -0.0544    0.0360   -0.0368   -0.0016   -0.0639
          32   -0.0124    0.0609    0.0755   -0.0741   -0.0263    0.0270   -0.0021    0.0472
          33   -0.0001   -0.0055   -0.0596    0.0552   -0.0000   -0.0000   -0.0011   -0.0001
          34    0.0114    0.0465    0.0474   -0.0488    0.0113   -0.0377    0.0294   -0.0767
          35   -0.0814   -0.0498   -0.0524    0.0176    0.0600    0.0554    0.0977    0.0333
          36   -0.0402   -0.0038   -0.0431    0.0285    0.0030    0.0323    0.0092    0.0351
          37   -0.0115    0.0464   -0.0474    0.0488    0.0080    0.0381    0.0294    0.0767
          38    0.0814   -0.0497    0.0524   -0.0176    0.0648   -0.0530    0.0978   -0.0333
          39   -0.0402    0.0037   -0.0431    0.0285   -0.0059    0.0321   -0.0092    0.0351
          40    0.0809   -0.0619   -0.0641    0.0315   -0.0541   -0.0642    0.0842   -0.0543
          41    0.0135    0.0294    0.0296   -0.0415   -0.0292    0.0194    0.0573    0.0638
          42    0.0400   -0.0038   -0.0431    0.0286   -0.0031   -0.0323    0.0091   -0.0350
          43   -0.0809   -0.0618    0.0642   -0.0315   -0.0597    0.0621    0.0842    0.0542
          44   -0.0135    0.0294   -0.0296    0.0415   -0.0274   -0.0205    0.0572   -0.0638
          45    0.0400    0.0037   -0.0431    0.0286    0.0059   -0.0322   -0.0091   -0.0350
          46   -0.0000   -0.0525    0.0000   -0.0000    0.0660    0.0012   -0.0924    0.0000
          47   -0.0000    0.0152    0.0000   -0.0000    0.0064    0.0001   -0.0519    0.0000
          48   -0.1252    0.0001    0.0773    0.0724    0.0070   -0.1583    0.0000    0.0591
          49    0.0000    0.0221    0.0000    0.0001   -0.0553   -0.0011    0.0173    0.0000
          50    0.0000   -0.0215    0.0000    0.0000   -0.0522   -0.0010   -0.0569    0.0000
          51    0.0678    0.0001    0.1034    0.1464    0.0035   -0.0806   -0.0000    0.0958
          52   -0.0000   -0.0276    0.0000    0.0000    0.0332    0.0006   -0.0594   -0.0000
          53   -0.0000    0.0143    0.0000    0.0000    0.0684    0.0013   -0.0005   -0.0000
          54   -0.0675    0.0001    0.1032    0.1461   -0.0035    0.0815   -0.0001   -0.0951
          55    0.0000    0.0300   -0.0000   -0.0000    0.0133    0.0003   -0.0221    0.0000
          56    0.0000   -0.0462    0.0000   -0.0000   -0.0648   -0.0012   -0.1043    0.0000
          57    0.1251    0.0001    0.0767    0.0719   -0.0070    0.1588   -0.0000   -0.0607


   Root No.      17        18        19        20        21        22        23        24

                17 A      18 A      19 A      20 A      21 A      22 A      23 A      24 A   

                 946.2    1006.7    1007.8    1012.1    1061.7    1087.6    1101.2    1103.7
  
           1   -0.0000    0.0000   -0.0000    0.0419   -0.0000    0.0037    0.0388    0.0001
           2   -0.0000    0.0000   -0.0000    0.0572   -0.0000    0.0050   -0.0285   -0.0001
           3   -0.0137   -0.0010    0.0211    0.0000    0.0003   -0.0000   -0.0000    0.0005
           4    0.0000   -0.0000    0.0000   -0.0453    0.0000   -0.0066   -0.0424   -0.0001
           5   -0.0000    0.0000   -0.0000    0.0127   -0.0000    0.0121    0.0064    0.0000
           6    0.0125    0.0047   -0.0275   -0.0000   -0.0014   -0.0000    0.0001   -0.0334
           7    0.0000   -0.0000   -0.0000    0.0257    0.0000    0.0133   -0.0188   -0.0000
           8    0.0000   -0.0000    0.0000   -0.0394    0.0000   -0.0026    0.0385    0.0001
           9    0.0128   -0.0020   -0.0278   -0.0000    0.0010    0.0000   -0.0001    0.0328
          10   -0.0000    0.0000    0.0000    0.0027    0.0000   -0.0038   -0.0014   -0.0000
          11    0.0000   -0.0000    0.0000   -0.0015    0.0000   -0.0101   -0.0111   -0.0000
          12    0.0006   -0.0105    0.0227    0.0000    0.0277    0.0000   -0.0000    0.0174
          13   -0.0000    0.0000    0.0000   -0.0021   -0.0000   -0.0082    0.0102    0.0000
          14    0.0000   -0.0000   -0.0000    0.0021   -0.0000   -0.0067    0.0047    0.0000
          15    0.0002    0.0082    0.0236   -0.0000   -0.0275   -0.0000    0.0000   -0.0174
          16   -0.0000    0.0000   -0.0000   -0.0096   -0.0000   -0.0193   -0.0035   -0.0000
          17   -0.0000   -0.0000   -0.0000   -0.0013    0.0000    0.0147    0.0003   -0.0000
          18   -0.0320    0.0318   -0.0177   -0.0000   -0.0120   -0.0000    0.0000   -0.0058
          19   -0.0000   -0.0000   -0.0000    0.0015   -0.0000    0.0196   -0.0014    0.0000
          20   -0.0000    0.0000    0.0000   -0.0094    0.0000   -0.0139    0.0032    0.0000
          21   -0.0317   -0.0300   -0.0201    0.0000    0.0119   -0.0000   -0.0000    0.0058
          22    0.0000   -0.0000    0.0000    0.0006    0.0000   -0.0331    0.0064    0.0000
          23    0.0000   -0.0000    0.0000    0.0038    0.0000   -0.0083    0.0030    0.0000
          24    0.0218   -0.0468    0.0057    0.0000    0.0077    0.0000   -0.0000    0.0023
          25    0.0000    0.0000    0.0000    0.0035   -0.0000    0.0020   -0.0009   -0.0000
          26    0.0000    0.0000    0.0000    0.0015   -0.0000   -0.0341   -0.0069   -0.0000
          27    0.0219    0.0461    0.0091   -0.0000   -0.0076    0.0000    0.0000   -0.0023
          28    0.0265   -0.0215   -0.0371    0.0448    0.0361    0.0058    0.1687   -0.2440
          29    0.0352    0.0193   -0.0485    0.0609   -0.0274    0.0074   -0.1238    0.1780
          30    0.0214    0.0013   -0.0274    0.0053   -0.0002    0.0020    0.0000   -0.0002
          31   -0.0265    0.0215    0.0371    0.0447   -0.0362    0.0059    0.1676    0.2448
          32   -0.0352   -0.0193    0.0485    0.0609    0.0274    0.0073   -0.1230   -0.1786
          33    0.0214    0.0013   -0.0274   -0.0054   -0.0002   -0.0020   -0.0000   -0.0002
          34   -0.0292    0.0477    0.0428   -0.1325    0.1413    0.0029   -0.0742   -0.0232
          35   -0.0563    0.0170    0.1089   -0.0505    0.1095    0.0307   -0.0231    0.0545
          36   -0.0074   -0.0085    0.0179    0.0037   -0.0030    0.0055   -0.0002    0.0083
          37    0.0292   -0.0478   -0.0427   -0.1326   -0.1413    0.0029   -0.0744    0.0228
          38    0.0563   -0.0170   -0.1089   -0.0506   -0.1095    0.0307   -0.0229   -0.0546
          39   -0.0074   -0.0085    0.0179   -0.0037   -0.0029   -0.0055    0.0002    0.0083
          40   -0.0456   -0.0107    0.0911   -0.0085   -0.0615    0.0281   -0.0003   -0.0588
          41   -0.0443   -0.0580    0.0703   -0.1418   -0.1681    0.0120    0.0778    0.0025
          42   -0.0078    0.0067    0.0185    0.0037    0.0031    0.0054    0.0002   -0.0079
          43    0.0456    0.0107   -0.0911   -0.0086    0.0615    0.0281   -0.0005    0.0588
          44    0.0443    0.0579   -0.0703   -0.1418    0.1681    0.0120    0.0778   -0.0021
          45   -0.0078    0.0067    0.0185   -0.0037    0.0031   -0.0054   -0.0002   -0.0079
          46    0.0000    0.0000   -0.0000   -0.0169   -0.0000    0.1306    0.0106   -0.0000
          47   -0.0000    0.0000   -0.0000   -0.0105   -0.0000    0.2224    0.0199   -0.0000
          48    0.1448   -0.1080    0.0795    0.0001    0.0329    0.0000   -0.0000    0.0166
          49   -0.0000    0.0000   -0.0000    0.0104   -0.0000   -0.0632   -0.0026   -0.0000
          50   -0.0000    0.0000    0.0000   -0.0187   -0.0000    0.0554    0.0241    0.0001
          51   -0.1047    0.1669   -0.0211   -0.0000   -0.0155    0.0000   -0.0000   -0.0030
          52   -0.0000   -0.0000    0.0000   -0.0208    0.0000    0.0742   -0.0241   -0.0001
          53   -0.0000   -0.0000   -0.0000    0.0042   -0.0000   -0.0440   -0.0046   -0.0000
          54   -0.1056   -0.1649   -0.0332    0.0000    0.0154   -0.0000    0.0000    0.0030
          55    0.0000   -0.0000    0.0000   -0.0053    0.0000    0.1718   -0.0162   -0.0000
          56   -0.0000   -0.0000    0.0000   -0.0193    0.0000    0.1901   -0.0165   -0.0001
          57    0.1440    0.1000    0.0873   -0.0000   -0.0328    0.0000    0.0000   -0.0165


   Root No.      25        26        27        28        29        30        31        32

                25 A      26 A      27 A      28 A      29 A      30 A      31 A      32 A   

                1108.2    1114.9    1150.9    1179.2    1196.8    1271.2    1273.5    1326.6
  
           1   -0.0051    0.0000    0.0027   -0.0040   -0.0118   -0.0142    0.0596   -0.0259
           2    0.0036    0.0000    0.0036    0.0029    0.0085   -0.0196   -0.0435    0.0193
           3    0.0000    0.0562   -0.0000    0.0000   -0.0000    0.0000   -0.0000   -0.0000
           4    0.0013   -0.0000   -0.0029    0.0125   -0.0121    0.0352   -0.0388   -0.0189
           5    0.0081   -0.0000   -0.0002    0.0080    0.0046    0.0215   -0.0183   -0.0279
           6   -0.0000   -0.0269    0.0000   -0.0000    0.0000   -0.0000    0.0000    0.0000
           7   -0.0075   -0.0000    0.0008   -0.0039   -0.0080    0.0100    0.0056    0.0201
           8   -0.0035    0.0000   -0.0028   -0.0144    0.0104    0.0403    0.0420    0.0251
           9   -0.0000   -0.0274   -0.0000    0.0000    0.0000   -0.0000   -0.0000   -0.0000
          10    0.0078   -0.0000   -0.0088    0.0167    0.0177    0.0067    0.0001   -0.0107
          11   -0.0101   -0.0000    0.0017    0.0103   -0.0370    0.0189    0.0165    0.0264
          12    0.0000   -0.0029   -0.0000   -0.0000    0.0000   -0.0000   -0.0000   -0.0000
          13    0.0120   -0.0000    0.0040   -0.0049    0.0403    0.0159   -0.0151   -0.0262
          14   -0.0042   -0.0000   -0.0079   -0.0189   -0.0055    0.0120   -0.0059    0.0006
          15   -0.0000   -0.0025    0.0000    0.0000   -0.0000   -0.0000    0.0000    0.0000
          16   -0.0164    0.0000   -0.0053    0.0050   -0.0138   -0.0130    0.0211    0.0236
          17    0.0226   -0.0000    0.0077    0.0124    0.0091    0.0157    0.0058    0.0027
          18   -0.0000    0.0003    0.0000    0.0000    0.0000    0.0000    0.0000   -0.0000
          19   -0.0269    0.0000    0.0091   -0.0105   -0.0132    0.0189    0.0016    0.0075
          20    0.0089   -0.0000   -0.0031   -0.0086    0.0101   -0.0078   -0.0210   -0.0207
          21    0.0000    0.0002    0.0000   -0.0000    0.0000   -0.0000   -0.0000   -0.0000
          22    0.0066   -0.0000   -0.0074   -0.0114    0.0037   -0.0208   -0.0072   -0.0065
          23   -0.0039    0.0000    0.0018    0.0075    0.0106   -0.0089    0.0096    0.0054
          24    0.0000   -0.0002   -0.0000   -0.0000   -0.0000    0.0000   -0.0000   -0.0000
          25    0.0060   -0.0000    0.0037   -0.0104   -0.0086   -0.0024   -0.0124   -0.0102
          26   -0.0048    0.0000   -0.0063    0.0087   -0.0067   -0.0225    0.0040    0.0036
          27   -0.0000   -0.0002   -0.0000    0.0000    0.0000    0.0000    0.0000    0.0000
          28    0.0086   -0.0605    0.0043    0.0154    0.0347   -0.0430   -0.1134    0.0818
          29   -0.0065   -0.0863    0.0057   -0.0112   -0.0257   -0.0583    0.0841   -0.0581
          30   -0.0000   -0.0226    0.0017    0.0000   -0.0000   -0.0316    0.0003    0.0009
          31    0.0087    0.0605    0.0043    0.0154    0.0347   -0.0430   -0.1135    0.0819
          32   -0.0065    0.0863    0.0057   -0.0112   -0.0257   -0.0583    0.0841   -0.0581
          33    0.0000   -0.0226   -0.0017   -0.0000    0.0000    0.0316   -0.0003   -0.0009
          34    0.0057   -0.1594   -0.0027   -0.0586    0.0674   -0.0792    0.0101    0.0972
          35    0.0177   -0.0463    0.0020   -0.0572    0.0923   -0.0932    0.0529   -0.0262
          36    0.0029    0.0216    0.0010   -0.0045    0.0127   -0.0124    0.0170   -0.0465
          37    0.0059    0.1595   -0.0026   -0.0586    0.0674   -0.0792    0.0101    0.0972
          38    0.0177    0.0464    0.0020   -0.0572    0.0923   -0.0932    0.0529   -0.0262
          39   -0.0029    0.0216   -0.0010    0.0046   -0.0127    0.0124   -0.0170    0.0465
          40   -0.0155    0.0049    0.0033    0.0371   -0.0678   -0.0652   -0.0473    0.0532
          41   -0.0109   -0.1645   -0.0010    0.0732   -0.0918   -0.1035   -0.0248   -0.0834
          42   -0.0030    0.0216    0.0011    0.0045   -0.0127   -0.0124   -0.0170    0.0457
          43   -0.0155   -0.0049    0.0033    0.0371   -0.0678   -0.0652   -0.0473    0.0532
          44   -0.0107    0.1645   -0.0009    0.0732   -0.0918   -0.1035   -0.0248   -0.0834
          45    0.0030    0.0216   -0.0011   -0.0045    0.0127    0.0124    0.0170   -0.0457
          46    0.0774   -0.0000   -0.0839   -0.0872   -0.0850   -0.0302   -0.0099    0.0123
          47    0.1513   -0.0001   -0.0958   -0.1129   -0.0867   -0.0034   -0.0385   -0.0154
          48    0.0000   -0.0005    0.0000    0.0000    0.0000   -0.0000   -0.0000   -0.0000
          49    0.0946   -0.0000   -0.1388    0.0376    0.0131   -0.0185    0.0290    0.0177
          50   -0.1978    0.0001    0.2979   -0.1042   -0.0104   -0.0217   -0.0715   -0.0489
          51   -0.0000   -0.0000    0.0000    0.0000   -0.0000    0.0000    0.0000    0.0000
          52    0.2184   -0.0001    0.3260    0.1088    0.0144   -0.0144    0.0756    0.0492
          53   -0.0307    0.0000   -0.0430   -0.0043   -0.0093   -0.0241   -0.0062   -0.0034
          54   -0.0000    0.0001   -0.0000   -0.0000    0.0000    0.0000   -0.0000   -0.0000
          55   -0.1232    0.0001   -0.0642    0.0819    0.0569    0.0062    0.0340    0.0186
          56   -0.1214    0.0001   -0.1067    0.1176    0.1068   -0.0296    0.0211   -0.0085
          57   -0.0000   -0.0002    0.0000   -0.0000   -0.0000   -0.0000    0.0000    0.0000


   Root No.      33        34        35        36        37        38        39        40

                33 A      34 A      35 A      36 A      37 A      38 A      39 A      40 A   

                1359.2    1386.8    1403.6    1420.3    1450.5    1590.5    1616.7    1801.7
  
           1    0.0008    0.0092   -0.0191   -0.0294    0.0011   -0.0012    0.0015   -0.0045
           2    0.0006    0.0131    0.0136   -0.0401    0.0012    0.0007    0.0021   -0.0060
           3   -0.0000   -0.0000    0.0000    0.0000   -0.0000   -0.0000   -0.0000    0.0000
           4   -0.0212    0.0143    0.0166    0.0214    0.0118    0.0177   -0.0038   -0.0079
           5   -0.0135   -0.0233   -0.0355    0.0028    0.0366    0.0220   -0.0486   -0.0085
           6    0.0000    0.0000    0.0000   -0.0000   -0.0000   -0.0000    0.0000    0.0000
           7   -0.0077   -0.0257    0.0404   -0.0038    0.0297   -0.0140   -0.0459   -0.0051
           8   -0.0279    0.0053   -0.0046    0.0212    0.0211   -0.0230   -0.0191   -0.0092
           9    0.0000    0.0000   -0.0000   -0.0000   -0.0000    0.0000    0.0000    0.0000
          10   -0.0223   -0.0156   -0.0081   -0.0033   -0.0586   -0.0560   -0.0163    0.1287
          11    0.0282    0.0030    0.0157   -0.0032   -0.0168   -0.0443    0.1260   -0.0214
          12    0.0000    0.0000    0.0000    0.0000    0.0000    0.0000   -0.0000   -0.0000
          13    0.0368    0.0081   -0.0184   -0.0020    0.0034    0.0197    0.1258   -0.0609
          14   -0.0118   -0.0132    0.0031   -0.0040   -0.0593    0.0678    0.0249    0.1107
          15    0.0000    0.0000    0.0000    0.0000    0.0000   -0.0000   -0.0000   -0.0000
          16    0.0166    0.0134    0.0098    0.0011    0.0106    0.0270   -0.0569   -0.0563
          17    0.0520    0.0212   -0.0022   -0.0025   -0.0120   -0.0604   -0.0613    0.0189
          18   -0.0000   -0.0000   -0.0000   -0.0000   -0.0000    0.0000    0.0000    0.0000
          19    0.0444    0.0163    0.0032   -0.0027   -0.0142    0.0661   -0.0376    0.0386
          20    0.0332    0.0192   -0.0102    0.0003    0.0066   -0.0062   -0.0725   -0.0423
          21   -0.0000   -0.0000    0.0000    0.0000    0.0000   -0.0000    0.0000    0.0000
          22   -0.0107    0.0043   -0.0022    0.0047    0.0657    0.0050    0.0292    0.0737
          23   -0.0404   -0.0199    0.0029   -0.0008   -0.0333    0.0952    0.0020   -0.0956
          24    0.0000    0.0000   -0.0000   -0.0000   -0.0000   -0.0000   -0.0000   -0.0000
          25   -0.0352   -0.0206   -0.0024   -0.0022   -0.0523   -0.0859   -0.0117   -0.1163
          26   -0.0228   -0.0020    0.0024    0.0042    0.0522   -0.0352    0.0266    0.0401
          27    0.0000    0.0000    0.0000    0.0000    0.0000    0.0000    0.0000    0.0000
          28    0.0424   -0.0373    0.0542    0.1183   -0.0159   -0.0088    0.0041    0.0002
          29    0.0611   -0.0520   -0.0391    0.1613   -0.0201    0.0063    0.0060    0.0001
          30    0.0484   -0.0527    0.0006    0.1633   -0.0190   -0.0000    0.0040    0.0073
          31    0.0424   -0.0373    0.0542    0.1183   -0.0159   -0.0088    0.0041    0.0002
          32    0.0611   -0.0520   -0.0391    0.1613   -0.0201    0.0063    0.0060    0.0001
          33   -0.0484    0.0527   -0.0006   -0.1633    0.0191    0.0000   -0.0040   -0.0073
          34    0.0527   -0.0796   -0.0746   -0.0690   -0.0134   -0.0167   -0.0026    0.0152
          35   -0.0366    0.0910    0.0953    0.0216   -0.0518   -0.0112   -0.0040    0.0139
          36   -0.0422    0.0966    0.1036    0.0462   -0.0355   -0.0020    0.0214    0.0038
          37    0.0527   -0.0796   -0.0746   -0.0690   -0.0134   -0.0167   -0.0027    0.0152
          38   -0.0366    0.0910    0.0952    0.0216   -0.0518   -0.0112   -0.0040    0.0139
          39    0.0422   -0.0967   -0.1036   -0.0462    0.0355    0.0021   -0.0214   -0.0038
          40   -0.0585    0.1048   -0.1172    0.0414   -0.0438    0.0060   -0.0025    0.0086
          41    0.0481   -0.0447    0.0433   -0.0593   -0.0273    0.0200   -0.0030    0.0180
          42   -0.0491    0.0913   -0.1071    0.0462   -0.0341    0.0012    0.0217    0.0038
          43   -0.0585    0.1048   -0.1172    0.0414   -0.0438    0.0060   -0.0025    0.0086
          44    0.0482   -0.0447    0.0433   -0.0593   -0.0273    0.0200   -0.0030    0.0180
          45    0.0491   -0.0913    0.1071   -0.0462    0.0341   -0.0012   -0.0217   -0.0038
          46   -0.0338   -0.0063    0.0116    0.0055    0.0644    0.0632    0.0511   -0.0502
          47   -0.0121   -0.0056   -0.0013    0.0027    0.0550   -0.0304    0.0943    0.0462
          48    0.0000    0.0000    0.0000   -0.0000   -0.0000   -0.0000   -0.0000    0.0000
          49   -0.0136    0.0000    0.0051    0.0029    0.0324    0.0901    0.0142    0.0106
          50   -0.0434   -0.0117   -0.0130    0.0047    0.0613   -0.0775    0.0474    0.0594
          51    0.0000    0.0000    0.0000   -0.0000   -0.0000   -0.0000   -0.0000   -0.0000
          52   -0.0404   -0.0109    0.0157    0.0036    0.0492    0.0982    0.0457    0.0541
          53   -0.0261   -0.0037    0.0004    0.0042    0.0485   -0.0643    0.0243    0.0256
          54    0.0000    0.0000   -0.0000   -0.0000   -0.0000   -0.0000   -0.0000   -0.0000
          55   -0.0028   -0.0035    0.0054    0.0009    0.0337    0.0443    0.0770    0.0571
          56   -0.0354   -0.0080   -0.0086    0.0060    0.0779   -0.0548    0.0742   -0.0358
          57    0.0000    0.0000   -0.0000   -0.0000   -0.0000    0.0000   -0.0000    0.0000


   Root No.      41        42        43        44        45        46        47        48

                41 A      42 A      43 A      44 A      45 A      46 A      47 A      48 A   

                1823.3    2969.2    2974.9    2992.2    3053.4    3054.0    3056.2    3064.9
  
           1    0.0006   -0.0000    0.0000    0.0000    0.0006   -0.0033    0.0000   -0.0002
           2   -0.0007   -0.0000    0.0000    0.0000   -0.0003   -0.0045    0.0000   -0.0003
           3    0.0000    0.0187    0.0000   -0.0331   -0.0000   -0.0000    0.0000   -0.0000
           4    0.0132   -0.0000    0.0000   -0.0000    0.0132   -0.0118   -0.0004    0.0001
           5    0.0183   -0.0000    0.0000   -0.0000   -0.0168    0.0149    0.0004   -0.0000
           6   -0.0000   -0.0216    0.0305   -0.0142   -0.0000    0.0000    0.0000   -0.0000
           7   -0.0141   -0.0000   -0.0000   -0.0000    0.0192    0.0184   -0.0007   -0.0000
           8   -0.0189    0.0000    0.0000    0.0000   -0.0072   -0.0070    0.0003    0.0001
           9    0.0000   -0.0215   -0.0306   -0.0142   -0.0000   -0.0000    0.0000   -0.0000
          10   -0.1029    0.0000    0.0000    0.0000   -0.0004   -0.0003    0.0003   -0.0006
          11   -0.0759    0.0000   -0.0000    0.0000   -0.0003    0.0003   -0.0001   -0.0004
          12    0.0000   -0.0001   -0.0001   -0.0001   -0.0000   -0.0000    0.0000    0.0000
          13    0.0385   -0.0000   -0.0000   -0.0000    0.0002    0.0003    0.0002   -0.0002
          14    0.1291    0.0000   -0.0000    0.0000    0.0005   -0.0002   -0.0002   -0.0007
          15   -0.0000   -0.0001    0.0001   -0.0001    0.0000   -0.0000   -0.0000    0.0000
          16    0.0943    0.0000    0.0000   -0.0000   -0.0002    0.0000   -0.0084    0.0156
          17    0.1049   -0.0000   -0.0000    0.0000    0.0002   -0.0000    0.0051   -0.0103
          18   -0.0000   -0.0000    0.0000   -0.0000    0.0000   -0.0000    0.0000   -0.0000
          19   -0.0709    0.0000    0.0000    0.0000   -0.0003   -0.0001   -0.0073   -0.0146
          20   -0.1257   -0.0000   -0.0000   -0.0000    0.0001    0.0001    0.0064    0.0119
          21    0.0000   -0.0000   -0.0000   -0.0000   -0.0000   -0.0000    0.0000    0.0000
          22   -0.0092   -0.0000    0.0000    0.0000    0.0006    0.0001    0.0260   -0.0193
          23   -0.0645    0.0000    0.0000    0.0000    0.0003    0.0001    0.0122   -0.0071
          24    0.0000   -0.0000    0.0000   -0.0000   -0.0000    0.0000   -0.0000    0.0000
          25    0.0540    0.0000   -0.0000    0.0000   -0.0001    0.0000   -0.0039   -0.0010
          26    0.0301   -0.0000   -0.0000    0.0000   -0.0007   -0.0000   -0.0282   -0.0207
          27   -0.0000   -0.0000   -0.0000   -0.0000    0.0000    0.0000    0.0000    0.0000
          28   -0.0043    0.0507    0.0029   -0.0921    0.0006    0.0183   -0.0001    0.0015
          29    0.0031    0.0691   -0.0019   -0.1254   -0.0012    0.0249   -0.0001    0.0021
          30    0.0002   -0.1125   -0.0003    0.1976    0.0009   -0.0473    0.0002   -0.0040
          31   -0.0043   -0.0507   -0.0029    0.0921    0.0006    0.0183   -0.0001    0.0016
          32    0.0031   -0.0691    0.0019    0.1254   -0.0012    0.0249   -0.0001    0.0021
          33   -0.0002   -0.1125   -0.0003    0.1976   -0.0009    0.0474   -0.0002    0.0040
          34   -0.0137    0.0615   -0.0890    0.0436   -0.0806    0.0698    0.0021   -0.0002
          35   -0.0064   -0.0789    0.1116   -0.0519    0.1009   -0.0878   -0.0027    0.0004
          36    0.0009    0.1300   -0.1837    0.0851   -0.1975    0.1718    0.0052   -0.0007
          37   -0.0137   -0.0615    0.0890   -0.0436   -0.0807    0.0698    0.0021   -0.0002
          38   -0.0065    0.0789   -0.1116    0.0519    0.1010   -0.0879   -0.0027    0.0004
          39   -0.0009    0.1299   -0.1836    0.0850    0.1975   -0.1718   -0.0052    0.0007
          40    0.0026   -0.0933   -0.1333   -0.0625   -0.1162   -0.1089    0.0041    0.0004
          41    0.0164    0.0349    0.0515    0.0260    0.0451    0.0419   -0.0016   -0.0001
          42   -0.0006    0.1293    0.1839    0.0850    0.1905    0.1786   -0.0068   -0.0006
          43    0.0025    0.0935    0.1336    0.0627   -0.1159   -0.1087    0.0041    0.0004
          44    0.0164   -0.0349   -0.0516   -0.0261    0.0450    0.0418   -0.0016   -0.0001
          45    0.0006    0.1296    0.1844    0.0853   -0.1901   -0.1783    0.0068    0.0006
          46   -0.0173   -0.0000   -0.0000    0.0000    0.0030   -0.0005    0.0934   -0.1761
          47   -0.0559    0.0000    0.0000   -0.0000   -0.0025    0.0006   -0.0662    0.1278
          48   -0.0000    0.0000   -0.0000    0.0000   -0.0000    0.0000   -0.0000    0.0000
          49   -0.0415    0.0000   -0.0000   -0.0000   -0.0077   -0.0019   -0.3045    0.2145
          50   -0.0054   -0.0000   -0.0000   -0.0000   -0.0034   -0.0009   -0.1369    0.0925
          51    0.0000    0.0000    0.0000    0.0000    0.0000    0.0000    0.0001   -0.0001
          52   -0.0044   -0.0000    0.0000    0.0000    0.0010    0.0000    0.0390    0.0243
          53    0.0426    0.0000    0.0000   -0.0000    0.0081    0.0003    0.3286    0.2348
          54   -0.0000    0.0000   -0.0000    0.0000   -0.0000   -0.0000   -0.0001   -0.0000
          55    0.0519   -0.0000   -0.0000   -0.0000    0.0031    0.0014    0.0901    0.1759
          56    0.0313   -0.0000    0.0000    0.0000   -0.0021   -0.0008   -0.0685   -0.1306
          57   -0.0000    0.0000    0.0000    0.0000    0.0000   -0.0000   -0.0000   -0.0000


   Root No.      49        50        51

                49 A      50 A      51 A   

                3069.1    3074.7    3081.2
  
           1   -0.0199   -0.0000   -0.0001
           2   -0.0271   -0.0001   -0.0002
           3   -0.0000    0.0000    0.0000
           4    0.0023   -0.0002   -0.0002
           5   -0.0037   -0.0000   -0.0001
           6   -0.0000    0.0000    0.0000
           7   -0.0042   -0.0000    0.0000
           8    0.0011    0.0002   -0.0002
           9    0.0000   -0.0000    0.0000
          10    0.0005    0.0015    0.0010
          11    0.0001    0.0005    0.0010
          12   -0.0000   -0.0000   -0.0000
          13   -0.0000   -0.0001    0.0006
          14    0.0005   -0.0016    0.0013
          15   -0.0000    0.0000   -0.0000
          16   -0.0002   -0.0243   -0.0170
          17    0.0001    0.0180    0.0132
          18   -0.0000    0.0000    0.0000
          19    0.0002   -0.0244    0.0176
          20   -0.0002    0.0178   -0.0122
          21   -0.0000    0.0000   -0.0000
          22    0.0005   -0.0089   -0.0186
          23    0.0001   -0.0057   -0.0081
          24   -0.0000    0.0000    0.0000
          25   -0.0000    0.0027   -0.0022
          26    0.0005    0.0102   -0.0202
          27   -0.0000   -0.0000    0.0000
          28    0.1199    0.0002    0.0006
          29    0.1633    0.0003    0.0008
          30   -0.3089   -0.0005   -0.0015
          31    0.1199    0.0002    0.0006
          32    0.1633    0.0003    0.0008
          33    0.3089    0.0005    0.0015
          34   -0.0179    0.0001    0.0002
          35    0.0210   -0.0003   -0.0004
          36   -0.0419    0.0005    0.0007
          37   -0.0179    0.0001    0.0002
          38    0.0210   -0.0003   -0.0005
          39    0.0419   -0.0005   -0.0007
          40    0.0255    0.0004   -0.0005
          41   -0.0108   -0.0000    0.0001
          42   -0.0420   -0.0006    0.0008
          43    0.0254    0.0004   -0.0005
          44   -0.0108   -0.0000    0.0001
          45    0.0419    0.0006   -0.0008
          46    0.0014    0.2734    0.1888
          47   -0.0011   -0.2017   -0.1402
          48   -0.0000   -0.0000   -0.0000
          49   -0.0049    0.1048    0.1985
          50   -0.0021    0.0494    0.0883
          51    0.0000   -0.0000   -0.0001
          52   -0.0005   -0.0157    0.0249
          53   -0.0051   -0.1152    0.2169
          54    0.0000    0.0000   -0.0000
          55   -0.0025    0.2738   -0.1903
          56    0.0018   -0.1999    0.1381
          57    0.0000   -0.0001    0.0000


           MASS-WEIGHTED COORDINATE ANALYSIS (NORMAL COORDINATES)


   Root No.       1         2         3         4         5         6         7         8

                 1 A       2 A       3 A       4 A       5 A       6 A       7 A       8 A   

                  88.1     166.2     232.6     394.5     400.2     471.2     545.1     584.3
  
           1   -0.0000   -0.0001    0.0000   -0.2391   -0.0007   -0.0001   -0.2466    0.1418
           2    0.0000    0.0000   -0.0000    0.1754    0.0005   -0.0001   -0.3390   -0.0968
           3    0.5040   -0.0004   -0.0908    0.0001   -0.0337   -0.0001    0.0000    0.0000
           4   -0.0000   -0.0000    0.0000   -0.1726   -0.0005   -0.0000   -0.2301    0.0618
           5   -0.0000   -0.0001   -0.0000   -0.2156   -0.0008   -0.0000   -0.1372   -0.3367
           6   -0.2555   -0.3934   -0.1984    0.0001   -0.0088   -0.0098    0.0000    0.0001
           7   -0.0000    0.0000    0.0000    0.1541    0.0005   -0.0001   -0.0555    0.3392
           8    0.0000    0.0001   -0.0000    0.2291    0.0007   -0.0000   -0.2598    0.0492
           9   -0.2548    0.3939   -0.1981   -0.0001   -0.0089    0.0097    0.0001   -0.0000
          10   -0.0000    0.0000    0.0000    0.3020    0.0010    0.0000   -0.0576   -0.1783
          11   -0.0000   -0.0000    0.0001   -0.2698   -0.0008    0.0000   -0.0541   -0.2225
          12   -0.1468    0.0108    0.3837   -0.0011    0.3921    0.3148   -0.0001    0.0001
          13   -0.0000    0.0000    0.0000    0.3475    0.0011   -0.0001   -0.0312    0.1583
          14   -0.0000   -0.0000    0.0001   -0.2069   -0.0006   -0.0001   -0.0664    0.2372
          15   -0.1470   -0.0107    0.3843   -0.0012    0.3940   -0.3134    0.0001   -0.0002
          16    0.0000    0.0001    0.0000    0.1775    0.0004    0.0000   -0.1497   -0.3047
          17    0.0000    0.0000    0.0000    0.1099    0.0004    0.0001    0.3211   -0.1404
          18   -0.0084    0.3206    0.2710    0.0011   -0.3749    0.1903    0.0001    0.0000
          19   -0.0000   -0.0001    0.0000   -0.0520   -0.0001    0.0001    0.3527    0.0366
          20   -0.0000   -0.0000    0.0001   -0.2022   -0.0007   -0.0001   -0.0402    0.3305
          21   -0.0089   -0.3208    0.2706    0.0013   -0.3746   -0.1914    0.0000   -0.0000
          22    0.0000    0.0000   -0.0001   -0.1600   -0.0004   -0.0000    0.2198   -0.3388
          23    0.0000    0.0000   -0.0001    0.1843    0.0006    0.0000    0.3241   -0.1284
          24    0.1448    0.2463   -0.2944   -0.0005    0.1357   -0.4075   -0.0001    0.0001
          25    0.0000   -0.0001   -0.0000   -0.2233   -0.0006    0.0001    0.2440    0.0171
          26    0.0000    0.0000   -0.0001    0.0974    0.0004    0.0001    0.3152    0.3561
          27    0.1445   -0.2466   -0.2948   -0.0004    0.1346    0.4084   -0.0002   -0.0000
          28    0.1356    0.0661    0.0253   -0.1123   -0.0027   -0.0005   -0.0775    0.0042
          29    0.1844   -0.0487    0.0344    0.0825   -0.0030    0.0002   -0.1056   -0.0007
          30    0.3204   -0.0002    0.0065    0.0001   -0.0128   -0.0001   -0.0051    0.0001
          31   -0.1356   -0.0661   -0.0253   -0.1123    0.0020    0.0004   -0.0776    0.0042
          32   -0.1844    0.0487   -0.0344    0.0825    0.0035   -0.0003   -0.1056   -0.0007
          33    0.3204   -0.0002    0.0065    0.0000   -0.0128   -0.0001    0.0052   -0.0001
          34    0.1297    0.0705    0.0252   -0.1101    0.0029    0.0207   -0.0731    0.0269
          35   -0.0676   -0.1104   -0.1395   -0.1071   -0.1060   -0.1245   -0.0428   -0.1000
          36   -0.1753   -0.2130   -0.1529    0.0007   -0.0678   -0.0886    0.0004   -0.0040
          37   -0.1296   -0.0705   -0.0252   -0.1100   -0.0036   -0.0207   -0.0731    0.0269
          38    0.0675    0.1103    0.1395   -0.1078    0.1053    0.1244   -0.0430   -0.0999
          39   -0.1753   -0.2131   -0.1530   -0.0001   -0.0679   -0.0887   -0.0002    0.0040
          40   -0.1031    0.1267   -0.1407    0.0699   -0.1022    0.1246   -0.0172    0.1032
          41    0.1036   -0.0345   -0.0179    0.1373   -0.0282    0.0175   -0.0828    0.0064
          42   -0.1750    0.2134   -0.1529   -0.0002   -0.0683    0.0884    0.0004    0.0040
          43    0.1031   -0.1266    0.1407    0.0693    0.1026   -0.1246   -0.0171    0.1031
          44   -0.1036    0.0345    0.0179    0.1371    0.0290   -0.0175   -0.0828    0.0063
          45   -0.1750    0.2134   -0.1529    0.0006   -0.0683    0.0884   -0.0004   -0.0040
          46    0.0000    0.0001    0.0000    0.1193    0.0003    0.0000   -0.0338   -0.0730
          47    0.0000    0.0000    0.0000    0.1245    0.0004    0.0000    0.1046   -0.0194
          48   -0.0002    0.1661    0.1142    0.0011   -0.3824    0.1125    0.0001   -0.0000
          49    0.0000    0.0000   -0.0001   -0.0697   -0.0002   -0.0001    0.0887   -0.0593
          50    0.0000    0.0000   -0.0001    0.1077    0.0004   -0.0000    0.0394   -0.1244
          51    0.0788    0.1475   -0.2173   -0.0003    0.0909   -0.3721    0.0001   -0.0000
          52    0.0000   -0.0000   -0.0000   -0.1236   -0.0003    0.0001    0.0130    0.1001
          53    0.0000   -0.0000   -0.0000    0.0342    0.0001    0.0001    0.0986    0.0921
          54    0.0785   -0.1471   -0.2170   -0.0003    0.0897    0.3712   -0.0000   -0.0000
          55   -0.0000   -0.0001    0.0000   -0.0831   -0.0003   -0.0000    0.1097   -0.0053
          56   -0.0000   -0.0000    0.0001   -0.1512   -0.0005   -0.0000    0.0001    0.0746
          57   -0.0004   -0.1661    0.1140    0.0012   -0.3822   -0.1142    0.0001    0.0001


   Root No.       9        10        11        12        13        14        15        16

                 9 A      10 A      11 A      12 A      13 A      14 A      15 A      16 A   

                 667.7     689.3     753.0     788.3     859.9     860.2     913.3     928.8
  
           1   -0.0001    0.2467   -0.0001    0.0000   -0.0175   -0.0005   -0.0238   -0.0000
           2   -0.0001    0.3373   -0.0002    0.0000    0.0137    0.0004   -0.0322   -0.0000
           3    0.0000    0.0001    0.1648   -0.1862    0.0000   -0.0002    0.0000    0.0004
           4   -0.0000    0.3247   -0.0002    0.0000   -0.0140   -0.0004   -0.0739    0.0001
           5    0.0001   -0.2440    0.0001    0.0000    0.2919    0.0085    0.3739   -0.0001
           6    0.1337    0.0001    0.1404   -0.0692    0.0057   -0.1973   -0.0000   -0.2353
           7   -0.0001   -0.3331    0.0003    0.0001   -0.2832   -0.0081    0.3773   -0.0001
           8   -0.0001    0.2360   -0.0001    0.0001   -0.0744   -0.0022    0.0411    0.0000
           9   -0.1336    0.0001    0.1402   -0.0699   -0.0057    0.1977   -0.0000    0.2340
          10    0.0001   -0.1332    0.0000   -0.0000    0.1352    0.0039   -0.1592    0.0001
          11    0.0001   -0.1901    0.0001    0.0000   -0.0002    0.0000    0.0537    0.0000
          12    0.4268   -0.0000   -0.0314    0.1464   -0.0026    0.0913    0.0001    0.3010
          13   -0.0001   -0.1421    0.0001    0.0000    0.0398    0.0011    0.0992   -0.0001
          14   -0.0000   -0.1861    0.0001    0.0000   -0.1272   -0.0037   -0.1367   -0.0000
          15   -0.4260   -0.0001   -0.0310    0.1459    0.0027   -0.0910   -0.0001   -0.3005
          16    0.0000   -0.3152    0.0002   -0.0001    0.2075    0.0060   -0.3702    0.0001
          17    0.0001    0.1270   -0.0001   -0.0001   -0.2544   -0.0073    0.0530   -0.0000
          18   -0.1735    0.0000   -0.1020   -0.0920   -0.0073    0.2465    0.0000   -0.1463
          19    0.0000    0.2154   -0.0002   -0.0001    0.3025    0.0087    0.1622    0.0001
          20    0.0000   -0.2647    0.0001   -0.0000   -0.1211   -0.0035   -0.3375    0.0001
          21    0.1732   -0.0000   -0.1018   -0.0916    0.0072   -0.2472    0.0000    0.1495
          22    0.0002    0.0401    0.0000   -0.0000   -0.4297   -0.0124   -0.0349   -0.0001
          23    0.0001    0.0968   -0.0000   -0.0000   -0.1784   -0.0052   -0.0332   -0.0001
          24    0.1720   -0.0001   -0.1227   -0.1832   -0.0035    0.1288    0.0000   -0.1660
          25   -0.0000    0.0804   -0.0001   -0.0001    0.0422    0.0012   -0.0210    0.0000
          26   -0.0001    0.0648   -0.0001   -0.0001    0.4633    0.0134   -0.0425    0.0001
          27   -0.1724   -0.0001   -0.1209   -0.1811    0.0035   -0.1296    0.0001    0.1640
          28   -0.0432    0.0829   -0.1786    0.1649    0.0622    0.1103   -0.0035    0.1876
          29    0.0315    0.1129   -0.2428    0.2246   -0.0453   -0.0809   -0.0049   -0.1385
          30   -0.0002    0.0100   -0.1916    0.1675    0.0001   -0.0000    0.0024   -0.0004
          31    0.0432    0.0831    0.1785   -0.1649    0.0685   -0.1065   -0.0035   -0.1876
          32   -0.0315    0.1132    0.2427   -0.2245   -0.0499    0.0782   -0.0048    0.1385
          33   -0.0001   -0.0103   -0.1916    0.1675   -0.0001   -0.0000   -0.0025   -0.0004
          34    0.0290    0.0864    0.1524   -0.1481    0.0215   -0.1092    0.0666   -0.2249
          35   -0.2066   -0.0924   -0.1684    0.0533    0.1140    0.1604    0.2215    0.0978
          36   -0.1019   -0.0070   -0.1385    0.0865    0.0058    0.0935    0.0208    0.1029
          37   -0.0291    0.0861   -0.1525    0.1481    0.0151    0.1102    0.0666    0.2249
          38    0.2066   -0.0923    0.1684   -0.0533    0.1232   -0.1534    0.2216   -0.0978
          39   -0.1020    0.0069   -0.1385    0.0865   -0.0112    0.0930   -0.0209    0.1029
          40    0.2052   -0.1150   -0.2061    0.0956   -0.1028   -0.1860    0.1908   -0.1592
          41    0.0342    0.0547    0.0951   -0.1259   -0.0554    0.0561    0.1299    0.1872
          42    0.1015   -0.0071   -0.1384    0.0867   -0.0058   -0.0936    0.0206   -0.1027
          43   -0.2052   -0.1148    0.2062   -0.0955   -0.1134    0.1797    0.1908    0.1591
          44   -0.0342    0.0545   -0.0951    0.1259   -0.0520   -0.0593    0.1297   -0.1873
          45    0.1015    0.0070   -0.1384    0.0867    0.0112   -0.0931   -0.0207   -0.1027
          46   -0.0001   -0.0975    0.0001   -0.0000    0.1254    0.0035   -0.2095    0.0001
          47   -0.0000    0.0283    0.0000   -0.0000    0.0121    0.0004   -0.1176    0.0000
          48   -0.3175    0.0001    0.2484    0.2195    0.0133   -0.4582    0.0001    0.1735
          49    0.0001    0.0410    0.0001    0.0002   -0.1051   -0.0031    0.0391    0.0000
          50    0.0001   -0.0400    0.0001    0.0000   -0.0991   -0.0029   -0.1290    0.0001
          51    0.1720    0.0002    0.3324    0.4438    0.0067   -0.2334   -0.0000    0.2811
          52   -0.0000   -0.0513    0.0000    0.0000    0.0631    0.0019   -0.1346   -0.0000
          53   -0.0000    0.0265    0.0000    0.0001    0.1299    0.0038   -0.0011   -0.0000
          54   -0.1713    0.0001    0.3318    0.4428   -0.0066    0.2358   -0.0002   -0.2790
          55    0.0001    0.0558   -0.0000   -0.0000    0.0253    0.0008   -0.0500    0.0000
          56    0.0000   -0.0858    0.0000   -0.0000   -0.1231   -0.0036   -0.2364    0.0001
          57    0.3174    0.0002    0.2465    0.2181   -0.0133    0.4597   -0.0001   -0.1781


   Root No.      17        18        19        20        21        22        23        24

                17 A      18 A      19 A      20 A      21 A      22 A      23 A      24 A   

                 946.2    1006.7    1007.8    1012.1    1061.7    1087.6    1101.2    1103.7
  
           1   -0.0000    0.0000   -0.0001    0.3161   -0.0001    0.0283    0.3076    0.0007
           2   -0.0000    0.0001   -0.0001    0.4315   -0.0001    0.0383   -0.2258   -0.0005
           3   -0.1328   -0.0081    0.2054    0.0001    0.0026   -0.0000   -0.0000    0.0039
           4    0.0000   -0.0001    0.0001   -0.3415    0.0001   -0.0509   -0.3363   -0.0008
           5   -0.0000    0.0001   -0.0001    0.0962   -0.0000    0.0937    0.0505    0.0001
           6    0.1218    0.0393   -0.2677   -0.0001   -0.0120   -0.0000    0.0005   -0.2392
           7    0.0000   -0.0000   -0.0001    0.1941    0.0000    0.1029   -0.1491   -0.0003
           8    0.0000   -0.0001    0.0001   -0.2971    0.0000   -0.0203    0.3054    0.0007
           9    0.1241   -0.0171   -0.2704   -0.0001    0.0087    0.0000   -0.0005    0.2352
          10   -0.0000    0.0000    0.0000    0.0206    0.0000   -0.0290   -0.0107   -0.0000
          11    0.0000   -0.0001    0.0000   -0.0110    0.0000   -0.0778   -0.0883   -0.0001
          12    0.0056   -0.0882    0.2212    0.0001    0.2404    0.0000   -0.0002    0.1244
          13   -0.0000    0.0001    0.0000   -0.0159   -0.0000   -0.0634    0.0808    0.0001
          14    0.0000   -0.0000   -0.0000    0.0158   -0.0000   -0.0520    0.0370    0.0001
          15    0.0020    0.0690    0.2294   -0.0000   -0.2393   -0.0000    0.0002   -0.1245
          16   -0.0000    0.0000   -0.0000   -0.0726   -0.0000   -0.1492   -0.0275   -0.0000
          17   -0.0000   -0.0000   -0.0000   -0.0100    0.0000    0.1135    0.0027   -0.0000
          18   -0.3102    0.2687   -0.1727   -0.0001   -0.1042   -0.0001    0.0001   -0.0418
          19   -0.0001   -0.0000   -0.0001    0.0110   -0.0000    0.1509   -0.0114    0.0000
          20   -0.0000    0.0000    0.0000   -0.0711    0.0000   -0.1071    0.0256    0.0000
          21   -0.3080   -0.2532   -0.1952    0.0000    0.1037   -0.0001   -0.0001    0.0417
          22    0.0001   -0.0002    0.0000    0.0043    0.0000   -0.2557    0.0509    0.0001
          23    0.0001   -0.0001    0.0000    0.0288    0.0000   -0.0644    0.0239    0.0001
          24    0.2113   -0.3947    0.0552    0.0001    0.0666    0.0001   -0.0000    0.0166
          25    0.0000    0.0001    0.0000    0.0266   -0.0000    0.0155   -0.0073   -0.0000
          26    0.0000    0.0002    0.0000    0.0116   -0.0000   -0.2632   -0.0549   -0.0001
          27    0.2122    0.3892    0.0882   -0.0000   -0.0664    0.0000    0.0000   -0.0165
          28    0.0745   -0.0524   -0.1045    0.0979    0.0909    0.0130    0.3878   -0.5066
          29    0.0990    0.0471   -0.1368    0.1331   -0.0689    0.0165   -0.2845    0.3695
          30    0.0601    0.0032   -0.0773    0.0117   -0.0006    0.0045    0.0001   -0.0003
          31   -0.0745    0.0526    0.1045    0.0978   -0.0911    0.0131    0.3854    0.5082
[...]
 TRAVEL      0.0902         C  2 -- H 12         +10.0% ( 43.9%)      0.1%
 RED. MASS   0.5611         C  2 -- H 13         +10.0% ( 43.9%)      0.1%
 EFF. MASS   6.5229

 VIBRATION   31   31A         ATOM PAIR      ENERGY CONTRIBUTION    RADIAL
 FREQ.      1273.52         C  1 -- C  2         +15.0% ( 58.9%)     93.9%
 T-DIPOLE    0.0520         C  1 -- H 11         +14.9% ( 58.7%)      0.0%
 TRAVEL      0.0817         C  1 -- H 10         +14.9% ( 58.7%)      0.0%
 RED. MASS   1.6474         C  1 -- C  3         +14.9% ( 58.6%)     93.4%
 EFF. MASS   7.9308

 VIBRATION   32   32A         ATOM PAIR      ENERGY CONTRIBUTION    RADIAL
 FREQ.      1326.62         C  2 -- C  4          +9.4% ( 40.4%)     98.7%
 T-DIPOLE    0.1123         C  3 -- C  5          +8.4% ( 38.1%)     99.3%
 TRAVEL      0.0924         C  2 -- H 12          +7.4% ( 35.7%)      0.3%
 RED. MASS   0.4540         C  2 -- H 13          +7.4% ( 35.7%)      0.3%
 EFF. MASS   5.9576

 VIBRATION   33   33A         ATOM PAIR      ENERGY CONTRIBUTION    RADIAL
 FREQ.      1359.18         C  7 -- C  9         +14.9% ( 60.7%)     95.6%
 T-DIPOLE    0.0306         C  6 -- C  8         +14.6% ( 60.1%)     96.4%
 TRAVEL      0.0720         C  5 -- C  7          +8.6% ( 46.2%)     99.5%
 RED. MASS   1.0908         C  4 -- C  5          +8.3% ( 45.2%)     99.8%
 EFF. MASS   9.5637

 VIBRATION   34   34A         ATOM PAIR      ENERGY CONTRIBUTION    RADIAL
 FREQ.      1386.82         C  2 -- H 13         +10.0% ( 38.5%)      4.8%
 T-DIPOLE    0.0703         C  2 -- H 12         +10.0% ( 38.5%)      4.8%
 TRAVEL      0.1050         C  3 -- H 15          +9.0% ( 36.5%)      4.9%
 RED. MASS   0.2559         C  3 -- H 14          +9.0% ( 36.5%)      4.9%
 EFF. MASS   4.4068

 VIBRATION   35   35A         ATOM PAIR      ENERGY CONTRIBUTION    RADIAL
 FREQ.      1403.56         C  3 -- H 15         +13.7% ( 43.9%)      6.3%
 T-DIPOLE    0.0089         C  3 -- H 14         +13.7% ( 43.9%)      6.3%
 TRAVEL      0.1045         C  2 -- H 12         +12.8% ( 42.4%)      6.3%
 RED. MASS   0.4315         C  2 -- H 13         +12.8% ( 42.4%)      6.3%
 EFF. MASS   4.3966

 VIBRATION   36   36A         ATOM PAIR      ENERGY CONTRIBUTION    RADIAL
 FREQ.      1420.33         C  1 -- H 11         +29.0% ( 56.7%)      5.4%
 T-DIPOLE    0.0701         C  1 -- H 10         +29.0% ( 56.7%)      5.4%
 TRAVEL      0.1254         C  1 -- C  2         +11.2% ( 35.3%)     58.4%
 RED. MASS   0.4860         C  1 -- C  3         +11.2% ( 35.3%)     58.4%
 EFF. MASS   3.0169

 VIBRATION   37   37A         ATOM PAIR      ENERGY CONTRIBUTION    RADIAL
 FREQ.      1450.49         C  8 -- C  9         +21.8% ( 74.3%)    100.0%
 T-DIPOLE    0.4317         C  4 -- C  5         +11.3% ( 53.5%)     99.9%
 TRAVEL      0.0660         C  2 -- C  4          +8.2% ( 45.4%)     62.6%
 RED. MASS   1.7307         C  3 -- C  5          +7.6% ( 43.9%)     59.8%
 EFF. MASS  10.6746

 VIBRATION   38   38A         ATOM PAIR      ENERGY CONTRIBUTION    RADIAL
 FREQ.      1590.54         C  6 -- C  8         +14.5% ( 56.8%)     94.5%
 T-DIPOLE    0.5001         C  7 -- C  9         +14.1% ( 55.9%)     95.6%
 TRAVEL      0.0610         C  8 -- C  9         +13.3% ( 54.4%)      0.1%
 RED. MASS   1.7332         C  4 -- C  5          +9.5% ( 46.0%)      0.2%
 EFF. MASS  11.4107

 VIBRATION   39   39A         ATOM PAIR      ENERGY CONTRIBUTION    RADIAL
 FREQ.      1616.71         C  4 -- C  5         +20.7% ( 67.8%)    100.0%
 T-DIPOLE    0.6143         C  5 -- C  7         +14.9% ( 57.5%)     35.1%
 TRAVEL      0.0603         C  4 -- C  6         +14.8% ( 57.3%)     33.3%
 RED. MASS   2.5015         C  3 -- C  5         +11.9% ( 51.3%)     90.2%
 EFF. MASS  11.4647         C  2 -- C  4         +11.5% ( 50.6%)     89.2%

 VIBRATION   40   40A         ATOM PAIR      ENERGY CONTRIBUTION    RADIAL
 FREQ.      1801.73         C  4 -- C  5         +17.8% ( 58.8%)     99.9%
 T-DIPOLE    0.2180         C  8 -- C  9         +16.4% ( 56.3%)    100.0%
 TRAVEL      0.0561         C  4 -- C  6         +11.0% ( 46.3%)     66.6%
 RED. MASS   2.3822         C  5 -- C  7         +10.2% ( 44.5%)     61.1%
 EFF. MASS  11.8813

 VIBRATION   41   41A         ATOM PAIR      ENERGY CONTRIBUTION    RADIAL
 FREQ.      1823.32         C  5 -- C  7         +18.6% ( 61.1%)     90.8%
 T-DIPOLE    0.3024         C  4 -- C  6         +17.1% ( 58.5%)     88.8%
 TRAVEL      0.0558         C  4 -- C  5         +13.3% ( 51.7%)      0.1%
 RED. MASS   2.4070         C  7 -- C  9          +9.6% ( 43.8%)     77.5%
 EFF. MASS  11.8969

 VIBRATION   42   42A         ATOM PAIR      ENERGY CONTRIBUTION    RADIAL
 FREQ.      2969.17         C  2 -- H 12         +17.8% ( 44.0%)     96.4%
 T-DIPOLE    0.0397         C  2 -- H 13         +17.8% ( 43.9%)     96.4%
 TRAVEL      0.1207         C  3 -- H 15         +17.7% ( 43.8%)     96.4%
 RED. MASS   0.1761         C  3 -- H 14         +17.6% ( 43.8%)     96.4%
 EFF. MASS   1.5600         C  1 -- H 10         +13.4% ( 38.1%)     96.1%
                            C  1 -- H 11         +13.3% ( 38.1%)     96.1%

 VIBRATION   43   43A         ATOM PAIR      ENERGY CONTRIBUTION    RADIAL
 FREQ.      2974.92         C  3 -- H 15         +24.6% ( 51.4%)     96.6%
 T-DIPOLE    0.0001         C  3 -- H 14         +24.5% ( 51.3%)     96.6%
 TRAVEL      0.1213         C  2 -- H 12         +24.4% ( 51.3%)     96.6%
 RED. MASS   0.2591         C  2 -- H 13         +24.4% ( 51.2%)     96.6%
 EFF. MASS   1.5397

 VIBRATION   44   44A         ATOM PAIR      ENERGY CONTRIBUTION    RADIAL
 FREQ.      2992.17         C  1 -- H 10         +35.7% ( 61.8%)     96.6%
 T-DIPOLE    0.0634         C  1 -- H 11         +35.7% ( 61.8%)     96.6%
 TRAVEL      0.1215         C  3 -- H 15          +6.6% ( 26.6%)     96.9%
 RED. MASS   0.2941         C  2 -- H 12          +6.6% ( 26.6%)     96.9%
 EFF. MASS   1.5276

 VIBRATION   45   45A         ATOM PAIR      ENERGY CONTRIBUTION    RADIAL
 FREQ.      3053.44         C  2 -- H 13         +25.6% ( 49.9%)     97.7%
 T-DIPOLE    0.1179         C  2 -- H 12         +25.5% ( 49.8%)     97.7%
 TRAVEL      0.1316         C  3 -- H 14         +23.8% ( 48.1%)     97.7%
 RED. MASS   0.2420         C  3 -- H 15         +23.7% ( 48.0%)     97.6%
 EFF. MASS   1.2745

 VIBRATION   46   46A         ATOM PAIR      ENERGY CONTRIBUTION    RADIAL
 FREQ.      3054.00         C  3 -- H 14         +24.7% ( 49.1%)     97.6%
 T-DIPOLE    0.0602         C  3 -- H 15         +24.6% ( 48.9%)     97.5%
 TRAVEL      0.1307         C  2 -- H 13         +22.9% ( 47.2%)     97.5%
 RED. MASS   0.2263         C  2 -- H 12         +22.9% ( 47.2%)     97.5%
 EFF. MASS   1.2920

 VIBRATION   47   47A         ATOM PAIR      ENERGY CONTRIBUTION    RADIAL
 FREQ.      3056.19         C  8 -- H 17         +43.9% ( 67.4%)    100.0%
 T-DIPOLE    0.0717         C  9 -- H 18         +43.1% ( 66.8%)    100.0%
 TRAVEL      0.1216         C  6 -- H 16          +5.2% ( 23.1%)     99.9%
 RED. MASS   0.3771         C  7 -- H 19          +5.1% ( 22.9%)     99.9%
 EFF. MASS   1.4927

 VIBRATION   48   48A         ATOM PAIR      ENERGY CONTRIBUTION    RADIAL
 FREQ.      3064.93         C  9 -- H 18         +26.3% ( 52.1%)     99.9%
 T-DIPOLE    0.2965         C  8 -- H 17         +25.7% ( 51.5%)     99.9%
 TRAVEL      0.1209         C  7 -- H 19         +22.7% ( 48.4%)    100.0%
 RED. MASS   0.2338         C  6 -- H 16         +22.3% ( 48.0%)    100.0%
 EFF. MASS   1.5060

 VIBRATION   49   49A         ATOM PAIR      ENERGY CONTRIBUTION    RADIAL
 FREQ.      3069.13         C  1 -- H 11         +47.6% ( 67.9%)     97.7%
 T-DIPOLE    0.0591         C  1 -- H 10         +47.6% ( 67.9%)     97.7%
 TRAVEL      0.1310         C  3 -- H 14          +0.9% (  9.2%)     97.9%
 RED. MASS   0.4506         C  3 -- H 15          +0.9% (  9.2%)     97.8%
 EFF. MASS   1.2800

 VIBRATION   50   50A         ATOM PAIR      ENERGY CONTRIBUTION    RADIAL
 FREQ.      3074.68         C  6 -- H 16         +43.4% ( 66.9%)    100.0%
 T-DIPOLE    0.5348         C  7 -- H 19         +43.2% ( 66.8%)    100.0%
 TRAVEL      0.1193         C  9 -- H 18          +5.1% ( 22.9%)     99.7%
 RED. MASS   0.3778         C  8 -- H 17          +5.0% ( 22.8%)     99.7%
 EFF. MASS   1.5397

 VIBRATION   51   51A         ATOM PAIR      ENERGY CONTRIBUTION    RADIAL
 FREQ.      3081.20         C  6 -- H 16         +26.0% ( 51.7%)    100.0%
 T-DIPOLE    0.3136         C  7 -- H 19         +26.0% ( 51.7%)    100.0%
 TRAVEL      0.1174         C  9 -- H 18         +22.4% ( 47.9%)    100.0%
 RED. MASS   0.2343         C  8 -- H 17         +22.2% ( 47.7%)    100.0%
 EFF. MASS   1.5887

      SYMMETRY NUMBER FOR POINT-GROUP C1  =  1


          SYSTEM IS A GROUND STATE



 InChI=1S/C9H10/c1-2-5-9-7-3-6-8(9)4-1/h1-2,4-5H,3,6-7H2


          MOLECULE IS NOT LINEAR

          THERE ARE 51 GENUINE VIBRATIONS IN THIS SYSTEM
          THIS THERMODYNAMICS CALCULATION IS LIMITED TO
          MOLECULES WHICH HAVE NO INTERNAL ROTATIONS




                    CALCULATED THERMODYNAMIC PROPERTIES
                                          *
   TEMP. (K)   PARTITION FUNCTION   H.O.F.    ENTHALPY  HEAT CAPACITY ENTROPY
                                   KCAL/MOL   CAL/MOLE    CAL/K/MOL  CAL/K/MOL


 298.00  VIB.     0.1780D+02                  2632.7510    22.3458    14.5558
         ROT.     0.3614D+06                   888.2813     2.9808    28.4123
         INT.     0.6431D+07                  3521.0323    25.3266    42.9682
         TRA.     0.1242D+28                  1480.4688     4.9680    40.2136
         TOT.                       11.133    5001.5011    30.2946    83.1818

 200.00  VIB.     0.4704D+01                   971.1219    11.9134     7.9326
         ROT.     0.1987D+06                   596.1620     2.9808    27.2237
         INT.     0.9346D+06                  1567.2839    14.8942    35.1563
         TRA.     0.6829D+27                   993.6033     4.9680    38.2325
         TOT.                        8.692    2560.8871    19.8622    73.3888

 210.00  VIB.     0.5323D+01                  1094.9713    12.8625     8.5367
         ROT.     0.2138D+06                   625.9700     2.9808    27.3691
         INT.     0.1138D+07                  1720.9414    15.8433    35.9058
         TRA.     0.7347D+27                  1043.2834     4.9680    38.4749
         TOT.                        8.896    2764.2248    20.8113    74.3807

 220.00  VIB.     0.6039D+01                  1228.4877    13.8463     9.1577
         ROT.     0.2292D+06                   655.7781     2.9808    27.5078
         INT.     0.1384D+07                  1884.2659    16.8271    36.6654
         TRA.     0.7878D+27                  1092.9636     4.9680    38.7060
         TOT.                        9.109    2977.2295    21.7952    75.3714

 230.00  VIB.     0.6872D+01                  1372.0041    14.8620     9.7955
         ROT.     0.2450D+06                   685.5862     2.9808    27.6403
         INT.     0.1684D+07                  2057.5903    17.8428    37.4357
         TRA.     0.8422D+27                  1142.6437     4.9680    38.9268
         TOT.                        9.332    3200.2341    22.8108    76.3626

 240.00  VIB.     0.7841D+01                  1525.8232    15.9063    10.4499
         ROT.     0.2612D+06                   715.3943     2.9808    27.7671
         INT.     0.2048D+07                  2241.2176    18.8871    38.2171
         TRA.     0.8977D+27                  1192.3239     4.9680    39.1383
         TOT.                        9.565    3433.5415    23.8552    77.3553

 250.00  VIB.     0.8971D+01                  1690.2148    16.9759    11.1209
         ROT.     0.2777D+06                   745.2024     2.9808    27.8888
         INT.     0.2491D+07                  2435.4172    19.9567    39.0097
         TRA.     0.9544D+27                  1242.0041     4.9680    39.3411
         TOT.                        9.809    3677.4213    24.9247    78.3508

 260.00  VIB.     0.1029D+02                  1865.4128    18.0670    11.8079
         ROT.     0.2945D+06                   775.0105     2.9808    28.0057
         INT.     0.3031D+07                  2640.4233    21.0478    39.8136
         TRA.     0.1012D+28                  1291.6842     4.9680    39.5359
         TOT.                       10.064    3932.1075    26.0158    79.3495

 270.00  VIB.     0.1184D+02                  2051.6147    19.1761    12.5105
         ROT.     0.3116D+06                   804.8186     2.9808    28.1182
         INT.     0.3691D+07                  2856.4334    22.1569    40.6287
         TRA.     0.1071D+28                  1341.3644     4.9680    39.7234
         TOT.                       10.329    4197.7977    27.1249    80.3521

 280.00  VIB.     0.1366D+02                  2248.9813    20.2993    13.2281
         ROT.     0.3291D+06                   834.6267     2.9808    28.2266
         INT.     0.4497D+07                  3083.6081    23.2801    41.4547
         TRA.     0.1131D+28                  1391.0445     4.9680    39.9041
         TOT.                       10.606    4474.6526    28.2482    81.3589

 290.00  VIB.     0.1581D+02                  2457.6370    21.4333    13.9602
         ROT.     0.3469D+06                   864.4348     2.9808    28.3312
         INT.     0.5484D+07                  3322.0719    24.4141    42.2914
         TRA.     0.1192D+28                  1440.7247     4.9680    40.0784
         TOT.                       10.894    4762.7966    29.3821    82.3699

 300.00  VIB.     0.1834D+02                  2677.6712    22.5745    14.7060
         ROT.     0.3650D+06                   894.2429     2.9808    28.4323
         INT.     0.6693D+07                  3571.9142    25.5553    43.1383
         TRA.     0.1255D+28                  1490.4049     4.9680    40.2469
         TOT.                       11.194    5062.3190    30.5233    83.3852

 310.00  VIB.     0.2132D+02                  2909.1400    23.7197    15.4649
         ROT.     0.3834D+06                   924.0510     2.9808    28.5300
         INT.     0.8176D+07                  3833.1910    26.7005    43.9949
         TRA.     0.1318D+28                  1540.0850     4.9680    40.4098
         TOT.                       11.505    5373.2760    31.6685    84.4047

 320.00  VIB.     0.2487D+02                  3152.0680    24.8658    16.2361
         ROT.     0.4021D+06                   953.8591     2.9808    28.6247
         INT.     0.9999D+07                  4105.9271    27.8467    44.8608
         TRA.     0.1382D+28                  1589.7652     4.9680    40.5675
         TOT.                       11.827    5695.6923    32.8147    85.4282

 330.00  VIB.     0.2907D+02                  3406.4509    26.0102    17.0188
         ROT.     0.4211D+06                   983.6672     2.9808    28.7164
         INT.     0.1224D+08                  4390.1181    28.9910    45.7352
         TRA.     0.1447D+28                  1639.4454     4.9680    40.7204
         TOT.                       12.161    6029.5635    33.9590    86.4555

 340.00  VIB.     0.3407D+02                  3672.2579    27.1503    17.8122
         ROT.     0.4404D+06                  1013.4753     2.9808    28.8054
         INT.     0.1500D+08                  4685.7332    30.1311    46.6176
         TRA.     0.1514D+28                  1689.1255     4.9680    40.8687
         TOT.                       12.506    6374.8587    35.0991    87.4863

 350.00  VIB.     0.4002D+02                  3949.4340    28.2837    18.6156
         ROT.     0.4600D+06                  1043.2834     2.9808    28.8918
         INT.     0.1841D+08                  4992.7174    31.2645    47.5074
         TRA.     0.1581D+28                  1738.8057     4.9680    41.0127
         TOT.                       12.863    6731.5231    36.2325    88.5201

 360.00  VIB.     0.4712D+02                  4237.9025    29.4084    19.4282
         ROT.     0.4798D+06                  1073.0915     2.9808    28.9757
         INT.     0.2261D+08                  5310.9940    32.3893    48.4039
         TRA.     0.1649D+28                  1788.4859     4.9680    41.1526
         TOT.                       13.231    7099.4799    37.3573    89.5566

 370.00  VIB.     0.5561D+02                  4537.5680    30.5228    20.2491
         ROT.     0.4999D+06                  1102.8996     2.9808    29.0574
         INT.     0.2780D+08                  5640.4676    33.5036    49.3066
         TRA.     0.1718D+28                  1838.1660     4.9680    41.2888
         TOT.                       13.610    7478.6336    38.4716    90.5953

 380.00  VIB.     0.6578D+02                  4848.3180    31.6251    21.0778
         ROT.     0.5203D+06                  1132.7077     2.9808    29.1369
         INT.     0.3423D+08                  5981.0257    34.6059    50.2147
         TRA.     0.1788D+28                  1887.8462     4.9680    41.4213
         TOT.                       14.000    7868.8719    39.5739    91.6360

 390.00  VIB.     0.7797D+02                  5170.0258    32.7141    21.9134
         ROT.     0.5410D+06                  1162.5158     2.9808    29.2143
         INT.     0.4218D+08                  6332.5416    35.6949    51.1277
         TRA.     0.1860D+28                  1937.5263     4.9680    41.5503
         TOT.                       14.402    8270.0680    40.6629    92.6780

 400.00  VIB.     0.9261D+02                  5502.5523    33.7887    22.7552
         ROT.     0.5620D+06                  1192.3239     2.9808    29.2898
         INT.     0.5204D+08                  6694.8762    36.7695    52.0450
         TRA.     0.1932D+28                  1987.2065     4.9680    41.6761
         TOT.                       14.814    8682.0827    41.7375    93.7211

   *: NOTE: HEATS OF FORMATION ARE RELATIVE TO THE
            ELEMENTS IN THEIR STANDARD STATE AT 298K
              (=  Standard Enthalpy of Formation).

            Hvib:  Zero-point energy is not included.
                   frequencies of less than zero cm-1 are not included.
            Hrot = (3/2)RT
            Htra = (3/2)RT + pV = (5/2)RT

            Heat capacity is Cp, not Cv

          For more information, see: HTTP://OpenMOPAC.net/Manual/thermochemistry.html


           FORCE CONSTANT IN CARTESIAN COORDINATES (Millidynes/A)

    ATOM   CHEMICAL       X               Y               Z
   NUMBER   SYMBOL  FORCE CONSTANT  FORCE CONSTANT  FORCE CONSTANT

      1       C        7.750973        8.361976        8.346216
      2       C        7.836311        9.330408        8.085576
      3       C        9.577546        7.591961        8.085986
      4       C       13.699110       11.893048        2.665191
      5       C       11.457332       14.253485        2.659213
      6       C       12.459366       12.072307        2.329041
      7       C       12.091202       12.517786        2.329331
      8       C       12.120704       12.078300        2.345340
      9       C       12.088886       12.049178        2.342764
     10       H        1.234897        1.675939        3.580513
     11       H        1.234817        1.675836        3.580724
     12       H        1.276105        1.553707        3.553367
     13       H        1.276167        1.555063        3.552044
     14       H        1.943411        0.886448        3.553016
     15       H        1.943603        0.886349        3.552477
     16       H        3.623751        2.295817        0.355462
     17       H        4.432257        1.487046        0.352682
     18       H        0.817491        5.101676        0.353579
     19       H        3.629940        2.289493        0.355596

 **********************
 *                    *
 * JOB ENDED NORMALLY *
 *                    *
 **********************



 TOTAL JOB TIME:             4.59 SECONDS

 == MOPAC DONE ==
