 *******************************************************************************
 ** Site#: 14399        For non-commercial use only    Version 18.184L 64BITS **
 *******************************************************************************
 ** Cite this program as: MOPAC2016, Version: 18.184L, James J. P. Stewart,   **
 ** Stewart Computational Chemistry, web: HTTP://OpenMOPAC.net. Days left:  20**
 *******************************************************************************
 **                                                                           **
 **                                MOPAC2016                                  **
 **                                                                           **
 *******************************************************************************

                              PM3 CALCULATION RESULTS

 *******************************************************************************
 *  CALCULATION DONE:                                Thu Jun 13 15:49:34 2019  *
 *  PM3        - The PM3 Hamiltonian to be used
 *  PRECISE    - CRITERIA TO BE INCREASED BY 100 TIMES
 *  NOSYM      - POINT-GROUP SYMMETRY SET TO C1
 *  THREADS=1  - MULTI-THREADING NOT USED
 *  T=         - A TIME OF 172800.0 SECONDS REQUESTED
 *  DUMP=N     - RESTART FILE WRITTEN EVERY  7200.000 SECONDS
 *******************************************************************************
pm3  precise nosym THREADS=1
 InChI=1S/C10H10/c1-2-3-7-10-8-5-4-6-9-10/h3,5-9H,1,4H2

   ATOM   CHEMICAL          X               Y               Z
  NUMBER   SYMBOL      (ANGSTROMS)     (ANGSTROMS)     (ANGSTROMS)
 
     1       C         -3.16320000  *   0.02210000  *   0.17430000  *
     2       C         -0.26330000  *  -0.23910000  *  -0.02700000  *
     3       C         -2.24000000  *   1.20970000  *   0.07290000  *
     4       C         -2.46040000  *  -1.31100000  *   0.16290000  *
     5       C         -0.91250000  *   1.09430000  *  -0.01940000  *
     6       C         -1.13420000  *  -1.42940000  *   0.07080000  *
     7       C          1.06940000  *  -0.41760000  *  -0.11780000  *
     8       C          2.06630000  *   0.66670000  *  -0.22160000  *
     9       C          4.60270000  *   0.08640000  *  -0.38730000  *
    10       C          3.33560000  *   0.37660000  *  -0.30450000  *
    11       H         -3.87450000  *   0.05380000  *  -0.67730000  *
    12       H         -3.74520000  *   0.10650000  *   1.11580000  *
    13       H         -2.68050000  *   2.19910000  *   0.07550000  *
    14       H         -3.06300000  *  -2.20810000  *   0.23270000  *
    15       H          1.45390000  *  -1.43310000  *  -0.11570000  *
    16       H         -0.33770000  *   2.00510000  *  -0.08770000  *
    17       H         -0.70010000  *  -2.42280000  *   0.06870000  *
    18       H          1.78970000  *   1.70900000  *  -0.23230000  *
    19       H          5.33500000  *   0.87850000  *  -0.46340000  *
    20       H          4.92200000  *  -0.94670000  *  -0.38000000  *
 


          CARTESIAN COORDINATES 

    NO.       ATOM           X           Y           Z

     1         C         -3.1632      0.0221      0.1743
     2         C         -0.2633     -0.2391     -0.0270
     3         C         -2.2400      1.2097      0.0729
     4         C         -2.4604     -1.3110      0.1629
     5         C         -0.9125      1.0943     -0.0194
     6         C         -1.1342     -1.4294      0.0708
     7         C          1.0694     -0.4176     -0.1178
     8         C          2.0663      0.6667     -0.2216
     9         C          4.6027      0.0864     -0.3873
    10         C          3.3356      0.3766     -0.3045
    11         H         -3.8745      0.0538     -0.6773
    12         H         -3.7452      0.1065      1.1158
    13         H         -2.6805      2.1991      0.0755
    14         H         -3.0630     -2.2081      0.2327
    15         H          1.4539     -1.4331     -0.1157
    16         H         -0.3377      2.0051     -0.0877
    17         H         -0.7001     -2.4228      0.0687
    18         H          1.7897      1.7090     -0.2323
    19         H          5.3350      0.8785     -0.4634
    20         H          4.9220     -0.9467     -0.3800

  H: (PM3): J. J. P. STEWART, J. COMP. CHEM. 10, 209 (1989).
  C: (PM3): J. J. P. STEWART, J. COMP. CHEM. 10, 209 (1989).

           Empirical Formula: C10 H10  =    20 atoms



      MOLECULAR POINT GROUP   :   C1  


      RHF CALCULATION, NO. OF DOUBLY OCCUPIED LEVELS = 25


          Geometry optimization using EF

          DIAGONAL MATRIX USED AS START HESSIAN

 CYCLE:     1 TIME:   0.023 TIME LEFT:  2.00D  GRAD.:   104.717 HEAT:  142.2067
 CYCLE:     2 TIME:   0.043 TIME LEFT:  2.00D  GRAD.:   135.405 HEAT:  136.2863
 CYCLE:     3 TIME:   0.023 TIME LEFT:  2.00D  GRAD.:   113.761 HEAT:  129.8431
 CYCLE:     4 TIME:   0.023 TIME LEFT:  2.00D  GRAD.:   100.040 HEAT:  121.6825
 CYCLE:     5 TIME:   0.023 TIME LEFT:  2.00D  GRAD.:    82.147 HEAT:  112.3662
 CYCLE:     6 TIME:   0.023 TIME LEFT:  2.00D  GRAD.:    96.826 HEAT:  103.9618
 CYCLE:     7 TIME:   0.023 TIME LEFT:  2.00D  GRAD.:   110.042 HEAT:  96.99525
 CYCLE:     8 TIME:   0.027 TIME LEFT:  2.00D  GRAD.:   132.822 HEAT:  95.84674
 CYCLE:     9 TIME:   0.027 TIME LEFT:  2.00D  GRAD.:    84.388 HEAT:  92.75211
 CYCLE:    10 TIME:   0.031 TIME LEFT:  2.00D  GRAD.:    91.633 HEAT:  91.88131
 CYCLE:    11 TIME:   0.027 TIME LEFT:  2.00D  GRAD.:    54.202 HEAT:  90.81532
 CYCLE:    12 TIME:   0.020 TIME LEFT:  2.00D  GRAD.:    75.650 HEAT:  90.70716
 CYCLE:    13 TIME:   0.023 TIME LEFT:  2.00D  GRAD.:    60.079 HEAT:  90.24906
 CYCLE:    14 TIME:   0.031 TIME LEFT:  2.00D  GRAD.:    27.965 HEAT:  89.33153
 CYCLE:    15 TIME:   0.027 TIME LEFT:  2.00D  GRAD.:    24.626 HEAT:  89.12908
 CYCLE:    16 TIME:   0.023 TIME LEFT:  2.00D  GRAD.:    18.745 HEAT:  88.90367
 CYCLE:    17 TIME:   0.023 TIME LEFT:  2.00D  GRAD.:    27.616 HEAT:  88.70247
 CYCLE:    18 TIME:   0.023 TIME LEFT:  2.00D  GRAD.:    21.453 HEAT:  88.31692
 CYCLE:    19 TIME:   0.020 TIME LEFT:  2.00D  GRAD.:    32.289 HEAT:  87.99623
 CYCLE:    20 TIME:   0.023 TIME LEFT:  2.00D  GRAD.:    24.490 HEAT:  87.52505
 CYCLE:    21 TIME:   0.023 TIME LEFT:  2.00D  GRAD.:    25.729 HEAT:  87.20855
 CYCLE:    22 TIME:   0.031 TIME LEFT:  2.00D  GRAD.:    25.202 HEAT:  87.01115
 CYCLE:    23 TIME:   0.020 TIME LEFT:  2.00D  GRAD.:    37.943 HEAT:  87.00974
 CYCLE:    24 TIME:   0.023 TIME LEFT:  2.00D  GRAD.:    27.390 HEAT:  86.62070
 CYCLE:    25 TIME:   0.023 TIME LEFT:  2.00D  GRAD.:    32.625 HEAT:  86.49074
 CYCLE:    26 TIME:   0.023 TIME LEFT:  2.00D  GRAD.:    14.925 HEAT:  86.14110
 CYCLE:    27 TIME:   0.023 TIME LEFT:  2.00D  GRAD.:    20.930 HEAT:  86.01240
 CYCLE:    28 TIME:   0.020 TIME LEFT:  2.00D  GRAD.:    20.025 HEAT:  85.87117
 CYCLE:    29 TIME:   0.023 TIME LEFT:  2.00D  GRAD.:    12.963 HEAT:  85.71877
 CYCLE:    30 TIME:   0.023 TIME LEFT:  2.00D  GRAD.:    14.410 HEAT:  85.65127
 CYCLE:    31 TIME:   0.023 TIME LEFT:  2.00D  GRAD.:    13.541 HEAT:  85.59367
 CYCLE:    32 TIME:   0.023 TIME LEFT:  2.00D  GRAD.:    11.747 HEAT:  85.53615
 CYCLE:    33 TIME:   0.023 TIME LEFT:  2.00D  GRAD.:     8.531 HEAT:  85.47759
 CYCLE:    34 TIME:   0.023 TIME LEFT:  2.00D  GRAD.:     6.277 HEAT:  85.41631
 CYCLE:    35 TIME:   0.020 TIME LEFT:  2.00D  GRAD.:     8.046 HEAT:  85.37058
 CYCLE:    36 TIME:   0.023 TIME LEFT:  2.00D  GRAD.:     8.167 HEAT:  85.32777
 CYCLE:    37 TIME:   0.023 TIME LEFT:  2.00D  GRAD.:     4.902 HEAT:  85.29119
 CYCLE:    38 TIME:   0.023 TIME LEFT:  2.00D  GRAD.:     3.241 HEAT:  85.26396
 CYCLE:    39 TIME:   0.023 TIME LEFT:  2.00D  GRAD.:     2.951 HEAT:  85.23826
 CYCLE:    40 TIME:   0.023 TIME LEFT:  2.00D  GRAD.:     2.530 HEAT:  85.22495
 CYCLE:    41 TIME:   0.023 TIME LEFT:  2.00D  GRAD.:     2.621 HEAT:  85.21492
 CYCLE:    42 TIME:   0.020 TIME LEFT:  2.00D  GRAD.:     2.528 HEAT:  85.20218
 CYCLE:    43 TIME:   0.023 TIME LEFT:  2.00D  GRAD.:     2.316 HEAT:  85.18836
 CYCLE:    44 TIME:   0.023 TIME LEFT:  2.00D  GRAD.:     2.346 HEAT:  85.17447
 CYCLE:    45 TIME:   0.023 TIME LEFT:  2.00D  GRAD.:     2.430 HEAT:  85.16439
 CYCLE:    46 TIME:   0.023 TIME LEFT:  2.00D  GRAD.:     2.633 HEAT:  85.15207
 CYCLE:    47 TIME:   0.023 TIME LEFT:  2.00D  GRAD.:     2.075 HEAT:  85.13987
 CYCLE:    48 TIME:   0.020 TIME LEFT:  2.00D  GRAD.:     1.871 HEAT:  85.12949
 CYCLE:    49 TIME:   0.023 TIME LEFT:  2.00D  GRAD.:     1.880 HEAT:  85.12147
 CYCLE:    50 TIME:   0.023 TIME LEFT:  2.00D  GRAD.:     1.816 HEAT:  85.11502
 CYCLE:    51 TIME:   0.023 TIME LEFT:  2.00D  GRAD.:     1.571 HEAT:  85.10969
 CYCLE:    52 TIME:   0.023 TIME LEFT:  2.00D  GRAD.:     1.388 HEAT:  85.10512
 CYCLE:    53 TIME:   0.023 TIME LEFT:  2.00D  GRAD.:     1.326 HEAT:  85.10147
 CYCLE:    54 TIME:   0.023 TIME LEFT:  2.00D  GRAD.:     1.208 HEAT:  85.09841
 CYCLE:    55 TIME:   0.020 TIME LEFT:  2.00D  GRAD.:     1.129 HEAT:  85.09582
 CYCLE:    56 TIME:   0.023 TIME LEFT:  2.00D  GRAD.:     1.011 HEAT:  85.09309
 CYCLE:    57 TIME:   0.023 TIME LEFT:  2.00D  GRAD.:     0.829 HEAT:  85.09079
 CYCLE:    58 TIME:   0.023 TIME LEFT:  2.00D  GRAD.:     0.494 HEAT:  85.08957
 CYCLE:    59 TIME:   0.023 TIME LEFT:  2.00D  GRAD.:     0.292 HEAT:  85.08922
 CYCLE:    60 TIME:   0.023 TIME LEFT:  2.00D  GRAD.:     0.235 HEAT:  85.08909
 CYCLE:    61 TIME:   0.023 TIME LEFT:  2.00D  GRAD.:     0.226 HEAT:  85.08898
 CYCLE:    62 TIME:   0.020 TIME LEFT:  2.00D  GRAD.:     0.165 HEAT:  85.08890
 CYCLE:    63 TIME:   0.023 TIME LEFT:  2.00D  GRAD.:     0.109 HEAT:  85.08885
 CYCLE:    64 TIME:   0.023 TIME LEFT:  2.00D  GRAD.:     0.093 HEAT:  85.08883
 CYCLE:    65 TIME:   0.023 TIME LEFT:  2.00D  GRAD.:     0.148 HEAT:  85.08880
 CYCLE:    66 TIME:   0.023 TIME LEFT:  2.00D  GRAD.:     0.113 HEAT:  85.08877
 CYCLE:    67 TIME:   0.023 TIME LEFT:  2.00D  GRAD.:     0.138 HEAT:  85.08872
 CYCLE:    68 TIME:   0.020 TIME LEFT:  2.00D  GRAD.:     0.113 HEAT:  85.08869
 CYCLE:    69 TIME:   0.023 TIME LEFT:  2.00D  GRAD.:     0.096 HEAT:  85.08865
 CYCLE:    70 TIME:   0.023 TIME LEFT:  2.00D  GRAD.:     0.141 HEAT:  85.08855
 CYCLE:    71 TIME:   0.023 TIME LEFT:  2.00D  GRAD.:     0.229 HEAT:  85.08843
 CYCLE:    72 TIME:   0.023 TIME LEFT:  2.00D  GRAD.:     0.203 HEAT:  85.08834
 CYCLE:    73 TIME:   0.023 TIME LEFT:  2.00D  GRAD.:     0.174 HEAT:  85.08822
 CYCLE:    74 TIME:   0.023 TIME LEFT:  2.00D  GRAD.:     0.130 HEAT:  85.08815
 CYCLE:    75 TIME:   0.020 TIME LEFT:  2.00D  GRAD.:     0.120 HEAT:  85.08809
 CYCLE:    76 TIME:   0.023 TIME LEFT:  2.00D  GRAD.:     0.101 HEAT:  85.08805
 CYCLE:    77 TIME:   0.023 TIME LEFT:  2.00D  GRAD.:     0.067 HEAT:  85.08798
 CYCLE:    78 TIME:   0.023 TIME LEFT:  2.00D  GRAD.:     0.055 HEAT:  85.08797
 CYCLE:    79 TIME:   0.023 TIME LEFT:  2.00D  GRAD.:     0.048 HEAT:  85.08797

     GRADIENT =  0.04833  IS LESS THAN CUTOFF =  0.05000



 -------------------------------------------------------------------------------
 pm3  precise nosym THREADS=1
 InChI=1S/C10H10/c1-2-3-7-10-8-5-4-6-9-10/h3,5-9H,1,4H2



     GEOMETRY OPTIMISED USING EIGENVECTOR FOLLOWING (EF).     
     SCF FIELD WAS ACHIEVED                                   


                              PM3 CALCULATION
                                                       MOPAC2016 (Version: 18.184L)
                                                       Thu Jun 13 15:49:36 2019
                                                       No. of days remaining =  20




          FINAL HEAT OF FORMATION =         85.08797 KCAL/MOL =     356.00806 KJ/MOL


          TOTAL ENERGY            =      -1336.04118 EV
          ELECTRONIC ENERGY       =      -6645.16539 EV  POINT GROUP:     C1  
          CORE-CORE REPULSION     =       5309.12422 EV
          COSMO AREA              =        185.77 SQUARE ANGSTROMS
          COSMO VOLUME            =        179.32 CUBIC ANGSTROMS

          GRADIENT NORM           =          0.04833 = 0.01081 PER ATOM
          IONIZATION POTENTIAL    =          8.191324 EV
          HOMO LUMO ENERGIES (EV) =         -8.191 -0.507
          NO. OF FILLED LEVELS    =         25
          MOLECULAR WEIGHT        =        130.1890

          MOLECULAR DIMENSIONS (Angstroms)

            Atom       Atom       Distance
            H    19    H    12     9.17891
            H    17    H    13     4.65750
            H    20    H    11     3.52289


          SCF CALCULATIONS        =         86
 
          WALL-CLOCK TIME         =          1.922 SECONDS
          COMPUTATION TIME        =          0.749 SECONDS




   ATOM   CHEMICAL          X               Y               Z
  NUMBER   SYMBOL      (ANGSTROMS)     (ANGSTROMS)     (ANGSTROMS)
 
     1       C         -3.14262228  *   0.07240867  *   0.16513318  *
     2       C         -0.26058716  *  -0.30180752  *  -0.03373660  *
     3       C         -2.18076999  *   1.20298169  *   0.12963057  *
     4       C         -2.50247284  *  -1.26573009  *   0.09996923  *
     5       C         -0.85813882  *   1.02593229  *   0.03807312  *
     6       C         -1.17815246  *  -1.43520295  *   0.00858575  *
     7       C          1.07328696  *  -0.49838805  *  -0.13544737  *
     8       C          2.02827414  *   0.59195445  *  -0.18254051  *
     9       C          4.59339914  *   0.20511507  *  -0.39141399  *
    10       C          3.31672824  *   0.39290119  *  -0.28750820  *
    11       H         -3.85705744  *   0.17563789  *  -0.67793900  *
    12       H         -3.75186843  *   0.14069703  *   1.09028318  *
    13       H         -2.61151993  *   2.20893638  *   0.18251763  *
    14       H         -3.17863658  *  -2.12735236  *   0.13044828  *
    15       H          1.47547507  *  -1.51814072  *  -0.18661991  *
    16       H         -0.15981090  *   1.87723001  *   0.01243703  *
    17       H         -0.73987804  *  -2.43926614  *  -0.03780020  *
    18       H          1.62839713  *   1.61853989  *  -0.12652838  *
    19       H          5.09583816  *   0.14321728  *  -1.35318076  *
    20       H          5.23820477  *   0.09838995  *   0.47698082  *

                             CARTESIAN COORDINATES

   1    C       -3.142622279     0.072408666     0.165133177
   2    C       -0.260587159    -0.301807516    -0.033736602
   3    C       -2.180769992     1.202981695     0.129630567
   4    C       -2.502472836    -1.265730091     0.099969226
   5    C       -0.858138816     1.025932288     0.038073119
   6    C       -1.178152463    -1.435202955     0.008585750
   7    C        1.073286959    -0.498388052    -0.135447372
   8    C        2.028274139     0.591954447    -0.182540508
   9    C        4.593399140     0.205115068    -0.391413986
  10    C        3.316728244     0.392901188    -0.287508201
  11    H       -3.857057436     0.175637885    -0.677939001
  12    H       -3.751868430     0.140697032     1.090283178
  13    H       -2.611519934     2.208936383     0.182517630
  14    H       -3.178636585    -2.127352357     0.130448276
  15    H        1.475475069    -1.518140716    -0.186619912
  16    H       -0.159810903     1.877230006     0.012437031
  17    H       -0.739878040    -2.439266139    -0.037800205
  18    H        1.628397129     1.618539890    -0.126528382
  19    H        5.095838155     0.143217284    -1.353180759
  20    H        5.238204770     0.098389950     0.476980817


           Empirical Formula: C10 H10  =    20 atoms



      MOLECULAR POINT GROUP   :   C1  


                  EIGENVALUES  
 -39.92506 -35.25116 -31.48017 -30.07799 -27.37697 -24.12594 -21.32456 -20.12630
 -17.98535 -17.68703 -16.60917 -15.83073 -15.41582 -15.19103 -14.96232 -14.71032
 -14.30060 -13.35097 -13.01149 -12.40733 -11.71762 -10.46058 -10.40491 -10.30704
  -8.19132  -0.50709   1.02562   1.09460   1.36356   2.69200   2.93075   3.21353
   3.34570   3.42100   3.56826   3.73444   3.80724   4.12310   4.23487   4.35938
   4.42171   4.67968   4.91556   5.05502   5.20950   5.40547   5.55442   6.20249
   6.29749   6.55587


              NET ATOMIC CHARGES AND DIPOLE CONTRIBUTIONS

  ATOM NO.   TYPE          CHARGE      No. of ELECS.   s-Pop       p-Pop       
    1          C          -0.027760        4.0278     1.13219     2.89557
    2          C          -0.041429        4.0414     1.16648     2.87495
    3          C          -0.128095        4.1281     1.19434     2.93376
    4          C          -0.133477        4.1335     1.19513     2.93835
    5          C          -0.109423        4.1094     1.17870     2.93072
    6          C          -0.102112        4.1021     1.17922     2.92289
    7          C          -0.091193        4.0912     1.17721     2.91398
    8          C          -0.055730        4.0557     1.14576     2.90997
    9          C          -0.095484        4.0955     1.14687     2.94862
   10          C          -0.167003        4.1670     1.21527     2.95173
   11          H           0.065459        0.9345     0.93454
   12          H           0.065285        0.9347     0.93471
   13          H           0.098483        0.9015     0.90152
   14          H           0.098625        0.9014     0.90137
   15          H           0.104717        0.8953     0.89528
   16          H           0.107643        0.8924     0.89236
   17          H           0.102527        0.8975     0.89747
   18          H           0.116994        0.8830     0.88301
   19          H           0.095990        0.9040     0.90401
   20          H           0.095982        0.9040     0.90402
 DIPOLE           X         Y         Z       TOTAL
 POINT-CHG.    -0.490     0.100     0.031     0.501
 HYBRID         0.020     0.000    -0.003     0.020
 SUM           -0.470     0.101     0.028     0.482


          ATOMIC ORBITAL ELECTRON POPULATIONS

     Atom    s        px        py        pz   
    1  C   1.13219   0.96556   0.92318   1.00684
    2  C   1.16648   0.93821   0.93385   1.00289
    3  C   1.19434   0.95513   0.98055   0.99807
    4  C   1.19513   0.96346   0.97377   1.00111
    5  C   1.17870   0.95594   0.95950   1.01528
    6  C   1.17922   0.94361   0.96651   1.01278
    7  C   1.17721   0.92777   0.97319   1.01303
    8  C   1.14576   0.89724   0.97948   1.03325
    9  C   1.14687   0.91685   1.02591   1.00586
   10  C   1.21527   0.96627   0.99096   0.99449
   11  H   0.93454
   12  H   0.93471
   13  H   0.90152
   14  H   0.90137
   15  H   0.89528
   16  H   0.89236
   17  H   0.89747
   18  H   0.88301
   19  H   0.90401
   20  H   0.90402
 *******************************************************************************
 ** Site#: 14399        For non-commercial use only    Version 18.184L 64BITS **
 *******************************************************************************
 ** Cite this program as: MOPAC2016, Version: 18.184L, James J. P. Stewart,   **
 ** Stewart Computational Chemistry, web: HTTP://OpenMOPAC.net. Days left:  20**
 *******************************************************************************
 **                                                                           **
 **                                MOPAC2016                                  **
 **                                                                           **
 *******************************************************************************

                              PM3 CALCULATION RESULTS

 *******************************************************************************
 *  CALCULATION DONE:                                Thu Jun 13 15:49:36 2019  *
 *  PM3        - The PM3 Hamiltonian to be used
 *  OLDGEO     - PREVIOUS GEOMETRY TO BE USED
 *  PRECISE    - CRITERIA TO BE INCREASED BY 100 TIMES
 *  NOSYM      - POINT-GROUP SYMMETRY SET TO C1
 *  THREADS=1  - MULTI-THREADING NOT USED
 *  T=         - A TIME OF 172800.0 SECONDS REQUESTED
 *  DUMP=N     - RESTART FILE WRITTEN EVERY  7200.000 SECONDS
 *  THERMO     - THERMODYNAMIC QUANTITIES TO BE CALCULATED
 *******************************************************************************
oldgeo thermo nosym precise THREADS=1  pm3
 InChI=1S/C10H10/c1-2-3-7-10-8-5-4-6-9-10/h3,5-9H,1,4H2

   ATOM   CHEMICAL          X               Y               Z
  NUMBER   SYMBOL      (ANGSTROMS)     (ANGSTROMS)     (ANGSTROMS)
 
     1       C         -3.14262228  *   0.07240867  *   0.16513318  *
     2       C         -0.26058716  *  -0.30180752  *  -0.03373660  *
     3       C         -2.18076999  *   1.20298169  *   0.12963057  *
     4       C         -2.50247284  *  -1.26573009  *   0.09996923  *
     5       C         -0.85813882  *   1.02593229  *   0.03807312  *
     6       C         -1.17815246  *  -1.43520295  *   0.00858575  *
     7       C          1.07328696  *  -0.49838805  *  -0.13544737  *
     8       C          2.02827414  *   0.59195445  *  -0.18254051  *
     9       C          4.59339914  *   0.20511507  *  -0.39141399  *
    10       C          3.31672824  *   0.39290119  *  -0.28750820  *
    11       H         -3.85705744  *   0.17563789  *  -0.67793900  *
    12       H         -3.75186843  *   0.14069703  *   1.09028318  *
    13       H         -2.61151993  *   2.20893638  *   0.18251763  *
    14       H         -3.17863658  *  -2.12735236  *   0.13044828  *
    15       H          1.47547507  *  -1.51814072  *  -0.18661991  *
    16       H         -0.15981090  *   1.87723001  *   0.01243703  *
    17       H         -0.73987804  *  -2.43926614  *  -0.03780020  *
    18       H          1.62839713  *   1.61853989  *  -0.12652838  *
    19       H          5.09583816  *   0.14321728  *  -1.35318076  *
    20       H          5.23820477  *   0.09838995  *   0.47698082  *
 


          CARTESIAN COORDINATES 

    NO.       ATOM           X           Y           Z

     1         C         -3.1426      0.0724      0.1651
     2         C         -0.2606     -0.3018     -0.0337
     3         C         -2.1808      1.2030      0.1296
     4         C         -2.5025     -1.2657      0.1000
     5         C         -0.8581      1.0259      0.0381
     6         C         -1.1782     -1.4352      0.0086
     7         C          1.0733     -0.4984     -0.1354
     8         C          2.0283      0.5920     -0.1825
     9         C          4.5934      0.2051     -0.3914
    10         C          3.3167      0.3929     -0.2875
    11         H         -3.8571      0.1756     -0.6779
    12         H         -3.7519      0.1407      1.0903
    13         H         -2.6115      2.2089      0.1825
    14         H         -3.1786     -2.1274      0.1304
    15         H          1.4755     -1.5181     -0.1866
    16         H         -0.1598      1.8772      0.0124
    17         H         -0.7399     -2.4393     -0.0378
    18         H          1.6284      1.6185     -0.1265
    19         H          5.0958      0.1432     -1.3532
    20         H          5.2382      0.0984      0.4770

  H: (PM3): J. J. P. STEWART, J. COMP. CHEM. 10, 209 (1989).
  C: (PM3): J. J. P. STEWART, J. COMP. CHEM. 10, 209 (1989).

           Empirical Formula: C10 H10  =    20 atoms



      MOLECULAR POINT GROUP   :   C1  


      RHF CALCULATION, NO. OF DOUBLY OCCUPIED LEVELS = 25



          HEAT OF FORMATION =      85.087969 KCALS/MOLE


          CARTESIAN COORDINATE DERIVATIVES

   NUMBER  ATOM         X            Y            Z

     1       C      0.003736    -0.004215     0.006645
     2       C     -0.009297    -0.000061    -0.006046
     3       C     -0.003653    -0.005515    -0.001518
     4       C     -0.003056    -0.000726    -0.005004
     5       C      0.005139    -0.001302     0.008083
     6       C      0.008206     0.003984     0.010014
     7       C      0.014836     0.008239    -0.001061
     8       C     -0.006569     0.002239    -0.002606
     9       C      0.008765     0.002175    -0.007478
    10       C     -0.000380     0.003930    -0.007497
    11       H      0.018159    -0.005916    -0.005986
    12       H     -0.028597    -0.003171    -0.008110
    13       H      0.004105    -0.000469     0.005059
    14       H     -0.011223    -0.000559     0.002824
    15       H     -0.000144     0.005689     0.000552
    16       H     -0.003157     0.003948     0.007448
    17       H     -0.001187     0.001789     0.000491
    18       H      0.006229     0.005505     0.002976
    19       H     -0.000667    -0.008454    -0.000822
    20       H     -0.001245    -0.007108     0.002036
 


          GRADIENT NORM =   0.05391


          TIME FOR SCF CALCULATION =    0.03

          TIME FOR DERIVATIVES     =    0.01

          MOLECULAR WEIGHT =  130.19



          ROTATIONAL CONSTANTS IN CM(-1)

          A =    0.15557162   B =    0.02001814   C =    0.01785951



           PRINCIPAL MOMENTS OF INERTIA IN UNITS OF 10**(-40)*GRAM-CM**2

          A =      179.9350   B =     1398.3705   C =     1567.3877


          ORIENTATION OF MOLECULE IN FORCE CALCULATION

    NO.       ATOM         X         Y         Z

     1          C      -3.2082   -0.3429    0.0097
     2          C      -0.2952   -0.3429    0.0097
     3          C      -2.3994    0.9023    0.0097
     4          C      -2.3985   -1.5875    0.0196
     5          C      -1.0619    0.8970    0.0096
     6          C      -1.0603   -1.5850    0.0195
     7          C       1.0567   -0.3662    0.0006
     8          C       1.8647    0.8380   -0.0104
     9          C       4.4664    0.7842   -0.0409
    10          C       3.1721    0.8062   -0.0256
    11          H      -3.8708   -0.3467   -0.8807
    12          H      -3.8829   -0.3397    0.8909
    13          H      -2.9584    1.8445    0.0095
    14          H      -2.9589   -2.5290    0.0267
    15          H       1.5891   -1.3258    0.0010
    16          H      -0.4786    1.8312    0.0089
    17          H      -0.4945   -2.5243    0.0267
    18          H       1.3333    1.8047   -0.0059
    19          H       5.0372    0.7728   -0.9658
    20          H       5.0588    0.7758    0.8703


    FIRST DERIVATIVES WILL BE USED IN THE CALCULATION OF SECOND DERIVATIVES

          ESTIMATED TIME TO COMPLETE CALCULATION =        9.38 SECONDS

    FOR POINT-GROUP C1   THERE ARE   1 UNIQUE SYMMETRY FUNCTIONS.

 STEP:   1 TIME =     0.05 SECS, INTEGRAL =      0.05 TIME LEFT: 172799.91
 STEP:   2 TIME =     0.05 SECS, INTEGRAL =      0.10 TIME LEFT: 172799.86
 STEP:   3 TIME =     0.05 SECS, INTEGRAL =      0.14 TIME LEFT: 172799.82
 STEP:   4 TIME =     0.05 SECS, INTEGRAL =      0.19 TIME LEFT: 172799.77
 STEP:   5 TIME =     0.05 SECS, INTEGRAL =      0.24 TIME LEFT: 172799.72
 STEP:   6 TIME =     0.05 SECS, INTEGRAL =      0.29 TIME LEFT: 172799.68
 STEP:   7 TIME =     0.05 SECS, INTEGRAL =      0.33 TIME LEFT: 172799.63
 STEP:   8 TIME =     0.04 SECS, INTEGRAL =      0.38 TIME LEFT: 172799.59
 STEP:   9 TIME =     0.05 SECS, INTEGRAL =      0.42 TIME LEFT: 172799.54
 STEP:  10 TIME =     0.04 SECS, INTEGRAL =      0.46 TIME LEFT: 172799.50
 STEP:  11 TIME =     0.05 SECS, INTEGRAL =      0.51 TIME LEFT: 172799.45
 STEP:  12 TIME =     0.05 SECS, INTEGRAL =      0.56 TIME LEFT: 172799.40
 STEP:  13 TIME =     0.05 SECS, INTEGRAL =      0.61 TIME LEFT: 172799.35
 STEP:  14 TIME =     0.05 SECS, INTEGRAL =      0.66 TIME LEFT: 172799.30
 STEP:  15 TIME =     0.05 SECS, INTEGRAL =      0.71 TIME LEFT: 172799.25
 STEP:  16 TIME =     0.05 SECS, INTEGRAL =      0.75 TIME LEFT: 172799.21
 STEP:  17 TIME =     0.05 SECS, INTEGRAL =      0.80 TIME LEFT: 172799.16
 STEP:  18 TIME =     0.05 SECS, INTEGRAL =      0.85 TIME LEFT: 172799.11
 STEP:  19 TIME =     0.05 SECS, INTEGRAL =      0.89 TIME LEFT: 172799.07
 STEP:  20 TIME =     0.04 SECS, INTEGRAL =      0.94 TIME LEFT: 172799.02
 STEP:  21 TIME =     0.05 SECS, INTEGRAL =      0.98 TIME LEFT: 172798.98
 STEP:  22 TIME =     0.05 SECS, INTEGRAL =      1.03 TIME LEFT: 172798.93
 STEP:  23 TIME =     0.04 SECS, INTEGRAL =      1.07 TIME LEFT: 172798.89
 STEP:  24 TIME =     0.05 SECS, INTEGRAL =      1.12 TIME LEFT: 172798.84
 STEP:  25 TIME =     0.05 SECS, INTEGRAL =      1.17 TIME LEFT: 172798.79
 STEP:  26 TIME =     0.05 SECS, INTEGRAL =      1.21 TIME LEFT: 172798.75
 STEP:  27 TIME =     0.05 SECS, INTEGRAL =      1.26 TIME LEFT: 172798.70
 STEP:  28 TIME =     0.05 SECS, INTEGRAL =      1.31 TIME LEFT: 172798.65
 STEP:  29 TIME =     0.05 SECS, INTEGRAL =      1.36 TIME LEFT: 172798.60
 STEP:  30 TIME =     0.05 SECS, INTEGRAL =      1.41 TIME LEFT: 172798.55
 STEP:  31 TIME =     0.05 SECS, INTEGRAL =      1.46 TIME LEFT: 172798.50
 STEP:  32 TIME =     0.05 SECS, INTEGRAL =      1.50 TIME LEFT: 172798.46
 STEP:  33 TIME =     0.04 SECS, INTEGRAL =      1.55 TIME LEFT: 172798.41
 STEP:  34 TIME =     0.05 SECS, INTEGRAL =      1.59 TIME LEFT: 172798.37
 STEP:  35 TIME =     0.05 SECS, INTEGRAL =      1.64 TIME LEFT: 172798.32
 STEP:  36 TIME =     0.04 SECS, INTEGRAL =      1.68 TIME LEFT: 172798.28
 STEP:  37 TIME =     0.05 SECS, INTEGRAL =      1.73 TIME LEFT: 172798.23
 STEP:  38 TIME =     0.04 SECS, INTEGRAL =      1.77 TIME LEFT: 172798.19
 STEP:  39 TIME =     0.05 SECS, INTEGRAL =      1.82 TIME LEFT: 172798.14
 STEP:  40 TIME =     0.04 SECS, INTEGRAL =      1.86 TIME LEFT: 172798.10
 STEP:  41 TIME =     0.05 SECS, INTEGRAL =      1.91 TIME LEFT: 172798.05
 STEP:  42 TIME =     0.05 SECS, INTEGRAL =      1.96 TIME LEFT: 172798.00
 STEP:  43 TIME =     0.05 SECS, INTEGRAL =      2.01 TIME LEFT: 172797.95
 STEP:  44 TIME =     0.04 SECS, INTEGRAL =      2.05 TIME LEFT: 172797.91
 STEP:  45 TIME =     0.05 SECS, INTEGRAL =      2.10 TIME LEFT: 172797.86
 STEP:  46 TIME =     0.05 SECS, INTEGRAL =      2.14 TIME LEFT: 172797.82
 STEP:  47 TIME =     0.05 SECS, INTEGRAL =      2.19 TIME LEFT: 172797.77
 STEP:  48 TIME =     0.05 SECS, INTEGRAL =      2.24 TIME LEFT: 172797.72
 STEP:  49 TIME =     0.04 SECS, INTEGRAL =      2.29 TIME LEFT: 172797.68
 STEP:  50 TIME =     0.04 SECS, INTEGRAL =      2.33 TIME LEFT: 172797.63
 STEP:  51 TIME =     0.05 SECS, INTEGRAL =      2.38 TIME LEFT: 172797.59
 STEP:  52 TIME =     0.05 SECS, INTEGRAL =      2.42 TIME LEFT: 172797.54
 STEP:  53 TIME =     0.04 SECS, INTEGRAL =      2.46 TIME LEFT: 172797.50
 STEP:  54 TIME =     0.05 SECS, INTEGRAL =      2.51 TIME LEFT: 172797.45
 STEP:  55 TIME =     0.04 SECS, INTEGRAL =      2.55 TIME LEFT: 172797.41
 STEP:  56 TIME =     0.05 SECS, INTEGRAL =      2.61 TIME LEFT: 172797.36
 STEP:  57 TIME =     0.05 SECS, INTEGRAL =      2.65 TIME LEFT: 172797.31
 STEP:  58 TIME =     0.04 SECS, INTEGRAL =      2.70 TIME LEFT: 172797.27
 STEP:  59 TIME =     0.05 SECS, INTEGRAL =      2.75 TIME LEFT: 172797.21
 STEP:  60 TIME =     0.04 SECS, INTEGRAL =      2.79 TIME LEFT: 172797.17

(To convert to Hartree/Bohr^2, multiply by (10^(-21) x N x a0^2)/(4.184 x 627.51) =  0.0642)


           FORCE MATRIX IN MILLIDYNES/ANGSTROM


                  C  1       C  2       C  3       C  4       C  5       C  6
 ------------------------------------------------------------------------------
     C    1  15.109925
     C    2   0.202665  18.988127
     C    3   5.031361   1.092446  18.108557
     C    4   5.031892   1.087834   0.736109  18.089993
     C    5   0.855458   5.415422  10.377270   0.064159  18.533198
     C    6   0.847542   5.386432   0.063118  10.356136   0.736356  18.528475
     C    7   0.039254   9.344741   0.139824   0.132863   1.002523   1.095379
     C    8   0.012157   1.113060   0.042130   0.043967   0.111673   0.148701
     C    9   0.001568   0.034818   0.002184   0.002581   0.007465   0.009937
     C   10   0.002513   0.170177   0.014502   0.015501   0.040636   0.044432
     H   11   4.369489   0.016026   0.417690   0.417751   0.038406   0.038312
     H   12   4.371174   0.016052   0.418265   0.418275   0.038511   0.038393
     H   13   0.423329   0.125817   4.832243   0.046441   0.440953   0.006202
     H   14   0.423255   0.122826   0.046586   4.830092   0.006079   0.441176
     H   15   0.003444   0.447502   0.009009   0.006570   0.107277   0.082841
     H   16   0.122468   0.443829   0.440339   0.003599   4.632372   0.042600
     H   17   0.122745   0.442546   0.003550   0.441100   0.041845   4.800239
     H   18   0.001395   0.030530   0.005814   0.002149   0.101577   0.006584
     H   19   0.000817   0.004736   0.000554   0.000638   0.003194   0.006575
     H   20   0.000873   0.004719   0.000572   0.000585   0.003259   0.006480


                  C  7       C  8       C  9       C 10       H 11       H 12
 ------------------------------------------------------------------------------
     C    7  18.121336
     C    8   5.543256  18.520874
     C    9   0.115565   0.800285  18.115587
     C   10   1.279804  11.034026  11.868580  24.638125
     H   11   0.005326   0.001774   0.000311   0.000663   4.959454
     H   12   0.005321   0.001788   0.000364   0.000658   0.565635   4.961527
     H   13   0.009588   0.005446   0.000921   0.001149   0.027305   0.027804
     H   14   0.007556   0.010091   0.001015   0.001381   0.027450   0.028052
     H   15   4.778813   0.442695   0.004816   0.029190   0.001160   0.001133
     H   16   0.036977   0.107652   0.001422   0.007709   0.015370   0.015278
     H   17   0.046017   0.003449   0.000641   0.001280   0.015559   0.015456
     H   18   0.458329   4.538230   0.043290   0.443734   0.000562   0.000539
     H   19   0.080781   0.047354   5.012184   0.480352   0.000092   0.000133
     H   20   0.080770   0.047260   5.011957   0.480178   0.000139   0.000098


                  H 13       H 14       H 15       H 16       H 17       H 18
 ------------------------------------------------------------------------------
     H   13   5.207118
     H   14   0.006427   5.204927
     H   15   0.008878   0.004959   5.150121
     H   16   0.067353   0.001211   0.002835   5.065369
     H   17   0.001311   0.067675   0.029697   0.005939   5.174804
     H   18   0.000763   0.000656   0.036540   0.119616   0.000869   4.971497
     H   19   0.000501   0.000700   0.001665   0.000496   0.000286   0.067843
     H   20   0.000509   0.000685   0.001705   0.000478   0.000288   0.067731


                  H 19       H 20
 ------------------------------
     H   19   5.393202
     H   20   0.407574   5.393216


          HEAT OF FORMATION =      85.087969 KCALS/MOLE

          ZERO POINT ENERGY     103.087 KCAL/MOL


           NORMAL COORDINATE ANALYSIS (Total motion = 1 Angstrom)


   Root No.       1         2         3         4         5         6         7         8

                 1 A       2 A       3 A       4 A       5 A       6 A       7 A       8 A   

                  45.1      98.2     123.7     202.2     272.7     299.5     354.7     387.7
  
           1   -0.0004   -0.0003   -0.0023   -0.0001   -0.0274    0.0003   -0.0001    0.0010
           2   -0.0001    0.0000    0.0298    0.0004   -0.0262    0.0003    0.0000   -0.0000
           3    0.0541    0.0437    0.0003    0.0142   -0.0004   -0.0159    0.0021    0.0025
           4   -0.0002    0.0000    0.0008    0.0002   -0.0167    0.0000   -0.0000   -0.0002
           5    0.0001    0.0001   -0.0304   -0.0001    0.0379   -0.0005   -0.0001    0.0006
           6   -0.0347   -0.0147   -0.0002    0.0349   -0.0003   -0.0375    0.0047   -0.0022
           7   -0.0004   -0.0002    0.0230    0.0002   -0.0463    0.0004    0.0000    0.0003
           8   -0.0001   -0.0001    0.0126    0.0001   -0.0108    0.0002   -0.0000    0.0005
           9    0.0100   -0.0225   -0.0007    0.0038    0.0014    0.0486   -0.0074    0.0379
          10    0.0001    0.0000   -0.0261   -0.0001   -0.0009   -0.0001   -0.0001    0.0010
          11   -0.0001   -0.0001    0.0142   -0.0002   -0.0076    0.0002   -0.0000   -0.0004
          12    0.0219   -0.0042    0.0009   -0.0480   -0.0002    0.0203   -0.0069   -0.0497
          13   -0.0004   -0.0002    0.0225    0.0002   -0.0430    0.0004    0.0000    0.0002
          14    0.0000   -0.0000   -0.0162   -0.0001    0.0223   -0.0003   -0.0001    0.0009
          15   -0.0311   -0.0478   -0.0007    0.0089   -0.0000   -0.0318    0.0118   -0.0473
          16    0.0001    0.0000   -0.0256   -0.0001   -0.0016   -0.0001   -0.0001    0.0009
          17    0.0001   -0.0000   -0.0141   -0.0002    0.0268   -0.0003   -0.0000    0.0006
          18   -0.0207   -0.0320    0.0005   -0.0084   -0.0001   -0.0197    0.0060    0.0623
          19   -0.0003    0.0003    0.0016    0.0003   -0.0147    0.0005   -0.0002   -0.0005
          20    0.0002    0.0002   -0.0475    0.0000    0.0110   -0.0001    0.0000   -0.0008
          21   -0.0432    0.0347   -0.0004    0.0561    0.0009    0.0347   -0.0257   -0.0191
          22   -0.0001    0.0006    0.0018   -0.0004    0.0474   -0.0004   -0.0002   -0.0008
          23    0.0002    0.0002   -0.0478   -0.0003   -0.0333    0.0002    0.0000   -0.0007
          24   -0.0429    0.0517    0.0000   -0.0394   -0.0001   -0.0022   -0.0313    0.0024
          25    0.0011   -0.0004    0.0037    0.0001    0.0536   -0.0005   -0.0002   -0.0011
          26   -0.0002   -0.0002    0.0862    0.0004    0.0289   -0.0001   -0.0000    0.0001
          27    0.0640   -0.0275    0.0001    0.0063   -0.0009   -0.0044   -0.0263   -0.0002
          28    0.0004    0.0002    0.0020   -0.0003    0.0500   -0.0004    0.0014   -0.0009
          29    0.0000    0.0000   -0.0071   -0.0002   -0.0517    0.0004    0.0002   -0.0007
          30    0.0087    0.0173    0.0001   -0.0252   -0.0002    0.0074    0.1099    0.0075
          31   -0.0422   -0.0655   -0.0027   -0.0469   -0.0262    0.0817   -0.0178   -0.0180
          32   -0.0045   -0.0067    0.0427    0.0217   -0.0392    0.0137   -0.0003    0.0513
          33    0.0852    0.0924    0.0005    0.0494   -0.0013   -0.0779    0.0156    0.0169
          34    0.0411    0.0642   -0.0020    0.0463   -0.0293   -0.0802    0.0174    0.0200
          35    0.0041    0.0070    0.0440   -0.0203   -0.0407   -0.0133    0.0006   -0.0513
          36    0.0858    0.0933    0.0005    0.0502   -0.0018   -0.0789    0.0159    0.0176
          37   -0.0005   -0.0001    0.0434    0.0004   -0.0679    0.0007    0.0001   -0.0003
          38   -0.0002   -0.0001    0.0247    0.0002   -0.0234    0.0003    0.0000    0.0002
          39    0.0134   -0.0456   -0.0013   -0.0083    0.0033    0.1345   -0.0246    0.0990
          40    0.0004    0.0002   -0.0454   -0.0003    0.0236   -0.0004   -0.0001    0.0011
          41   -0.0002   -0.0003    0.0256   -0.0005   -0.0221    0.0007   -0.0001   -0.0010
          42    0.0350   -0.0139    0.0016   -0.1164   -0.0000    0.0653   -0.0182   -0.1259
          43   -0.0003    0.0004   -0.0051    0.0008   -0.0512    0.0013   -0.0003   -0.0008
          44    0.0002    0.0002   -0.0506    0.0003   -0.0103    0.0003   -0.0000   -0.0010
          45   -0.0449    0.0585   -0.0006    0.1145    0.0024    0.1094   -0.0449   -0.0090
          46   -0.0005   -0.0003    0.0346    0.0002   -0.0437    0.0004   -0.0000   -0.0000
          47    0.0001    0.0000   -0.0239   -0.0001    0.0233   -0.0003   -0.0001    0.0010
          48   -0.0624   -0.0875   -0.0011   -0.0058   -0.0004   -0.0454    0.0139   -0.1104
          49    0.0004    0.0001   -0.0455   -0.0004    0.0149   -0.0003   -0.0001    0.0015
          50    0.0000   -0.0003   -0.0259   -0.0006    0.0362   -0.0003   -0.0000    0.0017
          51   -0.0440   -0.0661    0.0009   -0.0324    0.0003   -0.0195    0.0115    0.1564
          52   -0.0005    0.0010   -0.0022   -0.0012    0.0638   -0.0011   -0.0016   -0.0003
          53    0.0001    0.0002   -0.0492   -0.0003   -0.0224    0.0000   -0.0001   -0.0006
          54   -0.0807    0.0815    0.0005   -0.1362   -0.0006   -0.0585   -0.1681    0.0383
          55    0.0404   -0.0333    0.0045    0.0244    0.0554   -0.0130   -0.1485   -0.0089
          56   -0.0190    0.0206    0.1277   -0.0928    0.0644   -0.0568   -0.1102    0.0563
          57    0.0885   -0.0481    0.0001    0.0226   -0.0005   -0.0115   -0.1186   -0.0058
          58   -0.0377    0.0321    0.0042   -0.0239    0.0562    0.0117    0.1457    0.0065
          59    0.0183   -0.0210    0.1265    0.0942    0.0650    0.0560    0.1098   -0.0553
          60    0.0894   -0.0488    0.0001    0.0229   -0.0020   -0.0120   -0.1224   -0.0058


   Root No.       9        10        11        12        13        14        15        16

                 9 A      10 A      11 A      12 A      13 A      14 A      15 A      16 A   

                 400.1     536.3     563.3     578.8     598.2     610.0     773.1     788.9
  
           1   -0.0523    0.0317    0.0003    0.0004   -0.0440    0.0316    0.0000   -0.0001
           2    0.0078    0.0085    0.0001   -0.0001    0.0201    0.0266   -0.0001   -0.0001
           3   -0.0001    0.0002   -0.0049    0.0055   -0.0001   -0.0000   -0.0267   -0.0187
           4    0.0156   -0.0315   -0.0006   -0.0002    0.0410   -0.0319   -0.0001   -0.0001
           5   -0.0353   -0.0271   -0.0006    0.0003   -0.0170   -0.0258    0.0001    0.0001
           6    0.0002    0.0019   -0.0494    0.0431    0.0015   -0.0007    0.0344    0.0250
           7   -0.0080    0.0179    0.0004    0.0000   -0.0321   -0.0514    0.0001    0.0001
           8   -0.0235    0.0168    0.0001    0.0002    0.0006    0.0723   -0.0001   -0.0002
           9    0.0012    0.0003   -0.0082    0.0116    0.0005   -0.0003    0.0074   -0.0241
          10   -0.0469   -0.0139   -0.0002   -0.0003    0.0420    0.0392    0.0001    0.0001
          11    0.0106   -0.0270   -0.0004   -0.0005    0.0712    0.0166    0.0000    0.0003
          12   -0.0013    0.0004   -0.0108    0.0042   -0.0001   -0.0002   -0.0149    0.0199
          13   -0.0066    0.0116    0.0003    0.0000   -0.0287   -0.0526    0.0001    0.0001
          14   -0.0502   -0.0081   -0.0003    0.0005   -0.0586   -0.0209    0.0002    0.0001
          15   -0.0010   -0.0009    0.0133   -0.0177   -0.0004    0.0003   -0.0075   -0.0310
          16   -0.0404   -0.0122   -0.0002   -0.0004    0.0440    0.0371    0.0001    0.0001
          17   -0.0109   -0.0514   -0.0005   -0.0002    0.0028   -0.0682   -0.0005   -0.0001
          18    0.0023   -0.0000    0.0146   -0.0047   -0.0003    0.0006   -0.0288    0.0142
          19    0.0245   -0.0342   -0.0004   -0.0005    0.0363   -0.0267   -0.0003   -0.0003
          20    0.0244    0.0718    0.0013   -0.0003    0.0059   -0.0082    0.0001    0.0001
          21   -0.0005    0.0001   -0.0070   -0.0181   -0.0008    0.0003    0.0123   -0.0044
          22    0.0343    0.0037    0.0003    0.0005   -0.0129    0.0115   -0.0000   -0.0000
          23    0.0364    0.0514    0.0012   -0.0004    0.0249   -0.0265   -0.0002   -0.0001
          24   -0.0001   -0.0011    0.0358    0.0267    0.0004    0.0001   -0.0023   -0.0030
          25    0.0437    0.0078   -0.0001    0.0003   -0.0232    0.0226    0.0001    0.0001
          26   -0.0110    0.0128    0.0003   -0.0001    0.0070   -0.0055   -0.0000   -0.0000
          27   -0.0005   -0.0001   -0.0021   -0.0018    0.0003   -0.0003   -0.0001    0.0008
          28    0.0408    0.0053   -0.0003    0.0002   -0.0195    0.0185    0.0000    0.0001
          29    0.0560   -0.0707   -0.0018    0.0010   -0.0707    0.0530    0.0002    0.0001
          30   -0.0004    0.0006   -0.0161   -0.0109    0.0002   -0.0003   -0.0000    0.0008
          31   -0.0546    0.0360   -0.0630    0.0585   -0.0456    0.0335   -0.0880   -0.0586
          32    0.0219    0.0214    0.0026    0.0066   -0.0075   -0.0076    0.0227   -0.0432
          33    0.0013   -0.0029    0.0444   -0.0398    0.0007   -0.0009    0.0417    0.0270
          34   -0.0533    0.0310    0.0631   -0.0571   -0.0489    0.0347    0.0871    0.0578
          35    0.0193    0.0214   -0.0015   -0.0068   -0.0085   -0.0083   -0.0218    0.0424
          36   -0.0007   -0.0007    0.0454   -0.0405   -0.0034    0.0022    0.0431    0.0274
          37    0.0249    0.0215    0.0006   -0.0004    0.0120   -0.0503   -0.0000    0.0002
          38   -0.0037    0.0183    0.0002   -0.0001    0.0265    0.0724   -0.0002   -0.0001
          39    0.0031   -0.0011    0.0301   -0.0328   -0.0003   -0.0001    0.0789    0.2652
          40   -0.0529   -0.0534   -0.0006   -0.0006    0.0568   -0.0084    0.0001   -0.0001
          41    0.0134   -0.0036    0.0002   -0.0007    0.0619    0.0443    0.0019   -0.0002
          42   -0.0031   -0.0015    0.0320   -0.0377   -0.0008   -0.0005    0.2421   -0.0683
          43    0.0460   -0.0040    0.0002   -0.0018    0.0707   -0.0430   -0.0013   -0.0006
          44    0.0363    0.0878    0.0016   -0.0010    0.0244   -0.0179   -0.0005   -0.0001
          45    0.0001   -0.0001   -0.0150   -0.1433   -0.0047    0.0024   -0.1063   -0.0254
          46   -0.0052    0.0454    0.0011   -0.0001   -0.0341   -0.0094   -0.0001    0.0003
          47   -0.0500   -0.0285   -0.0007    0.0005   -0.0543   -0.0472    0.0003    0.0001
          48   -0.0026   -0.0049    0.1030   -0.1290   -0.0038    0.0020   -0.0604    0.1410
          49   -0.0724   -0.0072    0.0001   -0.0002    0.0068    0.0306    0.0000   -0.0001
          50   -0.0297   -0.0476    0.0004   -0.0007   -0.0193   -0.0717    0.0004   -0.0014
          51    0.0058   -0.0035    0.1230   -0.0753   -0.0027    0.0016    0.1056   -0.1476
          52    0.0188    0.0772    0.0017    0.0002    0.0003   -0.0144   -0.0001    0.0002
          53    0.0281    0.0899    0.0019   -0.0004    0.0301   -0.0389   -0.0001   -0.0001
          54    0.0014   -0.0006    0.0204    0.0228    0.0003    0.0005   -0.0326    0.0280
          55    0.0459    0.0088    0.0252    0.0183   -0.0261    0.0260    0.0005   -0.0035
          56   -0.0421    0.0633   -0.1754   -0.1357    0.0529   -0.0422    0.0198   -0.0137
          57    0.0007   -0.0002    0.0162    0.0114   -0.0015    0.0018   -0.0001   -0.0013
          58    0.0461    0.0103   -0.0250   -0.0174   -0.0266    0.0259   -0.0003    0.0037
          59   -0.0459    0.0518    0.1783    0.1342    0.0565   -0.0415   -0.0202    0.0135
          60   -0.0019   -0.0012    0.0163    0.0114    0.0023   -0.0022   -0.0000   -0.0015


   Root No.      17        18        19        20        21        22        23        24

                17 A      18 A      19 A      20 A      21 A      22 A      23 A      24 A   

                 869.0     873.4     902.0     924.0     960.2     977.8     983.5     992.1
  
           1    0.0457    0.0026   -0.0006   -0.0003    0.0003   -0.0002   -0.0094   -0.0125
           2   -0.0024   -0.0002    0.0001    0.0001   -0.0001    0.0001   -0.0011   -0.0034
           3    0.0020   -0.0125    0.0339    0.0247   -0.0170    0.0032    0.0000   -0.0000
           4    0.0419    0.0025   -0.0003    0.0001   -0.0002   -0.0001    0.0034    0.0115
           5   -0.0012   -0.0000    0.0000    0.0001   -0.0001    0.0000   -0.0015   -0.0034
           6   -0.0012    0.0166    0.0081    0.0237   -0.0232   -0.0018   -0.0002   -0.0002
           7   -0.0400   -0.0023    0.0003    0.0001   -0.0000    0.0000   -0.0014   -0.0055
           8    0.0619    0.0035   -0.0004   -0.0000   -0.0000   -0.0000   -0.0067   -0.0048
           9   -0.0015    0.0080   -0.0138   -0.0120    0.0141    0.0206    0.0000    0.0003
          10   -0.0344   -0.0020    0.0003    0.0001   -0.0000    0.0000   -0.0002   -0.0026
          11   -0.0570   -0.0032    0.0003   -0.0001    0.0001   -0.0004    0.0093    0.0119
          12    0.0005   -0.0047   -0.0100   -0.0138    0.0142   -0.0259    0.0001    0.0001
          13   -0.0332   -0.0019    0.0003    0.0001   -0.0001   -0.0000    0.0041    0.0052
          14   -0.0094   -0.0004    0.0000    0.0001   -0.0003   -0.0000    0.0365    0.0552
          15   -0.0011    0.0053   -0.0197   -0.0135    0.0022   -0.0333    0.0000   -0.0003
          16   -0.0322   -0.0018    0.0003    0.0001   -0.0001    0.0001    0.0032    0.0027
          17    0.0263    0.0015   -0.0003   -0.0002    0.0003    0.0002   -0.0316   -0.0451
          18   -0.0005   -0.0007   -0.0195   -0.0154    0.0057    0.0347    0.0001    0.0003
          19    0.0611    0.0033   -0.0004   -0.0002    0.0002    0.0000    0.0101    0.0216
          20   -0.0267   -0.0017    0.0003   -0.0000    0.0002    0.0000   -0.0104   -0.0142
          21    0.0033   -0.0285    0.0193   -0.0222    0.0459    0.0039    0.0001    0.0001
          22   -0.0006   -0.0003   -0.0002   -0.0000   -0.0006    0.0000   -0.0015   -0.0008
          23    0.0248    0.0014   -0.0003   -0.0001   -0.0001    0.0000    0.0086    0.0129
          24    0.0026   -0.0270   -0.0198   -0.0046   -0.0490    0.0021   -0.0000   -0.0001
          25   -0.0048   -0.0001    0.0003   -0.0005   -0.0002    0.0001    0.0038    0.0014
          26   -0.0030   -0.0002    0.0001   -0.0001   -0.0001   -0.0002   -0.0559    0.0306
          27   -0.0013    0.0146    0.0213   -0.0372   -0.0220    0.0006    0.0001   -0.0001
          28   -0.0028   -0.0002   -0.0001    0.0004    0.0004    0.0000    0.0020    0.0000
          29   -0.0186   -0.0011    0.0001    0.0001    0.0001    0.0000    0.0157   -0.0171
          30    0.0002   -0.0025   -0.0127    0.0338    0.0316   -0.0011   -0.0001    0.0001
          31    0.0607   -0.0288    0.0820    0.0580   -0.0385    0.0069   -0.0147   -0.0206
          32   -0.0111    0.0118   -0.0040    0.0009    0.0025    0.0943   -0.0070   -0.0201
          33   -0.0074    0.0119   -0.0299   -0.0204    0.0129   -0.0026    0.0026    0.0039
          34    0.0521    0.0349   -0.0825   -0.0581    0.0387   -0.0073   -0.0149   -0.0203
          35   -0.0082   -0.0126    0.0037   -0.0011   -0.0024   -0.0914   -0.0063   -0.0204
          36    0.0048    0.0131   -0.0312   -0.0212    0.0135   -0.0021   -0.0027   -0.0037
          37   -0.0784   -0.0047    0.0010    0.0003    0.0001    0.0001   -0.0560   -0.0978
          38    0.0411    0.0021   -0.0000    0.0001   -0.0000    0.0000   -0.0378   -0.0576
          39    0.0047   -0.0200    0.0223    0.0316   -0.0531   -0.1338   -0.0001   -0.0014
          40   -0.0506   -0.0029    0.0008    0.0004    0.0000    0.0006   -0.0444   -0.0717
          41   -0.0489   -0.0022    0.0001    0.0002   -0.0004    0.0005    0.0345    0.0511
          42   -0.0069    0.0745   -0.0033    0.0480   -0.0570    0.1478   -0.0010   -0.0009
          43    0.1191    0.0083   -0.0016    0.0005   -0.0011   -0.0002    0.0285    0.0658
          44    0.0040    0.0011   -0.0004    0.0004   -0.0006   -0.0001   -0.0005    0.0095
          45   -0.0256    0.1963   -0.0854    0.1016   -0.1637   -0.0325   -0.0004   -0.0011
          46   -0.0368   -0.0022    0.0007    0.0002    0.0002    0.0003   -0.0293   -0.0361
          47   -0.0076   -0.0003   -0.0002    0.0001   -0.0005   -0.0001    0.0577    0.0819
          48    0.0094   -0.0524    0.1239    0.0803   -0.0214    0.1767   -0.0002    0.0012
          49   -0.0261   -0.0017    0.0004    0.0000    0.0002    0.0005   -0.0321   -0.0582
          50    0.0306    0.0013    0.0009    0.0004    0.0003   -0.0011   -0.0533   -0.0822
          51    0.0071   -0.0394    0.1281    0.0746   -0.0205   -0.1678    0.0012    0.0009
          52   -0.0337    0.0004    0.0011    0.0001    0.0021   -0.0007   -0.0329   -0.0113
          53    0.0056    0.0005   -0.0000   -0.0001    0.0002   -0.0002   -0.0082    0.0068
          54   -0.0249    0.2370    0.0975    0.0238    0.1911   -0.0192    0.0004    0.0005
          55   -0.0015   -0.0601   -0.0852    0.1466    0.0846   -0.0020    0.0130   -0.0000
          56    0.0362   -0.0625   -0.0143   -0.0110   -0.0218    0.0043    0.2301   -0.1194
          57    0.0008   -0.0230   -0.0334    0.0573    0.0327   -0.0009    0.0018    0.0008
          58   -0.0122    0.0586    0.0846   -0.1453   -0.0836    0.0023    0.0133   -0.0005
          59    0.0218    0.0657    0.0135    0.0115    0.0224   -0.0028    0.2302   -0.1194
          60    0.0036   -0.0245   -0.0355    0.0607    0.0346   -0.0010   -0.0030   -0.0002


   Root No.      25        26        27        28        29        30        31        32

                25 A      26 A      27 A      28 A      29 A      30 A      31 A      32 A   

                1013.2    1022.0    1052.8    1060.3    1128.5    1149.0    1164.1    1196.6
  
           1    0.0667   -0.0016    0.0019    0.0001   -0.0011    0.0023   -0.0005    0.0067
           2   -0.0025   -0.0000    0.0249    0.0024   -0.0001    0.0020    0.0040    0.0012
           3   -0.0005   -0.0321   -0.0000   -0.0002    0.0000   -0.0000    0.0000   -0.0000
           4   -0.0018    0.0001    0.0035    0.0003    0.0094   -0.0087   -0.0172   -0.0055
           5    0.0008    0.0001    0.0139    0.0014    0.0032   -0.0211   -0.0128   -0.0065
           6    0.0009    0.0243   -0.0001   -0.0001   -0.0000    0.0001    0.0003   -0.0000
           7   -0.0031    0.0001   -0.0047   -0.0004   -0.0076   -0.0002    0.0017    0.0020
           8   -0.0457    0.0013   -0.0309   -0.0026   -0.0025    0.0039   -0.0030   -0.0048
           9    0.0014    0.0428   -0.0025    0.0392    0.0000    0.0001   -0.0000    0.0000
          10   -0.0028    0.0001    0.0010    0.0001   -0.0024    0.0046   -0.0035   -0.0019
          11    0.0487   -0.0011   -0.0256   -0.0025   -0.0038    0.0091    0.0108    0.0065
          12    0.0008    0.0412    0.0026   -0.0387   -0.0000   -0.0001   -0.0001   -0.0000
          13   -0.0157    0.0003   -0.0181   -0.0017   -0.0024    0.0034    0.0057   -0.0042
          14   -0.0246    0.0004   -0.0055   -0.0006    0.0022    0.0047   -0.0013    0.0046
          15   -0.0013   -0.0367    0.0009   -0.0134   -0.0000   -0.0000   -0.0000   -0.0000
          16   -0.0173    0.0004    0.0167    0.0016    0.0036   -0.0059   -0.0020   -0.0070
          17    0.0237   -0.0007   -0.0138   -0.0012   -0.0033    0.0098    0.0073   -0.0001
          18   -0.0012   -0.0339   -0.0007    0.0128    0.0001   -0.0001   -0.0001    0.0000
          19   -0.0088    0.0000    0.0050    0.0005    0.0097   -0.0086   -0.0112   -0.0066
          20    0.0073   -0.0001    0.0007    0.0001    0.0169   -0.0119   -0.0150    0.0290
          21   -0.0005   -0.0141   -0.0001    0.0009   -0.0001    0.0001    0.0001   -0.0000
          22   -0.0012    0.0001   -0.0017   -0.0002    0.0306   -0.0104   -0.0151    0.0097
          23   -0.0009   -0.0000    0.0002    0.0000   -0.0313    0.0088   -0.0019   -0.0381
          24    0.0003    0.0077   -0.0000    0.0003   -0.0003    0.0001    0.0002    0.0000
          25    0.0032   -0.0001    0.0033    0.0003   -0.0316    0.0084    0.0101   -0.0049
          26    0.0003   -0.0001    0.0022    0.0002   -0.0035   -0.0001   -0.0005   -0.0010
          27    0.0000    0.0012   -0.0000    0.0000    0.0004   -0.0001   -0.0001    0.0001
          28    0.0011   -0.0001    0.0008    0.0001   -0.0015   -0.0004   -0.0014    0.0028
          29   -0.0005    0.0000   -0.0047   -0.0005    0.0138    0.0003    0.0017    0.0024
          30   -0.0001   -0.0027    0.0000   -0.0001   -0.0000    0.0000    0.0000   -0.0001
          31    0.0939   -0.0732    0.0022   -0.0000   -0.0048    0.0061   -0.0040    0.0210
          32   -0.0133    0.0060    0.2445   -0.3158    0.0460    0.0804   -0.0325   -0.0110
          33   -0.0193    0.0226   -0.0015    0.0013    0.0014   -0.0024    0.0014   -0.0083
          34    0.0976    0.0676    0.0019    0.0004   -0.0050    0.0061   -0.0042    0.0210
          35   -0.0139   -0.0044    0.2084    0.3535    0.0473    0.0835   -0.0331   -0.0110
          36    0.0219    0.0224   -0.0003   -0.0012   -0.0019    0.0018   -0.0012    0.0087
          37   -0.1027    0.0031   -0.0021    0.0011   -0.0968   -0.1602   -0.0849    0.0785
          38   -0.1059    0.0030   -0.0272   -0.0015   -0.0543   -0.0888   -0.0544    0.0399
          39   -0.0048   -0.1465    0.0050   -0.0711    0.0000    0.0001    0.0001   -0.0000
          40   -0.1006    0.0029   -0.0465   -0.0053   -0.0447    0.2284   -0.0710    0.0807
          41    0.1076   -0.0041    0.0042    0.0016    0.0210   -0.1208    0.0519   -0.0420
          42   -0.0042   -0.1344   -0.0047    0.0691   -0.0001    0.0006   -0.0002    0.0002
          43   -0.0428    0.0009    0.0000   -0.0002    0.0247    0.0351    0.1690    0.2174
          44   -0.0106    0.0004   -0.0024   -0.0003    0.0245    0.0122    0.0835    0.1545
          45    0.0019    0.0421    0.0006   -0.0093   -0.0004   -0.0003   -0.0013   -0.0022
          46   -0.0663    0.0022   -0.1027   -0.0097    0.0893    0.0498    0.0565   -0.0958
          47    0.0032   -0.0006    0.0450    0.0041   -0.0532   -0.0250   -0.0334    0.0610
          48    0.0057    0.1381   -0.0022    0.0300    0.0003   -0.0002   -0.0000    0.0002
          49   -0.1083    0.0033    0.1031    0.0102    0.0057   -0.0797    0.2004   -0.0517
          50   -0.0268    0.0021    0.0359    0.0035   -0.0022   -0.0344    0.1288   -0.0255
          51    0.0039    0.1155    0.0017   -0.0265   -0.0000    0.0004   -0.0009    0.0003
          52   -0.0275    0.0002   -0.0654   -0.0066    0.1928    0.0230    0.0239   -0.0734
          53   -0.0143    0.0002   -0.0333   -0.0033    0.0532    0.0270    0.0187   -0.0843
          54   -0.0008   -0.0289    0.0011   -0.0024   -0.0020   -0.0004   -0.0004    0.0009
          55    0.0067   -0.0044    0.0082    0.0008   -0.1205    0.0387    0.0559   -0.0459
          56   -0.0012    0.0017   -0.0073   -0.0004    0.0091   -0.0001   -0.0007   -0.0002
          57    0.0018   -0.0016    0.0026    0.0003   -0.0482    0.0165    0.0252   -0.0230
          58    0.0070    0.0040    0.0081    0.0009   -0.1193    0.0383    0.0553   -0.0453
          59   -0.0013   -0.0011   -0.0072   -0.0009    0.0091   -0.0002   -0.0007   -0.0001
          60   -0.0021   -0.0016   -0.0028   -0.0003    0.0510   -0.0175   -0.0265    0.0240


   Root No.      33        34        35        36        37        38        39        40

                33 A      34 A      35 A      36 A      37 A      38 A      39 A      40 A   

                1226.6    1267.0    1306.6    1345.0    1390.5    1419.1    1525.1    1536.9
  
           1    0.0058   -0.0073   -0.0005   -0.0280    0.0423    0.0008    0.0016   -0.0089
           2   -0.0133   -0.0107   -0.0220   -0.0076   -0.0058    0.0955   -0.0634   -0.0139
           3    0.0001    0.0000    0.0001   -0.0002    0.0003   -0.0004    0.0003    0.0000
           4   -0.0072    0.0107   -0.0176    0.0072    0.0046   -0.0047    0.0111   -0.0531
           5    0.0107    0.0084   -0.0008    0.0049    0.0044    0.0569    0.1242    0.0388
           6    0.0000   -0.0001    0.0001   -0.0000   -0.0000   -0.0002   -0.0005    0.0002
           7   -0.0125    0.0033   -0.0033   -0.0103   -0.0163    0.0048    0.0299    0.0242
           8   -0.0155    0.0147    0.0013   -0.0076   -0.0221   -0.0388    0.0391    0.0152
           9    0.0000   -0.0000   -0.0000    0.0000   -0.0000    0.0000   -0.0000   -0.0000
          10    0.0092    0.0082    0.0126   -0.0102   -0.0177   -0.0049   -0.0360    0.0101
          11   -0.0005   -0.0167    0.0004    0.0108    0.0261   -0.0361    0.0405    0.0034
          12    0.0000    0.0001   -0.0000   -0.0001   -0.0002    0.0003   -0.0003   -0.0000
          13   -0.0163    0.0084   -0.0008   -0.0050   -0.0183   -0.0159    0.0173    0.0086
          14    0.0113   -0.0077    0.0056    0.0167    0.0204   -0.0129   -0.0614   -0.0321
          15   -0.0000    0.0000    0.0000    0.0000    0.0000    0.0000    0.0000   -0.0000
          16    0.0049    0.0137    0.0066   -0.0053   -0.0199    0.0149   -0.0186   -0.0008
          17    0.0056    0.0124    0.0151   -0.0166   -0.0227   -0.0142   -0.0655   -0.0041
          18   -0.0001   -0.0001   -0.0001    0.0001    0.0002    0.0001    0.0005   -0.0000
          19   -0.0052    0.0014   -0.0107    0.0151    0.0201   -0.0011    0.0022   -0.0207
          20   -0.0254    0.0307   -0.0194    0.0134    0.0088   -0.0137   -0.0061   -0.0545
          21    0.0001   -0.0001    0.0002   -0.0001   -0.0002    0.0000   -0.0000    0.0004
          22   -0.0129   -0.0071   -0.0033    0.0062    0.0130   -0.0086   -0.0410    0.1168
          23    0.0032   -0.0255    0.0235   -0.0042   -0.0010    0.0048   -0.0116    0.0545
          24    0.0001    0.0001    0.0000   -0.0001   -0.0002    0.0001    0.0005   -0.0014
          25    0.0011   -0.0099    0.0277   -0.0101   -0.0163    0.0105    0.0338   -0.0916
          26   -0.0008   -0.0002    0.0007    0.0005    0.0005    0.0001   -0.0008    0.0026
          27   -0.0000    0.0001   -0.0003    0.0001    0.0002   -0.0001   -0.0004    0.0011
          28   -0.0054   -0.0096    0.0132   -0.0029   -0.0024    0.0006   -0.0055    0.0162
          29    0.0049    0.0002   -0.0063   -0.0026   -0.0023   -0.0015    0.0009   -0.0045
          30    0.0001    0.0001   -0.0001    0.0000    0.0000    0.0000    0.0001   -0.0002
          31    0.0221   -0.0482   -0.0193    0.1697   -0.0913   -0.0013   -0.0002    0.0013
          32    0.0474    0.0254    0.0452    0.0109    0.0071   -0.1130    0.0400    0.0088
          33   -0.0102    0.0256    0.0117   -0.1269    0.0858    0.0018    0.0010   -0.0064
          34    0.0220   -0.0480   -0.0192    0.1679   -0.0900   -0.0013   -0.0002    0.0012
          35    0.0479    0.0254    0.0455    0.0119    0.0065   -0.1138    0.0401    0.0089
          36    0.0101   -0.0264   -0.0123    0.1291   -0.0871   -0.0010   -0.0013    0.0064
          37    0.1394   -0.0617    0.0145    0.0248    0.0731   -0.0212   -0.0546   -0.0332
          38    0.0731   -0.0231    0.0111    0.0132    0.0285   -0.0577   -0.0119   -0.0204
          39   -0.0000    0.0001    0.0001    0.0000    0.0001   -0.0000    0.0000    0.0000
          40   -0.0332   -0.0887   -0.0519    0.0248    0.0773    0.0246    0.0606   -0.0023
          41    0.0248    0.0391    0.0393   -0.0105   -0.0283   -0.0566   -0.0186    0.0120
          42   -0.0002   -0.0003   -0.0003    0.0000    0.0002    0.0005    0.0001   -0.0001
          43    0.0923    0.0099    0.0470   -0.0251   -0.0211    0.0576    0.0567    0.0929
          44    0.0274    0.0379    0.0126   -0.0087   -0.0148    0.0192    0.0264    0.0037
          45   -0.0006   -0.0003   -0.0004    0.0002    0.0002   -0.0004   -0.0004   -0.0008
          46    0.0398    0.0833    0.1299    0.1356    0.1184    0.0981   -0.0405   -0.0481
          47   -0.0220   -0.0542   -0.0765   -0.0694   -0.0644   -0.0864   -0.0266   -0.0011
          48    0.0002   -0.0004   -0.0005   -0.0005   -0.0003   -0.0002    0.0002    0.0001
          49   -0.0931   -0.0915   -0.0466    0.0458    0.0676   -0.0652    0.0383   -0.0273
          50   -0.0515   -0.0495   -0.0151    0.0124    0.0289   -0.0641   -0.0344   -0.0180
          51    0.0005    0.0004    0.0002   -0.0001   -0.0002    0.0005    0.0002    0.0002
          52    0.1433   -0.0724   -0.1273   -0.0747   -0.0516   -0.0248    0.0364   -0.0785
          53    0.0873   -0.0617   -0.0430   -0.0497   -0.0382   -0.0039    0.0342   -0.0583
          54   -0.0016    0.0007    0.0013    0.0008    0.0005    0.0002   -0.0004    0.0009
          55    0.0640    0.0892   -0.1069    0.0238    0.0244   -0.0120   -0.0174    0.0435
          56    0.0005   -0.0023    0.0013   -0.0009   -0.0006    0.0001   -0.0002    0.0004
          57    0.0356    0.0572   -0.0793    0.0203    0.0250   -0.0140   -0.0339    0.0904
          58    0.0631    0.0878   -0.1050    0.0233    0.0238   -0.0117   -0.0166    0.0413
          59    0.0003   -0.0024    0.0015   -0.0009   -0.0007    0.0002   -0.0001    0.0002
          60   -0.0371   -0.0593    0.0818   -0.0209   -0.0255    0.0143    0.0344   -0.0914


   Root No.      41        42        43        44        45        46        47        48

                41 A      42 A      43 A      44 A      45 A      46 A      47 A      48 A   

                1845.2    1857.2    1882.1    2247.4    2927.2    2976.6    3006.4    3007.2
  
           1   -0.0166    0.0061    0.0208   -0.0002    0.0003   -0.0001   -0.0302    0.0117
           2   -0.0063   -0.0288    0.0024    0.0000   -0.0002    0.0001    0.0000    0.0001
           3   -0.0000    0.0001    0.0000    0.0000   -0.0609   -0.0000   -0.0001    0.0000
           4   -0.1534    0.0210   -0.1099    0.0114   -0.0000   -0.0002   -0.0004   -0.0002
           5   -0.0066   -0.0346    0.0039    0.0028    0.0000   -0.0004    0.0001    0.0001
           6    0.0009    0.0000    0.0006   -0.0001    0.0002    0.0000    0.0000    0.0000
           7    0.1014    0.1028   -0.1129    0.0006   -0.0000    0.0002    0.0009   -0.0014
           8    0.0128    0.0181   -0.0170    0.0002    0.0000    0.0017   -0.0006    0.0069
           9    0.0000   -0.0000    0.0000    0.0000   -0.0001   -0.0000    0.0000   -0.0000
          10    0.0460   -0.1578   -0.0892    0.0011   -0.0000   -0.0000    0.0014   -0.0005
          11   -0.0034    0.0253    0.0135   -0.0002   -0.0000   -0.0000    0.0030   -0.0011
          12    0.0000   -0.0002   -0.0001    0.0000   -0.0000   -0.0000   -0.0000    0.0000
          13   -0.0808   -0.1087    0.1258   -0.0013    0.0000   -0.0099   -0.0084   -0.0208
          14    0.0015    0.0236   -0.0260    0.0011    0.0000   -0.0141   -0.0126   -0.0301
          15   -0.0000    0.0000   -0.0000    0.0000   -0.0003    0.0000    0.0000    0.0000
          16   -0.0268    0.1578    0.1002   -0.0026    0.0000    0.0000    0.0003    0.0003
          17    0.0077    0.0278    0.0203   -0.0019    0.0000    0.0001   -0.0000   -0.0003
          18   -0.0001   -0.0002   -0.0002    0.0000   -0.0003    0.0000    0.0000    0.0000
          19    0.1602   -0.0287    0.0738   -0.0030    0.0000   -0.0014    0.0002    0.0004
          20    0.0303   -0.0109    0.0108    0.0029   -0.0000    0.0037   -0.0002   -0.0010
          21   -0.0011    0.0002   -0.0005    0.0000   -0.0000   -0.0000    0.0000    0.0000
          22   -0.0288    0.0073   -0.0102   -0.1510   -0.0000    0.0297   -0.0027   -0.0062
          23   -0.0220    0.0059   -0.0061   -0.0119    0.0000   -0.0465    0.0043    0.0099
          24    0.0003   -0.0001    0.0001    0.0017   -0.0000   -0.0003    0.0000    0.0001
          25    0.0080   -0.0034   -0.0002   -0.1431    0.0000    0.0008   -0.0001   -0.0002
          26   -0.0002    0.0001    0.0000    0.0022    0.0000   -0.0002    0.0000    0.0000
          27   -0.0001    0.0000    0.0000    0.0017    0.0000   -0.0000    0.0000    0.0000
          28   -0.0045    0.0027    0.0018    0.3032    0.0000   -0.0060    0.0006    0.0013
          29   -0.0022    0.0004   -0.0014   -0.0038   -0.0000   -0.0001   -0.0000   -0.0000
          30    0.0001   -0.0000   -0.0000   -0.0035    0.0000    0.0001   -0.0000   -0.0000
          31   -0.0075    0.0031    0.0124   -0.0001    0.2851    0.0015    0.1790   -0.0675
          32   -0.0051   -0.0245    0.0022    0.0001    0.0016    0.0001    0.0014    0.0001
          33   -0.0039    0.0010    0.0003   -0.0001    0.3716    0.0024    0.2798   -0.1056
          34   -0.0078    0.0032    0.0128   -0.0000   -0.2883    0.0016    0.1842   -0.0694
          35   -0.0052   -0.0251    0.0023    0.0000    0.0013    0.0001   -0.0008    0.0009
          36    0.0039   -0.0008   -0.0001    0.0001    0.3648   -0.0023   -0.2791    0.1053
          37    0.0048    0.0168   -0.0044    0.0001    0.0001    0.0114   -0.0041    0.0461
          38   -0.0645   -0.0520    0.0675   -0.0005   -0.0001   -0.0217    0.0002   -0.0819
          39    0.0000   -0.0000    0.0001   -0.0000   -0.0016    0.0000   -0.0000    0.0000
          40   -0.0020   -0.0179   -0.0006    0.0005    0.0001    0.0004   -0.0204    0.0074
          41    0.0350   -0.0874   -0.0547    0.0007    0.0002    0.0006   -0.0300    0.0107
          42   -0.0002    0.0006    0.0005   -0.0000   -0.0016   -0.0000    0.0002   -0.0001
          43   -0.0076   -0.0018    0.0005   -0.0130   -0.0000    0.0263   -0.0008   -0.0050
          44   -0.0870    0.0039   -0.0414    0.0051    0.0000   -0.0403    0.0009    0.0079
          45    0.0004   -0.0000    0.0002    0.0002   -0.0000   -0.0000    0.0000    0.0000
          46   -0.0452   -0.0142   -0.0105    0.0080   -0.0000    0.1072    0.0929    0.2190
          47   -0.0411   -0.0544    0.0797   -0.0048   -0.0000    0.1673    0.1502    0.3559
          48    0.0002   -0.0001    0.0002   -0.0000   -0.0008   -0.0001   -0.0001   -0.0002
          49   -0.0304    0.0207   -0.0153    0.0014    0.0000   -0.0010    0.0000   -0.0052
          50    0.0172   -0.0836   -0.0637    0.0004   -0.0000    0.0014    0.0009    0.0088
          51    0.0000    0.0007    0.0006   -0.0000   -0.0008   -0.0000   -0.0000   -0.0001
          52    0.0394    0.0007    0.0071   -0.0502   -0.0000   -0.3025    0.0265    0.0610
          53    0.0135    0.0019    0.0031    0.0987   -0.0000    0.5575   -0.0512   -0.1177
          54   -0.0003   -0.0000   -0.0000    0.0004   -0.0000    0.0025   -0.0002   -0.0005
          55    0.0000   -0.0003   -0.0007   -0.0620   -0.0000    0.0004    0.0000   -0.0000
          56   -0.0004    0.0001   -0.0000    0.0012   -0.0000   -0.0001    0.0000    0.0000
          57   -0.0072    0.0027   -0.0007    0.1041    0.0000   -0.0002   -0.0001   -0.0000
          58    0.0002   -0.0004   -0.0007   -0.0645   -0.0000    0.0004    0.0000   -0.0001
          59   -0.0003    0.0000   -0.0000    0.0009   -0.0000   -0.0001    0.0000    0.0000
          60    0.0072   -0.0027    0.0007   -0.1026   -0.0000    0.0002    0.0000   -0.0000


   Root No.      49        50        51        52        53        54

                49 A      50 A      51 A      52 A      53 A      54 A   

                3039.3    3042.2    3059.8    3064.1    3116.8    3121.2
  
           1    0.0000    0.0010    0.0020   -0.0033   -0.0000   -0.0000
           2    0.0000    0.0001   -0.0000    0.0000    0.0000   -0.0000
           3   -0.0000   -0.0000   -0.0000    0.0000    0.0000    0.0000
           4   -0.0035    0.0012   -0.0004    0.0010   -0.0002   -0.0000
           5   -0.0003    0.0002    0.0003    0.0002   -0.0000    0.0000
           6    0.0000   -0.0000   -0.0000   -0.0000    0.0000    0.0000
           7    0.0001   -0.0004    0.0265   -0.0080   -0.0001    0.0000
           8    0.0001    0.0002   -0.0378    0.0115    0.0001   -0.0000
           9    0.0000    0.0000    0.0000   -0.0000    0.0000    0.0000
          10    0.0033    0.0105   -0.0079   -0.0218   -0.0001   -0.0000
          11    0.0065    0.0197   -0.0104   -0.0294   -0.0001   -0.0000
          12   -0.0000   -0.0001    0.0001    0.0002   -0.0000   -0.0000
          13   -0.0005    0.0007   -0.0082    0.0028    0.0000   -0.0000
          14    0.0005    0.0010   -0.0065    0.0026   -0.0000   -0.0000
          15    0.0000   -0.0000    0.0000   -0.0000    0.0000    0.0000
          16    0.0080    0.0197    0.0058    0.0151    0.0000    0.0000
          17   -0.0121   -0.0318   -0.0070   -0.0181    0.0000   -0.0000
          18    0.0001    0.0002    0.0001    0.0001   -0.0000   -0.0000
          19    0.0276   -0.0075   -0.0000   -0.0008    0.0003    0.0000
          20   -0.0450    0.0116    0.0001    0.0006    0.0002   -0.0000
          21   -0.0000    0.0000    0.0000    0.0000   -0.0000   -0.0000
          22    0.0028   -0.0007   -0.0005    0.0001    0.0006   -0.0000
          23   -0.0028    0.0006    0.0008   -0.0002   -0.0001   -0.0000
          24   -0.0000    0.0000    0.0000   -0.0000   -0.0000   -0.0002
          25    0.0001   -0.0000    0.0000   -0.0001    0.0478   -0.0007
          26   -0.0000    0.0000    0.0000   -0.0000   -0.0008   -0.0001
          27    0.0000   -0.0000    0.0000    0.0000   -0.0005   -0.0649
          28   -0.0010    0.0003    0.0001   -0.0000   -0.0085   -0.0000
          29   -0.0003    0.0001   -0.0000    0.0000    0.0001    0.0000
          30    0.0000   -0.0000   -0.0000    0.0000    0.0001   -0.0004
          31   -0.0011   -0.0076   -0.0114    0.0178    0.0001    0.0000
          32    0.0005    0.0014   -0.0031   -0.0010   -0.0000   -0.0000
          33   -0.0016   -0.0114   -0.0171    0.0269    0.0002    0.0000
          34   -0.0011   -0.0079   -0.0118    0.0185    0.0001   -0.0000
          35    0.0005    0.0015   -0.0030   -0.0012   -0.0000    0.0000
          36    0.0016    0.0115    0.0172   -0.0269   -0.0002    0.0000
          37    0.0012    0.0026   -0.2645    0.0780    0.0005   -0.0000
          38   -0.0021   -0.0043    0.4512   -0.1328   -0.0009    0.0000
          39    0.0000    0.0000   -0.0001    0.0000    0.0000    0.0000
          40   -0.0446   -0.1360    0.0760    0.2063    0.0005    0.0000
          41   -0.0778   -0.2366    0.1285    0.3485    0.0009    0.0000
          42    0.0006    0.0018   -0.0010   -0.0026   -0.0000    0.0000
          43   -0.2932    0.0762    0.0009    0.0039   -0.0002   -0.0000
          44    0.5283   -0.1403   -0.0024   -0.0085    0.0003    0.0000
          45   -0.0002    0.0001    0.0000    0.0000   -0.0000    0.0000
          46   -0.0016   -0.0052    0.0505   -0.0175   -0.0000    0.0000
          47   -0.0016   -0.0083    0.0764   -0.0266   -0.0001    0.0000
          48    0.0000    0.0000   -0.0000    0.0000   -0.0000    0.0000
          49   -0.0831   -0.2216   -0.0508   -0.1281   -0.0002   -0.0000
          50    0.1445    0.3757    0.0841    0.2115    0.0002    0.0000
          51   -0.0011   -0.0028   -0.0006   -0.0016   -0.0000   -0.0000
          52   -0.0189    0.0039    0.0044   -0.0011    0.0009   -0.0000
          53    0.0418   -0.0088   -0.0091    0.0022   -0.0012    0.0000
          54    0.0002   -0.0000   -0.0000    0.0000   -0.0000   -0.0002
          55    0.0002   -0.0001   -0.0002    0.0004   -0.2339   -0.2513
          56    0.0001   -0.0000    0.0000   -0.0000    0.0046    0.0049
          57   -0.0003    0.0002    0.0004   -0.0006    0.4056    0.3943
          58    0.0002   -0.0001   -0.0002    0.0004   -0.2440    0.2600
          59    0.0001   -0.0000    0.0000   -0.0000    0.0034   -0.0036
          60    0.0002   -0.0002   -0.0004    0.0006   -0.4009    0.3873


           MASS-WEIGHTED COORDINATE ANALYSIS (NORMAL COORDINATES)


   Root No.       1         2         3         4         5         6         7         8

                 1 A       2 A       3 A       4 A       5 A       6 A       7 A       8 A   

                  45.1      98.2     123.7     202.2     272.7     299.5     354.7     387.7
  
           1   -0.0026   -0.0025   -0.0159   -0.0006   -0.1759    0.0027   -0.0005    0.0081
           2   -0.0010    0.0003    0.2041    0.0029   -0.1683    0.0022    0.0003   -0.0003
           3    0.3978    0.3481    0.0018    0.1134   -0.0027   -0.1380    0.0132    0.0189
           4   -0.0017    0.0000    0.0056    0.0015   -0.1076    0.0003   -0.0001   -0.0015
           5    0.0011    0.0006   -0.2079   -0.0007    0.2438   -0.0043   -0.0005    0.0047
           6   -0.2551   -0.1168   -0.0014    0.2791   -0.0021   -0.3259    0.0293   -0.0171
           7   -0.0029   -0.0013    0.1575    0.0019   -0.2977    0.0034    0.0001    0.0022
           8   -0.0008   -0.0006    0.0860    0.0011   -0.0692    0.0016   -0.0002    0.0036
           9    0.0738   -0.1794   -0.0046    0.0306    0.0090    0.4227   -0.0461    0.2912
          10    0.0007    0.0002   -0.1790   -0.0012   -0.0055   -0.0012   -0.0005    0.0078
          11   -0.0007   -0.0007    0.0970   -0.0012   -0.0486    0.0020   -0.0002   -0.0034
          12    0.1608   -0.0334    0.0058   -0.3834   -0.0010    0.1761   -0.0434   -0.3824
          13   -0.0029   -0.0013    0.1541    0.0018   -0.2765    0.0031    0.0000    0.0019
          14    0.0002   -0.0004   -0.1106   -0.0007    0.1435   -0.0027   -0.0004    0.0067
          15   -0.2285   -0.3814   -0.0047    0.0709   -0.0003   -0.2765    0.0739   -0.3636
          16    0.0007    0.0001   -0.1756   -0.0011   -0.0102   -0.0011   -0.0004    0.0068
          17    0.0005   -0.0004   -0.0966   -0.0018    0.1722   -0.0023   -0.0003    0.0047
          18   -0.1523   -0.2548    0.0037   -0.0671   -0.0004   -0.1710    0.0375    0.4788
          19   -0.0020    0.0026    0.0108    0.0027   -0.0944    0.0040   -0.0012   -0.0037
          20    0.0017    0.0013   -0.3250    0.0000    0.0708   -0.0013    0.0001   -0.0062
          21   -0.3181    0.2763   -0.0030    0.4484    0.0056    0.3019   -0.1606   -0.1466
          22   -0.0011    0.0045    0.0124   -0.0034    0.3044   -0.0038   -0.0015   -0.0064
          23    0.0011    0.0012   -0.3275   -0.0025   -0.2143    0.0014    0.0001   -0.0056
          24   -0.3157    0.4120    0.0001   -0.3148   -0.0005   -0.0193   -0.1959    0.0187
          25    0.0080   -0.0029    0.0253    0.0009    0.3444   -0.0047   -0.0015   -0.0084
          26   -0.0017   -0.0012    0.5904    0.0034    0.1855   -0.0008   -0.0000    0.0006
          27    0.4711   -0.2191    0.0007    0.0505   -0.0058   -0.0380   -0.1647   -0.0018
          28    0.0033    0.0014    0.0140   -0.0022    0.3215   -0.0032    0.0085   -0.0071
          29    0.0000    0.0000   -0.0487   -0.0017   -0.3322    0.0038    0.0013   -0.0057
          30    0.0640    0.1381    0.0008   -0.2010   -0.0014    0.0640    0.6876    0.0579
          31   -0.0899   -0.1513   -0.0053   -0.1086   -0.0488    0.2057   -0.0322   -0.0401
          32   -0.0095   -0.0155    0.0846    0.0503   -0.0729    0.0346   -0.0006    0.1143
          33    0.1817    0.2135    0.0009    0.1144   -0.0024   -0.1961    0.0283    0.0377
          34    0.0875    0.1482   -0.0040    0.1071   -0.0545   -0.2020    0.0315    0.0445
          35    0.0088    0.0162    0.0873   -0.0470   -0.0758   -0.0334    0.0011   -0.1142
          36    0.1829    0.2154    0.0009    0.1163   -0.0033   -0.1987    0.0288    0.0393
          37   -0.0010   -0.0003    0.0860    0.0010   -0.1263    0.0017    0.0001   -0.0006
          38   -0.0003   -0.0002    0.0489    0.0006   -0.0435    0.0009    0.0000    0.0003
          39    0.0285   -0.1053   -0.0025   -0.0191    0.0061    0.3386   -0.0445    0.2205
          40    0.0009    0.0005   -0.0900   -0.0008    0.0439   -0.0009   -0.0003    0.0024
          41   -0.0004   -0.0006    0.0507   -0.0013   -0.0411    0.0018   -0.0001   -0.0023
          42    0.0747   -0.0320    0.0031   -0.2694   -0.0000    0.1643   -0.0329   -0.2803
          43   -0.0006    0.0010   -0.0102    0.0018   -0.0954    0.0032   -0.0005   -0.0018
          44    0.0005    0.0005   -0.1003    0.0007   -0.0192    0.0009   -0.0000   -0.0021
          45   -0.0956    0.1351   -0.0012    0.2650    0.0045    0.2755   -0.0814   -0.0200
          46   -0.0011   -0.0006    0.0686    0.0005   -0.0814    0.0009   -0.0000   -0.0000
          47    0.0002    0.0000   -0.0473   -0.0002    0.0434   -0.0008   -0.0001    0.0022
          48   -0.1330   -0.2020   -0.0021   -0.0135   -0.0007   -0.1143    0.0252   -0.2459
          49    0.0008    0.0002   -0.0902   -0.0009    0.0278   -0.0007   -0.0002    0.0033
          50    0.0001   -0.0006   -0.0515   -0.0013    0.0674   -0.0009   -0.0001    0.0038
          51   -0.0937   -0.1526    0.0018   -0.0750    0.0006   -0.0490    0.0209    0.3482
          52   -0.0010    0.0022   -0.0044   -0.0029    0.1187   -0.0028   -0.0030   -0.0007
          53    0.0003    0.0005   -0.0975   -0.0007   -0.0418    0.0001   -0.0002   -0.0014
          54   -0.1721    0.1883    0.0010   -0.3154   -0.0011   -0.1472   -0.3046    0.0854
          55    0.0862   -0.0768    0.0090    0.0565    0.1030   -0.0328   -0.2690   -0.0198
          56   -0.0405    0.0476    0.2532   -0.2149    0.1199   -0.1430   -0.1997    0.1254
          57    0.1887   -0.1111    0.0003    0.0523   -0.0010   -0.0290   -0.2149   -0.0129
[...]
 FREQ.      1226.58         C  8 -- H 18         +18.5% ( 50.9%)      1.4%
 T-DIPOLE    0.0583         C  3 -- H 13         +18.0% ( 50.1%)      0.5%
 TRAVEL      0.1366         C  7 -- H 15          +9.5% ( 36.5%)      8.8%
 RED. MASS   0.2230         C  6 -- H 17          +7.0% ( 31.3%)      0.1%
 EFF. MASS   2.9462

 VIBRATION   34   34A         ATOM PAIR      ENERGY CONTRIBUTION    RADIAL
 FREQ.      1267.03         C  7 -- C  8         +15.2% ( 47.5%)     81.8%
 T-DIPOLE    0.0204         C  6 -- H 17          +9.5% ( 37.5%)      0.2%
 TRAVEL      0.1053         C  4 -- H 14          +7.6% ( 33.6%)      2.3%
 RED. MASS   0.2883         C  2 -- C  7          +7.1% ( 32.5%)     15.9%
 EFF. MASS   4.7987

 VIBRATION   35   35A         ATOM PAIR      ENERGY CONTRIBUTION    RADIAL
 FREQ.      1306.64         C  9 -- H 20         +12.7% ( 43.6%)      3.4%
 T-DIPOLE    0.0516         C  9 -- H 19         +12.7% ( 43.6%)      3.4%
 TRAVEL      0.1109         C  5 -- H 16         +11.1% ( 40.7%)      0.4%
 RED. MASS   0.2543         C  8 -- H 18          +9.8% ( 38.4%)      9.8%
 EFF. MASS   4.1982

 VIBRATION   36   36A         ATOM PAIR      ENERGY CONTRIBUTION    RADIAL
 FREQ.      1344.96         C  1 -- H 11         +21.7% ( 48.9%)      3.8%
 T-DIPOLE    0.1176         C  1 -- H 12         +21.7% ( 48.9%)      3.8%
 TRAVEL      0.1342         C  5 -- H 16         +14.1% ( 39.5%)      1.8%
 RED. MASS   0.2693         C  1 -- C  4          +4.8% ( 23.0%)      4.9%
 EFF. MASS   2.7822

 VIBRATION   37   37A         ATOM PAIR      ENERGY CONTRIBUTION    RADIAL
 FREQ.      1390.48         C  1 -- C  4         +11.8% ( 45.7%)     76.6%
 T-DIPOLE    0.1067         C  5 -- H 16          +9.9% ( 41.9%)      0.6%
 TRAVEL      0.0889         C  1 -- C  3          +9.8% ( 41.6%)     56.2%
 RED. MASS   0.5503         C  1 -- H 11          +9.5% ( 41.0%)      8.4%
 EFF. MASS   6.1424

 VIBRATION   38   38A         ATOM PAIR      ENERGY CONTRIBUTION    RADIAL
 FREQ.      1419.08         C  1 -- C  3         +18.2% ( 64.1%)     67.6%
 T-DIPOLE    0.0748         C  1 -- C  4         +17.6% ( 63.0%)     66.2%
 TRAVEL      0.0720         C  1 -- H 12         +15.3% ( 58.8%)      0.0%
 RED. MASS   2.4861         C  1 -- H 11         +15.3% ( 58.8%)      0.0%
 EFF. MASS   9.1625

 VIBRATION   39   39A         ATOM PAIR      ENERGY CONTRIBUTION    RADIAL
 FREQ.      1525.09         C  2 -- C  6         +20.4% ( 68.4%)     85.1%
 T-DIPOLE    0.1340         C  2 -- C  5         +19.1% ( 66.3%)     75.3%
 TRAVEL      0.0619         C  2 -- C  7         +11.7% ( 51.8%)      0.3%
 RED. MASS   2.5227         C  1 -- C  4          +6.8% ( 39.6%)     94.8%
 EFF. MASS  11.5300

 VIBRATION   40   40A         ATOM PAIR      ENERGY CONTRIBUTION    RADIAL
 FREQ.      1536.88         C  7 -- C  8         +21.3% ( 73.0%)     90.7%
 T-DIPOLE    0.1359         C  8 -- H 18         +16.5% ( 64.2%)      0.1%
 TRAVEL      0.0628         C  8 -- C 10         +13.1% ( 57.3%)     72.3%
 RED. MASS   2.9907         C  9 -- C 10         +10.8% ( 51.9%)     99.8%
 EFF. MASS  11.1424

 VIBRATION   41   41A         ATOM PAIR      ENERGY CONTRIBUTION    RADIAL
 FREQ.      1845.22         C  2 -- C  7         +31.1% ( 82.5%)     98.2%
 T-DIPOLE    0.4260         C  7 -- C  8         +11.7% ( 50.5%)     57.5%
 TRAVEL      0.0555         C  3 -- C  5         +11.0% ( 49.0%)     99.6%
 RED. MASS   3.1650         C  2 -- C  5         +10.8% ( 48.5%)     18.3%
 EFF. MASS  11.8833         C  7 -- H 15         +10.2% ( 47.3%)      3.1%

 VIBRATION   42   42A         ATOM PAIR      ENERGY CONTRIBUTION    RADIAL
 FREQ.      1857.17         C  4 -- C  6         +29.6% ( 80.8%)    100.0%
 T-DIPOLE    0.1218         C  3 -- C  5         +13.4% ( 54.3%)    100.0%
 TRAVEL      0.0552         C  2 -- C  6          +9.8% ( 46.4%)     69.0%
 RED. MASS   2.9829         C  1 -- C  4          +9.6% ( 46.0%)     60.9%
 EFF. MASS  11.9218

 VIBRATION   43   43A         ATOM PAIR      ENERGY CONTRIBUTION    RADIAL
 FREQ.      1882.06         C  3 -- C  5         +19.5% ( 65.6%)     99.9%
 T-DIPOLE    0.9226         C  2 -- C  5         +13.4% ( 54.4%)     39.5%
 TRAVEL      0.0550         C  4 -- C  6         +12.2% ( 51.9%)     99.9%
 RED. MASS   2.0604         C  2 -- C  7         +11.1% ( 49.4%)     99.7%
 EFF. MASS  11.8447         C  2 -- C  6         +10.4% ( 48.0%)     34.7%

 VIBRATION   44   44A         ATOM PAIR      ENERGY CONTRIBUTION    RADIAL
 FREQ.      2247.36         C  8 -- C 10         +42.1% ( 85.3%)     99.8%
 T-DIPOLE    0.9956         C  9 -- C 10         +42.0% ( 85.1%)    100.0%
 TRAVEL      0.0503         C  7 -- C  8          +4.3% ( 27.1%)     40.6%
 RED. MASS   5.8394         C  8 -- H 18          +4.2% ( 27.1%)      4.5%
 EFF. MASS  11.8507

 VIBRATION   45   45A         ATOM PAIR      ENERGY CONTRIBUTION    RADIAL
 FREQ.      2927.15         C  1 -- H 11         +49.3% ( 72.8%)     96.6%
 T-DIPOLE    0.0642         C  1 -- H 12         +48.6% ( 72.3%)     96.5%
 TRAVEL      0.1226         C  1 -- C  4          +1.1% ( 10.7%)      0.0%
 RED. MASS   0.5172         C  1 -- C  3          +1.1% ( 10.7%)      0.0%
 EFF. MASS   1.5328

 VIBRATION   46   46A         ATOM PAIR      ENERGY CONTRIBUTION    RADIAL
 FREQ.      2976.59         C  8 -- H 18         +87.5% ( 95.1%)    100.0%
 T-DIPOLE    0.2840         C  5 -- H 16          +8.7% ( 30.1%)    100.0%
 TRAVEL      0.1220         C  8 -- C 10          +1.5% ( 12.3%)     39.5%
 RED. MASS   0.7674         C  7 -- C  8          +1.3% ( 11.6%)     17.0%
 EFF. MASS   1.5225

 VIBRATION   47   47A         ATOM PAIR      ENERGY CONTRIBUTION    RADIAL
 FREQ.      3006.44         C  1 -- H 12         +42.2% ( 64.3%)     97.8%
 T-DIPOLE    0.2555         C  1 -- H 11         +41.6% ( 63.8%)     97.7%
 TRAVEL      0.1310         C  5 -- H 16         +12.7% ( 35.3%)    100.0%
 RED. MASS   0.3698         C  8 -- H 18          +1.3% ( 11.4%)    100.0%
 EFF. MASS   1.3076

 VIBRATION   48   48A         ATOM PAIR      ENERGY CONTRIBUTION    RADIAL
 FREQ.      3007.24         C  5 -- H 16         +73.7% ( 86.8%)    100.0%
 T-DIPOLE    0.2049         C  8 -- H 18          +7.3% ( 27.3%)    100.0%
 TRAVEL      0.1230         C  1 -- H 12          +6.2% ( 25.2%)     97.7%
 RED. MASS   0.5437         C  1 -- H 11          +6.1% ( 25.0%)     97.6%
 EFF. MASS   1.4832

 VIBRATION   49   49A         ATOM PAIR      ENERGY CONTRIBUTION    RADIAL
 FREQ.      3039.28         C  7 -- H 15         +88.0% ( 95.2%)    100.0%
 T-DIPOLE    0.4245         C  6 -- H 17          +6.7% ( 26.3%)    100.0%
 TRAVEL      0.1212         C  4 -- H 14          +1.9% ( 14.1%)     99.9%
 RED. MASS   0.7680         C  2 -- C  7          +1.3% ( 11.7%)     34.3%
 EFF. MASS   1.5099

 VIBRATION   50   50A         ATOM PAIR      ENERGY CONTRIBUTION    RADIAL
 FREQ.      3042.17         C  6 -- H 17         +63.8% ( 81.1%)    100.0%
 T-DIPOLE    0.1694         C  4 -- H 14         +24.9% ( 50.7%)     99.9%
 TRAVEL      0.1227         C  7 -- H 15          +8.5% ( 29.6%)    100.0%
 RED. MASS   0.4669         C  4 -- C  6          +1.1% ( 10.5%)      3.0%
 EFF. MASS   1.4733

 VIBRATION   51   51A         ATOM PAIR      ENERGY CONTRIBUTION    RADIAL
 FREQ.      3059.78         C  3 -- H 13         +84.1% ( 93.1%)    100.0%
 T-DIPOLE    0.3681         C  4 -- H 14          +6.8% ( 26.5%)     99.9%
 TRAVEL      0.1196         C  6 -- H 17          +3.0% ( 17.5%)     99.9%
 RED. MASS   0.7063         C  5 -- H 16          +2.6% ( 16.4%)     98.7%
 EFF. MASS   1.5398

 VIBRATION   52   52A         ATOM PAIR      ENERGY CONTRIBUTION    RADIAL
 FREQ.      3064.08         C  4 -- H 14         +62.7% ( 80.4%)    100.0%
 T-DIPOLE    0.3181         C  6 -- H 17         +23.5% ( 49.1%)     99.8%
 TRAVEL      0.1178         C  3 -- H 13          +9.1% ( 30.6%)    100.0%
 RED. MASS   0.4564         C  4 -- C  6          +1.8% ( 13.5%)     91.5%
 EFF. MASS   1.5851

 VIBRATION   53   53A         ATOM PAIR      ENERGY CONTRIBUTION    RADIAL
 FREQ.      3116.83         C  9 -- H 20         +49.2% ( 70.2%)     95.2%
 T-DIPOLE    0.4482         C  9 -- H 19         +49.0% ( 70.1%)     95.2%
 TRAVEL      0.1238         C  9 -- C 10          +1.8% ( 13.3%)    100.0%
 RED. MASS   0.4859
 EFF. MASS   1.4122

 VIBRATION   54   54A         ATOM PAIR      ENERGY CONTRIBUTION    RADIAL
 FREQ.      3121.23         C  9 -- H 19         +49.5% ( 72.0%)     97.1%
 T-DIPOLE    0.2445         C  9 -- H 20         +49.3% ( 71.9%)     97.1%
 TRAVEL      0.1164         C  9 -- C 10          +1.2% ( 11.2%)      0.0%
 RED. MASS   0.5332
 EFF. MASS   1.5939

      SYMMETRY NUMBER FOR POINT-GROUP C1  =  1


          SYSTEM IS A GROUND STATE



 InChI=1S/C10H10/c1-2-3-7-10-8-5-4-6-9-10/h3,5-9H,1,4H2


          MOLECULE IS NOT LINEAR

          THERE ARE 54 GENUINE VIBRATIONS IN THIS SYSTEM
          THIS THERMODYNAMICS CALCULATION IS LIMITED TO
          MOLECULES WHICH HAVE NO INTERNAL ROTATIONS




                    CALCULATED THERMODYNAMIC PROPERTIES
                                          *
   TEMP. (K)   PARTITION FUNCTION   H.O.F.    ENTHALPY  HEAT CAPACITY ENTROPY
                                   KCAL/MOL   CAL/MOLE    CAL/K/MOL  CAL/K/MOL


 298.00  VIB.     0.2426D+03                  4008.4639    29.3553    24.3639
         ROT.     0.7084D+06                   888.2813     2.9808    29.7501
         INT.     0.1719D+09                  4896.7452    32.3361    54.1139
         TRA.     0.1436D+28                  1480.4688     4.9680    40.5022
         TOT.                       85.088    6377.2140    37.3042    94.6161

 200.00  VIB.     0.2813D+02                  1686.9417    18.1559    15.0657
         ROT.     0.3895D+06                   596.1620     2.9808    28.5614
         INT.     0.1096D+08                  2283.1037    21.1368    43.6271
         TRA.     0.7896D+27                   993.6033     4.9680    38.5210
         TOT.                       81.987    3276.7069    26.1048    82.1481

 210.00  VIB.     0.3481D+02                  1873.9434    19.2475    15.9778
         ROT.     0.4191D+06                   625.9700     2.9808    28.7068
         INT.     0.1459D+08                  2499.9134    22.2283    44.6847
         TRA.     0.8496D+27                  1043.2834     4.9680    38.7634
         TOT.                       82.254    3543.1968    27.1963    83.4481

 220.00  VIB.     0.4314D+02                  2071.9512    20.3569    16.8988
         ROT.     0.4494D+06                   655.7781     2.9808    28.8455
         INT.     0.1939D+08                  2727.7293    23.3377    45.7443
         TRA.     0.9110D+27                  1092.9636     4.9680    38.9945
         TOT.                       82.531    3820.6929    28.3057    84.7388

 230.00  VIB.     0.5355D+02                  2281.1342    21.4822    17.8284
         ROT.     0.4804D+06                   685.5862     2.9808    28.9780
         INT.     0.2573D+08                  2966.7204    24.4630    46.8065
         TRA.     0.9738D+27                  1142.6437     4.9680    39.2154
         TOT.                       82.820    4109.3642    29.4310    86.0218

 240.00  VIB.     0.6658D+02                  2501.6396    22.6210    18.7667
         ROT.     0.5120D+06                   715.3943     2.9808    29.1049
         INT.     0.3409D+08                  3217.0339    25.6018    47.8716
         TRA.     0.1038D+28                  1192.3239     4.9680    39.4268
         TOT.                       83.120    4409.3578    30.5698    87.2984

 250.00  VIB.     0.8291D+02                  2733.5900    23.7707    19.7134
         ROT.     0.5444D+06                   745.2024     2.9808    29.2266
         INT.     0.4513D+08                  3478.7925    26.7515    48.9400
         TRA.     0.1103D+28                  1242.0041     4.9680    39.6296
         TOT.                       83.432    4720.7965    31.7195    88.5696

 260.00  VIB.     0.1034D+03                  2977.0813    24.9287    20.6683
         ROT.     0.5773D+06                   775.0105     2.9808    29.3435
         INT.     0.5970D+08                  3752.0919    27.9095    50.0117
         TRA.     0.1170D+28                  1291.6842     4.9680    39.8245
         TOT.                       83.755    5043.7761    32.8775    89.8362

 270.00  VIB.     0.1292D+03                  3232.1817    26.0921    21.6309
         ROT.     0.6110D+06                   804.8186     2.9808    29.4560
         INT.     0.7891D+08                  4037.0004    29.0729    51.0869
         TRA.     0.1239D+28                  1341.3644     4.9680    40.0120
         TOT.                       84.089    5378.3648    34.0409    91.0988

 280.00  VIB.     0.1616D+03                  3498.9316    27.2581    22.6009
         ROT.     0.6452D+06                   834.6267     2.9808    29.5644
         INT.     0.1042D+09                  4333.5584    30.2389    52.1652
         TRA.     0.1308D+28                  1391.0445     4.9680    40.1926
         TOT.                       84.435    5724.6029    35.2070    92.3579

 290.00  VIB.     0.2024D+03                  3777.3443    28.4242    23.5777
         ROT.     0.6801D+06                   864.4348     2.9808    29.6690
         INT.     0.1376D+09                  4641.7791    31.4050    53.2467
         TRA.     0.1379D+28                  1440.7247     4.9680    40.3670
         TOT.                       84.793    6082.5039    36.3730    93.6137

 300.00  VIB.     0.2539D+03                  4067.4070    29.5877    24.5610
         ROT.     0.7156D+06                   894.2429     2.9808    29.7700
         INT.     0.1817D+09                  4961.6499    32.5685    54.3310
         TRA.     0.1451D+28                  1490.4049     4.9680    40.5354
         TOT.                       85.163    6452.0548    37.5365    94.8664

 310.00  VIB.     0.3189D+03                  4369.0824    30.7464    25.5501
         ROT.     0.7516D+06                   924.0510     2.9808    29.8678
         INT.     0.2397D+09                  5293.1334    33.7272    55.4178
         TRA.     0.1524D+28                  1540.0850     4.9680    40.6983
         TOT.                       85.544    6833.2184    38.6952    96.1161

 320.00  VIB.     0.4012D+03                  4682.3107    31.8980    26.5444
         ROT.     0.7883D+06                   953.8591     2.9808    29.9624
         INT.     0.3163D+09                  5636.1698    34.8788    56.5068
         TRA.     0.1598D+28                  1589.7652     4.9680    40.8560
         TOT.                       85.937    7225.9350    39.8468    97.3629

 330.00  VIB.     0.5053D+03                  5007.0116    33.0406    27.5435
         ROT.     0.8256D+06                   983.6672     2.9808    30.0541
         INT.     0.4172D+09                  5990.6788    36.0214    57.5976
         TRA.     0.1674D+28                  1639.4454     4.9680    41.0089
         TOT.                       86.341    7630.1242    40.9894    98.6065

 340.00  VIB.     0.6373D+03                  5343.0862    34.1724    28.5467
         ROT.     0.8634D+06                  1013.4753     2.9808    30.1431
         INT.     0.5502D+09                  6356.5615    37.1532    58.6898
         TRA.     0.1750D+28                  1689.1255     4.9680    41.1572
         TOT.                       86.756    8045.6870    42.1213    99.8470

 350.00  VIB.     0.8046D+03                  5690.4193    35.2920    29.5535
         ROT.     0.9017D+06                  1043.2834     2.9808    30.2295
         INT.     0.7255D+09                  6733.7027    38.2728    59.7830
         TRA.     0.1828D+28                  1738.8057     4.9680    41.3012
         TOT.                       87.183    8472.5084    43.2409   101.0842

 360.00  VIB.     0.1017D+04                  6048.8816    36.3981    30.5632
         ROT.     0.9406D+06                  1073.0915     2.9808    30.3135
         INT.     0.9567D+09                  7121.9731    39.3789    60.8767
         TRA.     0.1907D+28                  1788.4859     4.9680    41.4412
         TOT.                       87.621    8910.4590    44.3469   102.3179

 370.00  VIB.     0.1287D+04                  6418.3315    37.4894    31.5754
         ROT.     0.9801D+06                  1102.8996     2.9808    30.3952
         INT.     0.1261D+10                  7521.2311    40.4702    61.9706
         TRA.     0.1987D+28                  1838.1660     4.9680    41.5773
         TOT.                       88.070    9359.3972    45.4382   103.5478

 380.00  VIB.     0.1630D+04                  6798.6172    38.5651    32.5895
         ROT.     0.1020D+07                  1132.7077     2.9808    30.4747
         INT.     0.1663D+10                  7931.3249    41.5459    63.0641
         TRA.     0.2068D+28                  1887.8462     4.9680    41.7098
         TOT.                       88.530    9819.1711    46.5139   104.7739

 390.00  VIB.     0.2067D+04                  7189.5784    39.6244    33.6050
         ROT.     0.1061D+07                  1162.5158     2.9808    30.5521
         INT.     0.2192D+10                  8352.0942    42.6052    64.1570
         TRA.     0.2150D+28                  1937.5263     4.9680    41.8388
         TOT.                       89.000   10289.6206    47.5732   105.9959

 400.00  VIB.     0.2623D+04                  7591.0480    40.6667    34.6213
         ROT.     0.1102D+07                  1192.3239     2.9808    30.6276
         INT.     0.2890D+10                  8783.3719    43.6475    65.2489
         TRA.     0.2233D+28                  1987.2065     4.9680    41.9646
         TOT.                       89.481   10770.5784    48.6155   107.2135

   *: NOTE: HEATS OF FORMATION ARE RELATIVE TO THE
            ELEMENTS IN THEIR STANDARD STATE AT 298K
              (=  Standard Enthalpy of Formation).

            Hvib:  Zero-point energy is not included.
                   frequencies of less than zero cm-1 are not included.
            Hrot = (3/2)RT
            Htra = (3/2)RT + pV = (5/2)RT

            Heat capacity is Cp, not Cv

          For more information, see: HTTP://OpenMOPAC.net/Manual/thermochemistry.html


           FORCE CONSTANT IN CARTESIAN COORDINATES (Millidynes/A)

    ATOM   CHEMICAL       X               Y               Z
   NUMBER   SYMBOL  FORCE CONSTANT  FORCE CONSTANT  FORCE CONSTANT

      1       C        9.011775        9.449472        7.602967
      2       C       15.414359       10.815225        2.442318
      3       C       15.136436        9.644073        2.377202
      4       C       15.116248        9.641691        2.377159
      5       C       15.447152        9.995928        2.223942
      6       C       15.335126       10.158922        2.219041
      7       C       14.851248       10.152058        2.127003
      8       C       15.915198        9.235638        2.064796
      9       C       15.941243        1.857444        8.394876
     10       C       24.509771        1.861710        1.618982
     11       H        2.028917        0.661836        3.464291
     12       H        2.084947        0.664656        3.409815
     13       H        1.881569        4.023913        0.348456
     14       H        1.888480        4.016432        0.348758
     15       H        1.802632        4.072265        0.338101
     16       H        2.044245        3.840958        0.367036
     17       H        1.913313        3.981110        0.349347
     18       H        1.756998        3.975163        0.340915
     19       H        1.892976        0.298877        4.066045
     20       H        1.993596        0.298909        3.965687

 **********************
 *                    *
 * JOB ENDED NORMALLY *
 *                    *
 **********************



 TOTAL JOB TIME:             7.36 SECONDS

 == MOPAC DONE ==
