 *******************************************************************************
 ** Site#: 14399        For non-commercial use only    Version 18.184L 64BITS **
 *******************************************************************************
 ** Cite this program as: MOPAC2016, Version: 18.184L, James J. P. Stewart,   **
 ** Stewart Computational Chemistry, web: HTTP://OpenMOPAC.net. Days left:  20**
 *******************************************************************************
 **                                                                           **
 **                                MOPAC2016                                  **
 **                                                                           **
 *******************************************************************************

                              PM3 CALCULATION RESULTS

 *******************************************************************************
 *  CALCULATION DONE:                                Thu Jun 13 19:03:23 2019  *
 *  PM3        - The PM3 Hamiltonian to be used
 *  PRECISE    - CRITERIA TO BE INCREASED BY 100 TIMES
 *  NOSYM      - POINT-GROUP SYMMETRY SET TO C1
 *  THREADS=1  - MULTI-THREADING NOT USED
 *  T=         - A TIME OF 172800.0 SECONDS REQUESTED
 *  DUMP=N     - RESTART FILE WRITTEN EVERY  7200.000 SECONDS
 *******************************************************************************
pm3  precise nosym THREADS=1
 InChI=1S/C7H10/c1-7-5-3-2-4-6-7/h3,5,7H,4,6H2,1H3/lp2

   ATOM   CHEMICAL          X               Y               Z
  NUMBER   SYMBOL      (ANGSTROMS)     (ANGSTROMS)     (ANGSTROMS)
 
     1       C          0.54630000  *  -0.23560000  *   0.44690000  *
     2       C         -0.61930000  *  -0.94840000  *  -0.27220000  *
     3       C         -1.92620000  *  -0.17880000  *  -0.08460000  *
     4       C          1.88880000  *  -0.80390000  *  -0.02180000  *
     5       C          0.52050000  *   1.26880000  *   0.25300000  *
     6       C         -0.55490000  *   1.92630000  *  -0.21320000  *
     7       C         -1.79190000  *   1.21500000  *  -0.69260000  *
     8       H          0.45620000  *  -0.43030000  *   1.53830000  *
     9       H         -0.73590000  *  -1.97570000  *   0.13640000  *
    10       H         -0.40710000  *  -1.03550000  *  -1.36170000  *
    11       H         -2.75410000  *  -0.71620000  *  -0.59310000  *
    12       H         -2.17060000  *  -0.09550000  *   0.99680000  *
    13       H          2.72110000  *  -0.34740000  *   0.55570000  *
    14       H          1.91690000  *  -1.90260000  *   0.14130000  *
    15       H          2.04640000  *  -0.59610000  *  -1.10230000  *
    16       H          1.37810000  *   1.84940000  *   0.58150000  *
    17       H         -0.51440000  *   3.00640000  *  -0.30830000  *
 


          CARTESIAN COORDINATES 

    NO.       ATOM           X           Y           Z

     1         C          0.5463     -0.2356      0.4469
     2         C         -0.6193     -0.9484     -0.2722
     3         C         -1.9262     -0.1788     -0.0846
     4         C          1.8888     -0.8039     -0.0218
     5         C          0.5205      1.2688      0.2530
     6         C         -0.5549      1.9263     -0.2132
     7         C         -1.7919      1.2150     -0.6926
     8         H          0.4562     -0.4303      1.5383
     9         H         -0.7359     -1.9757      0.1364
    10         H         -0.4071     -1.0355     -1.3617
    11         H         -2.7541     -0.7162     -0.5931
    12         H         -2.1706     -0.0955      0.9968
    13         H          2.7211     -0.3474      0.5557
    14         H          1.9169     -1.9026      0.1413
    15         H          2.0464     -0.5961     -1.1023
    16         H          1.3781      1.8494      0.5815
    17         H         -0.5144      3.0064     -0.3083

  H: (PM3): J. J. P. STEWART, J. COMP. CHEM. 10, 209 (1989).
  C: (PM3): J. J. P. STEWART, J. COMP. CHEM. 10, 209 (1989).

           Empirical Formula: C7 H10  =    17 atoms



      MOLECULAR POINT GROUP   :   C1  


      RHF CALCULATION, NO. OF DOUBLY OCCUPIED LEVELS = 19


          Geometry optimization using EF

          DIAGONAL MATRIX USED AS START HESSIAN

 CYCLE:     1 TIME:   0.023 TIME LEFT:  2.00D  GRAD.:    99.113 HEAT:  87.17092
 CYCLE:     2 TIME:   0.039 TIME LEFT:  2.00D  GRAD.:    58.508 HEAT:  83.87948
 CYCLE:     3 TIME:   0.023 TIME LEFT:  2.00D  GRAD.:    33.949 HEAT:  82.82616
 CYCLE:     4 TIME:   0.031 TIME LEFT:  2.00D  GRAD.:    33.240 HEAT:  82.57594
 CYCLE:     5 TIME:   0.023 TIME LEFT:  2.00D  GRAD.:    20.219 HEAT:  82.18445
 CYCLE:     6 TIME:   0.023 TIME LEFT:  2.00D  GRAD.:    40.321 HEAT:  82.15739
 CYCLE:     7 TIME:   0.023 TIME LEFT:  2.00D  GRAD.:    41.819 HEAT:  82.08646
 CYCLE:     8 TIME:   0.016 TIME LEFT:  2.00D  GRAD.:    38.651 HEAT:  81.90563
 CYCLE:     9 TIME:   0.031 TIME LEFT:  2.00D  GRAD.:    19.436 HEAT:  81.55861
 CYCLE:    10 TIME:   0.031 TIME LEFT:  2.00D  GRAD.:    14.713 HEAT:  81.47396
 CYCLE:    11 TIME:   0.023 TIME LEFT:  2.00D  GRAD.:    10.206 HEAT:  81.37762
 CYCLE:    12 TIME:   0.031 TIME LEFT:  2.00D  GRAD.:    11.433 HEAT:  81.27668
 CYCLE:    13 TIME:   0.023 TIME LEFT:  2.00D  GRAD.:    14.990 HEAT:  81.15435
 CYCLE:    14 TIME:   0.016 TIME LEFT:  2.00D  GRAD.:    12.696 HEAT:  80.94168
 CYCLE:    15 TIME:   0.023 TIME LEFT:  2.00D  GRAD.:    18.810 HEAT:  80.66455
 CYCLE:    16 TIME:   0.023 TIME LEFT:  2.00D  GRAD.:    21.706 HEAT:  80.45788
 CYCLE:    17 TIME:   0.023 TIME LEFT:  2.00D  GRAD.:    21.202 HEAT:  80.23225
 CYCLE:    18 TIME:   0.023 TIME LEFT:  2.00D  GRAD.:    23.804 HEAT:  80.13627
 CYCLE:    19 TIME:   0.023 TIME LEFT:  2.00D  GRAD.:    13.089 HEAT:  79.87069
 CYCLE:    20 TIME:   0.031 TIME LEFT:  2.00D  GRAD.:    16.344 HEAT:  79.79800
 CYCLE:    21 TIME:   0.016 TIME LEFT:  2.00D  GRAD.:    13.212 HEAT:  79.61690
 CYCLE:    22 TIME:   0.023 TIME LEFT:  2.00D  GRAD.:    12.612 HEAT:  79.51381
 CYCLE:    23 TIME:   0.023 TIME LEFT:  2.00D  GRAD.:     8.686 HEAT:  79.38511
 CYCLE:    24 TIME:   0.023 TIME LEFT:  2.00D  GRAD.:     8.340 HEAT:  79.28234
 CYCLE:    25 TIME:   0.023 TIME LEFT:  2.00D  GRAD.:     8.986 HEAT:  79.21043
 CYCLE:    26 TIME:   0.023 TIME LEFT:  2.00D  GRAD.:     8.079 HEAT:  79.16589
 CYCLE:    27 TIME:   0.023 TIME LEFT:  2.00D  GRAD.:     5.084 HEAT:  79.12494
 CYCLE:    28 TIME:   0.023 TIME LEFT:  2.00D  GRAD.:     4.585 HEAT:  79.10495
 CYCLE:    29 TIME:   0.023 TIME LEFT:  2.00D  GRAD.:     4.345 HEAT:  79.08914
 CYCLE:    30 TIME:   0.023 TIME LEFT:  2.00D  GRAD.:     3.255 HEAT:  79.07148
 CYCLE:    31 TIME:   0.016 TIME LEFT:  2.00D  GRAD.:     3.231 HEAT:  79.06579
 CYCLE:    32 TIME:   0.023 TIME LEFT:  2.00D  GRAD.:     1.574 HEAT:  79.05847
 CYCLE:    33 TIME:   0.023 TIME LEFT:  2.00D  GRAD.:     1.328 HEAT:  79.05367
 CYCLE:    34 TIME:   0.023 TIME LEFT:  2.00D  GRAD.:     2.156 HEAT:  79.04502
 CYCLE:    35 TIME:   0.023 TIME LEFT:  2.00D  GRAD.:     2.490 HEAT:  79.03706
 CYCLE:    36 TIME:   0.023 TIME LEFT:  2.00D  GRAD.:     2.752 HEAT:  79.02639
 CYCLE:    37 TIME:   0.023 TIME LEFT:  2.00D  GRAD.:     2.296 HEAT:  79.01484
 CYCLE:    38 TIME:   0.023 TIME LEFT:  2.00D  GRAD.:     1.727 HEAT:  79.00455
 CYCLE:    39 TIME:   0.023 TIME LEFT:  2.00D  GRAD.:     1.316 HEAT:  79.00000
 CYCLE:    40 TIME:   0.023 TIME LEFT:  2.00D  GRAD.:     1.165 HEAT:  78.99675
 CYCLE:    41 TIME:   0.023 TIME LEFT:  2.00D  GRAD.:     1.283 HEAT:  78.99285
 CYCLE:    42 TIME:   0.023 TIME LEFT:  2.00D  GRAD.:     1.125 HEAT:  78.98989
 CYCLE:    43 TIME:   0.023 TIME LEFT:  2.00D  GRAD.:     0.889 HEAT:  78.98797
 CYCLE:    44 TIME:   0.016 TIME LEFT:  2.00D  GRAD.:     0.741 HEAT:  78.98674
 CYCLE:    45 TIME:   0.023 TIME LEFT:  2.00D  GRAD.:     0.763 HEAT:  78.98539
 CYCLE:    46 TIME:   0.023 TIME LEFT:  2.00D  GRAD.:     0.784 HEAT:  78.98398
 CYCLE:    47 TIME:   0.023 TIME LEFT:  2.00D  GRAD.:     0.536 HEAT:  78.98290
 CYCLE:    48 TIME:   0.023 TIME LEFT:  2.00D  GRAD.:     0.299 HEAT:  78.98247
 CYCLE:    49 TIME:   0.023 TIME LEFT:  2.00D  GRAD.:     0.234 HEAT:  78.98233
 CYCLE:    50 TIME:   0.023 TIME LEFT:  2.00D  GRAD.:     0.220 HEAT:  78.98223
 CYCLE:    51 TIME:   0.023 TIME LEFT:  2.00D  GRAD.:     0.187 HEAT:  78.98213
 CYCLE:    52 TIME:   0.023 TIME LEFT:  2.00D  GRAD.:     0.141 HEAT:  78.98204
 CYCLE:    53 TIME:   0.023 TIME LEFT:  2.00D  GRAD.:     0.094 HEAT:  78.98200
 CYCLE:    54 TIME:   0.023 TIME LEFT:  2.00D  GRAD.:     0.066 HEAT:  78.98198
 CYCLE:    55 TIME:   0.062 TIME LEFT:  2.00D  GRAD.:     0.052 HEAT:  78.98198
 CYCLE:    56 TIME:   0.023 TIME LEFT:  2.00D  GRAD.:     0.054 HEAT:  78.98197
 CYCLE:    57 TIME:   0.023 TIME LEFT:  2.00D  GRAD.:     0.049 HEAT:  78.98196

     GRADIENT =  0.04928  IS LESS THAN CUTOFF =  0.05000



 -------------------------------------------------------------------------------
 pm3  precise nosym THREADS=1
 InChI=1S/C7H10/c1-7-5-3-2-4-6-7/h3,5,7H,4,6H2,1H3/lp2



     GEOMETRY OPTIMISED USING EIGENVECTOR FOLLOWING (EF).     
     SCF FIELD WAS ACHIEVED                                   


                              PM3 CALCULATION
                                                       MOPAC2016 (Version: 18.184L)
                                                       Thu Jun 13 19:03:25 2019
                                                       No. of days remaining =  20




          FINAL HEAT OF FORMATION =         78.98196 KCAL/MOL =     330.46052 KJ/MOL


          TOTAL ENERGY            =       -980.38471 EV
          ELECTRONIC ENERGY       =      -4580.54334 EV  POINT GROUP:     C1  
          CORE-CORE REPULSION     =       3600.15863 EV
          COSMO AREA              =        143.58 SQUARE ANGSTROMS
          COSMO VOLUME            =        139.23 CUBIC ANGSTROMS

          GRADIENT NORM           =          0.04928 = 0.01195 PER ATOM
          IONIZATION POTENTIAL    =          8.392122 EV
          HOMO LUMO ENERGIES (EV) =         -8.392 -1.007
          NO. OF FILLED LEVELS    =         19
          MOLECULAR WEIGHT        =         94.1560

          MOLECULAR DIMENSIONS (Angstroms)

            Atom       Atom       Distance
            H    13    H    11     5.57585
            H    17    H     9     4.95212
            H    15    H    12     3.02618


          SCF CALCULATIONS        =         64
 
          WALL-CLOCK TIME         =          1.445 SECONDS
          COMPUTATION TIME        =          0.465 SECONDS




   ATOM   CHEMICAL          X               Y               Z
  NUMBER   SYMBOL      (ANGSTROMS)     (ANGSTROMS)     (ANGSTROMS)
 
     1       C          0.54724761  *  -0.19888585  *   0.41336098  *
     2       C         -0.58091808  *  -0.91646036  *  -0.33035664  *
     3       C         -1.90239503  *  -0.18165408  *  -0.16437133  *
     4       C          1.88958698  *  -0.83673242  *   0.09732072  *
     5       C          0.55067663  *   1.25595766  *   0.07404952  *
     6       C         -0.58779281  *   1.90009195  *  -0.24405232  *
     7       C         -1.87190059  *   1.27195962  *  -0.16384535  *
     8       H          0.36308737  *  -0.27600763  *   1.51500126  *
     9       H         -0.66688085  *  -1.95812614  *   0.03340145  *
    10       H         -0.32500770  *  -0.99515002  *  -1.40589896  *
    11       H         -2.63711455  *  -0.48254613  *  -0.93925036  *
    12       H         -2.38885867  *  -0.42526680  *   0.80591923  *
    13       H          2.70343595  *  -0.35936907  *   0.65869599  *
    14       H          1.88871938  *  -1.90325452  *   0.35721380  *
    15       H          2.13541205  *  -0.75855265  *  -0.97015748  *
    16       H          1.51548195  *   1.77563969  *   0.11954756  *
    17       H         -0.58679204  *   2.96350345  *  -0.51021629  *

                             CARTESIAN COORDINATES

   1    C        0.547247607    -0.198885850     0.413360984
   2    C       -0.580918085    -0.916460357    -0.330356643
   3    C       -1.902395026    -0.181654081    -0.164371330
   4    C        1.889586975    -0.836732419     0.097320717
   5    C        0.550676627     1.255957659     0.074049524
   6    C       -0.587792812     1.900091950    -0.244052322
   7    C       -1.871900587     1.271959616    -0.163845350
   8    H        0.363087371    -0.276007629     1.515001258
   9    H       -0.666880847    -1.958126137     0.033401448
  10    H       -0.325007695    -0.995150021    -1.405898957
  11    H       -2.637114550    -0.482546128    -0.939250356
  12    H       -2.388858673    -0.425266802     0.805919231
  13    H        2.703435947    -0.359369073     0.658695994
  14    H        1.888719380    -1.903254518     0.357213797
  15    H        2.135412047    -0.758552654    -0.970157483
  16    H        1.515481948     1.775639694     0.119547556
  17    H       -0.586792042     2.963503453    -0.510216293


           Empirical Formula: C7 H10  =    17 atoms



      MOLECULAR POINT GROUP   :   C1  


                  EIGENVALUES  
 -40.72859 -32.36055 -30.58980 -25.08650 -22.04129 -20.78812 -17.75451 -16.71617
 -15.89367 -15.10458 -14.86262 -14.23299 -13.54174 -13.31588 -12.80227 -12.41587
 -11.75726 -10.62935  -8.39212  -1.00658   1.55968   2.81258   3.09417   3.33607
   3.37168   3.63528   3.64470   3.82602   3.89911   3.98807   4.20240   4.36571
   4.44649   4.48833   4.64163   4.85712   5.42207   5.95594


              NET ATOMIC CHARGES AND DIPOLE CONTRIBUTIONS

  ATOM NO.   TYPE          CHARGE      No. of ELECS.   s-Pop       p-Pop       
    1          C          -0.074282        4.0743     1.16741     2.90687
    2          C          -0.108641        4.1086     1.16392     2.94472
    3          C          -0.192984        4.1930     1.17471     3.01828
    4          C          -0.105795        4.1058     1.14023     2.96556
    5          C          -0.017767        4.0178     1.20958     2.80818
    6          C          -0.243771        4.2438     1.21174     3.03203
    7          C          -0.013703        4.0137     1.64893     2.36478
    8          H           0.079291        0.9207     0.92071
    9          H           0.056513        0.9435     0.94349
   10          H           0.057958        0.9420     0.94204
   11          H           0.106314        0.8937     0.89369
   12          H           0.105524        0.8945     0.89448
   13          H           0.042118        0.9579     0.95788
   14          H           0.045059        0.9549     0.95494
   15          H           0.045147        0.9549     0.95485
   16          H           0.097883        0.9021     0.90212
   17          H           0.121137        0.8789     0.87886
 DIPOLE           X         Y         Z       TOTAL
 POINT-CHG.     0.775    -0.739     0.301     1.112
 HYBRID         1.706    -1.002    -0.038     1.979
 SUM            2.481    -1.741     0.263     3.042


          ATOMIC ORBITAL ELECTRON POPULATIONS

     Atom    s        px        py        pz   
    1  C   1.16741   0.96551   0.93773   1.00363
    2  C   1.16392   0.95254   0.98464   1.00754
    3  C   1.17471   0.96791   1.02710   1.02327
    4  C   1.14023   0.95035   1.00215   1.01306
    5  C   1.20958   0.97270   0.94794   0.88755
    6  C   1.21174   0.97222   1.02695   1.03286
    7  C   1.64893   1.13477   0.96683   0.26318
    8  H   0.92071
    9  H   0.94349
   10  H   0.94204
   11  H   0.89369
   12  H   0.89448
   13  H   0.95788
   14  H   0.95494
   15  H   0.95485
   16  H   0.90212
   17  H   0.87886
 *******************************************************************************
 ** Site#: 14399        For non-commercial use only    Version 18.184L 64BITS **
 *******************************************************************************
 ** Cite this program as: MOPAC2016, Version: 18.184L, James J. P. Stewart,   **
 ** Stewart Computational Chemistry, web: HTTP://OpenMOPAC.net. Days left:  20**
 *******************************************************************************
 **                                                                           **
 **                                MOPAC2016                                  **
 **                                                                           **
 *******************************************************************************

                              PM3 CALCULATION RESULTS

 *******************************************************************************
 *  CALCULATION DONE:                                Thu Jun 13 19:03:25 2019  *
 *  PM3        - The PM3 Hamiltonian to be used
 *  OLDGEO     - PREVIOUS GEOMETRY TO BE USED
 *  PRECISE    - CRITERIA TO BE INCREASED BY 100 TIMES
 *  NOSYM      - POINT-GROUP SYMMETRY SET TO C1
 *  THREADS=1  - MULTI-THREADING NOT USED
 *  T=         - A TIME OF 172800.0 SECONDS REQUESTED
 *  DUMP=N     - RESTART FILE WRITTEN EVERY  7200.000 SECONDS
 *  THERMO     - THERMODYNAMIC QUANTITIES TO BE CALCULATED
 *******************************************************************************
oldgeo thermo nosym precise THREADS=1  pm3
 InChI=1S/C7H10/c1-7-5-3-2-4-6-7/h3,5,7H,4,6H2,1H3/lp2

   ATOM   CHEMICAL          X               Y               Z
  NUMBER   SYMBOL      (ANGSTROMS)     (ANGSTROMS)     (ANGSTROMS)
 
     1       C          0.54724761  *  -0.19888585  *   0.41336098  *
     2       C         -0.58091808  *  -0.91646036  *  -0.33035664  *
     3       C         -1.90239503  *  -0.18165408  *  -0.16437133  *
     4       C          1.88958698  *  -0.83673242  *   0.09732072  *
     5       C          0.55067663  *   1.25595766  *   0.07404952  *
     6       C         -0.58779281  *   1.90009195  *  -0.24405232  *
     7       C         -1.87190059  *   1.27195962  *  -0.16384535  *
     8       H          0.36308737  *  -0.27600763  *   1.51500126  *
     9       H         -0.66688085  *  -1.95812614  *   0.03340145  *
    10       H         -0.32500770  *  -0.99515002  *  -1.40589896  *
    11       H         -2.63711455  *  -0.48254613  *  -0.93925036  *
    12       H         -2.38885867  *  -0.42526680  *   0.80591923  *
    13       H          2.70343595  *  -0.35936907  *   0.65869599  *
    14       H          1.88871938  *  -1.90325452  *   0.35721380  *
    15       H          2.13541205  *  -0.75855265  *  -0.97015748  *
    16       H          1.51548195  *   1.77563969  *   0.11954756  *
    17       H         -0.58679204  *   2.96350345  *  -0.51021629  *
 


          CARTESIAN COORDINATES 

    NO.       ATOM           X           Y           Z

     1         C          0.5472     -0.1989      0.4134
     2         C         -0.5809     -0.9165     -0.3304
     3         C         -1.9024     -0.1817     -0.1644
     4         C          1.8896     -0.8367      0.0973
     5         C          0.5507      1.2560      0.0740
     6         C         -0.5878      1.9001     -0.2441
     7         C         -1.8719      1.2720     -0.1638
     8         H          0.3631     -0.2760      1.5150
     9         H         -0.6669     -1.9581      0.0334
    10         H         -0.3250     -0.9952     -1.4059
    11         H         -2.6371     -0.4825     -0.9393
    12         H         -2.3889     -0.4253      0.8059
    13         H          2.7034     -0.3594      0.6587
    14         H          1.8887     -1.9033      0.3572
    15         H          2.1354     -0.7586     -0.9702
    16         H          1.5155      1.7756      0.1195
    17         H         -0.5868      2.9635     -0.5102

  H: (PM3): J. J. P. STEWART, J. COMP. CHEM. 10, 209 (1989).
  C: (PM3): J. J. P. STEWART, J. COMP. CHEM. 10, 209 (1989).

           Empirical Formula: C7 H10  =    17 atoms



      MOLECULAR POINT GROUP   :   C1  


      RHF CALCULATION, NO. OF DOUBLY OCCUPIED LEVELS = 19



          HEAT OF FORMATION =      78.981961 KCALS/MOLE


          CARTESIAN COORDINATE DERIVATIVES

   NUMBER  ATOM         X            Y            Z

     1       C      0.003893     0.000987    -0.002136
     2       C      0.015288     0.007206    -0.007905
     3       C      0.007265     0.015497    -0.001529
     4       C      0.008455    -0.001608    -0.009877
     5       C     -0.000706    -0.008800    -0.002236
     6       C      0.005046    -0.005482    -0.002229
     7       C     -0.000447     0.008621     0.001436
     8       H     -0.003333     0.000120    -0.001548
     9       H     -0.001518    -0.005330    -0.001638
    10       H     -0.010074     0.001743     0.001705
    11       H     -0.000955    -0.006210     0.001266
    12       H     -0.008207    -0.006681     0.000943
    13       H      0.000599    -0.004387     0.004633
    14       H      0.010634     0.008825     0.005748
    15       H     -0.020673     0.000019     0.006955
    16       H     -0.012455     0.002047     0.007404
    17       H      0.007189    -0.006567    -0.000991
 


          GRADIENT NORM =   0.04914


          TIME FOR SCF CALCULATION =    0.02

          TIME FOR DERIVATIVES     =    0.01

          MOLECULAR WEIGHT =   94.16



          ROTATIONAL CONSTANTS IN CM(-1)

          A =    0.15870786   B =    0.08295188   C =    0.05834807



           PRINCIPAL MOMENTS OF INERTIA IN UNITS OF 10**(-40)*GRAM-CM**2

          A =      176.3793   B =      337.4580   C =      479.7549


          ORIENTATION OF MOLECULE IN FORCE CALCULATION

    NO.       ATOM         X         Y         Z

     1          C      -0.5757   -0.6871   -0.4730
     2          C       0.9543   -0.6871   -0.4730
     3          C       1.5034    0.7315   -0.4730
     4          C      -1.1127   -2.0971   -0.2938
     5          C      -1.0956    0.2249    0.5898
     6          C      -0.4036    1.3140    0.9734
     7          C       0.7989    1.7288    0.3162
     8          H      -0.9392   -0.2858   -1.4530
     9          H       1.3294   -1.2492   -1.3494
    10          H       1.3253   -1.2357    0.4157
    11          H       2.5630    0.7592   -0.1454
    12          H       1.5047    1.1715   -1.4947
    13          H      -2.2096   -2.1177   -0.3358
    14          H      -0.7382   -2.7633   -1.0817
    15          H      -0.8117   -2.5270    0.6709
    16          H      -2.0729   -0.0211    1.0227
    17          H      -0.7737    1.9761    1.7649


    FIRST DERIVATIVES WILL BE USED IN THE CALCULATION OF SECOND DERIVATIVES

          ESTIMATED TIME TO COMPLETE CALCULATION =        6.38 SECONDS

    FOR POINT-GROUP C1   THERE ARE   1 UNIQUE SYMMETRY FUNCTIONS.

 STEP:   1 TIME =     0.05 SECS, INTEGRAL =      0.05 TIME LEFT: 172799.92
 STEP:   2 TIME =     0.03 SECS, INTEGRAL =      0.08 TIME LEFT: 172799.89
 STEP:   3 TIME =     0.03 SECS, INTEGRAL =      0.11 TIME LEFT: 172799.86
 STEP:   4 TIME =     0.03 SECS, INTEGRAL =      0.14 TIME LEFT: 172799.83
 STEP:   5 TIME =     0.03 SECS, INTEGRAL =      0.17 TIME LEFT: 172799.80
 STEP:   6 TIME =     0.02 SECS, INTEGRAL =      0.20 TIME LEFT: 172799.77
 STEP:   7 TIME =     0.04 SECS, INTEGRAL =      0.23 TIME LEFT: 172799.73
 STEP:   8 TIME =     0.03 SECS, INTEGRAL =      0.27 TIME LEFT: 172799.70
 STEP:   9 TIME =     0.04 SECS, INTEGRAL =      0.30 TIME LEFT: 172799.66
 STEP:  10 TIME =     0.04 SECS, INTEGRAL =      0.34 TIME LEFT: 172799.62
 STEP:  11 TIME =     0.04 SECS, INTEGRAL =      0.38 TIME LEFT: 172799.59
 STEP:  12 TIME =     0.03 SECS, INTEGRAL =      0.41 TIME LEFT: 172799.55
 STEP:  13 TIME =     0.05 SECS, INTEGRAL =      0.46 TIME LEFT: 172799.51
 STEP:  14 TIME =     0.04 SECS, INTEGRAL =      0.50 TIME LEFT: 172799.47
 STEP:  15 TIME =     0.03 SECS, INTEGRAL =      0.53 TIME LEFT: 172799.44
 STEP:  16 TIME =     0.03 SECS, INTEGRAL =      0.56 TIME LEFT: 172799.41
 STEP:  17 TIME =     0.03 SECS, INTEGRAL =      0.59 TIME LEFT: 172799.38
 STEP:  18 TIME =     0.03 SECS, INTEGRAL =      0.62 TIME LEFT: 172799.34
 STEP:  19 TIME =     0.03 SECS, INTEGRAL =      0.66 TIME LEFT: 172799.31
 STEP:  20 TIME =     0.03 SECS, INTEGRAL =      0.69 TIME LEFT: 172799.28
 STEP:  21 TIME =     0.03 SECS, INTEGRAL =      0.72 TIME LEFT: 172799.25
 STEP:  22 TIME =     0.03 SECS, INTEGRAL =      0.75 TIME LEFT: 172799.22
 STEP:  23 TIME =     0.02 SECS, INTEGRAL =      0.77 TIME LEFT: 172799.20
 STEP:  24 TIME =     0.03 SECS, INTEGRAL =      0.80 TIME LEFT: 172799.16
 STEP:  25 TIME =     0.03 SECS, INTEGRAL =      0.84 TIME LEFT: 172799.13
 STEP:  26 TIME =     0.02 SECS, INTEGRAL =      0.86 TIME LEFT: 172799.11
 STEP:  27 TIME =     0.03 SECS, INTEGRAL =      0.89 TIME LEFT: 172799.08
 STEP:  28 TIME =     0.02 SECS, INTEGRAL =      0.91 TIME LEFT: 172799.05
 STEP:  29 TIME =     0.03 SECS, INTEGRAL =      0.95 TIME LEFT: 172799.02
 STEP:  30 TIME =     0.03 SECS, INTEGRAL =      0.98 TIME LEFT: 172798.99
 STEP:  31 TIME =     0.03 SECS, INTEGRAL =      1.01 TIME LEFT: 172798.96
 STEP:  32 TIME =     0.03 SECS, INTEGRAL =      1.04 TIME LEFT: 172798.93
 STEP:  33 TIME =     0.03 SECS, INTEGRAL =      1.07 TIME LEFT: 172798.90
 STEP:  34 TIME =     0.03 SECS, INTEGRAL =      1.10 TIME LEFT: 172798.87
 STEP:  35 TIME =     0.03 SECS, INTEGRAL =      1.13 TIME LEFT: 172798.84
 STEP:  36 TIME =     0.02 SECS, INTEGRAL =      1.16 TIME LEFT: 172798.81
 STEP:  37 TIME =     0.02 SECS, INTEGRAL =      1.18 TIME LEFT: 172798.79
 STEP:  38 TIME =     0.03 SECS, INTEGRAL =      1.21 TIME LEFT: 172798.76
 STEP:  39 TIME =     0.02 SECS, INTEGRAL =      1.23 TIME LEFT: 172798.73
 STEP:  40 TIME =     0.03 SECS, INTEGRAL =      1.27 TIME LEFT: 172798.70
 STEP:  41 TIME =     0.02 SECS, INTEGRAL =      1.29 TIME LEFT: 172798.68
 STEP:  42 TIME =     0.03 SECS, INTEGRAL =      1.32 TIME LEFT: 172798.65
 STEP:  43 TIME =     0.02 SECS, INTEGRAL =      1.34 TIME LEFT: 172798.62
 STEP:  44 TIME =     0.03 SECS, INTEGRAL =      1.38 TIME LEFT: 172798.59
 STEP:  45 TIME =     0.04 SECS, INTEGRAL =      1.41 TIME LEFT: 172798.55
 STEP:  46 TIME =     0.04 SECS, INTEGRAL =      1.45 TIME LEFT: 172798.52
 STEP:  47 TIME =     0.03 SECS, INTEGRAL =      1.48 TIME LEFT: 172798.48
 STEP:  48 TIME =     0.03 SECS, INTEGRAL =      1.52 TIME LEFT: 172798.45
 STEP:  49 TIME =     0.03 SECS, INTEGRAL =      1.55 TIME LEFT: 172798.42
 STEP:  50 TIME =     0.03 SECS, INTEGRAL =      1.58 TIME LEFT: 172798.39
 STEP:  51 TIME =     0.04 SECS, INTEGRAL =      1.62 TIME LEFT: 172798.35

(To convert to Hartree/Bohr^2, multiply by (10^(-21) x N x a0^2)/(4.184 x 627.51) =  0.0642)


           FORCE MATRIX IN MILLIDYNES/ANGSTROM


                  C  1       C  2       C  3       C  4       C  5       C  6
 ------------------------------------------------------------------------------
     C    1  14.616381
     C    2   3.834598  14.285664
     C    3   0.649978   4.037425  14.328029
     C    4   4.194363   0.645286   0.045237  14.382774
     C    5   4.642155   0.712066   0.101937   0.702921  17.571201
     C    6   0.854111   0.062423   0.919464   0.057031   9.664009  17.391515
     C    7   0.128168   0.731242   5.537612   0.033188   1.313925   5.709771
     H    8   4.139400   0.427689   0.017757   0.422153   0.379285   0.044099
     H    9   0.444998   4.506951   0.434774   0.022996   0.053408   0.017019
     H   10   0.447728   4.457763   0.431488   0.037172   0.015320   0.009858
     H   11   0.044701   0.428696   4.404714   0.008465   0.018780   0.071500
     H   12   0.018080   0.430942   4.305560   0.003254   0.022799   0.080724
     H   13   0.456213   0.048552   0.007815   4.740305   0.034252   0.008824
     H   14   0.453780   0.027343   0.002202   4.748657   0.050163   0.009523
     H   15   0.465566   0.023346   0.002800   4.731859   0.021005   0.007459
     H   16   0.439707   0.038243   0.019110   0.043283   4.810106   0.475589
     H   17   0.121488   0.008220   0.056237   0.011247   0.454627   4.811615


                  C  7       H  8       H  9       H 10       H 11       H 12
 ------------------------------------------------------------------------------
     C    7  10.641023
     H    8   0.030966   4.607875
     H    9   0.054602   0.031343   5.119076
     H   10   0.017849   0.044019   0.572384   5.066092
     H   11   0.328539   0.001922   0.016355   0.037225   5.012747
     H   12   0.310979   0.008744   0.034076   0.040414   0.582377   4.920065
     H   13   0.007549   0.030548   0.001211   0.002136   0.001588   0.000652
     H   14   0.006080   0.027855   0.016915   0.002278   0.000744   0.000593
     H   15   0.006559   0.045405   0.001362   0.023186   0.000486   0.000715
     H   16   0.120031   0.015640   0.007413   0.002208   0.002164   0.006330
     H   17   0.403850   0.017318   0.001316   0.001059   0.008799   0.002796


                  H 13       H 14       H 15       H 16       H 17
 ------------------------------------------------------------------
     H   13   5.475421
     H   14   0.567887   5.479213
     H   15   0.570229   0.572027   5.467022
     H   16   0.024752   0.002233   0.004780   5.169770
     H   17   0.000538   0.001802   0.000772   0.065746   5.169350


          HEAT OF FORMATION =      78.981961 KCALS/MOLE

          ZERO POINT ENERGY      91.729 KCAL/MOL


           NORMAL COORDINATE ANALYSIS (Total motion = 1 Angstrom)


   Root No.       1         2         3         4         5         6         7         8

                 1 A       2 A       3 A       4 A       5 A       6 A       7 A       8 A   

                 125.4     175.4     193.6     303.2     351.5     455.8     501.0     540.8
  
           1   -0.0091   -0.0029   -0.0074   -0.0048   -0.0361   -0.0360   -0.0069   -0.0042
           2   -0.0025   -0.0011    0.0039   -0.0095    0.0227   -0.0265    0.0372    0.0028
           3   -0.0178    0.0021    0.0025    0.0325    0.0026   -0.0313   -0.0438    0.0423
           4   -0.0094   -0.0027   -0.0070   -0.0073   -0.0369   -0.0351   -0.0075    0.0106
           5    0.0089   -0.0005    0.0019   -0.0055    0.0024    0.0363   -0.0012    0.0519
           6   -0.0494   -0.0103   -0.0343   -0.0105    0.0159    0.0183    0.0048    0.0048
           7    0.0031    0.0109    0.0205   -0.0040    0.0012    0.0090    0.0097    0.0665
           8    0.0029   -0.0056   -0.0073   -0.0076   -0.0200    0.0294   -0.0164    0.0308
           9    0.0077    0.0195    0.0306    0.0052   -0.0060    0.0117    0.0027   -0.0407
          10    0.0182    0.0060    0.0002    0.0062    0.0574   -0.0237    0.0198   -0.0157
          11   -0.0062   -0.0048    0.0007   -0.0204   -0.0153   -0.0397    0.0451    0.0035
          12    0.0516    0.0034    0.0056   -0.0262   -0.0185    0.0020    0.0154    0.0036
          13   -0.0190   -0.0031    0.0079    0.0092   -0.0257    0.0257    0.0021   -0.0624
          14    0.0177    0.0025   -0.0096   -0.0032    0.0281   -0.0196   -0.0366   -0.0209
          15   -0.0412   -0.0018    0.0210    0.0324    0.0049   -0.0097    0.0221    0.0211
          16   -0.0084   -0.0091   -0.0024   -0.0247    0.0171    0.0274   -0.0254   -0.0094
          17   -0.0035    0.0095    0.0047    0.0453    0.0013   -0.0120   -0.0074   -0.0403
          18   -0.0025   -0.0118   -0.0033   -0.0421    0.0118   -0.0273   -0.0267   -0.0276
          19    0.0286   -0.0024   -0.0220    0.0337    0.0088    0.0353    0.0021    0.0126
          20   -0.0190    0.0022    0.0109   -0.0001   -0.0103    0.0467   -0.0222   -0.0444
          21    0.0561   -0.0032   -0.0324    0.0293   -0.0129    0.0157    0.0056    0.0004
          22   -0.0346   -0.0149   -0.0309   -0.0254   -0.0476   -0.0534   -0.0035   -0.0116
          23   -0.0430   -0.0025    0.0099    0.0192    0.0187   -0.0536    0.0536    0.0129
          24   -0.0245    0.0059    0.0140    0.0501    0.0063   -0.0335   -0.0352    0.0479
          25   -0.0278   -0.0140   -0.0348   -0.0349   -0.0379    0.0214    0.0190   -0.0229
          26    0.0490    0.0179    0.0485    0.0189   -0.0311    0.0068   -0.0404    0.0083
          27   -0.0834   -0.0270   -0.0766   -0.0389    0.0368    0.0635    0.0423    0.0197
          28    0.0109    0.0043    0.0081    0.0223   -0.0625   -0.0817   -0.0614    0.0299
          29   -0.0329   -0.0238   -0.0570   -0.0305    0.0177    0.0774    0.0218    0.0920
          30   -0.0833   -0.0272   -0.0770   -0.0387    0.0376    0.0650    0.0432    0.0214
          31    0.0098   -0.0030   -0.0180    0.0173   -0.0046    0.0042    0.0234    0.0551
          32   -0.0273   -0.0182   -0.0270   -0.0286   -0.0415   -0.0220   -0.0292    0.0148
          33   -0.0111    0.0670    0.1612   -0.0651    0.0163    0.0349   -0.0444    0.0043
          34   -0.0096    0.0628    0.1587   -0.0693    0.0353    0.0544   -0.0357    0.1286
          35    0.0547   -0.0025   -0.0137    0.0294   -0.0395    0.0237    0.0042    0.0325
          36    0.0296    0.0212    0.0293    0.0192   -0.0135    0.0108    0.0102   -0.0378
          37    0.0191   -0.0031    0.0031    0.0084    0.0610   -0.0241    0.0191   -0.0164
          38   -0.0330    0.0163   -0.0142   -0.0340   -0.1064   -0.0507    0.0208    0.0265
          39    0.0425    0.2226   -0.0624   -0.0699   -0.0274    0.0140    0.0545   -0.0163
          40    0.0407   -0.1645    0.0580    0.0460    0.1213   -0.0254    0.0091   -0.0175
          41   -0.0406    0.0497   -0.0157    0.0112    0.0287   -0.0541    0.0066    0.0208
          42    0.0916   -0.1235    0.0470   -0.0349   -0.0271    0.0137    0.0445   -0.0116
          43    0.0183    0.1923   -0.0550   -0.0246    0.0869   -0.0121    0.0598   -0.0407
          44    0.0527   -0.0856    0.0305   -0.0493   -0.0084   -0.0175    0.1100   -0.0313
          45    0.0780   -0.0905    0.0361   -0.0300   -0.0243    0.0084    0.0339   -0.0051
          46   -0.0448   -0.0030    0.0261    0.0313   -0.0354    0.0647    0.0667   -0.0832
          47    0.0443    0.0051   -0.0293   -0.0227    0.0538   -0.0379   -0.1263    0.0140
          48   -0.0826    0.0004    0.0507    0.0714   -0.0050    0.0689    0.1171   -0.0068
          49   -0.0285   -0.0167    0.0074   -0.0699    0.0530    0.0218   -0.0237    0.0034
          50   -0.0043    0.0187    0.0062    0.0993    0.0017   -0.0472   -0.0038    0.0074
          51   -0.0109   -0.0230   -0.0001   -0.1077    0.0284    0.0005   -0.0292   -0.0610


   Root No.       9        10        11        12        13        14        15        16

                 9 A      10 A      11 A      12 A      13 A      14 A      15 A      16 A   

                 647.4     773.8     800.5     904.9     919.0     944.2     960.6     991.6
  
           1    0.0114   -0.0097    0.0005   -0.0191   -0.0091   -0.0069   -0.0164   -0.0026
           2   -0.0032   -0.0042   -0.0038    0.0052   -0.0005    0.0050    0.0058    0.0024
           3   -0.0066   -0.0232   -0.0010   -0.0188   -0.0046    0.0018    0.0105   -0.0103
           4   -0.0022    0.0000    0.0192    0.0172    0.0258    0.0262    0.0092    0.0110
           5   -0.0065    0.0175   -0.0018   -0.0045   -0.0157   -0.0360   -0.0070   -0.0098
           6   -0.0117   -0.0161   -0.0081    0.0257   -0.0208   -0.0315   -0.0009   -0.0185
           7   -0.0354    0.0424    0.0143    0.0103   -0.0243    0.0251    0.0065    0.0025
           8    0.0056   -0.0006    0.0005    0.0109    0.0026    0.0065    0.0036   -0.0008
           9   -0.0523    0.0102   -0.0117   -0.0086    0.0146   -0.0041    0.0019    0.0052
          10    0.0027   -0.0120   -0.0079   -0.0182   -0.0078   -0.0162   -0.0217    0.0129
          11    0.0017   -0.0253   -0.0216   -0.0136   -0.0022   -0.0053    0.0230   -0.0023
          12   -0.0007   -0.0028    0.0002   -0.0113   -0.0054   -0.0029    0.0282    0.0083
          13    0.0260    0.0320   -0.0194   -0.0053   -0.0185   -0.0174    0.0231   -0.0379
          14    0.0000    0.0091    0.0373    0.0058    0.0021   -0.0042   -0.0021    0.0195
          15    0.0044    0.0107   -0.0161    0.0048    0.0196    0.0162   -0.0284    0.0008
          16   -0.0143   -0.0096   -0.0322    0.0026    0.0191   -0.0165    0.0038    0.0152
          17    0.0224    0.0279    0.0419    0.0026   -0.0069    0.0034   -0.0095   -0.0197
          18    0.0187    0.0433   -0.0007    0.0102   -0.0213    0.0052   -0.0030    0.0242
          19    0.0091   -0.0307   -0.0033    0.0031    0.0088    0.0017   -0.0052    0.0036
          20   -0.0208   -0.0374   -0.0271   -0.0074   -0.0109    0.0531   -0.0108    0.0212
          21    0.0357   -0.0188    0.0089    0.0055   -0.0054    0.0118   -0.0003    0.0003
          22   -0.0012   -0.0560    0.0288    0.0302   -0.0175   -0.0270   -0.0707    0.0048
          23    0.0059   -0.0197   -0.0632    0.0245    0.0278    0.0683   -0.0248   -0.1077
          24    0.0020   -0.0105   -0.0344   -0.0271    0.0123    0.0377    0.0171   -0.0578
          25    0.0338    0.0541    0.0248   -0.0217    0.1090    0.0528    0.0143    0.0682
          26   -0.0876   -0.0303   -0.0260    0.0708   -0.0420   -0.1221   -0.0138   -0.0198
          27    0.0580    0.0412    0.0104   -0.0417    0.0352    0.0356    0.0072    0.0115
          28   -0.0261   -0.0706    0.0237    0.0646   -0.0033   -0.0182   -0.0033   -0.0431
          29    0.0819    0.0668    0.0267   -0.0844    0.0504    0.0199   -0.0007   -0.0108
          30    0.0559    0.0455    0.0076   -0.0476    0.0337    0.0236    0.0077    0.0042
          31   -0.0973    0.0665    0.0099    0.0026   -0.0548    0.0489   -0.0025    0.0092
          32    0.0067   -0.0073    0.0150    0.1258    0.1144   -0.0666    0.0904    0.0123
          33    0.1687   -0.0729    0.0055    0.0075    0.1012   -0.0721    0.0215   -0.0178
          34    0.1961   -0.0425    0.0276    0.0036   -0.0509    0.0391   -0.0206   -0.0085
          35   -0.0632    0.0788    0.0308   -0.0994    0.1314   -0.0585    0.0065   -0.0612
          36   -0.0733    0.0412    0.0016   -0.0564    0.0716   -0.0322    0.0034   -0.0213
          37    0.0024   -0.0124   -0.0078   -0.0166   -0.0069   -0.0138   -0.0139    0.0109
          38    0.0126   -0.0349   -0.0200   -0.1064   -0.0455   -0.0985   -0.1339    0.0771
          39   -0.0001    0.0080   -0.0093    0.0385    0.0157    0.0215   -0.0359   -0.0298
          40   -0.0047   -0.0167   -0.0086    0.0062    0.0070    0.0238    0.1198   -0.0184
          41   -0.0081   -0.0439   -0.0126   -0.0486   -0.0144   -0.0006    0.2106    0.0136
          42    0.0042    0.0109   -0.0089    0.0306    0.0124    0.0118   -0.0692   -0.0213
          43   -0.0011   -0.0052   -0.0180    0.0537    0.0239    0.0376    0.0087   -0.0510
          44    0.0063   -0.0059   -0.0452    0.0797    0.0389    0.0414   -0.0929   -0.0821
          45    0.0025    0.0039   -0.0080    0.0105    0.0043    0.0030   -0.0353   -0.0096
          46    0.0156   -0.0056    0.1041    0.0120   -0.0343   -0.0515    0.0487    0.0360
          47   -0.0073    0.0385   -0.1161   -0.0024    0.0687    0.0188   -0.0434   -0.0447
          48   -0.0215   -0.0583    0.1740    0.0391    0.0201   -0.0437    0.0062    0.1323
          49   -0.0853   -0.0576    0.1576   -0.0224    0.0971   -0.0436   -0.0709   -0.0649
          50    0.0611    0.1121   -0.0922    0.0516    0.0457   -0.0699   -0.0339    0.0984
          51   -0.0467   -0.0487    0.2008   -0.0417   -0.0295    0.0556   -0.0191   -0.1104


   Root No.      17        18        19        20        21        22        23        24

                17 A      18 A      19 A      20 A      21 A      22 A      23 A      24 A   

                1004.0    1040.0    1074.0    1099.7    1107.0    1126.9    1150.2    1154.2
  
           1   -0.0037    0.0019    0.0087    0.0161   -0.0167    0.0027   -0.0178   -0.0121
           2    0.0029   -0.0043   -0.0021    0.0263    0.0005   -0.0129    0.0062    0.0290
           3   -0.0076   -0.0140    0.0158   -0.0126   -0.0118   -0.0020   -0.0264   -0.0307
           4    0.0016    0.0085    0.0154   -0.0113    0.0141    0.0048    0.0148    0.0251
           5    0.0037    0.0160    0.0249   -0.0091   -0.0306   -0.0190   -0.0001    0.0087
           6   -0.0067    0.0030   -0.0015    0.0022    0.0322    0.0115    0.0030    0.0159
           7    0.0075   -0.0151   -0.0189    0.0012    0.0048    0.0012   -0.0052   -0.0116
           8   -0.0011   -0.0062   -0.0175    0.0140    0.0184    0.0246    0.0047   -0.0257
           9    0.0079   -0.0028    0.0055   -0.0089   -0.0306    0.0015    0.0071   -0.0005
          10    0.0138   -0.0121   -0.0067   -0.0050    0.0119    0.0020    0.0062    0.0005
          11   -0.0027    0.0085   -0.0067   -0.0313    0.0026    0.0150   -0.0116   -0.0162
          12    0.0057    0.0084   -0.0062    0.0265    0.0002   -0.0056    0.0181    0.0119
          13    0.0066   -0.0025   -0.0057   -0.0061    0.0004    0.0029    0.0126   -0.0106
          14   -0.0089   -0.0116    0.0154   -0.0013    0.0020   -0.0059   -0.0049   -0.0024
          15    0.0105    0.0265   -0.0286   -0.0028    0.0053   -0.0181   -0.0041    0.0157
          16   -0.0092   -0.0072    0.0078    0.0011   -0.0037   -0.0013    0.0010   -0.0028
          17    0.0101    0.0088   -0.0099   -0.0023    0.0032   -0.0074   -0.0053    0.0073
          18   -0.0138   -0.0044    0.0040    0.0021    0.0016    0.0013   -0.0124    0.0099
          19    0.0036    0.0017   -0.0016    0.0024    0.0008   -0.0211   -0.0244    0.0243
          20   -0.0052   -0.0019   -0.0090    0.0038    0.0001    0.0068   -0.0072    0.0110
          21    0.0065    0.0022   -0.0057    0.0006   -0.0023    0.0184    0.0142   -0.0136
          22   -0.1212    0.0558   -0.1195    0.1249   -0.1120   -0.1735    0.0331   -0.1157
          23    0.0024   -0.0928    0.1498    0.2060   -0.0184   -0.0314    0.1182   -0.0056
          24    0.0360   -0.0698    0.1274    0.0213    0.0173    0.0554   -0.0005   -0.0063
          25    0.0498    0.1375    0.1482    0.0034    0.0659   -0.0716   -0.0366   -0.0481
          26    0.0216    0.1182    0.1113    0.0098    0.0699   -0.0559   -0.0304   -0.0020
          27    0.0030   -0.0091    0.0016   -0.0039   -0.0095    0.0026   -0.0004   -0.0086
          28   -0.0825   -0.0139   -0.0119   -0.1229   -0.0458    0.0354    0.1153    0.1905
          29   -0.0368   -0.0219    0.0260   -0.0930   -0.1535   -0.0250    0.0525    0.0829
          30    0.0029   -0.0107    0.0118   -0.0035   -0.0179   -0.0038   -0.0075   -0.0084
          31    0.0037   -0.0017   -0.0087   -0.0059   -0.0022    0.0167    0.0107   -0.0196
          32    0.1416   -0.1214   -0.0983    0.0075   -0.0545   -0.0595   -0.0669   -0.0198
          33    0.0048   -0.0310   -0.0170    0.0093    0.0009   -0.0392   -0.0338    0.0293
          34   -0.0374    0.0295   -0.0010    0.0053    0.0609    0.0406    0.0241   -0.0116
          35   -0.1410   -0.0510   -0.0598    0.0461    0.1654   -0.0094   -0.0437    0.0294
          36   -0.0533   -0.0234   -0.0139    0.0050    0.0326   -0.0125   -0.0137    0.0242
          37    0.0107   -0.0091   -0.0075   -0.0036    0.0098    0.0013    0.0071   -0.0018
          38    0.0869   -0.0624   -0.0199   -0.0271    0.0566    0.0074    0.0384    0.0106
          39   -0.0178   -0.0072    0.0206   -0.0123   -0.0062   -0.0004   -0.0244   -0.0213
          40   -0.0296    0.0445   -0.0113   -0.0046   -0.0148    0.0060    0.0022   -0.0300
          41   -0.0103    0.0733   -0.0349    0.0117   -0.0072    0.0138    0.0271   -0.0127
          42   -0.0077   -0.0219    0.0183   -0.0106   -0.0034   -0.0026   -0.0171   -0.0072
          43   -0.0478    0.0113    0.0115   -0.0474   -0.0230    0.0123   -0.0412   -0.0488
          44   -0.0530   -0.0242    0.0413   -0.1249   -0.0171    0.0361   -0.0878   -0.0842
          45    0.0009   -0.0141    0.0110   -0.0021    0.0018    0.0003   -0.0032   -0.0051
          46   -0.0331   -0.0488    0.0496   -0.0067   -0.0041    0.0144    0.0159   -0.0379
          47    0.0395    0.0311   -0.0495   -0.1079    0.0601   -0.0711    0.2057   -0.1290
          48   -0.0510   -0.0537    0.0588   -0.0642    0.0290   -0.0299    0.1159   -0.1114
          49    0.0463    0.0905   -0.0380    0.0775   -0.0734    0.2237    0.0241   -0.0301
          50   -0.0383    0.0403   -0.0073    0.0696   -0.0568    0.1809    0.0054   -0.0081
          51    0.0524    0.0156   -0.0207   -0.0230    0.0200   -0.0512   -0.0102    0.0102


   Root No.      25        26        27        28        29        30        31        32

                25 A      26 A      27 A      28 A      29 A      30 A      31 A      32 A   

                1242.2    1311.3    1332.5    1365.3    1387.2    1403.3    1406.8    1407.9
  
           1    0.0366   -0.0293    0.0414   -0.0426    0.0357   -0.0019   -0.0062    0.0145
           2    0.0426    0.0454   -0.0006   -0.0223   -0.0299    0.0042   -0.0087    0.0104
           3    0.0010    0.0304   -0.0155    0.0044   -0.0345   -0.0020   -0.0046   -0.0051
           4    0.0293   -0.0028   -0.0151    0.0557   -0.0192    0.0195    0.0120   -0.0107
           5    0.0245   -0.0190   -0.0048    0.0348   -0.0026   -0.0400   -0.0069   -0.0074
           6    0.0019   -0.0075    0.0035   -0.0024    0.0017   -0.0001   -0.0002    0.0003
           7   -0.0142   -0.0179   -0.0260   -0.0259   -0.0103    0.0049   -0.0025    0.0010
           8   -0.0012    0.0251   -0.0225   -0.0143    0.0454    0.0133    0.0081    0.0074
           9    0.0000    0.0208    0.0153    0.0097    0.0224   -0.0011    0.0035    0.0022
          10   -0.0145    0.0076   -0.0077    0.0030   -0.0109    0.0029   -0.0232    0.0074
          11   -0.0128   -0.0072    0.0028   -0.0122   -0.0092   -0.0121    0.0093   -0.0314
          12   -0.0046   -0.0074    0.0019    0.0026    0.0127    0.0071   -0.0158   -0.0263
          13    0.0010    0.0202   -0.0108    0.0019   -0.0228   -0.0013   -0.0031   -0.0026
          14    0.0015    0.0117   -0.0019   -0.0004    0.0247    0.0076    0.0048    0.0027
          15    0.0044    0.0007    0.0038   -0.0009    0.0305    0.0074    0.0051    0.0040
          16    0.0077    0.0277   -0.0069    0.0049    0.0326    0.0118    0.0078    0.0031
          17   -0.0076   -0.0054   -0.0019    0.0059    0.0158    0.0020    0.0040    0.0001
          18   -0.0139   -0.0292    0.0056    0.0019   -0.0134   -0.0089   -0.0030   -0.0026
          19   -0.0092   -0.0259    0.0118    0.0046   -0.0025   -0.0111   -0.0020   -0.0008
          20   -0.0064   -0.0235    0.0048   -0.0026   -0.0318   -0.0040   -0.0052   -0.0034
          21    0.0045    0.0102   -0.0066   -0.0040   -0.0088    0.0068   -0.0002   -0.0005
          22   -0.0747    0.0407   -0.0497    0.0540   -0.0481    0.0016    0.0016   -0.0134
          23   -0.0963   -0.0644   -0.0016    0.0303    0.0308   -0.0113    0.0113   -0.0127
          24   -0.0133   -0.0403    0.0183   -0.0092    0.0216   -0.0094    0.0001   -0.0048
          25   -0.1203    0.0889   -0.0424   -0.0919   -0.0144   -0.1085   -0.0459    0.0064
          26   -0.0710   -0.0106    0.0500   -0.0707   -0.0695    0.1740    0.0294    0.0034
          27   -0.0013    0.0255   -0.0381    0.0019    0.0398   -0.1669   -0.0422   -0.0000
          28   -0.1138    0.0496   -0.0233   -0.1078    0.0417   -0.1048   -0.0352    0.0259
          29   -0.0737    0.0040    0.0490   -0.0702   -0.0396    0.1747    0.0368    0.0148
          30    0.0027   -0.0131    0.0352    0.0013   -0.0399    0.1584    0.0398   -0.0016
          31   -0.0270    0.0319    0.0551    0.0076    0.0027   -0.0051   -0.0013    0.0003
          32   -0.0718    0.0031    0.1540    0.0122   -0.0498   -0.0370   -0.0181   -0.0057
          33    0.0331   -0.1113   -0.1957   -0.0741   -0.0146    0.0254    0.0007    0.0032
          34   -0.0409    0.1102    0.2256    0.0838   -0.0048   -0.0294   -0.0035   -0.0060
          35   -0.0177   -0.0210    0.0622    0.0135   -0.0487   -0.0221   -0.0116   -0.0073
          36   -0.0033   -0.0075    0.0303    0.0130   -0.0174   -0.0122   -0.0043   -0.0034
          37   -0.0156    0.0036   -0.0066    0.0042   -0.0028    0.0038   -0.0141   -0.0124
          38   -0.1031   -0.0028   -0.0567    0.0993    0.0327    0.0065    0.1404    0.0315
          39    0.0196    0.0075    0.0056   -0.0148   -0.0730   -0.0581    0.1263    0.3070
          40   -0.0183   -0.0492    0.0097    0.0178    0.0190   -0.0511    0.2418    0.1229
          41   -0.0533   -0.0790    0.0002    0.0755    0.0713    0.0366   -0.0671    0.1502
          42    0.0239    0.0249    0.0092   -0.0548   -0.0414   -0.0576    0.1736   -0.0872
          43   -0.0139   -0.0250   -0.0008    0.0201    0.0744    0.0130    0.0811   -0.2544
          44   -0.0316   -0.0223   -0.0254    0.0892    0.0492    0.0629   -0.1449    0.0951
          45   -0.0100   -0.0018   -0.0109    0.0348    0.0030    0.0285   -0.0980    0.1190
          46    0.0026    0.0119   -0.0054   -0.0037   -0.0230   -0.0033   -0.0050   -0.0028
          47    0.0625   -0.0854    0.0529   -0.0471   -0.0542   -0.0218   -0.0284   -0.0020
          48    0.0383   -0.0749    0.0454   -0.0360   -0.0114   -0.0132   -0.0156    0.0014
          49   -0.0171   -0.0203   -0.0017   -0.0033   -0.0770   -0.0125   -0.0124   -0.0079
          50   -0.0279   -0.0455    0.0029    0.0009   -0.0705   -0.0172   -0.0115   -0.0082
          51   -0.0102   -0.0234    0.0046    0.0022    0.0069   -0.0049    0.0004   -0.0012


   Root No.      33        34        35        36        37        38        39        40

                33 A      34 A      35 A      36 A      37 A      38 A      39 A      40 A   

                1412.2    1519.8    1788.5    2854.9    2924.4    2962.2    3018.6    3039.2
  
           1   -0.0163   -0.0143   -0.0000   -0.0216    0.0004   -0.0008    0.0003   -0.0002
           2   -0.0476    0.0338   -0.0343    0.0240   -0.0000    0.0007    0.0003    0.0001
           3   -0.0116    0.0235   -0.0241   -0.0583    0.0007   -0.0020   -0.0001    0.0002
           4    0.0156    0.0075    0.0041   -0.0007    0.0005   -0.0019    0.0020   -0.0011
           5    0.0036   -0.0278    0.0053   -0.0001   -0.0006    0.0026   -0.0040    0.0019
           6   -0.0008   -0.0083    0.0026    0.0037    0.0082   -0.0512    0.0005    0.0001
           7   -0.0069   -0.0385   -0.0034   -0.0003   -0.0268   -0.0045   -0.0347   -0.0012
           8    0.0160    0.1000    0.0046    0.0002    0.0141    0.0019   -0.0113   -0.0002
           9    0.0099    0.0552    0.0025   -0.0006   -0.0421   -0.0060    0.0131    0.0003
          10    0.0300   -0.0006    0.0010    0.0011   -0.0000    0.0000   -0.0000   -0.0004
          11    0.0568   -0.0073   -0.0010    0.0005   -0.0000   -0.0001   -0.0000    0.0001
          12   -0.0086   -0.0002   -0.0021    0.0016    0.0000   -0.0003    0.0001   -0.0006
          13   -0.0085    0.0065    0.1060   -0.0000    0.0001   -0.0001   -0.0002   -0.0354
          14    0.0074   -0.0463    0.2159   -0.0011   -0.0000    0.0002   -0.0003   -0.0095
          15    0.0087   -0.0371    0.0984   -0.0009   -0.0000   -0.0001   -0.0001    0.0153
          16    0.0114   -0.0705   -0.1551    0.0005   -0.0002   -0.0000    0.0002    0.0114
          17    0.0113   -0.0064   -0.1937    0.0007   -0.0000    0.0000    0.0010   -0.0177
          18    0.0006    0.0504   -0.0407   -0.0002   -0.0001   -0.0000    0.0008   -0.0223
          19    0.0036    0.1113    0.0327   -0.0002   -0.0001   -0.0001   -0.0010   -0.0001
          20   -0.0119   -0.0408    0.0095   -0.0002   -0.0001    0.0002    0.0004   -0.0000
          21   -0.0065   -0.0875   -0.0183    0.0002   -0.0009   -0.0001    0.0008    0.0001
          22    0.0259    0.0063    0.0122    0.2668   -0.0030    0.0125    0.0003   -0.0010
          23    0.0507   -0.0242    0.0194   -0.2936    0.0036   -0.0095   -0.0009    0.0001
          24    0.0131   -0.0084    0.0029    0.7145   -0.0079    0.0223    0.0016   -0.0004
          25   -0.0555   -0.0155   -0.0265    0.0051    0.0184   -0.1224   -0.0148    0.0092
          26   -0.0086   -0.0236   -0.0077   -0.0132   -0.0247    0.1822    0.0177   -0.0135
          27   -0.0204   -0.0152   -0.0024   -0.0215   -0.0398    0.2699    0.0364   -0.0238
          28   -0.0381   -0.0145   -0.0046   -0.0062   -0.0272    0.1461   -0.0163    0.0079
          29    0.0049    0.0206   -0.0042    0.0162    0.0329   -0.2143    0.0219   -0.0115
          30    0.0186    0.0266    0.0002   -0.0260   -0.0601    0.3431   -0.0420    0.0217
          31   -0.0004   -0.0084   -0.0029    0.0012    0.3259    0.0581    0.4498    0.0113
          32   -0.0267   -0.0969   -0.0044   -0.0000    0.0113    0.0035   -0.0007    0.0004
          33   -0.0063   -0.0165    0.0086    0.0001    0.0884    0.0155    0.1674    0.0044
          34   -0.0005   -0.0053   -0.0038   -0.0009   -0.0044   -0.0028   -0.0291   -0.0006
          35   -0.0213   -0.0857   -0.0100   -0.0032   -0.1810   -0.0280    0.1366    0.0029
          36   -0.0064   -0.0289   -0.0065    0.0065    0.4285    0.0565   -0.3290   -0.0069
          37    0.0132    0.0005    0.0021   -0.0097    0.0003   -0.0013    0.0006    0.0037
          38   -0.1813    0.0136   -0.0026    0.0039   -0.0000    0.0001    0.0001    0.0007
          39    0.0807   -0.0103   -0.0007   -0.0010    0.0000   -0.0002    0.0000    0.0003
          40   -0.0895   -0.0081    0.0061    0.0048   -0.0001   -0.0001    0.0002   -0.0020
          41   -0.0718   -0.0143    0.0002   -0.0027   -0.0002    0.0016   -0.0001    0.0033
          42    0.0326    0.0029   -0.0049   -0.0081   -0.0000    0.0011   -0.0002    0.0036
          43   -0.1651    0.0113    0.0007   -0.0064    0.0002   -0.0002   -0.0001    0.0014
          44   -0.1144    0.0064   -0.0014    0.0020    0.0001   -0.0014    0.0002   -0.0020
          45   -0.0078    0.0008   -0.0031   -0.0145    0.0000    0.0017   -0.0005    0.0049
          46   -0.0098    0.0111    0.1122   -0.0009    0.0001   -0.0030    0.0010    0.4171
          47   -0.0365    0.0920   -0.0104    0.0017   -0.0000   -0.0005    0.0004    0.1006
          48   -0.0152    0.0521   -0.1166   -0.0016    0.0000    0.0014   -0.0004   -0.1884
          49   -0.0258    0.0081    0.0805   -0.0014    0.0004   -0.0002    0.0063   -0.1256
          50   -0.0180    0.0502   -0.0526    0.0021   -0.0004    0.0004   -0.0106    0.2199
          51    0.0087    0.0438   -0.0954    0.0010   -0.0005    0.0003   -0.0133    0.2648


   Root No.      41        42        43        44        45

                41 A      42 A      43 A      44 A      45 A   

                3042.8    3057.6    3080.9    3084.0    3179.2
  
           1    0.0007    0.0003   -0.0004   -0.0002   -0.0003
           2   -0.0001    0.0004    0.0004    0.0001   -0.0006
           3   -0.0001    0.0003   -0.0011    0.0002   -0.0000
           4    0.0203   -0.0009    0.0002    0.0002   -0.0001
           5   -0.0302    0.0011    0.0001    0.0004    0.0002
           6   -0.0054    0.0006    0.0002   -0.0002   -0.0000
           7    0.0036   -0.0015   -0.0000    0.0000    0.0000
           8    0.0004   -0.0003   -0.0000   -0.0000    0.0000
           9   -0.0009    0.0007    0.0000   -0.0000   -0.0000
          10   -0.0000    0.0004   -0.0246   -0.0450   -0.0086
          11   -0.0000   -0.0001    0.0043    0.0200   -0.0229
          12    0.0002    0.0009   -0.0437    0.0273    0.0019
          13   -0.0015    0.0307    0.0010   -0.0003    0.0002
          14   -0.0002    0.0113    0.0005   -0.0005    0.0001
          15    0.0008   -0.0109   -0.0004   -0.0001   -0.0000
          16    0.0010    0.0113    0.0000    0.0001    0.0000
          17   -0.0020   -0.0283   -0.0003    0.0002   -0.0000
          18   -0.0023   -0.0306   -0.0003    0.0001   -0.0000
          19    0.0001   -0.0006   -0.0000   -0.0000   -0.0000
          20    0.0003   -0.0006   -0.0000   -0.0000   -0.0000
          21    0.0000   -0.0001   -0.0000    0.0000    0.0000
          22    0.0004    0.0001    0.0026   -0.0012    0.0002
          23   -0.0008    0.0010   -0.0082    0.0008   -0.0016
          24    0.0002   -0.0011    0.0115    0.0001    0.0015
          25   -0.1392    0.0048   -0.0000    0.0008    0.0004
          26    0.2075   -0.0076   -0.0005    0.0004   -0.0013
          27    0.3677   -0.0130   -0.0005   -0.0006   -0.0018
          28   -0.1092    0.0027    0.0002    0.0014    0.0004
          29    0.1594   -0.0041    0.0019   -0.0016   -0.0015
          30   -0.3046    0.0082   -0.0022    0.0032    0.0022
          31   -0.0499    0.0130    0.0000   -0.0002    0.0000
          32   -0.0026    0.0004   -0.0000    0.0000    0.0000
          33   -0.0183    0.0049    0.0000   -0.0001   -0.0000
          34    0.0031   -0.0008   -0.0000    0.0000   -0.0000
          35   -0.0125    0.0040    0.0001   -0.0002   -0.0000
          36    0.0287   -0.0091   -0.0003    0.0003    0.0001
          37    0.0036   -0.0047    0.2534    0.4248    0.3204
          38    0.0001   -0.0006    0.0009    0.0079   -0.0116
          39    0.0003   -0.0001   -0.0109    0.0330    0.0148
          40    0.0007    0.0029   -0.0853    0.1463   -0.1204
          41    0.0003   -0.0047    0.1236   -0.2716    0.1847
          42   -0.0000   -0.0051    0.1277   -0.3350    0.2420
          43   -0.0004   -0.0023    0.1256   -0.0348   -0.0947
          44    0.0014    0.0032   -0.1773    0.0257    0.1082
          45   -0.0027   -0.0076    0.4063   -0.0232   -0.2813
          46    0.0157   -0.3310   -0.0114    0.0023   -0.0024
          47    0.0038   -0.0827   -0.0028   -0.0007   -0.0012
          48   -0.0070    0.1464    0.0046   -0.0018    0.0008
          49   -0.0128   -0.1581   -0.0013    0.0004   -0.0000
          50    0.0226    0.2868    0.0024   -0.0008    0.0001
          51    0.0272    0.3427    0.0029   -0.0011    0.0001


           MASS-WEIGHTED COORDINATE ANALYSIS (NORMAL COORDINATES)


   Root No.       1         2         3         4         5         6         7         8

                 1 A       2 A       3 A       4 A       5 A       6 A       7 A       8 A   

                 125.4     175.4     193.6     303.2     351.5     455.8     501.0     540.8
  
           1   -0.0678   -0.0242   -0.0657   -0.0381   -0.2902   -0.2538   -0.0537   -0.0262
           2   -0.0183   -0.0093    0.0349   -0.0758    0.1823   -0.1869    0.2879    0.0173
           3   -0.1319    0.0173    0.0217    0.2580    0.0209   -0.2205   -0.3388    0.2643
           4   -0.0698   -0.0228   -0.0619   -0.0578   -0.2965   -0.2478   -0.0583    0.0662
           5    0.0662   -0.0045    0.0167   -0.0437    0.0194    0.2563   -0.0094    0.3242
           6   -0.3666   -0.0857   -0.3028   -0.0838    0.1278    0.1292    0.0370    0.0299
           7    0.0231    0.0905    0.1812   -0.0319    0.0096    0.0638    0.0754    0.4151
           8    0.0218   -0.0464   -0.0650   -0.0603   -0.1610    0.2074   -0.1268    0.1925
           9    0.0574    0.1617    0.2704    0.0411   -0.0486    0.0822    0.0209   -0.2545
          10    0.1350    0.0494    0.0013    0.0490    0.4612   -0.1674    0.1534   -0.0981
          11   -0.0457   -0.0395    0.0060   -0.1625   -0.1228   -0.2800    0.3488    0.0219
          12    0.3829    0.0284    0.0494   -0.2082   -0.1489    0.0139    0.1191    0.0222
          13   -0.1412   -0.0261    0.0695    0.0732   -0.2063    0.1810    0.0164   -0.3899
          14    0.1309    0.0207   -0.0849   -0.0257    0.2259   -0.1384   -0.2830   -0.1308
          15   -0.3053   -0.0150    0.1859    0.2573    0.0390   -0.0686    0.1712    0.1316
          16   -0.0626   -0.0751   -0.0214   -0.1963    0.1372    0.1935   -0.1965   -0.0588
          17   -0.0260    0.0786    0.0417    0.3600    0.0106   -0.0843   -0.0572   -0.2517
          18   -0.0187   -0.0979   -0.0291   -0.3344    0.0946   -0.1925   -0.2069   -0.1722
          19    0.2122   -0.0198   -0.1942    0.2679    0.0706    0.2487    0.0161    0.0788
          20   -0.1412    0.0179    0.0963   -0.0007   -0.0828    0.3295   -0.1716   -0.2771
          21    0.4160   -0.0267   -0.2862    0.2332   -0.1037    0.1105    0.0436    0.0025
          22   -0.0744   -0.0359   -0.0792   -0.0585   -0.1110   -0.1092   -0.0078   -0.0211
          23   -0.0923   -0.0061    0.0252    0.0443    0.0436   -0.1095    0.1201    0.0234
          24   -0.0527    0.0141    0.0359    0.1153    0.0146   -0.0684   -0.0789    0.0867
          25   -0.0597   -0.0335   -0.0891   -0.0804   -0.0883    0.0438    0.0426   -0.0414
          26    0.1052    0.0430    0.1243    0.0436   -0.0724    0.0138   -0.0905    0.0150
          27   -0.1791   -0.0649   -0.1962   -0.0897    0.0857    0.1297    0.0949    0.0356
          28    0.0234    0.0103    0.0208    0.0513   -0.1457   -0.1670   -0.1377    0.0541
          29   -0.0706   -0.0571   -0.1460   -0.0703    0.0413    0.1583    0.0489    0.1664
          30   -0.1790   -0.0655   -0.1971   -0.0891    0.0875    0.1328    0.0969    0.0388
          31    0.0210   -0.0071   -0.0461    0.0398   -0.0107    0.0086    0.0525    0.0997
          32   -0.0587   -0.0437   -0.0691   -0.0658   -0.0966   -0.0450   -0.0654    0.0268
          33   -0.0238    0.1609    0.4128   -0.1499    0.0381    0.0714   -0.0996    0.0078
          34   -0.0206    0.1508    0.4063   -0.1596    0.0823    0.1111   -0.0800    0.2326
          35    0.1174   -0.0061   -0.0350    0.0677   -0.0920    0.0485    0.0094    0.0589
          36    0.0636    0.0510    0.0751    0.0441   -0.0315    0.0220    0.0228   -0.0684
          37    0.0411   -0.0074    0.0080    0.0193    0.1420   -0.0492    0.0429   -0.0296
          38   -0.0708    0.0391   -0.0363   -0.0782   -0.2479   -0.1036    0.0465    0.0479
          39    0.0912    0.5348   -0.1597   -0.1610   -0.0639    0.0286    0.1223   -0.0296
          40    0.0874   -0.3951    0.1486    0.1059    0.2827   -0.0519    0.0205   -0.0316
          41   -0.0872    0.1194   -0.0402    0.0258    0.0670   -0.1105    0.0148    0.0377
          42    0.1967   -0.2968    0.1202   -0.0804   -0.0632    0.0281    0.0997   -0.0209
          43    0.0394    0.4621   -0.1408   -0.0568    0.2025   -0.0248    0.1341   -0.0736
          44    0.1133   -0.2057    0.0782   -0.1135   -0.0195   -0.0357    0.2465   -0.0565
          45    0.1677   -0.2175    0.0925   -0.0690   -0.0565    0.0171    0.0760   -0.0092
          46   -0.0962   -0.0073    0.0669    0.0721   -0.0826    0.1323    0.1494   -0.1505
          47    0.0951    0.0122   -0.0751   -0.0522    0.1252   -0.0774   -0.2831    0.0254
          48   -0.1776    0.0009    0.1298    0.1644   -0.0116    0.1408    0.2625   -0.0123
          49   -0.0612   -0.0401    0.0190   -0.1611    0.1236    0.0445   -0.0532    0.0061
          50   -0.0093    0.0449    0.0160    0.2286    0.0040   -0.0964   -0.0085    0.0134
          51   -0.0235   -0.0553   -0.0002   -0.2480    0.0661    0.0011   -0.0654   -0.1104


   Root No.       9        10        11        12        13        14        15        16

                 9 A      10 A      11 A      12 A      13 A      14 A      15 A      16 A   

                 647.4     773.8     800.5     904.9     919.0     944.2     960.6     991.6
  
           1    0.0842   -0.0766    0.0036   -0.1909   -0.0825   -0.0578   -0.1386   -0.0240
           2   -0.0237   -0.0333   -0.0278    0.0520   -0.0042    0.0419    0.0489    0.0218
           3   -0.0488   -0.1822   -0.0071   -0.1877   -0.0417    0.0153    0.0890   -0.0939
           4   -0.0160    0.0003    0.1397    0.1712    0.2340    0.2205    0.0775    0.1003
           5   -0.0478    0.1378   -0.0128   -0.0454   -0.1430   -0.3030   -0.0588   -0.0890
           6   -0.0869   -0.1264   -0.0591    0.2569   -0.1886   -0.2654   -0.0073   -0.1681
           7   -0.2621    0.3328    0.1043    0.1025   -0.2205    0.2109    0.0549    0.0229
           8    0.0417   -0.0044    0.0037    0.1090    0.0233    0.0544    0.0306   -0.0075
           9   -0.3872    0.0802   -0.0851   -0.0860    0.1328   -0.0342    0.0159    0.0472
          10    0.0200   -0.0945   -0.0572   -0.1813   -0.0704   -0.1368   -0.1837    0.1174
          11    0.0129   -0.1987   -0.1568   -0.1353   -0.0198   -0.0449    0.1947   -0.0209
          12   -0.0055   -0.0220    0.0014   -0.1133   -0.0486   -0.0241    0.2379    0.0759
          13    0.1924    0.2512   -0.1407   -0.0530   -0.1677   -0.1465    0.1952   -0.3444
          14    0.0003    0.0712    0.2710    0.0578    0.0195   -0.0352   -0.0180    0.1774
          15    0.0326    0.0841   -0.1168    0.0475    0.1781    0.1361   -0.2400    0.0077
          16   -0.1059   -0.0755   -0.2342    0.0262    0.1739   -0.1388    0.0321    0.1386
          17    0.1656    0.2195    0.3049    0.0260   -0.0626    0.0287   -0.0806   -0.1792
          18    0.1385    0.3398   -0.0048    0.1013   -0.1935    0.0440   -0.0251    0.2202
          19    0.0674   -0.2415   -0.0242    0.0310    0.0803    0.0146   -0.0442    0.0325
          20   -0.1543   -0.2937   -0.1974   -0.0736   -0.0994    0.4471   -0.0915    0.1927
          21    0.2644   -0.1473    0.0646    0.0552   -0.0494    0.0994   -0.0022    0.0025
          22   -0.0027   -0.1274    0.0607    0.0873   -0.0459   -0.0658   -0.1730    0.0127
          23    0.0127   -0.0447   -0.1332    0.0708    0.0731    0.1666   -0.0606   -0.2837
          24    0.0043   -0.0238   -0.0724   -0.0783    0.0324    0.0921    0.0418   -0.1521
          25    0.0726    0.1231    0.0522   -0.0627    0.2869    0.1288    0.0350    0.1796
          26   -0.1880   -0.0689   -0.0547    0.2047   -0.1104   -0.2978   -0.0339   -0.0522
          27    0.1243    0.0938    0.0218   -0.1205    0.0925    0.0869    0.0177    0.0303
          28   -0.0560   -0.1606    0.0499    0.1868   -0.0086   -0.0445   -0.0080   -0.1135
          29    0.1757    0.1519    0.0563   -0.2440    0.1327    0.0485   -0.0018   -0.0284
          30    0.1199    0.1035    0.0160   -0.1377    0.0886    0.0576    0.0187    0.0110
          31   -0.2087    0.1514    0.0209    0.0076   -0.1441    0.1194   -0.0061    0.0242
          32    0.0143   -0.0166    0.0316    0.3637    0.3010   -0.1624    0.2212    0.0323
          33    0.3617   -0.1657    0.0115    0.0217    0.2662   -0.1759    0.0527   -0.0470
          34    0.4206   -0.0967    0.0582    0.0103   -0.1340    0.0953   -0.0505   -0.0223
          35   -0.1355    0.1793    0.0648   -0.2874    0.3457   -0.1427    0.0160   -0.1613
          36   -0.1571    0.0937    0.0033   -0.1632    0.1885   -0.0786    0.0084   -0.0561
          37    0.0051   -0.0283   -0.0164   -0.0480   -0.0183   -0.0337   -0.0340    0.0288
          38    0.0270   -0.0795   -0.0422   -0.3076   -0.1196   -0.2401   -0.3276    0.2031
          39   -0.0002    0.0183   -0.0196    0.1114    0.0413    0.0523   -0.0878   -0.0785
          40   -0.0101   -0.0380   -0.0181    0.0180    0.0185    0.0580    0.2932   -0.0484
          41   -0.0173   -0.1000   -0.0266   -0.1405   -0.0378   -0.0015    0.5153    0.0358
          42    0.0089    0.0248   -0.0188    0.0884    0.0325    0.0288   -0.1693   -0.0561
          43   -0.0023   -0.0119   -0.0379    0.1554    0.0630    0.0918    0.0212   -0.1344
          44    0.0135   -0.0134   -0.0952    0.2305    0.1025    0.1011   -0.2273   -0.2163
          45    0.0054    0.0088   -0.0169    0.0303    0.0112    0.0073   -0.0864   -0.0254
          46    0.0334   -0.0128    0.2193    0.0348   -0.0901   -0.1256    0.1193    0.0947
          47   -0.0156    0.0876   -0.2445   -0.0069    0.1808    0.0458   -0.1062   -0.1176
          48   -0.0460   -0.1327    0.3664    0.1131    0.0529   -0.1065    0.0152    0.3486
          49   -0.1830   -0.1311    0.3319   -0.0648    0.2556   -0.1064   -0.1735   -0.1711
          50    0.1310    0.2550   -0.1942    0.1492    0.1203   -0.1704   -0.0829    0.2593
          51   -0.1001   -0.1109    0.4230   -0.1204   -0.0777    0.1357   -0.0467   -0.2909


   Root No.      17        18        19        20        21        22        23        24

                17 A      18 A      19 A      20 A      21 A      22 A      23 A      24 A   

                1004.0    1040.0    1074.0    1099.7    1107.0    1126.9    1150.2    1154.2
  
           1   -0.0382    0.0183    0.0757    0.1342   -0.1482    0.0221   -0.1598   -0.1012
           2    0.0298   -0.0416   -0.0182    0.2194    0.0042   -0.1057    0.0553    0.2421
           3   -0.0782   -0.1374    0.1378   -0.1051   -0.1054   -0.0162   -0.2367   -0.2562
           4    0.0164    0.0833    0.1340   -0.0940    0.1259    0.0392    0.1323    0.2095
           5    0.0385    0.1565    0.2164   -0.0755   -0.2722   -0.1552   -0.0006    0.0728
           6   -0.0693    0.0292   -0.0126    0.0183    0.2869    0.0937    0.0269    0.1330
           7    0.0776   -0.1474   -0.1642    0.0102    0.0429    0.0094   -0.0469   -0.0966
           8   -0.0110   -0.0609   -0.1520    0.1167    0.1640    0.2013    0.0420   -0.2147
           9    0.0814   -0.0279    0.0479   -0.0742   -0.2724    0.0122    0.0639   -0.0042
          10    0.1429   -0.1188   -0.0583   -0.0420    0.1060    0.0160    0.0552    0.0043
          11   -0.0277    0.0836   -0.0584   -0.2609    0.0236    0.1225   -0.1044   -0.1356
          12    0.0586    0.0824   -0.0542    0.2208    0.0021   -0.0459    0.1626    0.0998
          13    0.0685   -0.0243   -0.0497   -0.0512    0.0032    0.0235    0.1128   -0.0882
          14   -0.0917   -0.1140    0.1343   -0.0106    0.0181   -0.0484   -0.0443   -0.0198
          15    0.1089    0.2597   -0.2487   -0.0233    0.0473   -0.1483   -0.0371    0.1315
          16   -0.0953   -0.0705    0.0680    0.0088   -0.0329   -0.0102    0.0089   -0.0234
          17    0.1047    0.0861   -0.0861   -0.0192    0.0284   -0.0608   -0.0473    0.0608
          18   -0.1432   -0.0427    0.0345    0.0175    0.0140    0.0104   -0.1110    0.0831
          19    0.0375    0.0167   -0.0138    0.0199    0.0067   -0.1721   -0.2187    0.2031
          20   -0.0537   -0.0188   -0.0787    0.0316    0.0007    0.0560   -0.0649    0.0915
          21    0.0678    0.0217   -0.0493    0.0048   -0.0207    0.1500    0.1278   -0.1137
          22   -0.3635    0.1583   -0.3015    0.3018   -0.2887   -0.4107    0.0860   -0.2800
          23    0.0073   -0.2630    0.3777    0.4978   -0.0475   -0.0744    0.3069   -0.0135
          24    0.1080   -0.1978    0.3214    0.0516    0.0446    0.1311   -0.0014   -0.0154
          25    0.1493    0.3897    0.3739    0.0083    0.1699   -0.1695   -0.0952   -0.1163
          26    0.0648    0.3351    0.2807    0.0237    0.1803   -0.1322   -0.0790   -0.0049
          27    0.0091   -0.0258    0.0042   -0.0094   -0.0245    0.0061   -0.0011   -0.0208
          28   -0.2473   -0.0393   -0.0300   -0.2971   -0.1182    0.0838    0.2994    0.4611
          29   -0.1103   -0.0620    0.0655   -0.2248   -0.3958   -0.0591    0.1364    0.2008
          30    0.0087   -0.0304    0.0296   -0.0086   -0.0462   -0.0091   -0.0195   -0.0203
          31    0.0112   -0.0048   -0.0220   -0.0142   -0.0056    0.0395    0.0278   -0.0474
          32    0.4247   -0.3440   -0.2478    0.0182   -0.1404   -0.1407   -0.1737   -0.0480
          33    0.0142   -0.0879   -0.0429    0.0224    0.0024   -0.0928   -0.0878    0.0710
          34   -0.1121    0.0836   -0.0025    0.0129    0.1570    0.0961    0.0627   -0.0280
          35   -0.4230   -0.1445   -0.1507    0.1114    0.4264   -0.0222   -0.1136    0.0713
          36   -0.1598   -0.0664   -0.0351    0.0120    0.0840   -0.0296   -0.0356    0.0586
          37    0.0322   -0.0258   -0.0188   -0.0086    0.0253    0.0031    0.0184   -0.0044
          38    0.2608   -0.1768   -0.0502   -0.0654    0.1459    0.0174    0.0997    0.0256
          39   -0.0534   -0.0203    0.0519   -0.0296   -0.0160   -0.0010   -0.0634   -0.0516
          40   -0.0887    0.1261   -0.0284   -0.0111   -0.0382    0.0141    0.0057   -0.0727
          41   -0.0308    0.2077   -0.0881    0.0282   -0.0187    0.0326    0.0704   -0.0307
          42   -0.0232   -0.0620    0.0462   -0.0257   -0.0088   -0.0062   -0.0444   -0.0175
          43   -0.1434    0.0320    0.0290   -0.1145   -0.0593    0.0292   -0.1071   -0.1182
          44   -0.1591   -0.0687    0.1041   -0.3019   -0.0441    0.0854   -0.2280   -0.2039
          45    0.0027   -0.0399    0.0277   -0.0050    0.0046    0.0007   -0.0083   -0.0125
          46   -0.0993   -0.1384    0.1251   -0.0161   -0.0106    0.0341    0.0412   -0.0918
          47    0.1186    0.0881   -0.1249   -0.2608    0.1549   -0.1683    0.5342   -0.3123
          48   -0.1530   -0.1522    0.1483   -0.1551    0.0748   -0.0709    0.3011   -0.2697
          49    0.1389    0.2566   -0.0958    0.1872   -0.1892    0.5295    0.0626   -0.0729
          50   -0.1147    0.1143   -0.0183    0.1681   -0.1465    0.4282    0.0141   -0.0197
          51    0.1570    0.0442   -0.0523   -0.0556    0.0516   -0.1213   -0.0264    0.0246


   Root No.      25        26        27        28        29        30        31        32

                25 A      26 A      27 A      28 A      29 A      30 A      31 A      32 A   

                1242.2    1311.3    1332.5    1365.3    1387.2    1403.3    1406.8    1407.9
  
           1    0.3238   -0.2367    0.3262   -0.3531    0.2806   -0.0151   -0.0489    0.0985
           2    0.3762    0.3666   -0.0051   -0.1851   -0.2349    0.0334   -0.0684    0.0703
           3    0.0085    0.2454   -0.1221    0.0366   -0.2716   -0.0159   -0.0363   -0.0345
           4    0.2593   -0.0223   -0.1193    0.4618   -0.1507    0.1539    0.0936   -0.0724
           5    0.2166   -0.1532   -0.0381    0.2885   -0.0208   -0.3152   -0.0540   -0.0506
           6    0.0166   -0.0608    0.0274   -0.0199    0.0134   -0.0010   -0.0013    0.0023
           7   -0.1254   -0.1447   -0.2050   -0.2149   -0.0806    0.0389   -0.0197    0.0068
           8   -0.0110    0.2024   -0.1773   -0.1187    0.3569    0.1046    0.0635    0.0503
           9    0.0002    0.1684    0.1208    0.0808    0.1763   -0.0087    0.0277    0.0149
          10   -0.1284    0.0617   -0.0608    0.0247   -0.0854    0.0231   -0.1816    0.0501
          11   -0.1129   -0.0583    0.0221   -0.1009   -0.0720   -0.0956    0.0730   -0.2133
          12   -0.0409   -0.0596    0.0149    0.0213    0.1000    0.0562   -0.1237   -0.1786
          13    0.0092    0.1632   -0.0854    0.0158   -0.1796   -0.0099   -0.0242   -0.0178
          14    0.0134    0.0947   -0.0147   -0.0032    0.1945    0.0600    0.0374    0.0184
          15    0.0391    0.0054    0.0302   -0.0071    0.2398    0.0585    0.0399    0.0273
          16    0.0683    0.2237   -0.0546    0.0408    0.2564    0.0926    0.0607    0.0209
          17   -0.0668   -0.0432   -0.0153    0.0487    0.1240    0.0160    0.0315    0.0005
          18   -0.1225   -0.2362    0.0441    0.0157   -0.1052   -0.0698   -0.0232   -0.0178
          19   -0.0814   -0.2092    0.0927    0.0382   -0.0194   -0.0876   -0.0160   -0.0056
          20   -0.0567   -0.1895    0.0381   -0.0219   -0.2499   -0.0314   -0.0411   -0.0234
          21    0.0398    0.0827   -0.0518   -0.0331   -0.0693    0.0534   -0.0019   -0.0032
          22   -0.1913    0.0953   -0.1135    0.1297   -0.1096    0.0037    0.0036   -0.0264
          23   -0.2463   -0.1507   -0.0038    0.0728    0.0702   -0.0259    0.0257   -0.0249
          24   -0.0340   -0.0942    0.0417   -0.0220    0.0491   -0.0215    0.0003   -0.0094
          25   -0.3078    0.2080   -0.0969   -0.2208   -0.0328   -0.2475   -0.1040    0.0126
          26   -0.1818   -0.0249    0.1142   -0.1698   -0.1583    0.3970    0.0667    0.0067
          27   -0.0032    0.0596   -0.0869    0.0047    0.0907   -0.3809   -0.0958   -0.0001
          28   -0.2913    0.1162   -0.0533   -0.2590    0.0950   -0.2391   -0.0797    0.0509
          29   -0.1886    0.0094    0.1118   -0.1687   -0.0901    0.3987    0.0834    0.0290
          30    0.0069   -0.0307    0.0803    0.0031   -0.0909    0.3614    0.0903   -0.0031
          31   -0.0690    0.0746    0.1259    0.0182    0.0061   -0.0117   -0.0030    0.0006
          32   -0.1838    0.0073    0.3516    0.0294   -0.1133   -0.0844   -0.0411   -0.0111
          33    0.0846   -0.2605   -0.4468   -0.1779   -0.0332    0.0579    0.0016    0.0062
          34   -0.1046    0.2578    0.5151    0.2014   -0.0109   -0.0672   -0.0080   -0.0118
          35   -0.0453   -0.0490    0.1421    0.0325   -0.1109   -0.0503   -0.0264   -0.0144
          36   -0.0084   -0.0176    0.0691    0.0312   -0.0397   -0.0278   -0.0099   -0.0066
          37   -0.0398    0.0085   -0.0151    0.0102   -0.0064    0.0088   -0.0320   -0.0244
          38   -0.2638   -0.0066   -0.1295    0.2386    0.0744    0.0149    0.3183    0.0620
          39    0.0503    0.0175    0.0129   -0.0356   -0.1663   -0.1325    0.2864    0.6040
          40   -0.0467   -0.1151    0.0222    0.0427    0.0434   -0.1167    0.5483    0.2418
          41   -0.1363   -0.1848    0.0004    0.1813    0.1625    0.0834   -0.1521    0.2955
          42    0.0612    0.0584    0.0210   -0.1316   -0.0942   -0.1315    0.3937   -0.1716
          43   -0.0356   -0.0585   -0.0019    0.0482    0.1695    0.0296    0.1840   -0.5005
          44   -0.0810   -0.0522   -0.0579    0.2143    0.1120    0.1435   -0.3285    0.1871
          45   -0.0255   -0.0041   -0.0248    0.0836    0.0068    0.0649   -0.2222    0.2341
          46    0.0066    0.0278   -0.0123   -0.0088   -0.0524   -0.0075   -0.0114   -0.0055
          47    0.1600   -0.1999    0.1207   -0.1132   -0.1234   -0.0497   -0.0644   -0.0039
          48    0.0980   -0.1753    0.1036   -0.0864   -0.0259   -0.0301   -0.0355    0.0028
          49   -0.0436   -0.0475   -0.0038   -0.0079   -0.1753   -0.0286   -0.0281   -0.0156
          50   -0.0714   -0.1065    0.0067    0.0022   -0.1606   -0.0392   -0.0261   -0.0162
          51   -0.0260   -0.0548    0.0105    0.0053    0.0157   -0.0113    0.0010   -0.0024


   Root No.      33        34        35        36        37        38        39        40

                33 A      34 A      35 A      36 A      37 A      38 A      39 A      40 A   

                1412.2    1519.8    1788.5    2854.9    2924.4    2962.2    3018.6    3039.2
  
           1   -0.1243   -0.0620   -0.0001   -0.0876    0.0023   -0.0046    0.0016   -0.0011
           2   -0.3632    0.1465   -0.0924    0.0975   -0.0003    0.0043    0.0014    0.0006
           3   -0.0884    0.1017   -0.0649   -0.2367    0.0038   -0.0119   -0.0007    0.0013
           4    0.1193    0.0323    0.0110   -0.0030    0.0026   -0.0110    0.0114   -0.0063
           5    0.0273   -0.1205    0.0141   -0.0003   -0.0035    0.0151   -0.0225    0.0105
           6   -0.0061   -0.0358    0.0070    0.0152    0.0464   -0.3000    0.0030    0.0003
           7   -0.0528   -0.1668   -0.0092   -0.0011   -0.1515   -0.0265   -0.1940   -0.0065
           8    0.1221    0.4328    0.0124    0.0009    0.0798    0.0111   -0.0630   -0.0011
           9    0.0757    0.2391    0.0067   -0.0025   -0.2386   -0.0353    0.0733    0.0017
          10    0.2293   -0.0027    0.0027    0.0046   -0.0001    0.0002   -0.0001   -0.0020
          11    0.4339   -0.0314   -0.0027    0.0020   -0.0001   -0.0004   -0.0000    0.0007
          12   -0.0655   -0.0011   -0.0058    0.0064    0.0000   -0.0016    0.0004   -0.0031
          13   -0.0649    0.0280    0.2855   -0.0002    0.0005   -0.0004   -0.0012   -0.1969
          14    0.0563   -0.2007    0.5811   -0.0044   -0.0000    0.0009   -0.0014   -0.0527
          15    0.0665   -0.1606    0.2649   -0.0036   -0.0001   -0.0003   -0.0003    0.0853
          16    0.0870   -0.3053   -0.4175    0.0021   -0.0010   -0.0000    0.0010    0.0634
          17    0.0859   -0.0277   -0.5214    0.0027   -0.0000    0.0001    0.0058   -0.0984
          18    0.0045    0.2182   -0.1095   -0.0006   -0.0006   -0.0002    0.0046   -0.1237
[...]
 T-DIPOLE    0.1948         C  5 -- H 16         +11.5% ( 44.8%)      3.3%
 TRAVEL      0.1028         C  1 -- C  2         +11.0% ( 43.8%)     34.9%
 RED. MASS   0.4805         C  1 -- C  4          +9.8% ( 41.4%)     45.0%
 EFF. MASS   5.5245

 VIBRATION   25   25A         ATOM PAIR      ENERGY CONTRIBUTION    RADIAL
 FREQ.      1242.20         C  1 -- H  8         +17.3% ( 57.2%)      0.1%
 T-DIPOLE    0.3157         C  1 -- C  4         +14.3% ( 52.0%)     82.8%
 TRAVEL      0.0993         C  2 -- H  9         +12.1% ( 47.8%)      0.1%
 RED. MASS   0.9601         C  2 -- H 10         +12.0% ( 47.5%)      0.0%
 EFF. MASS   5.5054         C  1 -- C  2         +11.2% ( 46.0%)     14.0%
                            C  1 -- C  5         +10.3% ( 44.0%)      3.5%

 VIBRATION   26   26A         ATOM PAIR      ENERGY CONTRIBUTION    RADIAL
 FREQ.      1311.27         C  1 -- H  8         +12.2% ( 49.1%)      0.0%
 T-DIPOLE    0.4432         C  1 -- C  5         +11.3% ( 47.3%)     77.7%
 TRAVEL      0.0827         C  1 -- C  2         +10.8% ( 46.1%)     11.2%
 RED. MASS   1.1300         C  6 -- C  7         +10.5% ( 45.6%)     98.3%
 EFF. MASS   7.5212         C  1 -- C  4         +10.2% ( 44.9%)     17.6%

 VIBRATION   27   27A         ATOM PAIR      ENERGY CONTRIBUTION    RADIAL
 FREQ.      1332.54         C  3 -- H 11         +24.8% ( 54.7%)      3.7%
 T-DIPOLE    0.5677         C  3 -- H 12         +21.1% ( 50.4%)      4.9%
 TRAVEL      0.1202         C  1 -- C  2          +9.3% ( 33.4%)     89.4%
 RED. MASS   0.4800         C  1 -- H  8          +8.5% ( 32.0%)      0.0%
 EFF. MASS   3.5051

 VIBRATION   28   28A         ATOM PAIR      ENERGY CONTRIBUTION    RADIAL
 FREQ.      1365.31         C  1 -- C  2         +19.5% ( 61.0%)     74.5%
 T-DIPOLE    0.2185         C  2 -- H 10         +15.5% ( 54.3%)      0.0%
 TRAVEL      0.0870         C  2 -- H  9         +14.4% ( 52.5%)      0.0%
 RED. MASS   1.4508         C  2 -- C  3         +14.4% ( 52.4%)     61.4%
 EFF. MASS   6.5202

 VIBRATION   29   29A         ATOM PAIR      ENERGY CONTRIBUTION    RADIAL
 FREQ.      1387.21         C  1 -- C  5         +15.5% ( 56.9%)     94.0%
 T-DIPOLE    0.4376         C  3 -- C  7          +9.6% ( 44.8%)     77.6%
 TRAVEL      0.0758         C  1 -- C  2          +8.0% ( 40.9%)     59.4%
 RED. MASS   1.2203         C  1 -- H  8          +7.7% ( 40.1%)      0.6%
 EFF. MASS   8.4541

 VIBRATION   30   30A         ATOM PAIR      ENERGY CONTRIBUTION    RADIAL
 FREQ.      1403.31         C  2 -- H  9         +32.3% ( 57.9%)      4.8%
 T-DIPOLE    0.2256         C  2 -- H 10         +31.0% ( 56.6%)      4.7%
 TRAVEL      0.1317         C  2 -- C  3          +9.4% ( 31.2%)     64.6%
 RED. MASS   0.4476         C  1 -- C  2          +7.7% ( 28.2%)     19.0%
 EFF. MASS   2.7685

 VIBRATION   31   31A         ATOM PAIR      ENERGY CONTRIBUTION    RADIAL
 FREQ.      1406.79         C  4 -- H 14         +44.0% ( 59.4%)      0.0%
 T-DIPOLE    0.0644         C  4 -- H 15         +18.2% ( 38.1%)      9.6%
 TRAVEL      0.1624         C  4 -- H 13         +17.2% ( 37.1%)     11.5%
 RED. MASS   0.3411         C  1 -- C  4          +4.6% ( 19.1%)     19.8%
 EFF. MASS   1.8181

 VIBRATION   32   32A         ATOM PAIR      ENERGY CONTRIBUTION    RADIAL
 FREQ.      1407.89         C  4 -- H 13         +34.6% ( 54.3%)      0.2%
 T-DIPOLE    0.0568         C  4 -- H 15         +32.1% ( 52.3%)      0.5%
 TRAVEL      0.1537         C  4 -- H 14         +17.3% ( 38.5%)     20.9%
 RED. MASS   0.3656         C  1 -- C  4          +7.5% ( 25.3%)     67.0%
 EFF. MASS   2.0267

 VIBRATION   33   33A         ATOM PAIR      ENERGY CONTRIBUTION    RADIAL
 FREQ.      1412.22         C  1 -- C  4         +19.6% ( 58.3%)     97.6%
 T-DIPOLE    0.0807         C  4 -- H 15         +18.2% ( 56.2%)      2.7%
 TRAVEL      0.0900         C  4 -- H 13         +17.5% ( 55.1%)      5.3%
 RED. MASS   1.1090         C  4 -- H 14         +12.4% ( 46.5%)      2.4%
 EFF. MASS   5.8906

 VIBRATION   34   34A         ATOM PAIR      ENERGY CONTRIBUTION    RADIAL
 FREQ.      1519.77         C  3 -- C  7         +28.4% ( 76.1%)     97.1%
 T-DIPOLE    2.5508         C  6 -- C  7         +22.8% ( 68.3%)     79.7%
 TRAVEL      0.0626         C  2 -- C  3          +8.9% ( 42.7%)     46.8%
 RED. MASS   3.1910         C  3 -- H 11          +8.6% ( 41.8%)      0.9%
 EFF. MASS  11.3166

 VIBRATION   35   35A         ATOM PAIR      ENERGY CONTRIBUTION    RADIAL
 FREQ.      1788.50         C  5 -- C  6         +43.9% ( 98.4%)    100.0%
 T-DIPOLE    3.1335         C  1 -- C  5         +15.2% ( 57.9%)     46.4%
 TRAVEL      0.0563         C  5 -- H 16         +14.0% ( 55.5%)      5.5%
 RED. MASS   5.4016         C  6 -- C  7         +13.7% ( 54.8%)     55.2%
 EFF. MASS  11.9119         C  6 -- H 17         +12.2% ( 51.9%)      5.1%

 VIBRATION   36   36A         ATOM PAIR      ENERGY CONTRIBUTION    RADIAL
 FREQ.      2854.85         C  1 -- H  8         +96.7% ( 99.8%)    100.0%
 T-DIPOLE    0.1434         C  1 -- C  2          +1.0% ( 10.1%)      8.9%
 TRAVEL      0.1284         C  1 -- C  4          +1.0% ( 10.1%)      9.4%
 RED. MASS   0.9238         C  1 -- C  5          +1.0% ( 10.0%)      7.4%
 EFF. MASS   1.4335

 VIBRATION   37   37A         ATOM PAIR      ENERGY CONTRIBUTION    RADIAL
 FREQ.      2924.39         C  3 -- H 12         +61.4% ( 81.2%)     97.9%
 T-DIPOLE    0.2869         C  3 -- H 11         +34.2% ( 60.6%)     94.6%
 TRAVEL      0.1235         C  2 -- H 10          +1.6% ( 13.0%)     97.0%
 RED. MASS   0.5269         C  2 -- C  3          +1.0% ( 10.5%)      0.4%
 EFF. MASS   1.5121

 VIBRATION   38   38A         ATOM PAIR      ENERGY CONTRIBUTION    RADIAL
 FREQ.      2962.16         C  2 -- H 10         +56.8% ( 78.1%)     97.4%
 T-DIPOLE    0.0956         C  2 -- H  9         +38.5% ( 64.3%)     95.2%
 TRAVEL      0.1217         C  3 -- H 12          +1.2% ( 11.3%)     97.7%
 RED. MASS   0.5086         C  1 -- C  2          +1.1% ( 10.9%)      0.1%
 EFF. MASS   1.5372

 VIBRATION   39   39A         ATOM PAIR      ENERGY CONTRIBUTION    RADIAL
 FREQ.      3018.59         C  3 -- H 11         +63.5% ( 78.5%)     99.1%
 T-DIPOLE    0.4274         C  3 -- H 12         +33.9% ( 57.4%)     95.4%
 TRAVEL      0.1321         C  2 -- H 10          +0.7% (  8.2%)     98.2%
 RED. MASS   0.5083         C  2 -- C  3          +0.6% (  7.8%)     25.7%
 EFF. MASS   1.2800

 VIBRATION   40   40A         ATOM PAIR      ENERGY CONTRIBUTION    RADIAL
 FREQ.      3039.16         C  5 -- H 16         +60.3% ( 78.8%)    100.0%
 T-DIPOLE    0.2895         C  6 -- H 17         +36.9% ( 61.6%)    100.0%
 TRAVEL      0.1231         C  5 -- C  6          +1.1% ( 10.7%)      1.2%
 RED. MASS   0.4875         C  1 -- C  5          +0.8% (  9.2%)     18.8%
 EFF. MASS   1.4633

 VIBRATION   41   41A         ATOM PAIR      ENERGY CONTRIBUTION    RADIAL
 FREQ.      3042.78         C  2 -- H  9         +59.1% ( 75.8%)     98.7%
 T-DIPOLE    0.1240         C  2 -- H 10         +37.9% ( 60.7%)     96.1%
 TRAVEL      0.1317         C  3 -- H 11          +0.8% (  9.0%)     99.5%
 RED. MASS   0.4869         C  2 -- C  3          +0.6% (  7.8%)     41.0%
 EFF. MASS   1.2783

 VIBRATION   42   42A         ATOM PAIR      ENERGY CONTRIBUTION    RADIAL
 FREQ.      3057.61         C  6 -- H 17         +59.6% ( 78.4%)     99.9%
 T-DIPOLE    0.3751         C  5 -- H 16         +36.6% ( 61.4%)     99.9%
 TRAVEL      0.1180         C  5 -- C  6          +2.0% ( 14.3%)     97.2%
 RED. MASS   0.4903         C  6 -- C  7          +1.0% ( 10.0%)     13.8%
 EFF. MASS   1.5826

 VIBRATION   43   43A         ATOM PAIR      ENERGY CONTRIBUTION    RADIAL
 FREQ.      3080.86         C  4 -- H 15         +65.7% ( 83.6%)     98.9%
 T-DIPOLE    0.0415         C  4 -- H 13         +20.5% ( 46.7%)     87.7%
 TRAVEL      0.1206         C  4 -- H 14         +12.7% ( 36.8%)     79.1%
 RED. MASS   0.5183         C  1 -- C  4          +1.0% ( 10.3%)      0.0%
 EFF. MASS   1.5051

 VIBRATION   44   44A         ATOM PAIR      ENERGY CONTRIBUTION    RADIAL
 FREQ.      3084.03         C  4 -- H 14         +52.1% ( 74.5%)     97.5%
 T-DIPOLE    0.0443         C  4 -- H 13         +45.5% ( 69.6%)     96.5%
 TRAVEL      0.1204         C  4 -- H 15          +1.4% ( 12.1%)      9.4%
 RED. MASS   0.5086         C  1 -- C  4          +1.0% ( 10.5%)      0.0%
 EFF. MASS   1.5094

 VIBRATION   45   45A         ATOM PAIR      ENERGY CONTRIBUTION    RADIAL
 FREQ.      3179.18         C  4 -- H 14         +34.6% ( 56.6%)     97.3%
 T-DIPOLE    0.0487         C  4 -- H 13         +33.1% ( 55.4%)     97.1%
 TRAVEL      0.1367         C  4 -- H 15         +32.0% ( 54.4%)     96.9%
 RED. MASS   0.3273         C  1 -- C  4          +0.3% (  5.0%)     99.9%
 EFF. MASS   1.1350

      SYMMETRY NUMBER FOR POINT-GROUP C1  =  1


          SYSTEM IS A GROUND STATE



 InChI=1S/C7H10/c1-7-5-3-2-4-6-7/h3,5,7H,4,6H2,1H3/lp2


          MOLECULE IS NOT LINEAR

          THERE ARE 45 GENUINE VIBRATIONS IN THIS SYSTEM
          THIS THERMODYNAMICS CALCULATION IS LIMITED TO
          MOLECULES WHICH HAVE NO INTERNAL ROTATIONS




                    CALCULATED THERMODYNAMIC PROPERTIES
                                          *
   TEMP. (K)   PARTITION FUNCTION   H.O.F.    ENTHALPY  HEAT CAPACITY ENTROPY
                                   KCAL/MOL   CAL/MOLE    CAL/K/MOL  CAL/K/MOL


 298.00  VIB.     0.1644D+02                  2592.1026    20.6224    14.2620
         ROT.     0.1906D+06                   888.2813     2.9808    27.1414
         INT.     0.3134D+07                  3480.3839    23.6033    41.4035
         TRA.     0.8833D+27                  1480.4688     4.9680    39.5363
         TOT.                       78.982    4960.8528    28.5713    80.9397

 200.00  VIB.     0.4283D+01                  1007.6895    11.9797     7.9292
         ROT.     0.1048D+06                   596.1620     2.9808    25.9527
         INT.     0.4489D+06                  1603.8515    14.9605    33.8819
         TRA.     0.4856D+27                   993.6033     4.9680    37.5551
         TOT.                       76.619    2597.4547    19.9285    71.4371

 210.00  VIB.     0.4868D+01                  1131.4554    12.7773     8.5329
         ROT.     0.1128D+06                   625.9700     2.9808    26.0982
         INT.     0.5489D+06                  1757.4255    15.7582    34.6311
         TRA.     0.5225D+27                  1043.2834     4.9680    37.7975
         TOT.                       76.822    2800.7089    20.7262    72.4286

 220.00  VIB.     0.5545D+01                  1263.3135    13.5981     9.1462
         ROT.     0.1209D+06                   655.7781     2.9808    26.2368
         INT.     0.6705D+06                  1919.0916    16.5789    35.3830
         TRA.     0.5603D+27                  1092.9636     4.9680    38.0286
         TOT.                       77.033    3012.0552    21.5469    73.4116

 230.00  VIB.     0.6330D+01                  1403.4913    14.4411     9.7691
         ROT.     0.1293D+06                   685.5862     2.9808    26.3693
         INT.     0.8182D+06                  2089.0775    17.4219    36.1385
         TRA.     0.5989D+27                  1142.6437     4.9680    38.2495
         TOT.                       77.253    3231.7213    22.3900    74.3880

 240.00  VIB.     0.7242D+01                  1552.2062    15.3052    10.4019
         ROT.     0.1378D+06                   715.3943     2.9808    26.4962
         INT.     0.9978D+06                  2267.6005    18.2860    36.8981
         TRA.     0.6384D+27                  1192.3239     4.9680    38.4609
         TOT.                       77.481    3459.9244    23.2540    75.3591

 250.00  VIB.     0.8302D+01                  1709.6598    16.1885    11.0446
         ROT.     0.1465D+06                   745.2024     2.9808    26.6179
         INT.     0.1216D+07                  2454.8622    19.1693    37.6625
         TRA.     0.6787D+27                  1242.0041     4.9680    38.6637
         TOT.                       77.718    3696.8663    24.1374    76.3262

 260.00  VIB.     0.9537D+01                  1876.0339    17.0889    11.6970
         ROT.     0.1554D+06                   775.0105     2.9808    26.7348
         INT.     0.1482D+07                  2651.0444    20.0697    38.4318
         TRA.     0.7198D+27                  1291.6842     4.9680    38.8586
         TOT.                       77.964    3942.7286    25.0378    77.2904

 270.00  VIB.     0.1098D+02                  2051.4874    18.0040    12.3590
         ROT.     0.1644D+06                   804.8186     2.9808    26.8473
         INT.     0.1805D+07                  2856.3060    20.9848    39.2063
         TRA.     0.7618D+27                  1341.3644     4.9680    39.0461
         TOT.                       78.219    4197.6704    25.9528    78.2524

 280.00  VIB.     0.1266D+02                  2236.1545    18.9312    13.0305
         ROT.     0.1736D+06                   834.6267     2.9808    26.9557
         INT.     0.2198D+07                  3070.7812    21.9120    39.9862
         TRA.     0.8045D+27                  1391.0445     4.9680    39.2267
         TOT.                       78.483    4461.8258    26.8800    79.2130

 290.00  VIB.     0.1463D+02                  2430.1435    19.8680    13.7112
         ROT.     0.1830D+06                   864.4348     2.9808    27.0603
         INT.     0.2677D+07                  3294.5784    22.8488    40.7715
         TRA.     0.8479D+27                  1440.7247     4.9680    39.4011
         TOT.                       78.756    4735.3031    27.8168    80.1725

 300.00  VIB.     0.1693D+02                  2633.5366    20.8116    14.4006
         ROT.     0.1925D+06                   894.2429     2.9808    27.1613
         INT.     0.3260D+07                  3527.7796    23.7924    41.5620
         TRA.     0.8922D+27                  1490.4049     4.9680    39.5695
         TOT.                       79.039    5018.1844    28.7604    81.1315

 310.00  VIB.     0.1964D+02                  2846.3903    21.7596    15.0985
         ROT.     0.2023D+06                   924.0510     2.9808    27.2591
         INT.     0.3971D+07                  3770.4413    24.7405    42.3576
         TRA.     0.9372D+27                  1540.0850     4.9680    39.7324
         TOT.                       79.332    5310.5264    29.7085    82.0900

 320.00  VIB.     0.2281D+02                  3068.7361    22.7097    15.8043
         ROT.     0.2121D+06                   953.8591     2.9808    27.3537
         INT.     0.4839D+07                  4022.5953    25.6905    43.1580
         TRA.     0.9829D+27                  1589.7652     4.9680    39.8901
         TOT.                       79.633    5612.3605    30.6585    83.0482

 330.00  VIB.     0.2655D+02                  3300.5822    23.6593    16.5177
         ROT.     0.2221D+06                   983.6672     2.9808    27.4455
         INT.     0.5897D+07                  4284.2495    26.6401    43.9631
         TRA.     0.1029D+28                  1639.4454     4.9680    40.0430
         TOT.                       79.945    5923.6948    31.6082    84.0061

 340.00  VIB.     0.3095D+02                  3541.9147    24.6066    17.2380
         ROT.     0.2323D+06                  1013.4753     2.9808    27.5344
         INT.     0.7189D+07                  4555.3900    27.5874    44.7725
         TRA.     0.1076D+28                  1689.1255     4.9680    40.1913
         TOT.                       80.266    6244.5155    32.5554    84.9638

 350.00  VIB.     0.3614D+02                  3792.6993    25.5495    17.9649
         ROT.     0.2426D+06                  1043.2834     2.9808    27.6208
         INT.     0.8768D+07                  4835.9827    28.5303    45.5858
         TRA.     0.1124D+28                  1738.8057     4.9680    40.3353
         TOT.                       80.596    6574.7884    33.4983    85.9211

 360.00  VIB.     0.4226D+02                  4052.8835    26.4862    18.6978
         ROT.     0.2531D+06                  1073.0915     2.9808    27.7048
         INT.     0.1070D+08                  5125.9750    29.4670    46.4027
         TRA.     0.1173D+28                  1788.4859     4.9680    40.4753
         TOT.                       80.936    6914.4608    34.4351    86.8779

 370.00  VIB.     0.4950D+02                  4322.3982    27.4153    19.4362
         ROT.     0.2637D+06                  1102.8996     2.9808    27.7865
         INT.     0.1305D+08                  5425.2979    30.3961    47.2227
         TRA.     0.1222D+28                  1838.1660     4.9680    40.6114
         TOT.                       81.285    7263.4639    35.3642    87.8341

 380.00  VIB.     0.5807D+02                  4601.1600    28.3354    20.1796
         ROT.     0.2745D+06                  1132.7077     2.9808    27.8660
         INT.     0.1594D+08                  5733.8677    31.3162    48.0456
         TRA.     0.1272D+28                  1887.8462     4.9680    40.7439
         TOT.                       81.643    7621.7139    36.2842    88.7895

 390.00  VIB.     0.6822D+02                  4889.0723    29.2453    20.9274
         ROT.     0.2854D+06                  1162.5158     2.9808    27.9434
         INT.     0.1947D+08                  6051.5881    32.2261    48.8708
         TRA.     0.1322D+28                  1937.5263     4.9680    40.8729
         TOT.                       82.010    7989.1145    37.1941    89.7437

 400.00  VIB.     0.8025D+02                  5186.0279    30.1439    21.6792
         ROT.     0.2964D+06                  1192.3239     2.9808    28.0189
         INT.     0.2379D+08                  6378.3518    33.1247    49.6980
         TRA.     0.1374D+28                  1987.2065     4.9680    40.9987
         TOT.                       82.387    8365.5583    38.0927    90.6968

   *: NOTE: HEATS OF FORMATION ARE RELATIVE TO THE
            ELEMENTS IN THEIR STANDARD STATE AT 298K
              (=  Standard Enthalpy of Formation).

            Hvib:  Zero-point energy is not included.
                   frequencies of less than zero cm-1 are not included.
            Hrot = (3/2)RT
            Htra = (3/2)RT + pV = (5/2)RT

            Heat capacity is Cp, not Cv

          For more information, see: HTTP://OpenMOPAC.net/Manual/thermochemistry.html


           FORCE CONSTANT IN CARTESIAN COORDINATES (Millidynes/A)

    ATOM   CHEMICAL       X               Y               Z
   NUMBER   SYMBOL  FORCE CONSTANT  FORCE CONSTANT  FORCE CONSTANT

      1       C        8.152457        8.896608        8.223389
      2       C        7.925242        8.464651        8.330073
      3       C        8.394577        8.668704        7.611332
      4       C        8.430529        8.203372        8.274047
      5       C        9.733108       10.700935        6.132164
      6       C        8.972471       10.363933        6.839658
      7       C        6.443530        4.915466        3.714769
      8       H        1.084631        1.169079        3.591815
      9       H        1.187675        1.750117        3.509467
     10       H        1.189638        1.675937        3.530950
     11       H        4.491230        0.648851        0.969811
     12       H        0.543527        1.228566        4.197339
     13       H        5.376092        0.735301        0.676784
     14       H        1.262515        2.355475        3.165768
     15       H        1.063806        1.366628        4.342396
     16       H        4.114446        0.869233        1.245141
     17       H        1.091438        2.212797        2.847622

 **********************
 *                    *
 * JOB ENDED NORMALLY *
 *                    *
 **********************



 TOTAL JOB TIME:             5.09 SECONDS

 == MOPAC DONE ==
