 *******************************************************************************
 ** Site#: 14399        For non-commercial use only    Version 18.184L 64BITS **
 *******************************************************************************
 ** Cite this program as: MOPAC2016, Version: 18.184L, James J. P. Stewart,   **
 ** Stewart Computational Chemistry, web: HTTP://OpenMOPAC.net. Days left:  20**
 *******************************************************************************
 **                                                                           **
 **                                MOPAC2016                                  **
 **                                                                           **
 *******************************************************************************

                              PM3 CALCULATION RESULTS

 *******************************************************************************
 *  CALCULATION DONE:                                Thu Jun 13 16:25:12 2019  *
 *  PM3        - The PM3 Hamiltonian to be used
 *  PRECISE    - CRITERIA TO BE INCREASED BY 100 TIMES
 *  NOSYM      - POINT-GROUP SYMMETRY SET TO C1
 *  THREADS=1  - MULTI-THREADING NOT USED
 *  T=         - A TIME OF 172800.0 SECONDS REQUESTED
 *  DUMP=N     - RESTART FILE WRITTEN EVERY  7200.000 SECONDS
 *******************************************************************************
pm3  precise nosym THREADS=1
 InChI=1S/C7H10/c1-2-3-4-7-5-6-7/h2,4,7H,5-6H2,1H3

   ATOM   CHEMICAL          X               Y               Z
  NUMBER   SYMBOL      (ANGSTROMS)     (ANGSTROMS)     (ANGSTROMS)
 
     1       C         -1.42010000  *  -0.31380000  *   0.56720000  *
     2       C         -1.48680000  *   0.98270000  *  -0.22800000  *
     3       C         -2.35130000  *   0.80420000  *   1.00790000  *
     4       C          2.38320000  *  -0.34440000  *  -1.11380000  *
     5       C         -0.18680000  *  -0.46400000  *   1.40160000  *
     6       C          2.12510000  *  -0.86400000  *   0.26100000  *
     7       C          0.97070000  *  -0.66680000  *   0.83540000  *
     8       H         -1.88630000  *  -1.19590000  *   0.07900000  *
     9       H         -2.04840000  *   0.90970000  *  -1.18320000  *
    10       H         -0.64230000  *   1.69170000  *  -0.08600000  *
    11       H         -2.01670000  *   1.40460000  *   1.88160000  *
    12       H         -3.42400000  *   0.62300000  *   0.78500000  *
    13       H          3.41430000  *  -0.61080000  *  -1.42700000  *
    14       H          1.66280000  *  -0.79250000  *  -1.83080000  *
    15       H          2.27770000  *   0.76130000  *  -1.12810000  *
    16       H         -0.26820000  *  -0.51660000  *   2.47930000  *
    17       H          2.89710000  *  -1.40840000  *   0.78880000  *
 


          CARTESIAN COORDINATES 

    NO.       ATOM           X           Y           Z

     1         C         -1.4201     -0.3138      0.5672
     2         C         -1.4868      0.9827     -0.2280
     3         C         -2.3513      0.8042      1.0079
     4         C          2.3832     -0.3444     -1.1138
     5         C         -0.1868     -0.4640      1.4016
     6         C          2.1251     -0.8640      0.2610
     7         C          0.9707     -0.6668      0.8354
     8         H         -1.8863     -1.1959      0.0790
     9         H         -2.0484      0.9097     -1.1832
    10         H         -0.6423      1.6917     -0.0860
    11         H         -2.0167      1.4046      1.8816
    12         H         -3.4240      0.6230      0.7850
    13         H          3.4143     -0.6108     -1.4270
    14         H          1.6628     -0.7925     -1.8308
    15         H          2.2777      0.7613     -1.1281
    16         H         -0.2682     -0.5166      2.4793
    17         H          2.8971     -1.4084      0.7888

  H: (PM3): J. J. P. STEWART, J. COMP. CHEM. 10, 209 (1989).
  C: (PM3): J. J. P. STEWART, J. COMP. CHEM. 10, 209 (1989).

           Empirical Formula: C7 H10  =    17 atoms



      MOLECULAR POINT GROUP   :   C1  


      RHF CALCULATION, NO. OF DOUBLY OCCUPIED LEVELS = 19


          Geometry optimization using EF

          DIAGONAL MATRIX USED AS START HESSIAN

 CYCLE:     1 TIME:   0.020 TIME LEFT:  2.00D  GRAD.:    85.405 HEAT:  90.74269
 CYCLE:     2 TIME:   0.031 TIME LEFT:  2.00D  GRAD.:   112.196 HEAT:  88.09533
 CYCLE:     3 TIME:   0.023 TIME LEFT:  2.00D  GRAD.:    97.894 HEAT:  84.08557
 CYCLE:     4 TIME:   0.023 TIME LEFT:  2.00D  GRAD.:   155.280 HEAT:  82.98577
 CYCLE:     5 TIME:   0.023 TIME LEFT:  2.00D  GRAD.:   104.787 HEAT:  79.63957
 CYCLE:     6 TIME:   0.027 TIME LEFT:  2.00D  GRAD.:    66.808 HEAT:  77.38299
 CYCLE:     7 TIME:   0.020 TIME LEFT:  2.00D  GRAD.:    62.876 HEAT:  76.44547
 CYCLE:     8 TIME:   0.023 TIME LEFT:  2.00D  GRAD.:    40.273 HEAT:  74.67158
 CYCLE:     9 TIME:   0.031 TIME LEFT:  2.00D  GRAD.:    43.277 HEAT:  73.18183
 CYCLE:    10 TIME:   0.023 TIME LEFT:  2.00D  GRAD.:    60.643 HEAT:  71.39947
 CYCLE:    11 TIME:   0.023 TIME LEFT:  2.00D  GRAD.:    63.464 HEAT:  69.21410
 CYCLE:    12 TIME:   0.023 TIME LEFT:  2.00D  GRAD.:   112.070 HEAT:  68.89429
 CYCLE:    13 TIME:   0.027 TIME LEFT:  2.00D  GRAD.:   134.140 HEAT:  68.89207
 CYCLE:    14 TIME:   0.020 TIME LEFT:  2.00D  GRAD.:    81.849 HEAT:  66.64014
 CYCLE:    15 TIME:   0.020 TIME LEFT:  2.00D  GRAD.:    88.182 HEAT:  65.78793
 CYCLE:    16 TIME:   0.023 TIME LEFT:  2.00D  GRAD.:    60.308 HEAT:  64.74007
 CYCLE:    17 TIME:   0.023 TIME LEFT:  2.00D  GRAD.:    49.964 HEAT:  63.80583
 CYCLE:    18 TIME:   0.023 TIME LEFT:  2.00D  GRAD.:    27.262 HEAT:  63.03549
 CYCLE:    19 TIME:   0.023 TIME LEFT:  2.00D  GRAD.:    29.503 HEAT:  62.47369
 CYCLE:    20 TIME:   0.023 TIME LEFT:  2.00D  GRAD.:    41.129 HEAT:  61.74483
 CYCLE:    21 TIME:   0.020 TIME LEFT:  2.00D  GRAD.:    33.421 HEAT:  60.90515
 CYCLE:    22 TIME:   0.023 TIME LEFT:  2.00D  GRAD.:    20.262 HEAT:  60.55882
 CYCLE:    23 TIME:   0.023 TIME LEFT:  2.00D  GRAD.:    18.498 HEAT:  60.31519
 CYCLE:    24 TIME:   0.023 TIME LEFT:  2.00D  GRAD.:    13.185 HEAT:  60.09079
 CYCLE:    25 TIME:   0.023 TIME LEFT:  2.00D  GRAD.:    19.957 HEAT:  59.87238
 CYCLE:    26 TIME:   0.023 TIME LEFT:  2.00D  GRAD.:    10.790 HEAT:  59.64187
 CYCLE:    27 TIME:   0.023 TIME LEFT:  2.00D  GRAD.:     8.617 HEAT:  59.50197
 CYCLE:    28 TIME:   0.020 TIME LEFT:  2.00D  GRAD.:     8.962 HEAT:  59.37176
 CYCLE:    29 TIME:   0.023 TIME LEFT:  2.00D  GRAD.:     8.764 HEAT:  59.21045
 CYCLE:    30 TIME:   0.023 TIME LEFT:  2.00D  GRAD.:     8.195 HEAT:  59.08963
 CYCLE:    31 TIME:   0.023 TIME LEFT:  2.00D  GRAD.:     8.706 HEAT:  58.98974
 CYCLE:    32 TIME:   0.023 TIME LEFT:  2.00D  GRAD.:     8.884 HEAT:  58.86463
 CYCLE:    33 TIME:   0.023 TIME LEFT:  2.00D  GRAD.:    10.501 HEAT:  58.68130
 CYCLE:    34 TIME:   0.023 TIME LEFT:  2.00D  GRAD.:    12.196 HEAT:  58.45389
 CYCLE:    35 TIME:   0.020 TIME LEFT:  2.00D  GRAD.:    11.351 HEAT:  58.17771
 CYCLE:    36 TIME:   0.023 TIME LEFT:  2.00D  GRAD.:     9.722 HEAT:  57.91482
 CYCLE:    37 TIME:   0.023 TIME LEFT:  2.00D  GRAD.:     8.712 HEAT:  57.72063
 CYCLE:    38 TIME:   0.023 TIME LEFT:  2.00D  GRAD.:    14.474 HEAT:  57.65032
 CYCLE:    39 TIME:   0.023 TIME LEFT:  2.00D  GRAD.:    10.205 HEAT:  57.50605
 CYCLE:    40 TIME:   0.023 TIME LEFT:  2.00D  GRAD.:     7.220 HEAT:  57.42154
 CYCLE:    41 TIME:   0.020 TIME LEFT:  2.00D  GRAD.:     5.366 HEAT:  57.34038
 CYCLE:    42 TIME:   0.023 TIME LEFT:  2.00D  GRAD.:     4.528 HEAT:  57.29462
 CYCLE:    43 TIME:   0.023 TIME LEFT:  2.00D  GRAD.:     4.446 HEAT:  57.25461
 CYCLE:    44 TIME:   0.023 TIME LEFT:  2.00D  GRAD.:     4.727 HEAT:  57.20615
 CYCLE:    45 TIME:   0.023 TIME LEFT:  2.00D  GRAD.:     5.115 HEAT:  57.16554
 CYCLE:    46 TIME:   0.023 TIME LEFT:  2.00D  GRAD.:     5.626 HEAT:  57.11879
 CYCLE:    47 TIME:   0.023 TIME LEFT:  2.00D  GRAD.:     5.037 HEAT:  57.06261
 CYCLE:    48 TIME:   0.020 TIME LEFT:  2.00D  GRAD.:     4.874 HEAT:  56.99909
 CYCLE:    49 TIME:   0.023 TIME LEFT:  2.00D  GRAD.:     3.668 HEAT:  56.95313
 CYCLE:    50 TIME:   0.023 TIME LEFT:  2.00D  GRAD.:     2.744 HEAT:  56.92944
 CYCLE:    51 TIME:   0.023 TIME LEFT:  2.00D  GRAD.:     2.356 HEAT:  56.91636
 CYCLE:    52 TIME:   0.023 TIME LEFT:  2.00D  GRAD.:     2.563 HEAT:  56.90360
 CYCLE:    53 TIME:   0.023 TIME LEFT:  2.00D  GRAD.:     2.759 HEAT:  56.88805
 CYCLE:    54 TIME:   0.023 TIME LEFT:  2.00D  GRAD.:     2.719 HEAT:  56.87031
 CYCLE:    55 TIME:   0.020 TIME LEFT:  2.00D  GRAD.:     2.402 HEAT:  56.85329
 CYCLE:    56 TIME:   0.023 TIME LEFT:  2.00D  GRAD.:     2.039 HEAT:  56.83996
 CYCLE:    57 TIME:   0.023 TIME LEFT:  2.00D  GRAD.:     1.835 HEAT:  56.83059
 CYCLE:    58 TIME:   0.023 TIME LEFT:  2.00D  GRAD.:     1.194 HEAT:  56.82547
 CYCLE:    59 TIME:   0.023 TIME LEFT:  2.00D  GRAD.:     0.862 HEAT:  56.82315
 CYCLE:    60 TIME:   0.023 TIME LEFT:  2.00D  GRAD.:     0.571 HEAT:  56.82214
 CYCLE:    61 TIME:   0.023 TIME LEFT:  2.00D  GRAD.:     0.592 HEAT:  56.82138
 CYCLE:    62 TIME:   0.020 TIME LEFT:  2.00D  GRAD.:     0.759 HEAT:  56.82039
 CYCLE:    63 TIME:   0.023 TIME LEFT:  2.00D  GRAD.:     0.921 HEAT:  56.81891
 CYCLE:    64 TIME:   0.023 TIME LEFT:  2.00D  GRAD.:     0.978 HEAT:  56.81724
 CYCLE:    65 TIME:   0.023 TIME LEFT:  2.00D  GRAD.:     1.240 HEAT:  56.81519
 CYCLE:    66 TIME:   0.023 TIME LEFT:  2.00D  GRAD.:     1.143 HEAT:  56.81366
 CYCLE:    67 TIME:   0.023 TIME LEFT:  2.00D  GRAD.:     1.857 HEAT:  56.80781
 CYCLE:    68 TIME:   0.023 TIME LEFT:  2.00D  GRAD.:     1.964 HEAT:  56.80263
 CYCLE:    69 TIME:   0.027 TIME LEFT:  2.00D  GRAD.:     2.267 HEAT:  56.78415
 CYCLE:    70 TIME:   0.023 TIME LEFT:  2.00D  GRAD.:     2.563 HEAT:  56.77652
 CYCLE:    71 TIME:   0.023 TIME LEFT:  2.00D  GRAD.:     3.359 HEAT:  56.76717
 CYCLE:    72 TIME:   0.027 TIME LEFT:  2.00D  GRAD.:     3.329 HEAT:  56.75806
 CYCLE:    73 TIME:   0.016 TIME LEFT:  2.00D  GRAD.:     1.177 HEAT:  56.75375
 CYCLE:    74 TIME:   0.023 TIME LEFT:  2.00D  GRAD.:     0.731 HEAT:  56.74770
 CYCLE:    75 TIME:   0.023 TIME LEFT:  2.00D  GRAD.:     1.933 HEAT:  56.74444
 CYCLE:    76 TIME:   0.023 TIME LEFT:  2.00D  GRAD.:     0.615 HEAT:  56.74275
 CYCLE:    77 TIME:   0.023 TIME LEFT:  2.00D  GRAD.:     0.626 HEAT:  56.74182
 CYCLE:    78 TIME:   0.023 TIME LEFT:  2.00D  GRAD.:     0.701 HEAT:  56.74030
 CYCLE:    79 TIME:   0.020 TIME LEFT:  2.00D  GRAD.:     0.742 HEAT:  56.73920
 CYCLE:    80 TIME:   0.023 TIME LEFT:  2.00D  GRAD.:     0.389 HEAT:  56.73874
 CYCLE:    81 TIME:   0.023 TIME LEFT:  2.00D  GRAD.:     0.306 HEAT:  56.73850
 CYCLE:    82 TIME:   0.023 TIME LEFT:  2.00D  GRAD.:     0.242 HEAT:  56.73834
 CYCLE:    83 TIME:   0.023 TIME LEFT:  2.00D  GRAD.:     0.247 HEAT:  56.73821
 CYCLE:    84 TIME:   0.023 TIME LEFT:  2.00D  GRAD.:     0.200 HEAT:  56.73811
 CYCLE:    85 TIME:   0.023 TIME LEFT:  2.00D  GRAD.:     0.196 HEAT:  56.73800
 CYCLE:    86 TIME:   0.020 TIME LEFT:  2.00D  GRAD.:     0.232 HEAT:  56.73793
 CYCLE:    87 TIME:   0.027 TIME LEFT:  2.00D  GRAD.:     0.288 HEAT:  56.73777
 CYCLE:    88 TIME:   0.020 TIME LEFT:  2.00D  GRAD.:     0.391 HEAT:  56.73753
 CYCLE:    89 TIME:   0.023 TIME LEFT:  2.00D  GRAD.:     0.545 HEAT:  56.73693
 CYCLE:    90 TIME:   0.023 TIME LEFT:  2.00D  GRAD.:     0.616 HEAT:  56.73635
 CYCLE:    91 TIME:   0.023 TIME LEFT:  2.00D  GRAD.:     0.946 HEAT:  56.73476
 CYCLE:    92 TIME:   0.020 TIME LEFT:  2.00D  GRAD.:     1.031 HEAT:  56.73382
 CYCLE:    93 TIME:   0.023 TIME LEFT:  2.00D  GRAD.:     1.132 HEAT:  56.73055
 CYCLE:    94 TIME:   0.023 TIME LEFT:  2.00D  GRAD.:     1.741 HEAT:  56.72410
 CYCLE:    95 TIME:   0.023 TIME LEFT:  2.00D  GRAD.:     2.475 HEAT:  56.71737
 CYCLE:    96 TIME:   0.023 TIME LEFT:  2.00D  GRAD.:     2.766 HEAT:  56.70717
 CYCLE:    97 TIME:   0.023 TIME LEFT:  2.00D  GRAD.:     4.577 HEAT:  56.69686
 CYCLE:    98 TIME:   0.023 TIME LEFT:  2.00D  GRAD.:     4.847 HEAT:  56.69279
 CYCLE:    99 TIME:   0.020 TIME LEFT:  2.00D  GRAD.:     3.016 HEAT:  56.67107
 CYCLE:   100 TIME:   0.023 TIME LEFT:  2.00D  GRAD.:     1.636 HEAT:  56.66372
 CYCLE:   101 TIME:   0.027 TIME LEFT:  2.00D  GRAD.:     3.531 HEAT:  56.65175
 CYCLE:   102 TIME:   0.023 TIME LEFT:  2.00D  GRAD.:     3.838 HEAT:  56.63849
 CYCLE:   103 TIME:   0.023 TIME LEFT:  2.00D  GRAD.:     3.005 HEAT:  56.61414
 CYCLE:   104 TIME:   0.023 TIME LEFT:  2.00D  GRAD.:     2.822 HEAT:  56.59336
 CYCLE:   105 TIME:   0.035 TIME LEFT:  2.00D  GRAD.:     4.416 HEAT:  56.58404
 CYCLE:   106 TIME:   0.023 TIME LEFT:  2.00D  GRAD.:     5.403 HEAT:  56.57214
 CYCLE:   107 TIME:   0.023 TIME LEFT:  2.00D  GRAD.:     3.360 HEAT:  56.54818
 CYCLE:   108 TIME:   0.039 TIME LEFT:  2.00D  GRAD.:     4.210 HEAT:  56.54440
 CYCLE:   109 TIME:   0.023 TIME LEFT:  2.00D  GRAD.:     1.189 HEAT:  56.53923
 CYCLE:   110 TIME:   0.023 TIME LEFT:  2.00D  GRAD.:     1.891 HEAT:  56.52651
 CYCLE:   111 TIME:   0.023 TIME LEFT:  2.00D  GRAD.:     5.736 HEAT:  56.51512
 CYCLE:   112 TIME:   0.020 TIME LEFT:  2.00D  GRAD.:     3.182 HEAT:  56.50040
 CYCLE:   113 TIME:   0.023 TIME LEFT:  2.00D  GRAD.:     3.672 HEAT:  56.47987
 CYCLE:   114 TIME:   0.027 TIME LEFT:  2.00D  GRAD.:     4.998 HEAT:  56.47024
 CYCLE:   115 TIME:   0.020 TIME LEFT:  2.00D  GRAD.:     6.673 HEAT:  56.46765
 CYCLE:   116 TIME:   0.133 TIME LEFT:  2.00D  GRAD.:     4.884 HEAT:  56.45796
 CYCLE:   117 TIME:   0.020 TIME LEFT:  2.00D  GRAD.:     4.223 HEAT:  56.45023
 CYCLE:   118 TIME:   0.070 TIME LEFT:  2.00D  GRAD.:     1.557 HEAT:  56.44076
 CYCLE:   119 TIME:   0.023 TIME LEFT:  2.00D  GRAD.:     1.329 HEAT:  56.43500
 CYCLE:   120 TIME:   0.023 TIME LEFT:  2.00D  GRAD.:     1.812 HEAT:  56.42547
 CYCLE:   121 TIME:   0.023 TIME LEFT:  2.00D  GRAD.:     2.251 HEAT:  56.41605
 CYCLE:   122 TIME:   0.020 TIME LEFT:  2.00D  GRAD.:     2.602 HEAT:  56.40794
 CYCLE:   123 TIME:   0.023 TIME LEFT:  2.00D  GRAD.:     1.792 HEAT:  56.39934
 CYCLE:   124 TIME:   0.023 TIME LEFT:  2.00D  GRAD.:     2.688 HEAT:  56.39525
 CYCLE:   125 TIME:   0.023 TIME LEFT:  2.00D  GRAD.:     1.850 HEAT:  56.39025
 CYCLE:   126 TIME:   0.023 TIME LEFT:  2.00D  GRAD.:     3.698 HEAT:  56.38953
 CYCLE:   127 TIME:   0.020 TIME LEFT:  2.00D  GRAD.:     4.069 HEAT:  56.38978
 CYCLE:   128 TIME:   0.023 TIME LEFT:  2.00D  GRAD.:     2.894 HEAT:  56.38668
 CYCLE:   129 TIME:   0.023 TIME LEFT:  2.00D  GRAD.:     1.987 HEAT:  56.38405
 CYCLE:   130 TIME:   0.023 TIME LEFT:  2.00D  GRAD.:     1.675 HEAT:  56.38215
 CYCLE:   131 TIME:   0.023 TIME LEFT:  2.00D  GRAD.:     1.276 HEAT:  56.38120
 CYCLE:   132 TIME:   0.023 TIME LEFT:  2.00D  GRAD.:     0.726 HEAT:  56.38048
 CYCLE:   133 TIME:   0.023 TIME LEFT:  2.00D  GRAD.:     0.574 HEAT:  56.37955
 CYCLE:   134 TIME:   0.023 TIME LEFT:  2.00D  GRAD.:     0.923 HEAT:  56.37847
 CYCLE:   135 TIME:   0.023 TIME LEFT:  2.00D  GRAD.:     2.007 HEAT:  56.37951
 CYCLE:   136 TIME:   0.020 TIME LEFT:  2.00D  GRAD.:     0.999 HEAT:  56.37812
 CYCLE:   137 TIME:   0.023 TIME LEFT:  2.00D  GRAD.:     0.774 HEAT:  56.37799
 CYCLE:   138 TIME:   0.023 TIME LEFT:  2.00D  GRAD.:     0.306 HEAT:  56.37772
 CYCLE:   139 TIME:   0.023 TIME LEFT:  2.00D  GRAD.:     0.428 HEAT:  56.37756
 CYCLE:   140 TIME:   0.023 TIME LEFT:  2.00D  GRAD.:     0.572 HEAT:  56.37741
 CYCLE:   141 TIME:   0.020 TIME LEFT:  2.00D  GRAD.:     0.384 HEAT:  56.37724
 CYCLE:   142 TIME:   0.023 TIME LEFT:  2.00D  GRAD.:     0.387 HEAT:  56.37708
 CYCLE:   143 TIME:   0.023 TIME LEFT:  2.00D  GRAD.:     0.530 HEAT:  56.37691
 CYCLE:   144 TIME:   0.023 TIME LEFT:  2.00D  GRAD.:     0.524 HEAT:  56.37673
 CYCLE:   145 TIME:   0.023 TIME LEFT:  2.00D  GRAD.:     0.428 HEAT:  56.37656
 CYCLE:   146 TIME:   0.023 TIME LEFT:  2.00D  GRAD.:     0.342 HEAT:  56.37637
 CYCLE:   147 TIME:   0.023 TIME LEFT:  2.00D  GRAD.:     0.372 HEAT:  56.37625
 CYCLE:   148 TIME:   0.023 TIME LEFT:  2.00D  GRAD.:     1.735 HEAT:  56.37952
 CYCLE:   149 TIME:   0.020 TIME LEFT:  2.00D  GRAD.:     0.416 HEAT:  56.37602
 CYCLE:   150 TIME:   0.023 TIME LEFT:  2.00D  GRAD.:     0.207 HEAT:  56.37591
 CYCLE:   151 TIME:   0.023 TIME LEFT:  2.00D  GRAD.:     0.138 HEAT:  56.37586
 CYCLE:   152 TIME:   0.023 TIME LEFT:  2.00D  GRAD.:     0.093 HEAT:  56.37584
 CYCLE:   153 TIME:   0.023 TIME LEFT:  2.00D  GRAD.:     0.115 HEAT:  56.37582
 CYCLE:   154 TIME:   0.023 TIME LEFT:  2.00D  GRAD.:     0.111 HEAT:  56.37581
 CYCLE:   155 TIME:   0.020 TIME LEFT:  2.00D  GRAD.:     0.049 HEAT:  56.37581

     GRADIENT =  0.04912  IS LESS THAN CUTOFF =  0.05000



 -------------------------------------------------------------------------------
 pm3  precise nosym THREADS=1
 InChI=1S/C7H10/c1-2-3-4-7-5-6-7/h2,4,7H,5-6H2,1H3



     GEOMETRY OPTIMISED USING EIGENVECTOR FOLLOWING (EF).     
     SCF FIELD WAS ACHIEVED                                   


                              PM3 CALCULATION
                                                       MOPAC2016 (Version: 18.184L)
                                                       Thu Jun 13 16:25:16 2019
                                                       No. of days remaining =  20




          FINAL HEAT OF FORMATION =         56.37581 KCAL/MOL =     235.87639 KJ/MOL


          TOTAL ENERGY            =       -981.36501 EV
          ELECTRONIC ENERGY       =      -4267.04043 EV  POINT GROUP:     C1  
          CORE-CORE REPULSION     =       3285.67542 EV
          COSMO AREA              =        157.56 SQUARE ANGSTROMS
          COSMO VOLUME            =        143.05 CUBIC ANGSTROMS

          GRADIENT NORM           =          0.04912 = 0.01191 PER ATOM
          IONIZATION POTENTIAL    =          9.672163 EV
          HOMO LUMO ENERGIES (EV) =         -9.672  0.973
          NO. OF FILLED LEVELS    =         19
          MOLECULAR WEIGHT        =         94.1560

          MOLECULAR DIMENSIONS (Angstroms)

            Atom       Atom       Distance
            H    13    H    12     7.59323
            H    17    H    10     4.38501
            H    16    H    14     3.24101


          SCF CALCULATIONS        =        170
 
          WALL-CLOCK TIME         =          3.813 SECONDS
          COMPUTATION TIME        =          0.972 SECONDS




   ATOM   CHEMICAL          X               Y               Z
  NUMBER   SYMBOL      (ANGSTROMS)     (ANGSTROMS)     (ANGSTROMS)
 
     1       C         -1.33777327  *   0.03735944  *   0.33523534  *
     2       C         -2.24047472  *   1.22658265  *   0.13077073  *
     3       C         -2.54501501  *   0.24031921  *   1.21399106  *
     4       C          2.97946476  *  -0.74972833  *  -0.91112893  *
     5       C          0.00114205  *   0.25884554  *   0.91300954  *
     6       C          2.07950329  *  -1.14067078  *   0.19914491  *
     7       C          1.03892188  *  -0.44121169  *   0.55093155  *
     8       H         -1.36273083  *  -0.77613286  *  -0.41243077  *
     9       H         -2.87297098  *   1.27795215  *  -0.76174811  *
    10       H         -1.88771335  *   2.23074991  *   0.39193566  *
    11       H         -2.41405226  *   0.52655154  *   2.26373611  *
    12       H         -3.40189866  *  -0.43506355  *   1.11960389  *
    13       H          4.00500338  *  -0.61381113  *  -0.54260005  *
    14       H          3.00313749  *  -1.53458415  *  -1.67886911  *
    15       H          2.67390909  *   0.18442348  *  -1.39881817  *
    16       H          0.10536858  *   1.04429619  *   1.67273266  *
    17       H          2.31896568  *  -2.06560692  *   0.73842354  *

                             CARTESIAN COORDINATES

   1    C       -1.337773268     0.037359437     0.335235343
   2    C       -2.240474717     1.226582646     0.130770728
   3    C       -2.545015010     0.240319209     1.213991063
   4    C        2.979464758    -0.749728330    -0.911128932
   5    C        0.001142052     0.258845537     0.913009539
   6    C        2.079503291    -1.140670781     0.199144914
   7    C        1.038921878    -0.441211688     0.550931552
   8    H       -1.362730832    -0.776132859    -0.412430767
   9    H       -2.872970982     1.277952153    -0.761748114
  10    H       -1.887713348     2.230749909     0.391935658
  11    H       -2.414052256     0.526551536     2.263736108
  12    H       -3.401898660    -0.435063553     1.119603894
  13    H        4.005003382    -0.613811132    -0.542600051
  14    H        3.003137487    -1.534584147    -1.678869112
  15    H        2.673909090     0.184423481    -1.398818167
  16    H        0.105368579     1.044296191     1.672732660
  17    H        2.318965676    -2.065606922     0.738423540


           Empirical Formula: C7 H10  =    17 atoms



      MOLECULAR POINT GROUP   :   C1  


                  EIGENVALUES  
 -39.35752 -35.03461 -29.46774 -24.09157 -22.19051 -20.77358 -18.41374 -17.04556
 -16.53553 -15.27069 -14.92371 -14.24049 -13.09196 -12.83260 -12.41679 -12.29838
 -11.73914  -9.83031  -9.67216   0.97283   1.06610   2.95057   3.16630   3.36301
   3.41359   3.59449   3.79010   3.96480   4.17849   4.30372   4.47698   4.62138
   4.85695   4.90793   5.10149   5.17485   5.35520   6.62324


              NET ATOMIC CHARGES AND DIPOLE CONTRIBUTIONS

  ATOM NO.   TYPE          CHARGE      No. of ELECS.   s-Pop       p-Pop       
    1          C          -0.093413        4.0934     1.16071     2.93270
    2          C          -0.147126        4.1471     1.16122     2.98591
    3          C          -0.147331        4.1473     1.16126     2.98607
    4          C          -0.064375        4.0644     1.12271     2.94166
    5          C          -0.040987        4.0410     1.15209     2.88890
    6          C          -0.067861        4.0679     1.15871     2.90916
    7          C          -0.199846        4.1998     1.21405     2.98579
    8          H           0.099474        0.9005     0.90053
    9          H           0.077376        0.9226     0.92262
   10          H           0.079577        0.9204     0.92042
   11          H           0.079570        0.9204     0.92043
   12          H           0.077412        0.9226     0.92259
   13          H           0.043652        0.9563     0.95635
   14          H           0.043795        0.9562     0.95621
   15          H           0.045112        0.9549     0.95489
   16          H           0.108951        0.8910     0.89105
   17          H           0.106020        0.8940     0.89398
 DIPOLE           X         Y         Z       TOTAL
 POINT-CHG.     0.047     0.002    -0.161     0.168
 HYBRID         0.008     0.001     0.042     0.043
 SUM            0.055     0.003    -0.119     0.131


          ATOMIC ORBITAL ELECTRON POPULATIONS

     Atom    s        px        py        pz   
    1  C   1.16071   0.90256   1.00702   1.02312
    2  C   1.16122   1.02998   0.94854   1.00739
    3  C   1.16126   0.99117   1.02902   0.96588
    4  C   1.12271   0.97560   1.00559   0.96047
    5  C   1.15209   0.90907   0.98365   0.99618
    6  C   1.15871   0.94342   0.97937   0.98637
    7  C   1.21405   0.98129   0.99696   1.00754
    8  H   0.90053
    9  H   0.92262
   10  H   0.92042
   11  H   0.92043
   12  H   0.92259
   13  H   0.95635
   14  H   0.95621
   15  H   0.95489
   16  H   0.89105
   17  H   0.89398
 *******************************************************************************
 ** Site#: 14399        For non-commercial use only    Version 18.184L 64BITS **
 *******************************************************************************
 ** Cite this program as: MOPAC2016, Version: 18.184L, James J. P. Stewart,   **
 ** Stewart Computational Chemistry, web: HTTP://OpenMOPAC.net. Days left:  20**
 *******************************************************************************
 **                                                                           **
 **                                MOPAC2016                                  **
 **                                                                           **
 *******************************************************************************

                              PM3 CALCULATION RESULTS

 *******************************************************************************
 *  CALCULATION DONE:                                Thu Jun 13 16:25:16 2019  *
 *  PM3        - The PM3 Hamiltonian to be used
 *  OLDGEO     - PREVIOUS GEOMETRY TO BE USED
 *  PRECISE    - CRITERIA TO BE INCREASED BY 100 TIMES
 *  NOSYM      - POINT-GROUP SYMMETRY SET TO C1
 *  THREADS=1  - MULTI-THREADING NOT USED
 *  T=         - A TIME OF 172800.0 SECONDS REQUESTED
 *  DUMP=N     - RESTART FILE WRITTEN EVERY  7200.000 SECONDS
 *  THERMO     - THERMODYNAMIC QUANTITIES TO BE CALCULATED
 *******************************************************************************
oldgeo thermo nosym precise THREADS=1  pm3
 InChI=1S/C7H10/c1-2-3-4-7-5-6-7/h2,4,7H,5-6H2,1H3

   ATOM   CHEMICAL          X               Y               Z
  NUMBER   SYMBOL      (ANGSTROMS)     (ANGSTROMS)     (ANGSTROMS)
 
     1       C         -1.33777327  *   0.03735944  *   0.33523534  *
     2       C         -2.24047472  *   1.22658265  *   0.13077073  *
     3       C         -2.54501501  *   0.24031921  *   1.21399106  *
     4       C          2.97946476  *  -0.74972833  *  -0.91112893  *
     5       C          0.00114205  *   0.25884554  *   0.91300954  *
     6       C          2.07950329  *  -1.14067078  *   0.19914491  *
     7       C          1.03892188  *  -0.44121169  *   0.55093155  *
     8       H         -1.36273083  *  -0.77613286  *  -0.41243077  *
     9       H         -2.87297098  *   1.27795215  *  -0.76174811  *
    10       H         -1.88771335  *   2.23074991  *   0.39193566  *
    11       H         -2.41405226  *   0.52655154  *   2.26373611  *
    12       H         -3.40189866  *  -0.43506355  *   1.11960389  *
    13       H          4.00500338  *  -0.61381113  *  -0.54260005  *
    14       H          3.00313749  *  -1.53458415  *  -1.67886911  *
    15       H          2.67390909  *   0.18442348  *  -1.39881817  *
    16       H          0.10536858  *   1.04429619  *   1.67273266  *
    17       H          2.31896568  *  -2.06560692  *   0.73842354  *
 


          CARTESIAN COORDINATES 

    NO.       ATOM           X           Y           Z

     1         C         -1.3378      0.0374      0.3352
     2         C         -2.2405      1.2266      0.1308
     3         C         -2.5450      0.2403      1.2140
     4         C          2.9795     -0.7497     -0.9111
     5         C          0.0011      0.2588      0.9130
     6         C          2.0795     -1.1407      0.1991
     7         C          1.0389     -0.4412      0.5509
     8         H         -1.3627     -0.7761     -0.4124
     9         H         -2.8730      1.2780     -0.7617
    10         H         -1.8877      2.2307      0.3919
    11         H         -2.4141      0.5266      2.2637
    12         H         -3.4019     -0.4351      1.1196
    13         H          4.0050     -0.6138     -0.5426
    14         H          3.0031     -1.5346     -1.6789
    15         H          2.6739      0.1844     -1.3988
    16         H          0.1054      1.0443      1.6727
    17         H          2.3190     -2.0656      0.7384

  H: (PM3): J. J. P. STEWART, J. COMP. CHEM. 10, 209 (1989).
  C: (PM3): J. J. P. STEWART, J. COMP. CHEM. 10, 209 (1989).

           Empirical Formula: C7 H10  =    17 atoms



      MOLECULAR POINT GROUP   :   C1  


      RHF CALCULATION, NO. OF DOUBLY OCCUPIED LEVELS = 19



          HEAT OF FORMATION =      56.375809 KCALS/MOLE


          CARTESIAN COORDINATE DERIVATIVES

   NUMBER  ATOM         X            Y            Z

     1       C      0.010508    -0.006293     0.018515
     2       C      0.003037    -0.002289     0.004978
     3       C     -0.003190    -0.005881     0.004371
     4       C     -0.004166    -0.003921     0.000379
     5       C     -0.012124    -0.011155    -0.004755
     6       C     -0.002695    -0.000708    -0.001718
     7       C      0.019381     0.021882     0.006385
     8       H     -0.009408     0.005454    -0.015925
     9       H      0.000943     0.002359     0.001950
    10       H     -0.003532     0.005517    -0.005609
    11       H      0.002076    -0.005148    -0.002823
    12       H     -0.001488     0.002013    -0.003419
    13       H      0.001912    -0.001968    -0.003815
    14       H     -0.002572    -0.001112     0.003499
    15       H      0.004811     0.000818     0.001831
    16       H     -0.001690    -0.000890    -0.000861
    17       H     -0.001803     0.001323    -0.002983
 


          GRADIENT NORM =   0.04929


          TIME FOR SCF CALCULATION =    0.02

          TIME FOR DERIVATIVES     =    0.01

          MOLECULAR WEIGHT =   94.16



          ROTATIONAL CONSTANTS IN CM(-1)

          A =    0.31525372   B =    0.03567152   C =    0.03423038



           PRINCIPAL MOMENTS OF INERTIA IN UNITS OF 10**(-40)*GRAM-CM**2

          A =       88.7944   B =      784.7373   C =      817.7758


          ORIENTATION OF MOLECULE IN FORCE CALCULATION

    NO.       ATOM         X         Y         Z

     1          C       0.8873    0.7445   -0.6761
     2          C       2.3942    0.7445   -0.6761
     3          C       1.6514    2.0434   -0.6761
     4          C      -2.1509   -2.4472    0.5047
     5          C       0.1816    0.3407    0.5545
     6          C      -2.0709   -0.9676    0.5078
     7          C      -0.9433   -0.3165    0.5269
     8          H       0.3617    0.4439   -1.6007
     9          H       2.9348    0.4186   -1.5711
    10          H       2.9399    0.4292    0.2204
    11          H       1.6564    2.6736    0.2204
    12          H       1.6445    2.6745   -1.5711
    13          H      -2.7079   -2.8021    1.3820
    14          H      -2.6803   -2.7998   -0.3905
    15          H      -1.1645   -2.9274    0.5194
    16          H       0.6360    0.6132    1.5159
    17          H      -3.0175   -0.4130    0.4943


    FIRST DERIVATIVES WILL BE USED IN THE CALCULATION OF SECOND DERIVATIVES

          ESTIMATED TIME TO COMPLETE CALCULATION =        6.38 SECONDS

    FOR POINT-GROUP C1   THERE ARE   1 UNIQUE SYMMETRY FUNCTIONS.

 STEP:   1 TIME =     0.04 SECS, INTEGRAL =      0.04 TIME LEFT: 172799.93
 STEP:   2 TIME =     0.03 SECS, INTEGRAL =      0.07 TIME LEFT: 172799.90
 STEP:   3 TIME =     0.03 SECS, INTEGRAL =      0.10 TIME LEFT: 172799.87
 STEP:   4 TIME =     0.03 SECS, INTEGRAL =      0.13 TIME LEFT: 172799.84
 STEP:   5 TIME =     0.03 SECS, INTEGRAL =      0.16 TIME LEFT: 172799.80
 STEP:   6 TIME =     0.03 SECS, INTEGRAL =      0.20 TIME LEFT: 172799.77
 STEP:   7 TIME =     0.03 SECS, INTEGRAL =      0.23 TIME LEFT: 172799.74
 STEP:   8 TIME =     0.03 SECS, INTEGRAL =      0.26 TIME LEFT: 172799.71
 STEP:   9 TIME =     0.03 SECS, INTEGRAL =      0.29 TIME LEFT: 172799.68
 STEP:  10 TIME =     0.03 SECS, INTEGRAL =      0.32 TIME LEFT: 172799.65
 STEP:  11 TIME =     0.03 SECS, INTEGRAL =      0.35 TIME LEFT: 172799.62
 STEP:  12 TIME =     0.03 SECS, INTEGRAL =      0.38 TIME LEFT: 172799.59
 STEP:  13 TIME =     0.03 SECS, INTEGRAL =      0.41 TIME LEFT: 172799.56
 STEP:  14 TIME =     0.03 SECS, INTEGRAL =      0.44 TIME LEFT: 172799.53
 STEP:  15 TIME =     0.03 SECS, INTEGRAL =      0.47 TIME LEFT: 172799.50
 STEP:  16 TIME =     0.03 SECS, INTEGRAL =      0.50 TIME LEFT: 172799.46
 STEP:  17 TIME =     0.03 SECS, INTEGRAL =      0.53 TIME LEFT: 172799.44
 STEP:  18 TIME =     0.03 SECS, INTEGRAL =      0.56 TIME LEFT: 172799.41
 STEP:  19 TIME =     0.03 SECS, INTEGRAL =      0.59 TIME LEFT: 172799.38
 STEP:  20 TIME =     0.03 SECS, INTEGRAL =      0.62 TIME LEFT: 172799.34
 STEP:  21 TIME =     0.04 SECS, INTEGRAL =      0.66 TIME LEFT: 172799.31
 STEP:  22 TIME =     0.03 SECS, INTEGRAL =      0.69 TIME LEFT: 172799.28
 STEP:  23 TIME =     0.03 SECS, INTEGRAL =      0.72 TIME LEFT: 172799.25
 STEP:  24 TIME =     0.03 SECS, INTEGRAL =      0.75 TIME LEFT: 172799.21
 STEP:  25 TIME =     0.03 SECS, INTEGRAL =      0.79 TIME LEFT: 172799.18
 STEP:  26 TIME =     0.03 SECS, INTEGRAL =      0.82 TIME LEFT: 172799.15
 STEP:  27 TIME =     0.03 SECS, INTEGRAL =      0.85 TIME LEFT: 172799.12
 STEP:  28 TIME =     0.03 SECS, INTEGRAL =      0.88 TIME LEFT: 172799.09
 STEP:  29 TIME =     0.03 SECS, INTEGRAL =      0.91 TIME LEFT: 172799.06
 STEP:  30 TIME =     0.03 SECS, INTEGRAL =      0.94 TIME LEFT: 172799.03
 STEP:  31 TIME =     0.03 SECS, INTEGRAL =      0.97 TIME LEFT: 172799.00
 STEP:  32 TIME =     0.03 SECS, INTEGRAL =      1.00 TIME LEFT: 172798.96
 STEP:  33 TIME =     0.03 SECS, INTEGRAL =      1.04 TIME LEFT: 172798.93
 STEP:  34 TIME =     0.03 SECS, INTEGRAL =      1.07 TIME LEFT: 172798.90
 STEP:  35 TIME =     0.03 SECS, INTEGRAL =      1.10 TIME LEFT: 172798.87
 STEP:  36 TIME =     0.03 SECS, INTEGRAL =      1.13 TIME LEFT: 172798.84
 STEP:  37 TIME =     0.03 SECS, INTEGRAL =      1.16 TIME LEFT: 172798.81
 STEP:  38 TIME =     0.03 SECS, INTEGRAL =      1.19 TIME LEFT: 172798.78
 STEP:  39 TIME =     0.03 SECS, INTEGRAL =      1.22 TIME LEFT: 172798.75
 STEP:  40 TIME =     0.03 SECS, INTEGRAL =      1.25 TIME LEFT: 172798.72
 STEP:  41 TIME =     0.03 SECS, INTEGRAL =      1.28 TIME LEFT: 172798.69
 STEP:  42 TIME =     0.03 SECS, INTEGRAL =      1.31 TIME LEFT: 172798.66
 STEP:  43 TIME =     0.03 SECS, INTEGRAL =      1.34 TIME LEFT: 172798.63
 STEP:  44 TIME =     0.03 SECS, INTEGRAL =      1.37 TIME LEFT: 172798.60
 STEP:  45 TIME =     0.03 SECS, INTEGRAL =      1.40 TIME LEFT: 172798.57
 STEP:  46 TIME =     0.04 SECS, INTEGRAL =      1.43 TIME LEFT: 172798.54
 STEP:  47 TIME =     0.03 SECS, INTEGRAL =      1.46 TIME LEFT: 172798.50
 STEP:  48 TIME =     0.03 SECS, INTEGRAL =      1.50 TIME LEFT: 172798.47
 STEP:  49 TIME =     0.03 SECS, INTEGRAL =      1.53 TIME LEFT: 172798.44
 STEP:  50 TIME =     0.03 SECS, INTEGRAL =      1.56 TIME LEFT: 172798.41
 STEP:  51 TIME =     0.03 SECS, INTEGRAL =      1.59 TIME LEFT: 172798.38

(To convert to Hartree/Bohr^2, multiply by (10^(-21) x N x a0^2)/(4.184 x 627.51) =  0.0642)


           FORCE MATRIX IN MILLIDYNES/ANGSTROM


                  C  1       C  2       C  3       C  4       C  5       C  6
 ------------------------------------------------------------------------------
     C    1  15.819530
     C    2   4.704745  15.349839
     C    3   4.705248   5.169698  15.349942
     C    4   0.080395   0.009935   0.008355  14.647616
     C    5   5.165655   0.611387   0.611129   0.071998  18.607217
     C    6   0.073858   0.013132   0.014239   5.117973   0.745701  18.308098
     C    7   1.007478   0.033900   0.037097   0.943116  11.475833  11.533502
     H    8   4.586833   0.435841   0.435188   0.001064   0.435022   0.004986
     H    9   0.459347   4.849403   0.460421   0.001337   0.041308   0.001479
     H   10   0.461181   4.823985   0.462282   0.000749   0.026773   0.001004
     H   11   0.461562   0.462450   4.822994   0.000523   0.026851   0.001151
     H   12   0.459440   0.460666   4.848869   0.001451   0.042218   0.002318
     H   13   0.008803   0.001208   0.000929   4.712182   0.010726   0.438025
     H   14   0.010098   0.001779   0.001013   4.712894   0.009222   0.437666
     H   15   0.000741   0.000629   0.000809   4.768843   0.004532   0.474986
     H   16   0.450969   0.016591   0.016714   0.066585   4.718607   0.044941
     H   17   0.068027   0.008116   0.008376   0.437431   0.043925   4.737783


                  C  7       H  8       H  9       H 10       H 11       H 12
 ------------------------------------------------------------------------------
     C    7  24.936014
     H    8   0.039652   5.101466
     H    9   0.004753   0.020371   5.453675
     H   10   0.003153   0.037582   0.494805   5.433373
     H   11   0.003200   0.037705   0.042296   0.021306   5.432795
     H   12   0.005143   0.020422   0.020477   0.042306   0.494654   5.453412
     H   13   0.035311   0.000304   0.000200   0.000171   0.000166   0.000298
     H   14   0.033521   0.000485   0.000344   0.000180   0.000186   0.000131
     H   15   0.032611   0.000376   0.000174   0.000126   0.000111   0.000180
     H   16   0.443713   0.034168   0.001480   0.011357   0.011919   0.001491
     H   17   0.447975   0.000835   0.001299   0.000436   0.000446   0.001313


                  H 13       H 14       H 15       H 16       H 17
 ------------------------------------------------------------------
     H   13   5.426982
     H   14   0.571006   5.427628
     H   15   0.562489   0.563144   5.484304
     H   16   0.008738   0.007847   0.000570   5.098646
     H   17   0.020628   0.020575   0.041224   0.058225   5.118493


          HEAT OF FORMATION =      56.375809 KCALS/MOLE

          ZERO POINT ENERGY      92.269 KCAL/MOL


           NORMAL COORDINATE ANALYSIS (Total motion = 1 Angstrom)


   Root No.       1         2         3         4         5         6         7         8

                 1 A       2 A       3 A       4 A       5 A       6 A       7 A       8 A   

                  34.8     114.3     131.8     202.9     228.1     365.7     408.1     538.7
  
           1   -0.0230    0.0148   -0.0006    0.0074   -0.0033    0.0294    0.0268    0.0055
           2    0.0339    0.0188    0.0030   -0.0158    0.0285    0.0147   -0.0355    0.0148
           3   -0.0005   -0.0225   -0.0016   -0.0247   -0.0167    0.0570   -0.0100   -0.0347
           4   -0.0228    0.0152   -0.0007    0.0083   -0.0017    0.0336    0.0326    0.0165
           5   -0.0442    0.0206    0.0049   -0.0003   -0.0026    0.0202    0.0099    0.0184
           6   -0.0152   -0.0025   -0.0152    0.0156    0.0325   -0.0294   -0.0262   -0.0012
           7    0.0442    0.0148   -0.0021   -0.0050    0.0258    0.0336   -0.0096    0.0327
           8   -0.0058    0.0200    0.0041   -0.0081    0.0125    0.0166   -0.0156    0.0181
           9    0.0215    0.0441    0.0067    0.0172   -0.0259   -0.0303    0.0240   -0.0100
          10    0.0364   -0.0359   -0.0115    0.0458   -0.0299   -0.0081   -0.0127   -0.0138
          11   -0.0150   -0.0102    0.0003    0.0109   -0.0182   -0.0199   -0.0131   -0.0267
          12    0.0095    0.0604    0.0073   -0.0050   -0.0188    0.0017   -0.0104   -0.0011
          13   -0.0293   -0.0010    0.0069   -0.0044   -0.0113   -0.0216   -0.0275    0.0057
          14    0.0383   -0.0192   -0.0063   -0.0279    0.0222   -0.0155    0.0486   -0.0292
          15   -0.0028   -0.0450   -0.0002   -0.0368   -0.0231    0.0214   -0.0104   -0.0270
          16    0.0005   -0.0057    0.0036   -0.0307    0.0113   -0.0328    0.0045   -0.0201
          17   -0.0130   -0.0121   -0.0007    0.0166   -0.0211   -0.0151   -0.0132   -0.0178
          18   -0.0090   -0.0068    0.0030    0.0457    0.0534    0.0109    0.0223   -0.0234
          19   -0.0151    0.0028    0.0080   -0.0389    0.0126   -0.0398   -0.0091   -0.0402
          20    0.0140   -0.0251   -0.0083    0.0329   -0.0207    0.0056    0.0129    0.0290
          21   -0.0061   -0.0519    0.0015   -0.0203   -0.0001   -0.0252    0.0199    0.1147
          22   -0.0474    0.0262   -0.0077    0.0291    0.0119    0.0224    0.0498    0.0172
          23    0.0819    0.0553    0.0123   -0.0104    0.0252    0.0094   -0.0630    0.0449
          24   -0.0022   -0.0404   -0.0005   -0.0378   -0.0237    0.0592   -0.0136   -0.0489
          25   -0.0484    0.0271   -0.0088    0.0368    0.0261   -0.0296    0.0189    0.0536
          26   -0.0520    0.0603    0.0162    0.0216   -0.0381   -0.0187    0.0625    0.0294
          27   -0.0278   -0.0098   -0.0243    0.0249    0.0626   -0.0545   -0.0550    0.0175
          28   -0.0306    0.0041    0.0082   -0.0130   -0.0433    0.1009    0.0714   -0.0175
          29   -0.0928   -0.0180   -0.0050   -0.0105    0.0086    0.0649    0.0004    0.0060
          30   -0.0276   -0.0093   -0.0242    0.0252    0.0623   -0.0557   -0.0547    0.0162
          31    0.0857    0.0020    0.0051   -0.0378    0.0126    0.1041   -0.0325    0.0212
          32   -0.0262   -0.0196   -0.0066   -0.0239    0.0399    0.0526   -0.0602    0.0178
          33    0.0357    0.0722    0.0142    0.0287   -0.0455   -0.0571    0.0572   -0.0100
          34    0.0683    0.0270   -0.0109    0.0143    0.0688   -0.0332   -0.0327    0.0719
          35    0.0148    0.0598    0.0149    0.0078   -0.0148   -0.0190    0.0303    0.0212
          36    0.0358    0.0722    0.0144    0.0284   -0.0458   -0.0560    0.0579   -0.0089
          37    0.0345   -0.0105   -0.2427    0.0424   -0.0519   -0.0038   -0.0173   -0.0116
          38   -0.0167    0.0433    0.0175   -0.0542   -0.0526   -0.0381   -0.0379   -0.0016
          39    0.0077    0.0984   -0.1328   -0.0340   -0.0469   -0.0030   -0.0237    0.0116
          40    0.0554   -0.0769    0.2167    0.0902   -0.0305    0.0010   -0.0216   -0.0174
          41   -0.0396   -0.0421   -0.0055    0.0166    0.0503   -0.0239    0.0296   -0.0589
          42    0.0080    0.0973   -0.1256   -0.0336   -0.0460   -0.0023   -0.0229    0.0137
          43    0.0476   -0.0453   -0.0204    0.0720   -0.0449    0.0006   -0.0210   -0.0144
          44    0.0087   -0.0298   -0.0100    0.0641   -0.0488   -0.0021   -0.0297   -0.0267
          45    0.0276    0.0467    0.2697    0.0024   -0.0358    0.0005   -0.0328    0.0127
          46   -0.0448   -0.0171    0.0083    0.0284   -0.0107   -0.0480   -0.0760    0.1012
          47    0.0597   -0.0277   -0.0057   -0.0910    0.0267   -0.0670    0.1557   -0.0576
          48   -0.0015   -0.0341   -0.0010   -0.0335   -0.0238    0.0478   -0.0171   -0.0615
          49   -0.0127    0.0035    0.0087   -0.0527    0.0195   -0.0465    0.0013   -0.0400
          50   -0.0360    0.0042    0.0080   -0.0211   -0.0039   -0.0374   -0.0175   -0.0529
          51   -0.0254   -0.0046   -0.0066    0.1281    0.1262    0.0494   -0.0057   -0.1479


   Root No.       9        10        11        12        13        14        15        16

                 9 A      10 A      11 A      12 A      13 A      14 A      15 A      16 A   

                 592.0     813.9     818.5     871.7     900.6     905.5     955.7     959.0
  
           1   -0.0032   -0.0027   -0.0001   -0.0001   -0.0073    0.0101   -0.0158   -0.0051
           2   -0.0049   -0.0005   -0.0009   -0.0019   -0.0100   -0.0022   -0.0022    0.0193
           3    0.0004   -0.0026    0.0016   -0.0016   -0.0136    0.0086    0.0002   -0.0002
           4   -0.0095    0.0079   -0.0027    0.0133   -0.0102   -0.0187    0.0085    0.0297
           5   -0.0098    0.0039    0.0027    0.0005    0.0138   -0.0058    0.0105   -0.0084
           6    0.0047    0.0013    0.0010   -0.0091   -0.0148    0.0140   -0.0058    0.0024
           7   -0.0152    0.0040    0.0038   -0.0046    0.0172   -0.0017    0.0067   -0.0146
           8   -0.0073   -0.0045    0.0039   -0.0116    0.0094    0.0179   -0.0145   -0.0254
           9    0.0039   -0.0010    0.0027    0.0069   -0.0186    0.0100   -0.0063    0.0013
          10   -0.0211   -0.0019   -0.0009   -0.0007   -0.0086    0.0083    0.0320   -0.0097
          11   -0.0361   -0.0008   -0.0021   -0.0012   -0.0096    0.0056    0.0227   -0.0074
          12    0.0022   -0.0090    0.0075   -0.0060   -0.0022   -0.0091   -0.0006   -0.0005
          13    0.0297   -0.0128    0.0117    0.0043    0.0231    0.0144   -0.0203    0.0122
          14    0.0141    0.0211   -0.0162   -0.0052   -0.0202   -0.0355   -0.0112   -0.0053
          15    0.0192    0.0115    0.0120    0.0030    0.0362   -0.0245    0.0016   -0.0003
          16    0.0579   -0.0069   -0.0013   -0.0012   -0.0114    0.0080    0.0080   -0.0028
          17   -0.0333    0.0011   -0.0003    0.0001    0.0025   -0.0019   -0.0073    0.0025
          18   -0.0078   -0.0222    0.0176   -0.0093   -0.0044   -0.0098    0.0006   -0.0008
          19   -0.0249    0.0038   -0.0041   -0.0022   -0.0042   -0.0068   -0.0078    0.0006
          20    0.1075   -0.0130    0.0077    0.0036    0.0082    0.0116   -0.0119    0.0073
          21   -0.0363    0.0100   -0.0142    0.0039   -0.0096    0.0126    0.0037   -0.0010
          22   -0.0182    0.0051   -0.0296   -0.0649   -0.0236    0.0525   -0.0491   -0.1064
          23   -0.0162   -0.0387    0.0153    0.1071   -0.0588   -0.0208    0.0380    0.2020
          24    0.0128    0.0064    0.0138   -0.0000    0.0142   -0.0112    0.0066   -0.0021
          25   -0.0053   -0.0022    0.0161    0.1388    0.0609   -0.1303    0.0457   -0.0220
          26   -0.0060    0.0976    0.1329    0.0849   -0.0132   -0.0511    0.0304   -0.0797
          27    0.0063   -0.0424   -0.0381    0.0398    0.0412   -0.0406    0.0104   -0.0027
          28   -0.0172    0.0281   -0.0231   -0.0926   -0.0717    0.0541    0.0164    0.1080
          29   -0.0174   -0.0739   -0.1285   -0.0493    0.0540   -0.0223    0.0680    0.1094
          30    0.0070   -0.0420   -0.0358    0.0417    0.0406   -0.0400    0.0104   -0.0049
          31   -0.0316   -0.0998   -0.0837    0.0917   -0.0095   -0.0023   -0.0144   -0.1681
          32   -0.0116    0.0211    0.0767    0.0422   -0.0884    0.0653   -0.0381   -0.0194
          33    0.0072   -0.0200   -0.0526   -0.0347    0.0556   -0.0258    0.0116   -0.0015
          34   -0.0115    0.1124    0.1015   -0.1328    0.1238    0.0038    0.0731    0.0382
          35   -0.0049   -0.0300   -0.0693   -0.0642    0.1100   -0.0302    0.0089   -0.0303
          36    0.0061   -0.0216   -0.0540   -0.0325    0.0564   -0.0258    0.0105   -0.0032
          37   -0.0683    0.0100   -0.0044    0.0014    0.0079   -0.0107   -0.0373    0.0103
          38    0.0426    0.0603   -0.0617    0.0350   -0.0261    0.0905    0.1439   -0.0398
          39    0.0066    0.0250   -0.0201    0.0110    0.0021    0.0147    0.0048   -0.0008
          40   -0.0657    0.0040    0.0006   -0.0023    0.0068   -0.0165   -0.0378    0.0102
          41    0.0032   -0.0891    0.0595   -0.0402   -0.0507   -0.0122    0.1324   -0.0429
          42    0.0115    0.0245   -0.0193    0.0112    0.0049    0.0134   -0.0026    0.0018
          43   -0.0774    0.0085   -0.0021   -0.0005    0.0093   -0.0169   -0.0470    0.0129
          44   -0.1447    0.0206   -0.0054   -0.0001    0.0255   -0.0424   -0.1303    0.0366
          45    0.0147    0.0342   -0.0273    0.0152    0.0051    0.0190    0.0012    0.0008
          46    0.1065    0.0430   -0.0474   -0.0377   -0.0647   -0.0913   -0.0634   -0.0074
          47   -0.1239   -0.0668    0.0535    0.0779    0.1302    0.1662   -0.0350    0.0614
          48    0.0212    0.0099    0.0197   -0.0006    0.0352   -0.0316    0.0272   -0.0093
          49    0.0257   -0.0044   -0.0047   -0.0058   -0.0206   -0.0049   -0.0194    0.0013
          50   -0.0802    0.0096   -0.0092   -0.0051   -0.0108   -0.0205   -0.0526    0.0094
          51    0.0712    0.1674   -0.1226    0.0947    0.0676    0.1067   -0.0014    0.0096


   Root No.      17        18        19        20        21        22        23        24

                17 A      18 A      19 A      20 A      21 A      22 A      23 A      24 A   

                1003.8    1011.6    1070.1    1090.9    1131.2    1144.6    1157.7    1172.4
  
           1   -0.0318    0.0156    0.0026   -0.0352    0.0320   -0.0071   -0.0305   -0.0062
           2   -0.0185    0.0094   -0.0088    0.0611   -0.0563   -0.0014   -0.0166    0.0102
           3   -0.0104    0.0042    0.0090    0.0004    0.0003    0.0026   -0.0137   -0.0031
           4   -0.0113    0.0067   -0.0079    0.0329   -0.0292    0.0074    0.0163   -0.0372
           5    0.0200   -0.0096    0.0020   -0.0059   -0.0009    0.0117    0.0538   -0.0421
           6    0.0144   -0.0060   -0.0084    0.0388    0.0458   -0.0013    0.0054   -0.0044
           7    0.0115   -0.0050    0.0006   -0.0124    0.0168    0.0127    0.0561    0.0551
           8   -0.0196    0.0103    0.0007   -0.0324    0.0249   -0.0014   -0.0134    0.0101
           9    0.0145   -0.0061   -0.0017   -0.0392   -0.0461   -0.0003    0.0058    0.0060
          10   -0.0051    0.0044   -0.0098   -0.0018    0.0010    0.0306   -0.0074    0.0005
          11   -0.0021    0.0017    0.0069    0.0002   -0.0003   -0.0389    0.0172   -0.0024
          12    0.0169    0.0410    0.0028    0.0007   -0.0004    0.0000   -0.0003    0.0001
          13    0.0018   -0.0013   -0.0206    0.0097   -0.0055   -0.0053   -0.0072    0.0041
          14   -0.0002    0.0001   -0.0166   -0.0202    0.0087   -0.0037   -0.0056   -0.0027
          15    0.0002    0.0002   -0.0238   -0.0028    0.0009    0.0087    0.0060    0.0005
          16    0.0038   -0.0040    0.0396    0.0045   -0.0012   -0.0294    0.0142   -0.0014
          17    0.0002    0.0003   -0.0190   -0.0016    0.0001    0.0266   -0.0212    0.0038
          18   -0.0190   -0.0511   -0.0068   -0.0003   -0.0001    0.0012    0.0012   -0.0002
          19    0.0010   -0.0011   -0.0119   -0.0034    0.0009   -0.0112   -0.0063    0.0014
          20    0.0038   -0.0043    0.0180    0.0070   -0.0030    0.0002   -0.0003    0.0010
          21   -0.0037    0.0150    0.0177    0.0019   -0.0006   -0.0072   -0.0044    0.0008
          22   -0.0252    0.0188   -0.0198    0.0514   -0.1229   -0.0064   -0.0776    0.0411
          23   -0.0110    0.0079    0.0118   -0.0931    0.2149   -0.0098   -0.0475   -0.0667
          24   -0.0170    0.0031    0.0142    0.0011    0.0002    0.0061    0.0253   -0.0053
          25   -0.0298    0.0079    0.0244   -0.0121   -0.0927   -0.0128   -0.0979    0.0848
          26    0.0852   -0.0465    0.0153    0.1246    0.1254   -0.0328   -0.1048    0.1541
          27   -0.0223    0.0087    0.0072   -0.0391   -0.0427    0.0028   -0.0064   -0.0022
          28    0.1007   -0.0446   -0.0242    0.0968    0.0579   -0.0220   -0.0568    0.0731
          29    0.1214   -0.0635    0.0272   -0.1119   -0.0687   -0.0331   -0.0866    0.1748
          30   -0.0205    0.0073    0.0110   -0.0426   -0.0340    0.0016    0.0006    0.0048
          31    0.1536   -0.0754    0.0005    0.0535    0.0246   -0.0405   -0.1094   -0.1806
          32    0.0260   -0.0074   -0.0062   -0.1434   -0.0853   -0.0019   -0.0041    0.0293
          33   -0.0208    0.0078    0.0027    0.0437    0.0344    0.0010    0.0003   -0.0067
          34    0.0609   -0.0384    0.0509   -0.0929   -0.0646   -0.0337   -0.1452   -0.1805
          35   -0.0690    0.0309    0.0029    0.0733    0.1452    0.0013   -0.0323   -0.0011
          36   -0.0225    0.0093   -0.0002    0.0392    0.0434    0.0019   -0.0066   -0.0003
          37    0.0008   -0.0197    0.0217    0.0021   -0.0006   -0.0182    0.0073   -0.0008
          38   -0.0946   -0.1586   -0.0359   -0.0074    0.0039    0.0051    0.0219   -0.0058
          39   -0.0185   -0.0424    0.0028   -0.0001    0.0003   -0.0111    0.0087   -0.0016
          40    0.0122    0.0077    0.0238    0.0025   -0.0006   -0.0188    0.0074   -0.0008
          41    0.0557    0.1978   -0.0127   -0.0026    0.0006    0.0020    0.0203   -0.0051
          42   -0.0175   -0.0418   -0.0070   -0.0006    0.0002    0.0110   -0.0081    0.0015
          43    0.0083   -0.0078    0.0350    0.0037   -0.0009   -0.0450    0.0221   -0.0032
          44    0.0229   -0.0246    0.0945    0.0109   -0.0040   -0.1962    0.0798   -0.0104
          45   -0.0226   -0.0532   -0.0023   -0.0004    0.0003   -0.0006    0.0005   -0.0001
          46    0.0625   -0.0102   -0.2047   -0.0543    0.0228    0.1012    0.0198   -0.0229
          47    0.0400   -0.0059   -0.1105    0.0343   -0.0173    0.0634    0.0121   -0.0037
          48   -0.0398    0.0064    0.0854    0.0114   -0.0050   -0.0591   -0.0125    0.0133
          49    0.0145   -0.0215    0.1811    0.0166    0.0011    0.1241    0.0119   -0.0047
          50    0.0194   -0.0243    0.2153    0.0181    0.0042    0.2854   -0.0260   -0.0017
          51    0.0478    0.1285    0.0207   -0.0051    0.0053   -0.0001   -0.0019   -0.0005


   Root No.      25        26        27        28        29        30        31        32

                25 A      26 A      27 A      28 A      29 A      30 A      31 A      32 A   

                1176.4    1198.1    1286.6    1369.2    1392.4    1396.5    1399.8    1414.0
  
           1    0.0070   -0.0088   -0.0065    0.0199   -0.0134    0.0004   -0.0012    0.0195
           2    0.0067   -0.0045   -0.0037    0.0114   -0.0077    0.0001    0.0020    0.0112
           3    0.0387   -0.0266    0.0524   -0.0052    0.0102   -0.0003   -0.0001   -0.0228
           4   -0.0027    0.0007   -0.0196   -0.0054   -0.0016   -0.0000    0.0287    0.0100
           5   -0.0150   -0.0020    0.0269    0.0014    0.0035   -0.0001   -0.0148   -0.0112
           6   -0.0101   -0.0033   -0.0114    0.0012   -0.0015    0.0001   -0.0003    0.0028
           7   -0.0070   -0.0010    0.0132   -0.0016    0.0023   -0.0001   -0.0018   -0.0046
           8    0.0056    0.0014   -0.0306   -0.0055   -0.0029    0.0002   -0.0319    0.0144
           9   -0.0092   -0.0032   -0.0115    0.0012   -0.0015    0.0000    0.0003    0.0029
          10   -0.0046   -0.0001   -0.0024   -0.0073   -0.0302    0.0016   -0.0001   -0.0043
          11    0.0224    0.0135    0.0006   -0.0363   -0.0047    0.0003    0.0003    0.0445
          12   -0.0003   -0.0002   -0.0001   -0.0002   -0.0011   -0.0432   -0.0000    0.0001
          13   -0.0183   -0.0136   -0.0030    0.0189   -0.0039    0.0001   -0.0000   -0.0086
          14   -0.0135   -0.0095   -0.0013    0.0112   -0.0022    0.0000   -0.0003   -0.0054
          15   -0.0105    0.0636   -0.0276   -0.0007   -0.0060    0.0003    0.0001    0.0172
          16    0.0144    0.0045    0.0125   -0.0205    0.0069   -0.0001    0.0001    0.0030
          17   -0.0373   -0.0292    0.0239   -0.0052    0.0121   -0.0004   -0.0000   -0.0192
          18    0.0012    0.0030   -0.0005   -0.0005    0.0000   -0.0007    0.0000    0.0004
          19   -0.0177   -0.0160    0.0125    0.0009    0.0035   -0.0001   -0.0001   -0.0111
          20   -0.0026   -0.0034    0.0046    0.0004    0.0021   -0.0001    0.0000   -0.0046
          21   -0.0073   -0.0094    0.0029    0.0013    0.0001   -0.0003   -0.0000   -0.0012
          22   -0.0163    0.3077    0.1325   -0.0026    0.0131   -0.0003    0.0026   -0.0315
          23   -0.0194    0.1743    0.0759   -0.0015    0.0076    0.0001   -0.0051   -0.0180
          24    0.0631   -0.2714   -0.0534    0.0126   -0.0104    0.0001    0.0000    0.0165
          25    0.0689   -0.0052   -0.0322   -0.0809    0.0520   -0.0011   -0.1592   -0.0784
          26    0.0405   -0.0185    0.0480    0.0456   -0.0263    0.0005    0.0872    0.0368
          27    0.0146   -0.0037   -0.0225   -0.0557    0.0387   -0.0008   -0.1402   -0.0636
          28   -0.0214    0.0149   -0.1145   -0.0732    0.0407   -0.0009   -0.1592   -0.0557
          29    0.0090   -0.0141    0.0139    0.0497   -0.0319    0.0006    0.0901    0.0479
          30    0.0120   -0.0181    0.0400    0.0549   -0.0366    0.0007    0.1408    0.0586
          31   -0.0292   -0.0062   -0.0461    0.0058   -0.0069    0.0002    0.0033    0.0130
          32   -0.0200    0.0201   -0.1058   -0.0877    0.0501   -0.0019    0.1833   -0.0735
          33    0.0112   -0.0182    0.0399    0.0544   -0.0357    0.0013   -0.1409    0.0595
          34    0.0448   -0.0197    0.0251   -0.0016    0.0036   -0.0001    0.0055   -0.0081
          35    0.0379    0.0043   -0.0517   -0.0922    0.0571   -0.0020    0.1816   -0.0874
          36    0.0147   -0.0038   -0.0222   -0.0551    0.0379   -0.0014    0.1401   -0.0645
          37    0.0075    0.0029    0.0016    0.0319    0.2012    0.1979    0.0014    0.0721
          38    0.0537    0.0512   -0.0651    0.1283    0.0254   -0.1515   -0.0010   -0.0808
          39    0.0159    0.0134   -0.0192    0.0767    0.1463    0.0506    0.0005    0.0051
          40    0.0078    0.0032    0.0010    0.0340    0.1996   -0.2111    0.0008    0.0724
          41    0.0523    0.0490   -0.0655    0.1288    0.0302    0.1491   -0.0004   -0.0807
          42   -0.0153   -0.0127    0.0191   -0.0752   -0.1385    0.0531   -0.0003   -0.0031
          43    0.0316    0.0217   -0.0219    0.0427   -0.0560   -0.0052   -0.0007   -0.0685
          44    0.1010    0.0623   -0.0464    0.0774   -0.0975    0.0020   -0.0012   -0.1175
          45    0.0007    0.0004   -0.0004    0.0011    0.0053    0.4248    0.0007   -0.0015
          46    0.1946    0.0378    0.0050   -0.0119   -0.0032   -0.0002    0.0005    0.0189
          47    0.1142    0.0241    0.0026   -0.0066   -0.0015    0.0007   -0.0010    0.0108
          48   -0.1447    0.0323   -0.0324    0.0209   -0.0077    0.0002    0.0000    0.0006
          49    0.0554    0.0510   -0.0292   -0.0034   -0.0099    0.0004    0.0001    0.0194
          50    0.0306    0.0483   -0.0478    0.0276   -0.0162    0.0004   -0.0001    0.0073
          51   -0.0017   -0.0001   -0.0004    0.0001   -0.0003   -0.0029   -0.0005    0.0005


   Root No.      33        34        35        36        37        38        39        40

                33 A      34 A      35 A      36 A      37 A      38 A      39 A      40 A   

                1540.2    1628.7    2268.6    3009.1    3028.0    3032.3    3071.6    3083.0
  
           1   -0.0432    0.1012    0.0039   -0.0268   -0.0071   -0.0004    0.0000   -0.0000
           2   -0.0246    0.0581    0.0023   -0.0153   -0.0041   -0.0002   -0.0000   -0.0000
           3   -0.0023   -0.0530   -0.0059   -0.0455   -0.0112   -0.0004    0.0000   -0.0000
           4    0.0577   -0.0617    0.0017    0.0003    0.0001   -0.0000   -0.0000   -0.0000
           5   -0.0365    0.0353    0.0009   -0.0006    0.0000    0.0000    0.0000    0.0000
           6   -0.0008    0.0031   -0.0006    0.0034    0.0009    0.0000    0.0000   -0.0002
           7   -0.0022   -0.0008    0.0016   -0.0003    0.0000    0.0000   -0.0000    0.0000
           8    0.0683   -0.0711    0.0010    0.0006    0.0000   -0.0000    0.0000    0.0000
           9   -0.0008    0.0031   -0.0006    0.0035    0.0009    0.0001   -0.0000    0.0003
          10   -0.0081   -0.0066    0.0026   -0.0000    0.0001    0.0072    0.0011   -0.0472
          11   -0.0439   -0.0286    0.0086    0.0000   -0.0001   -0.0005    0.0001    0.0024
          12   -0.0002   -0.0001    0.0000   -0.0000   -0.0000    0.0001   -0.0577   -0.0009
          13   -0.0604   -0.0844   -0.1445    0.0060   -0.0287   -0.0016    0.0000   -0.0003
          14   -0.0345   -0.0485   -0.0845    0.0036   -0.0171   -0.0007    0.0000   -0.0002
          15    0.0115    0.0453    0.0155    0.0115   -0.0509   -0.0014   -0.0000   -0.0002
          16    0.0541    0.0590   -0.1351    0.0003    0.0008   -0.0585    0.0000   -0.0049
          17    0.0695    0.0625   -0.0996   -0.0000   -0.0012    0.0286   -0.0000    0.0018
          18    0.0013    0.0015   -0.0020    0.0000   -0.0002   -0.0008   -0.0001   -0.0001
          19    0.0083   -0.0076    0.2844   -0.0008    0.0059    0.0061   -0.0000    0.0011
          20    0.0025   -0.0058    0.1676   -0.0005    0.0034    0.0039   -0.0000    0.0010
          21   -0.0026    0.0000    0.0035   -0.0003   -0.0003    0.0001   -0.0002    0.0000
          22   -0.0156   -0.0462   -0.0142    0.3203    0.0758    0.0035   -0.0001    0.0002
          23   -0.0091   -0.0267   -0.0082    0.1832    0.0433    0.0020   -0.0000    0.0001
          24   -0.0259    0.0634    0.0019    0.5480    0.1366    0.0062   -0.0001    0.0003
          25   -0.0326   -0.0102    0.0004    0.0115    0.0050    0.0004    0.0002   -0.0007
          26    0.0207   -0.0125   -0.0009   -0.0096   -0.0036   -0.0002   -0.0001    0.0004
          27   -0.0734    0.0494   -0.0027   -0.0224   -0.0090   -0.0007   -0.0003    0.0011
          28   -0.0337    0.0198   -0.0007   -0.0106   -0.0014    0.0000   -0.0001    0.0009
          29    0.0222   -0.0005   -0.0002    0.0091    0.0019    0.0000    0.0001   -0.0005
          30    0.0722   -0.0592   -0.0008   -0.0215   -0.0052   -0.0000   -0.0002    0.0015
          31    0.0020    0.0096   -0.0005    0.0024    0.0009    0.0000    0.0000   -0.0000
          32   -0.0407    0.0171   -0.0005   -0.0138   -0.0018   -0.0001    0.0000   -0.0013
          33    0.0724   -0.0592   -0.0009   -0.0217   -0.0049   -0.0001   -0.0000   -0.0017
          34    0.0014   -0.0160   -0.0005   -0.0024   -0.0005    0.0000   -0.0000   -0.0000
          35   -0.0387   -0.0023    0.0008    0.0149    0.0060    0.0006   -0.0001    0.0013
          36   -0.0735    0.0494   -0.0026   -0.0225   -0.0088   -0.0008    0.0002   -0.0017
          37   -0.0158   -0.0072   -0.0013    0.0001   -0.0004   -0.0175   -0.2444    0.1012
          38    0.0164   -0.0017    0.0120   -0.0000   -0.0002   -0.0091   -0.1427    0.0738
          39    0.0131    0.0067    0.0074   -0.0001    0.0008    0.0327    0.3580   -0.1985
          40   -0.0155   -0.0070   -0.0011    0.0001   -0.0003   -0.0163    0.2319    0.0963
          41    0.0167   -0.0012    0.0121    0.0000   -0.0003   -0.0089    0.1409    0.0742
          42   -0.0136   -0.0069   -0.0074    0.0002   -0.0008   -0.0331    0.3634    0.2040
          43    0.0356    0.0205   -0.0116    0.0003   -0.0002   -0.0594   -0.0009    0.3644
          44    0.0574    0.0324   -0.0122   -0.0001    0.0002    0.0243    0.0007   -0.1757
          45    0.0006    0.0003   -0.0001    0.0000    0.0000   -0.0009   -0.0293    0.0053
          46    0.0179    0.0489   -0.0443   -0.0652    0.2835    0.0073   -0.0002    0.0008
          47    0.0109    0.0287   -0.0268   -0.0390    0.1701    0.0046    0.0004    0.0005
          48   -0.0453   -0.0451   -0.1116   -0.1336    0.6148    0.0160   -0.0000    0.0018
          49   -0.0191   -0.0017   -0.0999   -0.0022   -0.0176    0.6442   -0.0003    0.0486
          50   -0.0649   -0.0549    0.0683    0.0012    0.0104   -0.3831    0.0002   -0.0325
          51   -0.0002    0.0008   -0.0014    0.0000   -0.0003    0.0091   -0.0014    0.0007


   Root No.      41        42        43        44        45

                41 A      42 A      43 A      44 A      45 A   

                3084.3    3098.6    3134.3    3135.3    3172.8
  
           1    0.0000   -0.0013   -0.0003   -0.0009   -0.0000
           2   -0.0001   -0.0008    0.0004   -0.0005   -0.0000
           3   -0.0000   -0.0029   -0.0000   -0.0003    0.0000
           4    0.0013   -0.0017   -0.0174    0.0205   -0.0000
           5   -0.0005    0.0008    0.0105   -0.0120    0.0000
           6    0.0306   -0.0300    0.0019   -0.0029   -0.0000
           7   -0.0002   -0.0002   -0.0002    0.0001    0.0000
           8   -0.0014   -0.0019    0.0230    0.0212   -0.0000
           9   -0.0309   -0.0297   -0.0023   -0.0027    0.0000
          10   -0.0003   -0.0000   -0.0000   -0.0000   -0.0014
          11    0.0000    0.0000   -0.0000    0.0000    0.0250
          12    0.0000   -0.0000    0.0000   -0.0000    0.0001
          13    0.0001   -0.0004    0.0000   -0.0002    0.0001
          14   -0.0002   -0.0002   -0.0001   -0.0001    0.0001
          15    0.0000    0.0000   -0.0000   -0.0002    0.0000
          16   -0.0000   -0.0000   -0.0000   -0.0000    0.0002
          17    0.0000   -0.0000    0.0000    0.0000    0.0003
          18   -0.0000   -0.0000   -0.0000   -0.0000    0.0000
          19    0.0000    0.0001    0.0000    0.0001   -0.0004
          20    0.0000    0.0001    0.0000    0.0000   -0.0002
          21   -0.0000    0.0000    0.0000    0.0000   -0.0000
          22   -0.0012    0.0196    0.0001    0.0018   -0.0000
          23    0.0024    0.0112    0.0000    0.0010   -0.0000
          24    0.0002    0.0287    0.0002    0.0035   -0.0001
          25    0.1108   -0.1061    0.1128   -0.1283    0.0001
          26   -0.0650    0.0652   -0.0682    0.0773   -0.0001
          27   -0.1727    0.1626   -0.1992    0.2266   -0.0002
          28   -0.1270    0.1272    0.0998   -0.1077    0.0001
          29    0.0715   -0.0746   -0.0575    0.0615   -0.0001
          30   -0.1988    0.1974    0.1765   -0.1921    0.0002
          31    0.0028    0.0002   -0.0012   -0.0015    0.0000
          32    0.1476    0.1461   -0.1287   -0.1097   -0.0000
          33    0.2013    0.1955   -0.1975   -0.1701   -0.0000
          34   -0.0001    0.0024    0.0017    0.0014   -0.0000
          35   -0.1298   -0.1229   -0.1487   -0.1336    0.0001
          36    0.1744    0.1603    0.2248    0.2022   -0.0001
          37    0.0007   -0.0000    0.0001   -0.0000   -0.1588
          38    0.0005    0.0000    0.0000   -0.0000   -0.0815
          39   -0.0014   -0.0000   -0.0001    0.0001    0.2513
          40    0.0005    0.0001   -0.0000   -0.0000   -0.1513
          41    0.0004    0.0001   -0.0000   -0.0000   -0.0810
          42    0.0011    0.0002   -0.0000   -0.0000   -0.2569
          43    0.0024    0.0003   -0.0001    0.0003    0.3270
          44   -0.0011   -0.0001    0.0000   -0.0001   -0.1384
          45    0.0001    0.0000    0.0000   -0.0000    0.0049
          46    0.0001   -0.0002   -0.0000    0.0015   -0.0002
          47   -0.0004   -0.0001    0.0004    0.0009   -0.0001
          48   -0.0002    0.0017    0.0002    0.0027   -0.0004
          49    0.0004    0.0001    0.0000    0.0003   -0.0003
          50   -0.0002   -0.0001   -0.0000   -0.0002    0.0003
          51   -0.0001    0.0000   -0.0000    0.0000   -0.0000


           MASS-WEIGHTED COORDINATE ANALYSIS (NORMAL COORDINATES)


   Root No.       1         2         3         4         5         6         7         8

                 1 A       2 A       3 A       4 A       5 A       6 A       7 A       8 A   

                  34.8     114.3     131.8     202.9     228.1     365.7     408.1     538.7
  
           1   -0.1795    0.1037   -0.0041    0.0557   -0.0262    0.2090    0.2121    0.0324
           2    0.2653    0.1311    0.0220   -0.1184    0.2289    0.1044   -0.2811    0.0881
           3   -0.0040   -0.1575   -0.0114   -0.1856   -0.1341    0.4053   -0.0791   -0.2057
           4   -0.1781    0.1064   -0.0049    0.0625   -0.0135    0.2388    0.2585    0.0976
           5   -0.3454    0.1442    0.0360   -0.0020   -0.0208    0.1437    0.0786    0.1093
           6   -0.1190   -0.0173   -0.1110    0.1172    0.2610   -0.2093   -0.2078   -0.0072
           7    0.3460    0.1032   -0.0152   -0.0378    0.2076    0.2393   -0.0762    0.1940
           8   -0.0456    0.1400    0.0300   -0.0605    0.1003    0.1184   -0.1237    0.1072
           9    0.1681    0.3081    0.0487    0.1294   -0.2079   -0.2155    0.1904   -0.0596
          10    0.2845   -0.2511   -0.0838    0.3439   -0.2403   -0.0575   -0.1003   -0.0817
          11   -0.1174   -0.0716    0.0021    0.0822   -0.1460   -0.1416   -0.1034   -0.1583
          12    0.0745    0.4221    0.0535   -0.0374   -0.1507    0.0119   -0.0824   -0.0067
          13   -0.2295   -0.0067    0.0506   -0.0329   -0.0911   -0.1538   -0.2181    0.0336
          14    0.2995   -0.1339   -0.0461   -0.2093    0.1780   -0.1105    0.3852   -0.1735
          15   -0.0217   -0.3144   -0.0016   -0.2767   -0.1854    0.1520   -0.0824   -0.1604
          16    0.0041   -0.0400    0.0259   -0.2309    0.0911   -0.2330    0.0356   -0.1192
          17   -0.1014   -0.0843   -0.0053    0.1248   -0.1693   -0.1073   -0.1045   -0.1055
          18   -0.0700   -0.0473    0.0216    0.3435    0.4288    0.0779    0.1769   -0.1390
          19   -0.1180    0.0196    0.0581   -0.2926    0.1010   -0.2833   -0.0720   -0.2384
          20    0.1095   -0.1757   -0.0607    0.2470   -0.1661    0.0402    0.1022    0.1719
          21   -0.0476   -0.3630    0.0106   -0.1526   -0.0007   -0.1794    0.1579    0.6808
          22   -0.1075    0.0530   -0.0163    0.0633    0.0278    0.0462    0.1142    0.0296
          23    0.1855    0.1119    0.0259   -0.0227    0.0587    0.0194   -0.1445    0.0771
          24   -0.0050   -0.0818   -0.0011   -0.0824   -0.0552    0.1220   -0.0313   -0.0840
          25   -0.1097    0.0548   -0.0187    0.0801    0.0607   -0.0611    0.0434    0.0921
          26   -0.1179    0.1222    0.0341    0.0469   -0.0888   -0.0386    0.1435    0.0504
          27   -0.0630   -0.0198   -0.0513    0.0543    0.1458   -0.1123   -0.1263    0.0301
          28   -0.0694    0.0084    0.0174   -0.0283   -0.1007    0.2079    0.1639   -0.0301
          29   -0.2103   -0.0365   -0.0105   -0.0229    0.0199    0.1338    0.0008    0.0103
          30   -0.0626   -0.0189   -0.0511    0.0548    0.1450   -0.1148   -0.1256    0.0278
          31    0.1943    0.0040    0.0108   -0.0823    0.0292    0.2146   -0.0746    0.0365
          32   -0.0594   -0.0396   -0.0139   -0.0520    0.0929    0.1085   -0.1382    0.0305
          33    0.0808    0.1461    0.0300    0.0625   -0.1058   -0.1178    0.1313   -0.0172
          34    0.1548    0.0547   -0.0230    0.0311    0.1601   -0.0683   -0.0749    0.1236
          35    0.0335    0.1212    0.0314    0.0170   -0.0345   -0.0392    0.0696    0.0364
          36    0.0811    0.1461    0.0303    0.0619   -0.1067   -0.1155    0.1328   -0.0153
          37    0.0782   -0.0213   -0.5117    0.0924   -0.1209   -0.0078   -0.0398   -0.0200
          38   -0.0378    0.0876    0.0368   -0.1180   -0.1224   -0.0786   -0.0870   -0.0027
          39    0.0174    0.1992   -0.2800   -0.0740   -0.1092   -0.0061   -0.0544    0.0200
          40    0.1254   -0.1556    0.4569    0.1963   -0.0710    0.0021   -0.0495   -0.0299
          41   -0.0897   -0.0853   -0.0116    0.0362    0.1170   -0.0493    0.0680   -0.1011
          42    0.0181    0.1970   -0.2649   -0.0730   -0.1071   -0.0047   -0.0524    0.0236
          43    0.1079   -0.0917   -0.0430    0.1567   -0.1045    0.0013   -0.0481   -0.0248
          44    0.0198   -0.0603   -0.0210    0.1395   -0.1136   -0.0043   -0.0682   -0.0458
          45    0.0624    0.0946    0.5686    0.0053   -0.0833    0.0011   -0.0752    0.0218
          46   -0.1016   -0.0346    0.0175    0.0618   -0.0250   -0.0990   -0.1744    0.1739
          47    0.1353   -0.0561   -0.0121   -0.1980    0.0622   -0.1380    0.3573   -0.0989
          48   -0.0034   -0.0691   -0.0022   -0.0729   -0.0555    0.0985   -0.0393   -0.1057
          49   -0.0289    0.0071    0.0183   -0.1148    0.0453   -0.0958    0.0031   -0.0687
          50   -0.0817    0.0085    0.0169   -0.0459   -0.0090   -0.0770   -0.0402   -0.0909
          51   -0.0576   -0.0093   -0.0139    0.2789    0.2938    0.1017   -0.0130   -0.2541


   Root No.       9        10        11        12        13        14        15        16

                 9 A      10 A      11 A      12 A      13 A      14 A      15 A      16 A   

                 592.0     813.9     818.5     871.7     900.6     905.5     955.7     959.0
  
           1   -0.0187   -0.0274   -0.0008   -0.0011   -0.0665    0.0925   -0.1535   -0.0445
           2   -0.0289   -0.0050   -0.0095   -0.0195   -0.0907   -0.0198   -0.0216    0.1696
           3    0.0023   -0.0259    0.0157   -0.0164   -0.1238    0.0782    0.0019   -0.0014
           4   -0.0566    0.0797   -0.0271    0.1335   -0.0930   -0.1701    0.0821    0.2615
           5   -0.0580    0.0399    0.0274    0.0049    0.1254   -0.0526    0.1020   -0.0735
           6    0.0277    0.0133    0.0103   -0.0908   -0.1347    0.1273   -0.0564    0.0213
           7   -0.0901    0.0403    0.0382   -0.0461    0.1562   -0.0156    0.0647   -0.1284
           8   -0.0432   -0.0453    0.0391   -0.1161    0.0849    0.1629   -0.1408   -0.2230
           9    0.0231   -0.0098    0.0270    0.0690   -0.1692    0.0915   -0.0611    0.0113
          10   -0.1252   -0.0192   -0.0088   -0.0068   -0.0783    0.0754    0.3102   -0.0856
          11   -0.2141   -0.0079   -0.0215   -0.0120   -0.0875    0.0506    0.2200   -0.0647
          12    0.0128   -0.0908    0.0760   -0.0597   -0.0201   -0.0828   -0.0057   -0.0040
          13    0.1758   -0.1301    0.1179    0.0428    0.2097    0.1313   -0.1972    0.1072
          14    0.0837    0.2139   -0.1639   -0.0523   -0.1836   -0.3235   -0.1084   -0.0469
          15    0.1135    0.1163    0.1208    0.0301    0.3290   -0.2234    0.0158   -0.0023
          16    0.3433   -0.0704   -0.0130   -0.0120   -0.1038    0.0731    0.0780   -0.0244
          17   -0.1974    0.0116   -0.0033    0.0011    0.0230   -0.0171   -0.0709    0.0217
          18   -0.0461   -0.2245    0.1778   -0.0934   -0.0401   -0.0898    0.0058   -0.0073
          19   -0.1473    0.0381   -0.0415   -0.0220   -0.0386   -0.0622   -0.0758    0.0049
          20    0.6365   -0.1312    0.0773    0.0357    0.0741    0.1058   -0.1151    0.0644
          21   -0.2150    0.1013   -0.1429    0.0387   -0.0873    0.1151    0.0357   -0.0084
          22   -0.0312    0.0150   -0.0864   -0.1884   -0.0622    0.1386   -0.1380   -0.2712
          23   -0.0278   -0.1135    0.0448    0.3110   -0.1547   -0.0550    0.1068    0.5149
          24    0.0219    0.0188    0.0402   -0.0001    0.0373   -0.0297    0.0186   -0.0054
          25   -0.0092   -0.0065    0.0470    0.4029    0.1603   -0.3442    0.1284   -0.0560
          26   -0.0103    0.2864    0.3884    0.2464   -0.0348   -0.1349    0.0855   -0.2032
          27    0.0107   -0.1244   -0.1113    0.1155    0.1083   -0.1074    0.0293   -0.0069
          28   -0.0296    0.0826   -0.0676   -0.2688   -0.1887    0.1429    0.0460    0.2753
          29   -0.0299   -0.2169   -0.3754   -0.1432    0.1420   -0.0588    0.1910    0.2787
          30    0.0120   -0.1232   -0.1045    0.1211    0.1069   -0.1057    0.0291   -0.0126
          31   -0.0543   -0.2930   -0.2446    0.2661   -0.0249   -0.0060   -0.0406   -0.4282
          32   -0.0199    0.0620    0.2242    0.1226   -0.2325    0.1724   -0.1071   -0.0495
          33    0.0123   -0.0587   -0.1537   -0.1006    0.1464   -0.0681    0.0327   -0.0038
          34   -0.0198    0.3300    0.2965   -0.3855    0.3255    0.0100    0.2056    0.0974
          35   -0.0084   -0.0882   -0.2025   -0.1864    0.2892   -0.0798    0.0249   -0.0772
          36    0.0104   -0.0635   -0.1578   -0.0943    0.1484   -0.0681    0.0295   -0.0083
          37   -0.1172    0.0294   -0.0128    0.0040    0.0207   -0.0284   -0.1049    0.0263
          38    0.0732    0.1770   -0.1802    0.1016   -0.0687    0.2390    0.4043   -0.1015
          39    0.0112    0.0732   -0.0588    0.0318    0.0055    0.0387    0.0135   -0.0021
          40   -0.1127    0.0116    0.0019   -0.0067    0.0179   -0.0435   -0.1063    0.0259
          41    0.0054   -0.2617    0.1738   -0.1167   -0.1334   -0.0323    0.3722   -0.1092
          42    0.0198    0.0718   -0.0563    0.0324    0.0129    0.0355   -0.0074    0.0045
          43   -0.1327    0.0249   -0.0061   -0.0014    0.0245   -0.0446   -0.1320    0.0328
          44   -0.2484    0.0604   -0.0157   -0.0004    0.0671   -0.1121   -0.3661    0.0932
          45    0.0252    0.1004   -0.0798    0.0440    0.0133    0.0502    0.0032    0.0019
          46    0.1828    0.1261   -0.1385   -0.1094   -0.1703   -0.2410   -0.1783   -0.0189
          47   -0.2127   -0.1960    0.1565    0.2262    0.3424    0.4390   -0.0985    0.1564
          48    0.0363    0.0290    0.0574   -0.0018    0.0927   -0.0835    0.0764   -0.0238
          49    0.0440   -0.0130   -0.0138   -0.0170   -0.0541   -0.0130   -0.0546    0.0034
          50   -0.1376    0.0282   -0.0268   -0.0148   -0.0284   -0.0542   -0.1478    0.0240
          51    0.1222    0.4916   -0.3581    0.2749    0.1777    0.2819   -0.0038    0.0245


   Root No.      17        18        19        20        21        22        23        24

                17 A      18 A      19 A      20 A      21 A      22 A      23 A      24 A   

                1003.8    1011.6    1070.1    1090.9    1131.2    1144.6    1157.7    1172.4
  
           1   -0.2978    0.1309    0.0194   -0.2542    0.2180   -0.0528   -0.2398   -0.0455
           2   -0.1735    0.0789   -0.0660    0.4412   -0.3838   -0.0105   -0.1305    0.0757
           3   -0.0969    0.0353    0.0672    0.0027    0.0020    0.0194   -0.1076   -0.0230
           4   -0.1056    0.0565   -0.0594    0.2377   -0.1987    0.0545    0.1280   -0.2751
           5    0.1869   -0.0805    0.0149   -0.0426   -0.0062    0.0861    0.4231   -0.3111
           6    0.1346   -0.0502   -0.0632    0.2799    0.3122   -0.0093    0.0424   -0.0323
           7    0.1077   -0.0418    0.0046   -0.0898    0.1144    0.0942    0.4412    0.4073
           8   -0.1835    0.0865    0.0049   -0.2341    0.1699   -0.0103   -0.1052    0.0746
           9    0.1356   -0.0512   -0.0131   -0.2832   -0.3142   -0.0021    0.0455    0.0440
          10   -0.0482    0.0367   -0.0736   -0.0129    0.0068    0.2258   -0.0585    0.0036
          11   -0.0196    0.0140    0.0514    0.0015   -0.0020   -0.2872    0.1356   -0.0180
          12    0.1579    0.3439    0.0207    0.0048   -0.0027    0.0000   -0.0026    0.0008
          13    0.0171   -0.0108   -0.1542    0.0700   -0.0375   -0.0391   -0.0566    0.0304
          14   -0.0020    0.0004   -0.1240   -0.1461    0.0592   -0.0275   -0.0437   -0.0201
          15    0.0021    0.0016   -0.1781   -0.0205    0.0060    0.0646    0.0475    0.0037
          16    0.0358   -0.0336    0.2961    0.0327   -0.0083   -0.2173    0.1114   -0.0101
          17    0.0018    0.0028   -0.1426   -0.0116    0.0006    0.1963   -0.1665    0.0278
          18   -0.1778   -0.4287   -0.0508   -0.0025   -0.0005    0.0091    0.0098   -0.0012
          19    0.0094   -0.0089   -0.0888   -0.0242    0.0059   -0.0826   -0.0496    0.0100
          20    0.0359   -0.0358    0.1346    0.0508   -0.0202    0.0013   -0.0025    0.0075
          21   -0.0348    0.1256    0.1328    0.0141   -0.0042   -0.0530   -0.0349    0.0061
          22   -0.0685    0.0458   -0.0430    0.1076   -0.2426   -0.0136   -0.1767    0.0881
          23   -0.0299    0.0193    0.0257   -0.1947    0.4245   -0.0210   -0.1082   -0.1428
          24   -0.0460    0.0075    0.0308    0.0024    0.0004    0.0131    0.0576   -0.0113
          25   -0.0808    0.0191    0.0529   -0.0253   -0.1831   -0.0273   -0.2232    0.1815
          26    0.2309   -0.1130    0.0331    0.2605    0.2477   -0.0702   -0.2389    0.3299
          27   -0.0605    0.0212    0.0157   -0.0818   -0.0843    0.0060   -0.0146   -0.0047
          28    0.2730   -0.1084   -0.0525    0.2024    0.1144   -0.0471   -0.1294    0.1566
          29    0.3292   -0.1542    0.0590   -0.2342   -0.1357   -0.0708   -0.1974    0.3743
          30   -0.0555    0.0178    0.0238   -0.0892   -0.0671    0.0033    0.0014    0.0103
          31    0.4165   -0.1831    0.0011    0.1118    0.0487   -0.0867   -0.2493   -0.3867
          32    0.0704   -0.0181   -0.0135   -0.3000   -0.1684   -0.0040   -0.0094    0.0627
          33   -0.0563    0.0190    0.0058    0.0913    0.0680    0.0022    0.0007   -0.0144
          34    0.1652   -0.0933    0.1103   -0.1943   -0.1275   -0.0722   -0.3308   -0.3864
          35   -0.1871    0.0750    0.0063    0.1533    0.2868    0.0027   -0.0737   -0.0024
          36   -0.0610    0.0225   -0.0004    0.0821    0.0858    0.0041   -0.0151   -0.0006
          37    0.0020   -0.0480    0.0471    0.0045   -0.0011   -0.0390    0.0167   -0.0017
          38   -0.2564   -0.3852   -0.0777   -0.0155    0.0077    0.0110    0.0500   -0.0124
          39   -0.0500   -0.1030    0.0060   -0.0003    0.0006   -0.0237    0.0199   -0.0035
          40    0.0330    0.0187    0.0516    0.0052   -0.0011   -0.0403    0.0169   -0.0018
          41    0.1511    0.4806   -0.0276   -0.0055    0.0011    0.0042    0.0462   -0.0109
          42   -0.0474   -0.1016   -0.0153   -0.0012    0.0004    0.0236   -0.0186    0.0032
[...]

 VIBRATION   24   24A         ATOM PAIR      ENERGY CONTRIBUTION    RADIAL
 FREQ.      1172.41         C  2 -- H 10         +18.9% ( 51.4%)      0.4%
 T-DIPOLE    0.0915         C  3 -- H 11         +18.2% ( 50.3%)      0.5%
 TRAVEL      0.1234         C  3 -- H 12         +18.1% ( 50.2%)      0.0%
 RED. MASS   0.8181         C  2 -- H  9         +17.6% ( 49.6%)      0.0%
 EFF. MASS   3.7797         C  2 -- C  3         +12.3% ( 41.4%)      0.0%

 VIBRATION   25   25A         ATOM PAIR      ENERGY CONTRIBUTION    RADIAL
 FREQ.      1176.43         C  5 -- H 16         +25.8% ( 66.5%)      2.6%
 T-DIPOLE    0.1359         C  4 -- C  6         +11.3% ( 44.0%)     87.3%
 TRAVEL      0.1057         C  1 -- C  5         +10.4% ( 42.1%)     15.9%
 RED. MASS   0.5304         C  6 -- C  7          +8.2% ( 37.4%)      4.8%
 EFF. MASS   5.1348

 VIBRATION   26   26A         ATOM PAIR      ENERGY CONTRIBUTION    RADIAL
 FREQ.      1198.14         C  1 -- H  8         +44.5% ( 79.9%)      2.1%
 T-DIPOLE    0.1104         C  1 -- C  5         +16.8% ( 49.1%)     76.1%
 TRAVEL      0.1172         C  5 -- C  7         +12.0% ( 41.4%)      0.0%
 RED. MASS   0.8422         C  5 -- H 16          +9.0% ( 36.0%)     29.0%
 EFF. MASS   4.0968

 VIBRATION   27   27A         ATOM PAIR      ENERGY CONTRIBUTION    RADIAL
 FREQ.      1286.65         C  1 -- H  8         +14.5% ( 55.0%)     11.1%
 T-DIPOLE    0.1026         C  1 -- C  5         +13.7% ( 53.4%)     74.3%
 TRAVEL      0.0864         C  1 -- C  3         +12.0% ( 49.9%)      3.4%
 RED. MASS   0.8244         C  1 -- C  2         +11.9% ( 49.8%)      3.3%
 EFF. MASS   7.0150         C  2 -- C  3         +11.1% ( 48.0%)    100.0%

 VIBRATION   28   28A         ATOM PAIR      ENERGY CONTRIBUTION    RADIAL
 FREQ.      1369.21         C  4 -- H 14         +16.2% ( 46.7%)      3.3%
 T-DIPOLE    0.0775         C  4 -- H 13         +16.2% ( 46.7%)      3.3%
 TRAVEL      0.1173         C  4 -- H 15         +10.7% ( 37.9%)      1.7%
 RED. MASS   0.3329         C  4 -- C  6          +8.3% ( 33.4%)     80.7%
 EFF. MASS   3.5796

 VIBRATION   29   29A         ATOM PAIR      ENERGY CONTRIBUTION    RADIAL
 FREQ.      1392.42         C  4 -- H 13         +32.1% ( 52.9%)      2.0%
 T-DIPOLE    0.1022         C  4 -- H 14         +30.8% ( 51.9%)      2.4%
 TRAVEL      0.1534         C  4 -- H 15          +7.4% ( 25.4%)     69.3%
 RED. MASS   0.3226         C  4 -- C  6          +6.8% ( 24.3%)     21.2%
 EFF. MASS   2.0589

 VIBRATION   30   30A         ATOM PAIR      ENERGY CONTRIBUTION    RADIAL
 FREQ.      1396.46         C  4 -- H 15         +53.9% ( 63.4%)      0.0%
 T-DIPOLE    0.0656         C  4 -- H 14         +21.3% ( 39.8%)     10.6%
 TRAVEL      0.1758         C  4 -- H 13         +19.8% ( 38.5%)     12.3%
 RED. MASS   0.4214         C  4 -- C  6          +5.1% ( 19.4%)      0.0%
 EFF. MASS   1.5630

 VIBRATION   31   31A         ATOM PAIR      ENERGY CONTRIBUTION    RADIAL
 FREQ.      1399.78         C  2 -- H 10         +21.4% ( 45.9%)      2.7%
 T-DIPOLE    0.0862         C  3 -- H 11         +21.4% ( 45.9%)      2.6%
 TRAVEL      0.1594         C  2 -- H  9         +21.0% ( 45.5%)      2.9%
 RED. MASS   0.2670         C  3 -- H 12         +21.0% ( 45.4%)      2.8%
 EFF. MASS   1.8958

 VIBRATION   32   32A         ATOM PAIR      ENERGY CONTRIBUTION    RADIAL
 FREQ.      1413.96         C  4 -- H 15         +14.0% ( 46.8%)      6.5%
 T-DIPOLE    0.0954         C  4 -- H 13         +11.8% ( 42.9%)      2.0%
 TRAVEL      0.0982         C  4 -- H 14         +11.8% ( 42.9%)      2.1%
 RED. MASS   0.5434         C  4 -- C  6         +11.7% ( 42.8%)     97.2%
 EFF. MASS   4.9414

 VIBRATION   33   33A         ATOM PAIR      ENERGY CONTRIBUTION    RADIAL
 FREQ.      1540.24         C  4 -- C  6         +12.3% ( 57.2%)     81.2%
 T-DIPOLE    0.0811         C  2 -- C  3         +11.1% ( 54.3%)    100.0%
 TRAVEL      0.0630         C  6 -- H 17          +9.3% ( 49.9%)      0.4%
 RED. MASS   1.8389         C  1 -- C  3          +8.1% ( 46.4%)     98.6%
 EFF. MASS  11.0292

 VIBRATION   34   34A         ATOM PAIR      ENERGY CONTRIBUTION    RADIAL
 FREQ.      1628.70         C  1 -- C  5         +19.0% ( 70.9%)     72.1%
 T-DIPOLE    0.1457         C  1 -- C  3         +12.8% ( 58.2%)     87.9%
 TRAVEL      0.0598         C  1 -- C  2         +12.8% ( 58.2%)     87.9%
 RED. MASS   2.5542         C  1 -- H  8          +8.5% ( 47.3%)      0.7%
 EFF. MASS  11.5668

 VIBRATION   35   35A         ATOM PAIR      ENERGY CONTRIBUTION    RADIAL
 FREQ.      2268.61         C  5 -- C  7         +41.4% ( 84.9%)     99.8%
 T-DIPOLE    0.3241         C  6 -- C  7         +41.4% ( 84.8%)     99.8%
 TRAVEL      0.0500         C  1 -- C  5          +4.3% ( 27.5%)     42.3%
 RED. MASS   5.7230         C  4 -- C  6          +4.3% ( 27.3%)     43.5%
 EFF. MASS  11.8987

 VIBRATION   36   36A         ATOM PAIR      ENERGY CONTRIBUTION    RADIAL
 FREQ.      3009.10         C  1 -- H  8         +90.8% ( 97.1%)    100.0%
 T-DIPOLE    0.1360         C  5 -- H 16          +5.0% ( 22.8%)    100.0%
 TRAVEL      0.1235         C  1 -- C  5          +1.2% ( 11.4%)     15.2%
 RED. MASS   0.8283         C  1 -- C  3          +1.1% ( 10.7%)     22.0%
 EFF. MASS   1.4683

 VIBRATION   37   37A         ATOM PAIR      ENERGY CONTRIBUTION    RADIAL
 FREQ.      3028.03         C  5 -- H 16         +92.0% ( 97.2%)    100.0%
 T-DIPOLE    0.3124         C  1 -- H  8          +4.9% ( 22.4%)    100.0%
 TRAVEL      0.1213         C  5 -- C  7          +1.5% ( 12.4%)     40.7%
 RED. MASS   0.8364         C  1 -- C  5          +1.3% ( 11.4%)     16.8%
 EFF. MASS   1.5139

 VIBRATION   38   38A         ATOM PAIR      ENERGY CONTRIBUTION    RADIAL
 FREQ.      3032.31         C  6 -- H 17         +95.7% ( 99.3%)    100.0%
 T-DIPOLE    0.2959         C  6 -- C  7          +1.5% ( 12.5%)     39.7%
 TRAVEL      0.1210         C  4 -- C  6          +1.4% ( 11.8%)     12.5%
 RED. MASS   0.9043         C  4 -- H 15          +0.8% (  8.9%)     97.6%
 EFF. MASS   1.5185

 VIBRATION   39   39A         ATOM PAIR      ENERGY CONTRIBUTION    RADIAL
 FREQ.      3071.56         C  4 -- H 13         +49.3% ( 72.5%)     97.1%
 T-DIPOLE    0.0231         C  4 -- H 14         +48.8% ( 72.0%)     97.0%
 TRAVEL      0.1209         C  4 -- C  6          +1.0% ( 10.2%)      0.0%
 RED. MASS   0.5096         C  4 -- H 15          +0.9% (  9.9%)      0.0%
 EFF. MASS   1.5022

 VIBRATION   40   40A         ATOM PAIR      ENERGY CONTRIBUTION    RADIAL
 FREQ.      3083.02         C  4 -- H 15         +58.2% ( 78.7%)     98.6%
 T-DIPOLE    0.0800         C  4 -- H 14         +20.0% ( 46.2%)     86.7%
 TRAVEL      0.1204         C  4 -- H 13         +19.6% ( 45.6%)     86.3%
 RED. MASS   0.4474         C  6 -- H 17          +1.1% ( 10.9%)    100.0%
 EFF. MASS   1.5091

 VIBRATION   41   41A         ATOM PAIR      ENERGY CONTRIBUTION    RADIAL
 FREQ.      3084.33         C  3 -- H 11         +27.8% ( 54.7%)     97.7%
 T-DIPOLE    0.0219         C  2 -- H 10         +27.1% ( 54.0%)     97.7%
 TRAVEL      0.1185         C  3 -- H 12         +21.5% ( 48.1%)     96.2%
 RED. MASS   0.2639         C  2 -- H  9         +21.1% ( 47.7%)     96.2%
 EFF. MASS   1.5567

 VIBRATION   42   42A         ATOM PAIR      ENERGY CONTRIBUTION    RADIAL
 FREQ.      3098.56         C  2 -- H 10         +28.8% ( 55.2%)     98.1%
 T-DIPOLE    0.2635         C  3 -- H 11         +28.2% ( 54.7%)     98.1%
 TRAVEL      0.1188         C  2 -- H  9         +20.4% ( 46.6%)     96.2%
 RED. MASS   0.2643         C  3 -- H 12         +19.9% ( 45.9%)     96.1%
 EFF. MASS   1.5428

 VIBRATION   43   43A         ATOM PAIR      ENERGY CONTRIBUTION    RADIAL
 FREQ.      3134.29         C  3 -- H 12         +31.4% ( 55.6%)     97.4%
 T-DIPOLE    0.2318         C  2 -- H  9         +24.6% ( 49.2%)     97.4%
 TRAVEL      0.1301         C  3 -- H 11         +23.7% ( 48.3%)     95.3%
 RED. MASS   0.2493         C  2 -- H 10         +18.9% ( 43.2%)     95.4%
 EFF. MASS   1.2709

 VIBRATION   44   44A         ATOM PAIR      ENERGY CONTRIBUTION    RADIAL
 FREQ.      3135.32         C  2 -- H  9         +32.2% ( 56.5%)     97.4%
 T-DIPOLE    0.1960         C  3 -- H 12         +25.6% ( 50.4%)     97.4%
 TRAVEL      0.1269         C  2 -- H 10         +22.5% ( 47.2%)     94.6%
 RED. MASS   0.2527         C  3 -- H 11         +17.6% ( 41.8%)     94.5%
 EFF. MASS   1.3351

 VIBRATION   45   45A         ATOM PAIR      ENERGY CONTRIBUTION    RADIAL
 FREQ.      3172.76         C  4 -- H 15         +40.3% ( 61.2%)     98.0%
 T-DIPOLE    0.0710         C  4 -- H 14         +29.8% ( 52.6%)     96.5%
 TRAVEL      0.1366         C  4 -- H 13         +29.6% ( 52.4%)     96.5%
 RED. MASS   0.3331         C  4 -- C  6          +0.3% (  5.4%)     98.6%
 EFF. MASS   1.1397

      SYMMETRY NUMBER FOR POINT-GROUP C1  =  1


          SYSTEM IS A GROUND STATE



 InChI=1S/C7H10/c1-2-3-4-7-5-6-7/h2,4,7H,5-6H2,1H3


          MOLECULE IS NOT LINEAR

          THERE ARE 45 GENUINE VIBRATIONS IN THIS SYSTEM
          THIS THERMODYNAMICS CALCULATION IS LIMITED TO
          MOLECULES WHICH HAVE NO INTERNAL ROTATIONS




                    CALCULATED THERMODYNAMIC PROPERTIES
                                          *
   TEMP. (K)   PARTITION FUNCTION   H.O.F.    ENTHALPY  HEAT CAPACITY ENTROPY
                                   KCAL/MOL   CAL/MOLE    CAL/K/MOL  CAL/K/MOL


 298.00  VIB.     0.1461D+03                  3154.7294    21.8322    20.4907
         ROT.     0.2693D+06                   888.2813     2.9808    27.8279
         INT.     0.3933D+08                  4043.0107    24.8131    48.3186
         TRA.     0.8833D+27                  1480.4688     4.9680    39.5363
         TOT.                       56.376    5523.4796    29.7811    87.8548

 200.00  VIB.     0.2548D+02                  1424.2054    13.7946    13.5553
         ROT.     0.1481D+06                   596.1620     2.9808    26.6392
         INT.     0.3772D+07                  2020.3674    16.7754    40.1945
         TRA.     0.4856D+27                   993.6033     4.9680    37.5551
         TOT.                       53.866    3013.9706    21.7434    77.7497

 210.00  VIB.     0.3047D+02                  1565.7425    14.5173    14.2457
         ROT.     0.1593D+06                   625.9700     2.9808    26.7847
         INT.     0.4854D+07                  2191.7125    17.4981    41.0304
         TRA.     0.5225D+27                  1043.2834     4.9680    37.7975
         TOT.                       54.087    3234.9959    22.4661    78.8279

 220.00  VIB.     0.3642D+02                  1714.6397    15.2666    14.9382
         ROT.     0.1708D+06                   655.7781     2.9808    26.9233
         INT.     0.6222D+07                  2370.4178    18.2474    41.8616
         TRA.     0.5603D+27                  1092.9636     4.9680    38.0286
         TOT.                       54.316    3463.3814    23.2154    79.8902

 230.00  VIB.     0.4353D+02                  1871.1600    16.0417    15.6339
         ROT.     0.1826D+06                   685.5862     2.9808    27.0558
         INT.     0.7947D+07                  2556.7463    19.0225    42.6897
         TRA.     0.5989D+27                  1142.6437     4.9680    38.2495
         TOT.                       54.552    3699.3900    23.9905    80.9392

 240.00  VIB.     0.5200D+02                  2035.5545    16.8411    16.3334
         ROT.     0.1946D+06                   715.3943     2.9808    27.1827
         INT.     0.1012D+08                  2750.9488    19.8219    43.5161
         TRA.     0.6384D+27                  1192.3239     4.9680    38.4609
         TOT.                       54.796    3943.2727    24.7899    81.9770

 250.00  VIB.     0.6212D+02                  2208.0557    17.6627    17.0375
         ROT.     0.2069D+06                   745.2024     2.9808    27.3044
         INT.     0.1285D+08                  2953.2581    20.6435    44.3419
         TRA.     0.6787D+27                  1242.0041     4.9680    38.6637
         TOT.                       55.048    4195.2622    25.6115    83.0056

 260.00  VIB.     0.7421D+02                  2388.8735    18.5040    17.7466
         ROT.     0.2195D+06                   775.0105     2.9808    27.4213
         INT.     0.1628D+08                  3163.8841    21.4848    45.1678
         TRA.     0.7198D+27                  1291.6842     4.9680    38.8586
         TOT.                       55.308    4455.5683    26.4528    84.0264

 270.00  VIB.     0.8865D+02                  2578.1921    19.3623    18.4609
         ROT.     0.2322D+06                   804.8186     2.9808    27.5338
         INT.     0.2059D+08                  3383.0107    22.3432    45.9947
         TRA.     0.7618D+27                  1341.3644     4.9680    39.0461
         TOT.                       55.577    4724.3751    27.3112    85.0408

 280.00  VIB.     0.1059D+03                  2776.1677    20.2349    19.1808
         ROT.     0.2453D+06                   834.6267     2.9808    27.6422
         INT.     0.2598D+08                  3610.7945    23.2157    46.8230
         TRA.     0.8045D+27                  1391.0445     4.9680    39.2267
         TOT.                       55.854    5001.8390    28.1837    86.0498

 290.00  VIB.     0.1266D+03                  2982.9282    21.1188    19.9063
         ROT.     0.2585D+06                   864.4348     2.9808    27.7468
         INT.     0.3273D+08                  3847.3631    24.0996    47.6531
         TRA.     0.8479D+27                  1440.7247     4.9680    39.4011
         TOT.                       56.140    5288.0878    29.0677    87.0542

 300.00  VIB.     0.1514D+03                  3198.5729    22.0113    20.6373
         ROT.     0.2720D+06                   894.2429     2.9808    27.8478
         INT.     0.4118D+08                  4092.8158    24.9921    48.4851
         TRA.     0.8922D+27                  1490.4049     4.9680    39.5695
         TOT.                       56.436    5583.2207    29.9601    88.0546

 310.00  VIB.     0.1811D+03                  3423.1732    22.9095    21.3737
         ROT.     0.2857D+06                   924.0510     2.9808    27.9456
         INT.     0.5173D+08                  4347.2242    25.8903    49.3192
         TRA.     0.9372D+27                  1540.0850     4.9680    39.7324
         TOT.                       56.740    5887.3092    30.8583    89.0516

 320.00  VIB.     0.2167D+03                  3656.7739    23.8110    22.1152
         ROT.     0.2996D+06                   953.8591     2.9808    28.0402
         INT.     0.6492D+08                  4610.6330    26.7918    50.1555
         TRA.     0.9829D+27                  1589.7652     4.9680    39.8901
         TOT.                       57.053    6200.3982    31.7598    90.0456

 330.00  VIB.     0.2594D+03                  3899.3949    24.7132    22.8618
         ROT.     0.3138D+06                   983.6672     2.9808    28.1319
         INT.     0.8139D+08                  4883.0621    27.6940    50.9937
         TRA.     0.1029D+28                  1639.4454     4.9680    40.0430
         TOT.                       57.375    6522.5075    32.6620    91.0367

 340.00  VIB.     0.3107D+03                  4151.0329    25.6140    23.6129
         ROT.     0.3282D+06                  1013.4753     2.9808    28.2209
         INT.     0.1020D+09                  5164.5082    28.5948    51.8338
         TRA.     0.1076D+28                  1689.1255     4.9680    40.1913
         TOT.                       57.706    6853.6337    33.5628    92.0251

 350.00  VIB.     0.3723D+03                  4411.6634    26.5114    24.3683
         ROT.     0.3428D+06                  1043.2834     2.9808    28.3073
         INT.     0.1276D+09                  5454.9468    29.4922    52.6757
         TRA.     0.1124D+28                  1738.8057     4.9680    40.3353
         TOT.                       58.046    7193.7525    34.4602    93.0110

 360.00  VIB.     0.4464D+03                  4681.2428    27.4035    25.1277
         ROT.     0.3576D+06                  1073.0915     2.9808    28.3913
         INT.     0.1596D+09                  5754.3343    30.3843    53.5190
         TRA.     0.1173D+28                  1788.4859     4.9680    40.4753
         TOT.                       58.395    7542.8201    35.3523    93.9943

 370.00  VIB.     0.5355D+03                  4959.7105    28.2888    25.8906
         ROT.     0.3726D+06                  1102.8996     2.9808    28.4730
         INT.     0.1995D+09                  6062.6101    31.2696    54.3636
         TRA.     0.1222D+28                  1838.1660     4.9680    40.6114
         TOT.                       58.753    7900.7761    36.2376    94.9750

 380.00  VIB.     0.6428D+03                  5246.9910    29.1658    26.6567
         ROT.     0.3878D+06                  1132.7077     2.9808    28.5525
         INT.     0.2492D+09                  6379.6987    32.1467    55.2092
         TRA.     0.1272D+28                  1887.8462     4.9680    40.7439
         TOT.                       59.120    8267.5449    37.1147    95.9531

 390.00  VIB.     0.7719D+03                  5542.9959    30.0335    27.4255
         ROT.     0.4032D+06                  1162.5158     2.9808    28.6299
         INT.     0.3112D+09                  6705.5117    33.0143    56.0554
         TRA.     0.1322D+28                  1937.5263     4.9680    40.8729
         TOT.                       59.495    8643.0380    37.9823    96.9284

 400.00  VIB.     0.9276D+03                  5847.6255    30.8906    28.1968
         ROT.     0.4188D+06                  1192.3239     2.9808    28.7054
         INT.     0.3884D+09                  7039.9494    33.8714    56.9021
         TRA.     0.1374D+28                  1987.2065     4.9680    40.9987
         TOT.                       59.879    9027.1559    38.8395    97.9008

   *: NOTE: HEATS OF FORMATION ARE RELATIVE TO THE
            ELEMENTS IN THEIR STANDARD STATE AT 298K
              (=  Standard Enthalpy of Formation).

            Hvib:  Zero-point energy is not included.
                   frequencies of less than zero cm-1 are not included.
            Hrot = (3/2)RT
            Htra = (3/2)RT + pV = (5/2)RT

            Heat capacity is Cp, not Cv

          For more information, see: HTTP://OpenMOPAC.net/Manual/thermochemistry.html


           FORCE CONSTANT IN CARTESIAN COORDINATES (Millidynes/A)

    ATOM   CHEMICAL       X               Y               Z
   NUMBER   SYMBOL  FORCE CONSTANT  FORCE CONSTANT  FORCE CONSTANT

      1       C       10.014875        6.305259        9.491999
      2       C        9.785825        6.500228        8.766883
      3       C        4.523322       11.757500        8.768236
      4       C        8.377737        9.016759        7.941295
      5       C       12.611243        5.790546        8.987297
      6       C       13.932071       10.761065        2.271758
      7       C       18.812688        7.824240        1.817422
      8       H        1.734160        0.919039        3.698559
      9       H        1.826507        0.994558        3.842099
     10       H        1.851128        0.968303        3.826563
     11       H        0.528060        2.291852        3.825904
     12       H        0.526920        2.293556        3.842113
     13       H        1.871351        1.090831        3.702827
     14       H        1.752590        1.084816        3.828025
     15       H        4.578701        1.548237        0.657220
     16       H        1.323324        0.675733        4.067204
     17       H        3.912544        1.843076        0.326274

 **********************
 *                    *
 * JOB ENDED NORMALLY *
 *                    *
 **********************



 TOTAL JOB TIME:             9.77 SECONDS

 == MOPAC DONE ==
