 *******************************************************************************
 ** Site#: 14399        For non-commercial use only    Version 18.184L 64BITS **
 *******************************************************************************
 ** Cite this program as: MOPAC2016, Version: 18.184L, James J. P. Stewart,   **
 ** Stewart Computational Chemistry, web: HTTP://OpenMOPAC.net. Days left:  20**
 *******************************************************************************
 **                                                                           **
 **                                MOPAC2016                                  **
 **                                                                           **
 *******************************************************************************

                              PM3 CALCULATION RESULTS

 *******************************************************************************
 *  CALCULATION DONE:                                Thu Jun 13 16:00:54 2019  *
 *  PM3        - The PM3 Hamiltonian to be used
 *  PRECISE    - CRITERIA TO BE INCREASED BY 100 TIMES
 *  NOSYM      - POINT-GROUP SYMMETRY SET TO C1
 *  THREADS=1  - MULTI-THREADING NOT USED
 *  T=         - A TIME OF 172800.0 SECONDS REQUESTED
 *  DUMP=N     - RESTART FILE WRITTEN EVERY  7200.000 SECONDS
 *******************************************************************************
pm3  precise nosym THREADS=1
 InChI=1S/C10H12/c1-2-4-6-8-10-9-7-5-3-1/h1-6,9-10H,7-8H2

   ATOM   CHEMICAL          X               Y               Z
  NUMBER   SYMBOL      (ANGSTROMS)     (ANGSTROMS)     (ANGSTROMS)
 
     1       C         -1.83840000  *  -0.19010000  *   0.03560000  *
     2       C          0.55570000  *   1.68660000  *   0.51380000  *
     3       C         -1.68210000  *   1.18380000  *  -0.56160000  *
     4       C         -0.63480000  *   2.00470000  *  -0.35240000  *
     5       C         -1.20460000  *  -1.22360000  *  -0.85550000  *
     6       C          1.61780000  *   0.98880000  *  -0.29180000  *
     7       C         -0.18920000  *  -2.01510000  *  -0.49070000  *
     8       C          2.06760000  *  -0.24600000  *  -0.04000000  *
     9       C          0.48080000  *  -1.91730000  *   0.81640000  *
    10       C          1.51940000  *  -1.10320000  *   1.02390000  *
    11       H         -1.46920000  *  -0.22340000  *   1.07960000  *
    12       H         -2.92330000  *  -0.41990000  *   0.09340000  *
    13       H          0.98620000  *   2.64460000  *   0.87420000  *
    14       H          0.25800000  *   1.13050000  *   1.42460000  *
    15       H         -2.47710000  *   1.53370000  *  -1.21420000  *
    16       H         -1.61240000  *  -1.34360000  *  -1.85210000  *
    17       H         -0.64270000  *   2.97160000  *  -0.84780000  *
    18       H          2.05730000  *   1.53310000  *  -1.11920000  *
    19       H          0.11650000  *  -2.52960000  *   1.63130000  *
    20       H          0.18970000  *  -2.73920000  *  -1.20070000  *
    21       H          1.97890000  *  -1.06960000  *   2.00330000  *
    22       H          2.84610000  *  -0.65690000  *  -0.67010000  *
 


          CARTESIAN COORDINATES 

    NO.       ATOM           X           Y           Z

     1         C         -1.8384     -0.1901      0.0356
     2         C          0.5557      1.6866      0.5138
     3         C         -1.6821      1.1838     -0.5616
     4         C         -0.6348      2.0047     -0.3524
     5         C         -1.2046     -1.2236     -0.8555
     6         C          1.6178      0.9888     -0.2918
     7         C         -0.1892     -2.0151     -0.4907
     8         C          2.0676     -0.2460     -0.0400
     9         C          0.4808     -1.9173      0.8164
    10         C          1.5194     -1.1032      1.0239
    11         H         -1.4692     -0.2234      1.0796
    12         H         -2.9233     -0.4199      0.0934
    13         H          0.9862      2.6446      0.8742
    14         H          0.2580      1.1305      1.4246
    15         H         -2.4771      1.5337     -1.2142
    16         H         -1.6124     -1.3436     -1.8521
    17         H         -0.6427      2.9716     -0.8478
    18         H          2.0573      1.5331     -1.1192
    19         H          0.1165     -2.5296      1.6313
    20         H          0.1897     -2.7392     -1.2007
    21         H          1.9789     -1.0696      2.0033
    22         H          2.8461     -0.6569     -0.6701

  H: (PM3): J. J. P. STEWART, J. COMP. CHEM. 10, 209 (1989).
  C: (PM3): J. J. P. STEWART, J. COMP. CHEM. 10, 209 (1989).

           Empirical Formula: C10 H12  =    22 atoms



      MOLECULAR POINT GROUP   :   C1  


      RHF CALCULATION, NO. OF DOUBLY OCCUPIED LEVELS = 26


          Geometry optimization using EF

          DIAGONAL MATRIX USED AS START HESSIAN

 CYCLE:     1 TIME:   0.035 TIME LEFT:  2.00D  GRAD.:    76.997 HEAT:  59.65325
 CYCLE:     2 TIME:   0.047 TIME LEFT:  2.00D  GRAD.:    45.817 HEAT:  58.49785
 CYCLE:     3 TIME:   0.023 TIME LEFT:  2.00D  GRAD.:    56.730 HEAT:  58.30502
 CYCLE:     4 TIME:   0.023 TIME LEFT:  2.00D  GRAD.:    56.077 HEAT:  58.27317
 CYCLE:     5 TIME:   0.023 TIME LEFT:  2.00D  GRAD.:    60.429 HEAT:  58.23013
 CYCLE:     6 TIME:   0.031 TIME LEFT:  2.00D  GRAD.:    22.941 HEAT:  57.58828
 CYCLE:     7 TIME:   0.035 TIME LEFT:  2.00D  GRAD.:    13.218 HEAT:  57.43901
 CYCLE:     8 TIME:   0.023 TIME LEFT:  2.00D  GRAD.:    18.411 HEAT:  57.42545
 CYCLE:     9 TIME:   0.023 TIME LEFT:  2.00D  GRAD.:    15.881 HEAT:  57.34204
 CYCLE:    10 TIME:   0.031 TIME LEFT:  2.00D  GRAD.:    14.754 HEAT:  57.31002
 CYCLE:    11 TIME:   0.027 TIME LEFT:  2.00D  GRAD.:    11.773 HEAT:  57.27296
 CYCLE:    12 TIME:   0.023 TIME LEFT:  2.00D  GRAD.:     9.542 HEAT:  57.23556
 CYCLE:    13 TIME:   0.031 TIME LEFT:  2.00D  GRAD.:     9.074 HEAT:  57.21413
 CYCLE:    14 TIME:   0.027 TIME LEFT:  2.00D  GRAD.:    10.536 HEAT:  57.20025
 CYCLE:    15 TIME:   0.020 TIME LEFT:  2.00D  GRAD.:     8.359 HEAT:  57.16962
 CYCLE:    16 TIME:   0.031 TIME LEFT:  2.00D  GRAD.:     7.517 HEAT:  57.15281
 CYCLE:    17 TIME:   0.027 TIME LEFT:  2.00D  GRAD.:     8.276 HEAT:  57.13966
 CYCLE:    18 TIME:   0.023 TIME LEFT:  2.00D  GRAD.:     5.499 HEAT:  57.11451
 CYCLE:    19 TIME:   0.023 TIME LEFT:  2.00D  GRAD.:     5.102 HEAT:  57.08671
 CYCLE:    20 TIME:   0.020 TIME LEFT:  2.00D  GRAD.:     7.864 HEAT:  57.04380
 CYCLE:    21 TIME:   0.023 TIME LEFT:  2.00D  GRAD.:     7.167 HEAT:  56.97025
 CYCLE:    22 TIME:   0.023 TIME LEFT:  2.00D  GRAD.:     9.048 HEAT:  56.85470
 CYCLE:    23 TIME:   0.023 TIME LEFT:  2.00D  GRAD.:    15.076 HEAT:  56.69420
 CYCLE:    24 TIME:   0.023 TIME LEFT:  2.00D  GRAD.:    21.694 HEAT:  56.58956
 CYCLE:    25 TIME:   0.023 TIME LEFT:  2.00D  GRAD.:    19.764 HEAT:  56.54332
 CYCLE:    26 TIME:   0.020 TIME LEFT:  2.00D  GRAD.:    17.529 HEAT:  56.42565
 CYCLE:    27 TIME:   0.023 TIME LEFT:  2.00D  GRAD.:    14.516 HEAT:  56.31025
 CYCLE:    28 TIME:   0.031 TIME LEFT:  2.00D  GRAD.:    22.179 HEAT:  56.29541
 CYCLE:    29 TIME:   0.027 TIME LEFT:  2.00D  GRAD.:    17.491 HEAT:  56.23497
 CYCLE:    30 TIME:   0.023 TIME LEFT:  2.00D  GRAD.:    16.524 HEAT:  56.21336
 CYCLE:    31 TIME:   0.023 TIME LEFT:  2.00D  GRAD.:     5.294 HEAT:  56.11704
 CYCLE:    32 TIME:   0.023 TIME LEFT:  2.00D  GRAD.:     6.273 HEAT:  56.10944
 CYCLE:    33 TIME:   0.020 TIME LEFT:  2.00D  GRAD.:     3.092 HEAT:  56.08427
 CYCLE:    34 TIME:   0.023 TIME LEFT:  2.00D  GRAD.:     4.748 HEAT:  56.07235
 CYCLE:    35 TIME:   0.023 TIME LEFT:  2.00D  GRAD.:     3.450 HEAT:  56.05747
 CYCLE:    36 TIME:   0.023 TIME LEFT:  2.00D  GRAD.:     2.382 HEAT:  56.04612
 CYCLE:    37 TIME:   0.023 TIME LEFT:  2.00D  GRAD.:     2.259 HEAT:  56.03462
 CYCLE:    38 TIME:   0.023 TIME LEFT:  2.00D  GRAD.:     2.246 HEAT:  56.02558
 CYCLE:    39 TIME:   0.023 TIME LEFT:  2.00D  GRAD.:     2.105 HEAT:  56.01565
 CYCLE:    40 TIME:   0.020 TIME LEFT:  2.00D  GRAD.:     1.427 HEAT:  56.00825
 CYCLE:    41 TIME:   0.023 TIME LEFT:  2.00D  GRAD.:     1.100 HEAT:  56.00337
 CYCLE:    42 TIME:   0.023 TIME LEFT:  2.00D  GRAD.:     0.948 HEAT:  56.00054
 CYCLE:    43 TIME:   0.023 TIME LEFT:  2.00D  GRAD.:     0.817 HEAT:  55.99854
 CYCLE:    44 TIME:   0.023 TIME LEFT:  2.00D  GRAD.:     0.771 HEAT:  55.99673
 CYCLE:    45 TIME:   0.023 TIME LEFT:  2.00D  GRAD.:     0.754 HEAT:  55.99550
 CYCLE:    46 TIME:   0.023 TIME LEFT:  2.00D  GRAD.:     0.707 HEAT:  55.99440
 CYCLE:    47 TIME:   0.020 TIME LEFT:  2.00D  GRAD.:     0.600 HEAT:  55.99337
 CYCLE:    48 TIME:   0.023 TIME LEFT:  2.00D  GRAD.:     0.522 HEAT:  55.99248
 CYCLE:    49 TIME:   0.023 TIME LEFT:  2.00D  GRAD.:     0.372 HEAT:  55.99193
 CYCLE:    50 TIME:   0.023 TIME LEFT:  2.00D  GRAD.:     0.277 HEAT:  55.99163
 CYCLE:    51 TIME:   0.031 TIME LEFT:  2.00D  GRAD.:     0.228 HEAT:  55.99145
 CYCLE:    52 TIME:   0.027 TIME LEFT:  2.00D  GRAD.:     0.196 HEAT:  55.99133
 CYCLE:    53 TIME:   0.027 TIME LEFT:  2.00D  GRAD.:     0.178 HEAT:  55.99123
 CYCLE:    54 TIME:   0.023 TIME LEFT:  2.00D  GRAD.:     0.162 HEAT:  55.99115
 CYCLE:    55 TIME:   0.047 TIME LEFT:  2.00D  GRAD.:     0.163 HEAT:  55.99108
 CYCLE:    56 TIME:   0.027 TIME LEFT:  2.00D  GRAD.:     0.155 HEAT:  55.99102
 CYCLE:    57 TIME:   0.023 TIME LEFT:  2.00D  GRAD.:     0.129 HEAT:  55.99096
 CYCLE:    58 TIME:   0.020 TIME LEFT:  2.00D  GRAD.:     0.104 HEAT:  55.99092
 CYCLE:    59 TIME:   0.023 TIME LEFT:  2.00D  GRAD.:     0.095 HEAT:  55.99089
 CYCLE:    60 TIME:   0.023 TIME LEFT:  2.00D  GRAD.:     0.085 HEAT:  55.99087
 CYCLE:    61 TIME:   0.023 TIME LEFT:  2.00D  GRAD.:     0.079 HEAT:  55.99085
 CYCLE:    62 TIME:   0.023 TIME LEFT:  2.00D  GRAD.:     0.060 HEAT:  55.99084
 CYCLE:    63 TIME:   0.023 TIME LEFT:  2.00D  GRAD.:     0.060 HEAT:  55.99083
 CYCLE:    64 TIME:   0.023 TIME LEFT:  2.00D  GRAD.:     0.046 HEAT:  55.99082

     GRADIENT =  0.04551  IS LESS THAN CUTOFF =  0.05000



 -------------------------------------------------------------------------------
 pm3  precise nosym THREADS=1
 InChI=1S/C10H12/c1-2-4-6-8-10-9-7-5-3-1/h1-6,9-10H,7-8H2



     GEOMETRY OPTIMISED USING EIGENVECTOR FOLLOWING (EF).     
     SCF FIELD WAS ACHIEVED                                   


                              PM3 CALCULATION
                                                       MOPAC2016 (Version: 18.184L)
                                                       Thu Jun 13 16:00:56 2019
                                                       No. of days remaining =  20




          FINAL HEAT OF FORMATION =         55.99082 KCAL/MOL =     234.26561 KJ/MOL


          TOTAL ENERGY            =      -1367.96831 EV
          ELECTRONIC ENERGY       =      -7511.97518 EV  POINT GROUP:     C1  
          CORE-CORE REPULSION     =       6144.00688 EV
          COSMO AREA              =        173.98 SQUARE ANGSTROMS
          COSMO VOLUME            =        182.30 CUBIC ANGSTROMS

          GRADIENT NORM           =          0.04551 = 0.00970 PER ATOM
          IONIZATION POTENTIAL    =          9.690791 EV
          HOMO LUMO ENERGIES (EV) =         -9.691  0.789
          NO. OF FILLED LEVELS    =         26
          MOLECULAR WEIGHT        =        132.2048

          MOLECULAR DIMENSIONS (Angstroms)

            Atom       Atom       Distance
            H    19    H    17     6.13209
            H    22    H    12     5.87111
            H    16    H    13     4.58628


          SCF CALCULATIONS        =         73
 
          WALL-CLOCK TIME         =          1.668 SECONDS
          COMPUTATION TIME        =          0.708 SECONDS




   ATOM   CHEMICAL          X               Y               Z
  NUMBER   SYMBOL      (ANGSTROMS)     (ANGSTROMS)     (ANGSTROMS)
 
     1       C         -1.81470617  *  -0.14345134  *   0.06398191  *
     2       C          0.49981214  *   1.67226561  *   0.52621491  *
     3       C         -1.63994550  *   1.16014397  *  -0.63893161  *
     4       C         -0.60265426  *   1.97396948  *  -0.43171051  *
     5       C         -1.30683237  *  -1.25267994  *  -0.79122657  *
     6       C          1.65094215  *   1.06646869  *  -0.20013903  *
     7       C         -0.26394408  *  -2.02473028  *  -0.48275861  *
     8       C          2.08928741  *  -0.17907810  *  -0.01230584  *
     9       C          0.50620328  *  -1.93309777  *   0.75410689  *
    10       C          1.54287859  *  -1.11959935  *   0.96146727  *
    11       H         -1.28335334  *  -0.11874384  *   1.04405495  *
    12       H         -2.88452935  *  -0.31351642  *   0.29324395  *
    13       H          0.82951742  *   2.59953761  *   1.03364150  *
    14       H          0.12895449  *   0.99057775  *   1.32696326  *
    15       H         -2.41566758  *   1.42572822  *  -1.36613577  *
    16       H         -1.84110962  *  -1.40443799  *  -1.73677677  *
    17       H         -0.51755561  *   2.91511250  *  -0.98681265  *
    18       H          2.13537738  *   1.71231915  *  -0.94228212  *
    19       H          0.18366938  *  -2.62763250  *   1.54080013  *
    20       H          0.06396633  *  -2.81946962  *  -1.16473783  *
    21       H          2.07794689  *  -1.14101111  *   1.91985557  *
    22       H          2.93834635  *  -0.56532893  *  -0.59035814  *

                             CARTESIAN COORDINATES

   1    C       -1.814706166    -0.143451342     0.063981910
   2    C        0.499812142     1.672265610     0.526214906
   3    C       -1.639945503     1.160143967    -0.638931611
   4    C       -0.602654260     1.973969480    -0.431710515
   5    C       -1.306832373    -1.252679938    -0.791226570
   6    C        1.650942146     1.066468689    -0.200139031
   7    C       -0.263944085    -2.024730283    -0.482758610
   8    C        2.089287408    -0.179078100    -0.012305845
   9    C        0.506203277    -1.933097770     0.754106888
  10    C        1.542878595    -1.119599346     0.961467272
  11    H       -1.283353336    -0.118743843     1.044054952
  12    H       -2.884529347    -0.313516420     0.293243950
  13    H        0.829517416     2.599537606     1.033641502
  14    H        0.128954493     0.990577750     1.326963255
  15    H       -2.415667585     1.425728223    -1.366135765
  16    H       -1.841109622    -1.404437995    -1.736776770
  17    H       -0.517555609     2.915112497    -0.986812645
  18    H        2.135377384     1.712319152    -0.942282122
  19    H        0.183669376    -2.627632501     1.540800132
  20    H        0.063966325    -2.819469619    -1.164737832
  21    H        2.077946894    -1.141011108     1.919855568
  22    H        2.938346352    -0.565328930    -0.590358139


           Empirical Formula: C10 H12  =    22 atoms



      MOLECULAR POINT GROUP   :   C1  


                  EIGENVALUES  
 -40.03833 -34.61910 -34.57687 -27.99264 -27.39598 -24.02195 -21.51756 -19.41856
 -18.52428 -17.43092 -16.61290 -16.50146 -16.25335 -15.80280 -15.54211 -14.54418
 -14.09225 -13.24523 -13.21775 -12.45051 -12.02821 -11.41457 -10.16273  -9.94679
  -9.91993  -9.69079   0.78869   1.07204   1.11421   1.34019   3.25641   3.37733
   3.41114   3.61135   3.66841   3.81407   3.94839   4.02761   4.04783   4.12743
   4.36499   4.43376   4.58997   4.64191   4.98567   5.56410   5.62946   5.68066
   5.70442   5.86438   6.01830   6.20883


              NET ATOMIC CHARGES AND DIPOLE CONTRIBUTIONS

  ATOM NO.   TYPE          CHARGE      No. of ELECS.   s-Pop       p-Pop       
    1          C          -0.042420        4.0424     1.13712     2.90530
    2          C          -0.042318        4.0423     1.13710     2.90522
    3          C          -0.138148        4.1381     1.19478     2.94337
    4          C          -0.138176        4.1382     1.19478     2.94339
    5          C          -0.125318        4.1253     1.19170     2.93362
    6          C          -0.125354        4.1254     1.19170     2.93366
    7          C          -0.112654        4.1127     1.17854     2.93411
    8          C          -0.112592        4.1126     1.17853     2.93406
    9          C          -0.102288        4.1023     1.17709     2.92520
   10          C          -0.102260        4.1023     1.17708     2.92518
   11          H           0.068519        0.9315     0.93148
   12          H           0.057340        0.9427     0.94266
   13          H           0.057321        0.9427     0.94268
   14          H           0.068469        0.9315     0.93153
   15          H           0.096285        0.9037     0.90371
   16          H           0.096404        0.9036     0.90360
   17          H           0.096288        0.9037     0.90371
   18          H           0.096383        0.9036     0.90362
   19          H           0.100109        0.8999     0.89989
   20          H           0.102176        0.8978     0.89782
   21          H           0.100095        0.8999     0.89991
   22          H           0.102139        0.8979     0.89786
 DIPOLE           X         Y         Z       TOTAL
 POINT-CHG.    -0.051     0.006     0.232     0.237
 HYBRID         0.046    -0.029    -0.117     0.129
 SUM           -0.005    -0.023     0.115     0.117


          ATOMIC ORBITAL ELECTRON POPULATIONS

     Atom    s        px        py        pz   
    1  C   1.13712   1.00458   0.92174   0.97898
    2  C   1.13710   0.93458   1.00520   0.96544
    3  C   1.19478   0.98363   0.95961   1.00014
    4  C   1.19478   0.95830   0.98924   0.99586
    5  C   1.19170   0.97608   0.96557   0.99198
    6  C   1.19170   0.97476   0.96134   0.99756
    7  C   1.17854   0.96735   0.99836   0.96840
    8  C   1.17853   0.99925   0.94809   0.98673
    9  C   1.17709   0.96688   0.98792   0.97040
   10  C   1.17708   0.97184   0.97176   0.98157
   11  H   0.93148
   12  H   0.94266
   13  H   0.94268
   14  H   0.93153
   15  H   0.90371
   16  H   0.90360
   17  H   0.90371
   18  H   0.90362
   19  H   0.89989
   20  H   0.89782
   21  H   0.89991
   22  H   0.89786
 *******************************************************************************
 ** Site#: 14399        For non-commercial use only    Version 18.184L 64BITS **
 *******************************************************************************
 ** Cite this program as: MOPAC2016, Version: 18.184L, James J. P. Stewart,   **
 ** Stewart Computational Chemistry, web: HTTP://OpenMOPAC.net. Days left:  20**
 *******************************************************************************
 **                                                                           **
 **                                MOPAC2016                                  **
 **                                                                           **
 *******************************************************************************

                              PM3 CALCULATION RESULTS

 *******************************************************************************
 *  CALCULATION DONE:                                Thu Jun 13 16:00:56 2019  *
 *  PM3        - The PM3 Hamiltonian to be used
 *  OLDGEO     - PREVIOUS GEOMETRY TO BE USED
 *  PRECISE    - CRITERIA TO BE INCREASED BY 100 TIMES
 *  NOSYM      - POINT-GROUP SYMMETRY SET TO C1
 *  THREADS=1  - MULTI-THREADING NOT USED
 *  T=         - A TIME OF 172800.0 SECONDS REQUESTED
 *  DUMP=N     - RESTART FILE WRITTEN EVERY  7200.000 SECONDS
 *  THERMO     - THERMODYNAMIC QUANTITIES TO BE CALCULATED
 *******************************************************************************
oldgeo thermo nosym precise THREADS=1  pm3
 InChI=1S/C10H12/c1-2-4-6-8-10-9-7-5-3-1/h1-6,9-10H,7-8H2

   ATOM   CHEMICAL          X               Y               Z
  NUMBER   SYMBOL      (ANGSTROMS)     (ANGSTROMS)     (ANGSTROMS)
 
     1       C         -1.81470617  *  -0.14345134  *   0.06398191  *
     2       C          0.49981214  *   1.67226561  *   0.52621491  *
     3       C         -1.63994550  *   1.16014397  *  -0.63893161  *
     4       C         -0.60265426  *   1.97396948  *  -0.43171051  *
     5       C         -1.30683237  *  -1.25267994  *  -0.79122657  *
     6       C          1.65094215  *   1.06646869  *  -0.20013903  *
     7       C         -0.26394408  *  -2.02473028  *  -0.48275861  *
     8       C          2.08928741  *  -0.17907810  *  -0.01230584  *
     9       C          0.50620328  *  -1.93309777  *   0.75410689  *
    10       C          1.54287859  *  -1.11959935  *   0.96146727  *
    11       H         -1.28335334  *  -0.11874384  *   1.04405495  *
    12       H         -2.88452935  *  -0.31351642  *   0.29324395  *
    13       H          0.82951742  *   2.59953761  *   1.03364150  *
    14       H          0.12895449  *   0.99057775  *   1.32696326  *
    15       H         -2.41566758  *   1.42572822  *  -1.36613577  *
    16       H         -1.84110962  *  -1.40443799  *  -1.73677677  *
    17       H         -0.51755561  *   2.91511250  *  -0.98681265  *
    18       H          2.13537738  *   1.71231915  *  -0.94228212  *
    19       H          0.18366938  *  -2.62763250  *   1.54080013  *
    20       H          0.06396633  *  -2.81946962  *  -1.16473783  *
    21       H          2.07794689  *  -1.14101111  *   1.91985557  *
    22       H          2.93834635  *  -0.56532893  *  -0.59035814  *
 


          CARTESIAN COORDINATES 

    NO.       ATOM           X           Y           Z

     1         C         -1.8147     -0.1435      0.0640
     2         C          0.4998      1.6723      0.5262
     3         C         -1.6399      1.1601     -0.6389
     4         C         -0.6027      1.9740     -0.4317
     5         C         -1.3068     -1.2527     -0.7912
     6         C          1.6509      1.0665     -0.2001
     7         C         -0.2639     -2.0247     -0.4828
     8         C          2.0893     -0.1791     -0.0123
     9         C          0.5062     -1.9331      0.7541
    10         C          1.5429     -1.1196      0.9615
    11         H         -1.2834     -0.1187      1.0441
    12         H         -2.8845     -0.3135      0.2932
    13         H          0.8295      2.5995      1.0336
    14         H          0.1290      0.9906      1.3270
    15         H         -2.4157      1.4257     -1.3661
    16         H         -1.8411     -1.4044     -1.7368
    17         H         -0.5176      2.9151     -0.9868
    18         H          2.1354      1.7123     -0.9423
    19         H          0.1837     -2.6276      1.5408
    20         H          0.0640     -2.8195     -1.1647
    21         H          2.0779     -1.1410      1.9199
    22         H          2.9383     -0.5653     -0.5904

  H: (PM3): J. J. P. STEWART, J. COMP. CHEM. 10, 209 (1989).
  C: (PM3): J. J. P. STEWART, J. COMP. CHEM. 10, 209 (1989).

           Empirical Formula: C10 H12  =    22 atoms



      MOLECULAR POINT GROUP   :   C1  


      RHF CALCULATION, NO. OF DOUBLY OCCUPIED LEVELS = 26



          HEAT OF FORMATION =      55.990824 KCALS/MOLE


          CARTESIAN COORDINATE DERIVATIVES

   NUMBER  ATOM         X            Y            Z

     1       C      0.005069    -0.000640     0.006655
     2       C      0.006591     0.006089     0.006912
     3       C     -0.002930     0.001374     0.009385
     4       C     -0.006516     0.006393     0.011543
     5       C      0.001952     0.001444     0.004238
     6       C     -0.001776    -0.000403    -0.000084
     7       C     -0.011872    -0.000525     0.008130
     8       C     -0.001944     0.000771     0.005348
     9       C     -0.003670    -0.001952    -0.005516
    10       C     -0.006848     0.001078    -0.006618
    11       H      0.003571    -0.005855    -0.005398
    12       H      0.005822    -0.000553     0.004541
    13       H      0.004695     0.010222     0.004825
    14       H      0.005452    -0.000015    -0.004094
    15       H      0.001858    -0.010199    -0.012569
    16       H      0.008786    -0.001052    -0.007164
    17       H      0.001251     0.000165    -0.002255
    18       H      0.000097    -0.002963    -0.005295
    19       H     -0.009936    -0.000752    -0.002182
    20       H      0.005354    -0.010059    -0.011116
    21       H     -0.007868     0.004365    -0.000107
    22       H      0.002861     0.003067     0.000819
 


          GRADIENT NORM =   0.04630


          TIME FOR SCF CALCULATION =    0.02

          TIME FOR DERIVATIVES     =    0.02

          MOLECULAR WEIGHT =  132.20



          ROTATIONAL CONSTANTS IN CM(-1)

          A =    0.05662997   B =    0.05026331   C =    0.03068218



           PRINCIPAL MOMENTS OF INERTIA IN UNITS OF 10**(-40)*GRAM-CM**2

          A =      494.3103   B =      556.9226   C =      912.3463


          ORIENTATION OF MOLECULE IN FORCE CALCULATION

    NO.       ATOM         X         Y         Z

     1          C      -1.4880    0.5909    0.9736
     2          C       1.4899    0.5909    0.9736
     3          C      -0.6664    1.8355    0.9736
     4          C       0.6682    1.8355    0.9737
     5          C      -1.9023    0.2569   -0.4180
     6          C       1.9025    0.2559   -0.4182
     7          C      -1.5146   -0.8354   -1.0777
     8          C       1.5128   -0.8360   -1.0775
     9          C      -0.6681   -1.8886   -0.5249
    10          C       0.6658   -1.8887   -0.5245
    11          H      -0.9078   -0.2451    1.4296
    12          H      -2.3876    0.7270    1.6046
    13          H       2.3903    0.7275    1.6034
    14          H       0.9103   -0.2448    1.4308
    15          H      -1.2203    2.7811    0.9595
    16          H      -2.5569    0.9891   -0.9059
    17          H       1.2221    2.7811    0.9598
    18          H       2.5576    0.9871   -0.9069
    19          H      -1.2202   -2.7413   -0.1083
    20          H      -1.8502   -1.0151   -2.1069
    21          H       1.2174   -2.7414   -0.1075
    22          H       1.8475   -1.0158   -2.1071


    FIRST DERIVATIVES WILL BE USED IN THE CALCULATION OF SECOND DERIVATIVES

          ESTIMATED TIME TO COMPLETE CALCULATION =       10.31 SECONDS

    FOR POINT-GROUP C1   THERE ARE   1 UNIQUE SYMMETRY FUNCTIONS.

 STEP:   1 TIME =     0.05 SECS, INTEGRAL =      0.05 TIME LEFT: 172799.91
 STEP:   2 TIME =     0.05 SECS, INTEGRAL =      0.11 TIME LEFT: 172799.86
 STEP:   3 TIME =     0.05 SECS, INTEGRAL =      0.16 TIME LEFT: 172799.80
 STEP:   4 TIME =     0.05 SECS, INTEGRAL =      0.21 TIME LEFT: 172799.75
 STEP:   5 TIME =     0.05 SECS, INTEGRAL =      0.26 TIME LEFT: 172799.70
 STEP:   6 TIME =     0.05 SECS, INTEGRAL =      0.31 TIME LEFT: 172799.65
 STEP:   7 TIME =     0.05 SECS, INTEGRAL =      0.36 TIME LEFT: 172799.60
 STEP:   8 TIME =     0.05 SECS, INTEGRAL =      0.41 TIME LEFT: 172799.55
 STEP:   9 TIME =     0.05 SECS, INTEGRAL =      0.46 TIME LEFT: 172799.50
 STEP:  10 TIME =     0.05 SECS, INTEGRAL =      0.51 TIME LEFT: 172799.45
 STEP:  11 TIME =     0.05 SECS, INTEGRAL =      0.56 TIME LEFT: 172799.40
 STEP:  12 TIME =     0.05 SECS, INTEGRAL =      0.62 TIME LEFT: 172799.34
 STEP:  13 TIME =     0.05 SECS, INTEGRAL =      0.67 TIME LEFT: 172799.29
 STEP:  14 TIME =     0.05 SECS, INTEGRAL =      0.72 TIME LEFT: 172799.24
 STEP:  15 TIME =     0.05 SECS, INTEGRAL =      0.77 TIME LEFT: 172799.19
 STEP:  16 TIME =     0.05 SECS, INTEGRAL =      0.82 TIME LEFT: 172799.14
 STEP:  17 TIME =     0.05 SECS, INTEGRAL =      0.88 TIME LEFT: 172799.09
 STEP:  18 TIME =     0.05 SECS, INTEGRAL =      0.93 TIME LEFT: 172799.04
 STEP:  19 TIME =     0.05 SECS, INTEGRAL =      0.98 TIME LEFT: 172798.98
 STEP:  20 TIME =     0.05 SECS, INTEGRAL =      1.03 TIME LEFT: 172798.93
 STEP:  21 TIME =     0.05 SECS, INTEGRAL =      1.08 TIME LEFT: 172798.88
 STEP:  22 TIME =     0.05 SECS, INTEGRAL =      1.13 TIME LEFT: 172798.83
 STEP:  23 TIME =     0.05 SECS, INTEGRAL =      1.18 TIME LEFT: 172798.78
 STEP:  24 TIME =     0.05 SECS, INTEGRAL =      1.24 TIME LEFT: 172798.72
 STEP:  25 TIME =     0.05 SECS, INTEGRAL =      1.29 TIME LEFT: 172798.67
 STEP:  26 TIME =     0.05 SECS, INTEGRAL =      1.34 TIME LEFT: 172798.62
 STEP:  27 TIME =     0.05 SECS, INTEGRAL =      1.39 TIME LEFT: 172798.57
 STEP:  28 TIME =     0.05 SECS, INTEGRAL =      1.44 TIME LEFT: 172798.52
 STEP:  29 TIME =     0.05 SECS, INTEGRAL =      1.49 TIME LEFT: 172798.47
 STEP:  30 TIME =     0.05 SECS, INTEGRAL =      1.54 TIME LEFT: 172798.42
 STEP:  31 TIME =     0.05 SECS, INTEGRAL =      1.59 TIME LEFT: 172798.37
 STEP:  32 TIME =     0.05 SECS, INTEGRAL =      1.64 TIME LEFT: 172798.32
 STEP:  33 TIME =     0.05 SECS, INTEGRAL =      1.70 TIME LEFT: 172798.27
 STEP:  34 TIME =     0.05 SECS, INTEGRAL =      1.75 TIME LEFT: 172798.21
 STEP:  35 TIME =     0.05 SECS, INTEGRAL =      1.80 TIME LEFT: 172798.16
 STEP:  36 TIME =     0.05 SECS, INTEGRAL =      1.86 TIME LEFT: 172798.11
 STEP:  37 TIME =     0.05 SECS, INTEGRAL =      1.91 TIME LEFT: 172798.05
 STEP:  38 TIME =     0.05 SECS, INTEGRAL =      1.96 TIME LEFT: 172798.00
 STEP:  39 TIME =     0.05 SECS, INTEGRAL =      2.01 TIME LEFT: 172797.95
 STEP:  40 TIME =     0.05 SECS, INTEGRAL =      2.06 TIME LEFT: 172797.90
 STEP:  41 TIME =     0.05 SECS, INTEGRAL =      2.11 TIME LEFT: 172797.85
 STEP:  42 TIME =     0.05 SECS, INTEGRAL =      2.16 TIME LEFT: 172797.80
 STEP:  43 TIME =     0.05 SECS, INTEGRAL =      2.21 TIME LEFT: 172797.75
 STEP:  44 TIME =     0.05 SECS, INTEGRAL =      2.27 TIME LEFT: 172797.70
 STEP:  45 TIME =     0.05 SECS, INTEGRAL =      2.32 TIME LEFT: 172797.64
 STEP:  46 TIME =     0.05 SECS, INTEGRAL =      2.38 TIME LEFT: 172797.59
 STEP:  47 TIME =     0.05 SECS, INTEGRAL =      2.43 TIME LEFT: 172797.54
 STEP:  48 TIME =     0.05 SECS, INTEGRAL =      2.48 TIME LEFT: 172797.48
 STEP:  49 TIME =     0.05 SECS, INTEGRAL =      2.53 TIME LEFT: 172797.43
 STEP:  50 TIME =     0.05 SECS, INTEGRAL =      2.58 TIME LEFT: 172797.38
 STEP:  51 TIME =     0.05 SECS, INTEGRAL =      2.63 TIME LEFT: 172797.33
 STEP:  52 TIME =     0.05 SECS, INTEGRAL =      2.68 TIME LEFT: 172797.28
 STEP:  53 TIME =     0.05 SECS, INTEGRAL =      2.74 TIME LEFT: 172797.22
 STEP:  54 TIME =     0.05 SECS, INTEGRAL =      2.79 TIME LEFT: 172797.17
 STEP:  55 TIME =     0.05 SECS, INTEGRAL =      2.84 TIME LEFT: 172797.12
 STEP:  56 TIME =     0.05 SECS, INTEGRAL =      2.89 TIME LEFT: 172797.07
 STEP:  57 TIME =     0.05 SECS, INTEGRAL =      2.95 TIME LEFT: 172797.02
 STEP:  58 TIME =     0.05 SECS, INTEGRAL =      3.00 TIME LEFT: 172796.96
 STEP:  59 TIME =     0.05 SECS, INTEGRAL =      3.05 TIME LEFT: 172796.91
 STEP:  60 TIME =     0.05 SECS, INTEGRAL =      3.10 TIME LEFT: 172796.86
 STEP:  61 TIME =     0.05 SECS, INTEGRAL =      3.15 TIME LEFT: 172796.81
 STEP:  62 TIME =     0.05 SECS, INTEGRAL =      3.20 TIME LEFT: 172796.76
 STEP:  63 TIME =     0.05 SECS, INTEGRAL =      3.25 TIME LEFT: 172796.71
 STEP:  64 TIME =     0.05 SECS, INTEGRAL =      3.30 TIME LEFT: 172796.66
 STEP:  65 TIME =     0.05 SECS, INTEGRAL =      3.36 TIME LEFT: 172796.61
 STEP:  66 TIME =     0.05 SECS, INTEGRAL =      3.41 TIME LEFT: 172796.55

(To convert to Hartree/Bohr^2, multiply by (10^(-21) x N x a0^2)/(4.184 x 627.51) =  0.0642)


           FORCE MATRIX IN MILLIDYNES/ANGSTROM


                  C  1       C  2       C  3       C  4       C  5       C  6
 ------------------------------------------------------------------------------
     C    1  14.896360
     C    2   0.121770  14.896148
     C    3   4.849483   0.803737  18.028441
     C    4   0.803893   4.848371  10.637792  18.027863
     C    5   4.895188   0.018951   0.765984   0.034334  18.080901
     C    6   0.018998   4.895546   0.034400   0.765935   0.004420  18.080205
     C    7   0.792486   0.003767   0.038666   0.008837  10.668932   0.019322
     C    8   0.003823   0.792057   0.008808   0.038633   0.019485  10.669065
     C    9   0.107369   0.023839   0.016306   0.003787   0.832229   0.033066
     C   10   0.023869   0.107599   0.003644   0.016415   0.033005   0.831347
     H   11   4.226774   0.102367   0.449273   0.042793   0.463499   0.005211
     H   12   4.467520   0.008580   0.439543   0.047168   0.429528   0.001642
     H   13   0.008590   4.467495   0.047221   0.439459   0.001604   0.429483
     H   14   0.102214   4.227530   0.042709   0.449253   0.005166   0.463427
     H   15   0.431447   0.121814   4.816477   0.441764   0.012827   0.020246
     H   16   0.430320   0.001219   0.014128   0.002198   4.796515   0.001534
     H   17   0.121984   0.431452   0.441714   4.816223   0.020320   0.012878
     H   18   0.001274   0.430324   0.002210   0.014115   0.001547   4.796051
     H   19   0.012015   0.002592   0.003032   0.001429   0.026067   0.018794
     H   20   0.121498   0.000902   0.019124   0.001728   0.446795   0.002744
     H   21   0.002583   0.011969   0.001458   0.003032   0.018552   0.025881
     H   22   0.000892   0.121557   0.001776   0.019160   0.002760   0.446679


                  C  7       C  8       C  9       C 10       H 11       H 12
 ------------------------------------------------------------------------------
     C    7  18.431687
     C    8   0.109166  18.428281
     C    9   5.739795   0.813180  18.415054
     C   10   0.813527   5.738902  10.642144  18.413917
     H   11   0.043226   0.002803   0.034583   0.010241   4.865190
     H   12   0.040580   0.000580   0.010974   0.001843   0.526031   5.034726
     H   13   0.000569   0.040728   0.001773   0.010954   0.000701   0.000464
     H   14   0.002796   0.043000   0.010183   0.034177   0.106597   0.000698
     H   15   0.001305   0.002156   0.001544   0.001310   0.036237   0.033254
     H   16   0.435746   0.002295   0.125166   0.018318   0.039329   0.025641
     H   17   0.002121   0.001325   0.001395   0.001512   0.004994   0.012172
     H   18   0.002299   0.435607   0.018344   0.125301   0.001012   0.000324
     H   19   0.412253   0.128947   4.741001   0.442175   0.003203   0.001006
     H   20   4.757096   0.013055   0.412934   0.025995   0.002551   0.014939
     H   21   0.127288   0.412331   0.442160   4.741366   0.001403   0.000510
     H   22   0.012945   4.757072   0.025905   0.413019   0.000700   0.000231


                  H 13       H 14       H 15       H 16       H 17       H 18
 ------------------------------------------------------------------------------
     H   13   5.034566
     H   14   0.525922   4.865680
     H   15   0.012140   0.004991   5.186905
     H   16   0.000317   0.000998   0.003731   5.166294
     H   17   0.033267   0.036218   0.072268   0.000810   5.186595
     H   18   0.025692   0.039347   0.000811   0.000625   0.003694   5.165809
     H   19   0.000509   0.001378   0.000622   0.014162   0.000334   0.002856
     H   20   0.000228   0.000705   0.000942   0.071233   0.001512   0.000704
     H   21   0.000972   0.003188   0.000353   0.002837   0.000620   0.014140
     H   22   0.014920   0.002552   0.001505   0.000708   0.000927   0.071332


                  H 19       H 20       H 21       H 22
 ------------------------------------------------------
     H   19   5.098063
     H   20   0.013575   5.116291
     H   21   0.073816   0.014212   5.098472
     H   22   0.014298   0.001635   0.013564   5.116023


          HEAT OF FORMATION =      55.990824 KCALS/MOLE

          ZERO POINT ENERGY     117.982 KCAL/MOL


           NORMAL COORDINATE ANALYSIS (Total motion = 1 Angstrom)


   Root No.       1         2         3         4         5         6         7         8

                 1 A       2 A       3 A       4 A       5 A       6 A       7 A       8 A   

                 133.2     142.1     181.5     227.4     315.6     338.8     390.8     404.9
  
           1    0.0382   -0.0044    0.0090   -0.0192   -0.0007   -0.0052   -0.0121   -0.0531
           2   -0.0248   -0.0026   -0.0305   -0.0228    0.0146   -0.0019    0.0183    0.0239
           3   -0.0243    0.0155    0.0182   -0.0148   -0.0244    0.0033    0.0164    0.0016
           4    0.0381    0.0050    0.0088    0.0195    0.0007   -0.0053   -0.0114    0.0532
           5    0.0250   -0.0021    0.0308   -0.0220    0.0145    0.0021   -0.0181    0.0241
           6    0.0240    0.0158   -0.0181   -0.0151   -0.0244   -0.0034   -0.0165    0.0017
           7    0.0175    0.0002   -0.0170   -0.0003   -0.0005   -0.0116    0.0092   -0.0006
           8   -0.0118   -0.0053   -0.0134   -0.0372    0.0142    0.0006    0.0078   -0.0108
           9   -0.0167   -0.0344    0.0233    0.0013    0.0339    0.0324    0.0085    0.0081
          10    0.0175    0.0000   -0.0170   -0.0001    0.0006   -0.0116    0.0092    0.0005
          11    0.0121   -0.0050    0.0139   -0.0369    0.0142   -0.0003   -0.0081   -0.0108
          12    0.0173   -0.0342   -0.0232    0.0007    0.0342   -0.0321   -0.0084    0.0082
          13    0.0006   -0.0463    0.0080   -0.0293   -0.0191    0.0418    0.0103   -0.0184
          14   -0.0134   -0.0129    0.0095    0.0057   -0.0009    0.0130   -0.0178   -0.0058
          15   -0.0161    0.0307    0.0080   -0.0202   -0.0156   -0.0155    0.0165   -0.0028
          16   -0.0002    0.0463    0.0076    0.0297    0.0188    0.0418    0.0106    0.0183
          17    0.0136   -0.0128   -0.0095    0.0055   -0.0008   -0.0132    0.0179   -0.0061
          18    0.0156    0.0309   -0.0078   -0.0201   -0.0157    0.0155   -0.0167   -0.0026
          19   -0.0333   -0.0299    0.0119   -0.0035   -0.0431   -0.0139   -0.0018    0.0156
          20   -0.0242    0.0062    0.0283    0.0115   -0.0244   -0.0224   -0.0077    0.0019
          21   -0.0188    0.0088   -0.0208   -0.0148    0.0069    0.0117   -0.0108    0.0040
          22   -0.0337    0.0294    0.0118    0.0035    0.0432   -0.0136   -0.0019   -0.0156
          23    0.0240    0.0065   -0.0285    0.0112   -0.0246    0.0221    0.0077    0.0018
          24    0.0188    0.0091    0.0211   -0.0144    0.0069   -0.0117    0.0111    0.0038
          25   -0.0253   -0.0000   -0.0130   -0.0000   -0.0005   -0.0129   -0.0006    0.0001
          26   -0.0171    0.0151    0.0090    0.0439    0.0025   -0.0181   -0.0241   -0.0158
          27   -0.0174   -0.0223   -0.0192    0.0443   -0.0058    0.0144   -0.0475   -0.0068
          28   -0.0253   -0.0004   -0.0130   -0.0004    0.0006   -0.0129   -0.0006   -0.0001
          29    0.0167    0.0153   -0.0096    0.0440    0.0024    0.0180    0.0239   -0.0161
          30    0.0176   -0.0220    0.0187    0.0447   -0.0058   -0.0146    0.0476   -0.0074
          31    0.0616    0.0053    0.0324   -0.0213    0.0009   -0.0169   -0.0405   -0.0790
          32   -0.0230    0.0000   -0.0296   -0.0338    0.0098   -0.0033    0.0210    0.0271
          33   -0.0497    0.0075   -0.0099   -0.0310   -0.0335    0.0148    0.0545    0.0397
          34    0.0521    0.0180    0.0134   -0.0129   -0.0039   -0.0327   -0.0277   -0.0706
          35   -0.0483    0.0121   -0.0661   -0.0222   -0.0001   -0.0173    0.0563    0.0768
          36    0.0012    0.0441    0.0316   -0.0064   -0.0247   -0.0328   -0.0135   -0.0351
          37    0.0523   -0.0171    0.0133    0.0132    0.0041   -0.0327   -0.0268    0.0709
          38    0.0481    0.0130    0.0663   -0.0204   -0.0003    0.0174   -0.0555    0.0774
          39   -0.0019    0.0440   -0.0317   -0.0068   -0.0249    0.0326    0.0131   -0.0353
          40    0.0616   -0.0043    0.0322    0.0222   -0.0008   -0.0171   -0.0395    0.0795
          41    0.0232    0.0005    0.0300   -0.0331    0.0097    0.0036   -0.0209    0.0273
          42    0.0496    0.0084    0.0101   -0.0306   -0.0333   -0.0148   -0.0543    0.0402
          43    0.0012    0.0011   -0.0379    0.0082    0.0012   -0.0135    0.0248    0.0252
          44   -0.0216   -0.0052   -0.0253   -0.0317    0.0163    0.0001    0.0171    0.0057
          45   -0.0327   -0.0754    0.0480    0.0141    0.1030    0.0771    0.0187    0.0224
          46   -0.0005   -0.0849    0.0153   -0.0343   -0.0369    0.1008    0.0031   -0.0197
          47   -0.0041   -0.0302    0.0280    0.0050   -0.0168    0.0457   -0.0235   -0.0228
          48   -0.0002    0.0564    0.0262   -0.0125   -0.0152   -0.0457    0.0153   -0.0275
          49    0.0012   -0.0012   -0.0378   -0.0091   -0.0011   -0.0135    0.0244   -0.0254
          50    0.0218   -0.0048    0.0257   -0.0310    0.0162    0.0002   -0.0171    0.0059
          51    0.0340   -0.0751   -0.0480    0.0130    0.1040   -0.0763   -0.0184    0.0227
          52   -0.0020    0.0850    0.0146    0.0352    0.0361    0.1009    0.0033    0.0197
          53    0.0046   -0.0303   -0.0280    0.0041   -0.0165   -0.0461    0.0234   -0.0232
          54   -0.0007    0.0563   -0.0262   -0.0128   -0.0155    0.0457   -0.0158   -0.0273
          55   -0.0161    0.0110   -0.0363    0.0010    0.0183    0.0106    0.0011   -0.0075
          56   -0.0320   -0.0002    0.0148    0.0734   -0.0101   -0.0271   -0.0595   -0.0243
          57   -0.0358   -0.0370   -0.0380    0.1062   -0.0040    0.0256   -0.1177   -0.0350
          58   -0.0620   -0.0520    0.0303    0.0267   -0.0987   -0.0288   -0.0259    0.0483
          59   -0.0345    0.0088    0.0588   -0.0085   -0.0683   -0.0353    0.0228    0.0181
          60   -0.0073    0.0154   -0.0318   -0.0200    0.0324    0.0188   -0.0088   -0.0103
          61   -0.0160   -0.0114   -0.0363   -0.0016   -0.0183    0.0105    0.0011    0.0075
          62    0.0315    0.0003   -0.0159    0.0733   -0.0103    0.0269    0.0587   -0.0249
          63    0.0357   -0.0362    0.0364    0.1065   -0.0040   -0.0257    0.1163   -0.0363
          64   -0.0626    0.0511    0.0307   -0.0265    0.0991   -0.0278   -0.0263   -0.0481
          65    0.0344    0.0092   -0.0589   -0.0093   -0.0687    0.0349   -0.0228    0.0186
          66    0.0072    0.0155    0.0321   -0.0195    0.0324   -0.0186    0.0089   -0.0104


   Root No.       9        10        11        12        13        14        15        16

                 9 A      10 A      11 A      12 A      13 A      14 A      15 A      16 A   

                 495.4     513.8     576.9     579.2     653.5     696.3     771.9     786.3
  
           1   -0.0157    0.0024    0.0061   -0.0117   -0.0110   -0.0057    0.0027    0.0068
           2   -0.0058    0.0082   -0.0059   -0.0143   -0.0165   -0.0025    0.0000   -0.0040
           3    0.0100   -0.0196   -0.0172    0.0033    0.0051   -0.0093   -0.0017   -0.0019
           4    0.0157    0.0022   -0.0048   -0.0123   -0.0111   -0.0056   -0.0027   -0.0067
           5   -0.0058   -0.0082   -0.0075    0.0135    0.0164    0.0025    0.0000   -0.0040
           6    0.0103    0.0193   -0.0168   -0.0053   -0.0051    0.0092   -0.0017   -0.0019
           7    0.0011    0.0144   -0.0019    0.0338    0.0098    0.0094    0.0004    0.0022
           8   -0.0234    0.0020   -0.0045   -0.0334   -0.0307   -0.0104   -0.0031   -0.0097
           9   -0.0099    0.0437   -0.0052    0.0077   -0.0087    0.0019    0.0150   -0.0267
          10   -0.0009    0.0144   -0.0022    0.0338    0.0098    0.0094   -0.0004   -0.0022
          11   -0.0233   -0.0017   -0.0083    0.0327    0.0307    0.0103   -0.0032   -0.0098
          12   -0.0104   -0.0435   -0.0041   -0.0082    0.0086   -0.0019    0.0150   -0.0268
          13    0.0224   -0.0244   -0.0230   -0.0079    0.0021   -0.0243    0.0121    0.0143
          14    0.0273    0.0018    0.0279   -0.0191    0.0244    0.0157    0.0039   -0.0040
          15   -0.0077   -0.0162   -0.0107   -0.0017   -0.0053   -0.0061   -0.0076    0.0073
          16   -0.0226   -0.0240    0.0240   -0.0051    0.0020   -0.0244   -0.0121   -0.0143
          17    0.0273   -0.0019    0.0254    0.0222   -0.0244   -0.0156    0.0040   -0.0039
          18   -0.0075    0.0162   -0.0108    0.0004    0.0053    0.0060   -0.0076    0.0073
          19   -0.0272   -0.0049    0.0120    0.0054   -0.0127    0.0091    0.0190    0.0072
          20   -0.0041   -0.0003    0.0134   -0.0057    0.0078    0.0026    0.0067    0.0044
          21    0.0175   -0.0068    0.0346   -0.0143    0.0133    0.0317   -0.0046   -0.0003
          22    0.0272   -0.0052   -0.0125    0.0039   -0.0126    0.0090   -0.0190   -0.0072
          23   -0.0041    0.0003    0.0127    0.0072   -0.0078   -0.0026    0.0067    0.0044
          24    0.0176    0.0067    0.0327    0.0182   -0.0134   -0.0317   -0.0045   -0.0002
          25   -0.0012    0.0192   -0.0001   -0.0173    0.0245   -0.0029    0.0023    0.0019
          26    0.0053    0.0132   -0.0164   -0.0032    0.0155   -0.0291    0.0057    0.0156
          27   -0.0030   -0.0080    0.0090    0.0176   -0.0153   -0.0024    0.0070    0.0094
          28    0.0014    0.0192    0.0020   -0.0171    0.0245   -0.0029   -0.0023   -0.0019
          29    0.0051   -0.0134   -0.0168    0.0012   -0.0155    0.0291    0.0056    0.0155
          30   -0.0032    0.0081    0.0106   -0.0165    0.0154    0.0025    0.0069    0.0092
          31   -0.0369    0.0025    0.0325   -0.0756   -0.0584    0.0050   -0.0116   -0.0147
          32   -0.0116   -0.0064   -0.0233   -0.0345   -0.0402   -0.0216   -0.0031    0.0073
          33    0.0247   -0.0443   -0.0787    0.0424    0.0181   -0.0552    0.0095    0.0454
          34   -0.0329    0.0036    0.0355   -0.0244   -0.0212    0.0208   -0.0165   -0.0081
          35    0.0138   -0.0125   -0.0480    0.0590    0.0249   -0.0149    0.0003    0.0377
          36   -0.0190   -0.0134    0.0325   -0.0291   -0.0168    0.0300   -0.0288   -0.0308
          37    0.0327    0.0031   -0.0325   -0.0284   -0.0211    0.0208    0.0164    0.0080
          38    0.0138    0.0119   -0.0408   -0.0642   -0.0248    0.0149    0.0003    0.0377
          39   -0.0187    0.0137    0.0291    0.0329    0.0167   -0.0301   -0.0287   -0.0308
          40    0.0368    0.0019   -0.0236   -0.0790   -0.0584    0.0051    0.0116    0.0147
          41   -0.0115    0.0064   -0.0272    0.0315    0.0402    0.0216   -0.0032    0.0073
          42    0.0249    0.0435   -0.0734   -0.0514   -0.0179    0.0551    0.0093    0.0453
          43    0.0100    0.0242   -0.0043    0.0220   -0.0157    0.0057    0.0001    0.0042
          44   -0.0187    0.0089   -0.0059   -0.0393   -0.0453   -0.0123   -0.0051   -0.0061
          45   -0.0648    0.1358    0.0145    0.0235   -0.0445    0.0139   -0.0988    0.1586
          46    0.0828   -0.0805   -0.0201    0.0030    0.0125    0.0213   -0.0998   -0.0163
          47    0.0666   -0.0376    0.0215   -0.0126    0.0366    0.0306   -0.0681   -0.0171
          48   -0.0303    0.0009   -0.0221   -0.0062   -0.0013   -0.0441    0.0350    0.0288
          49   -0.0098    0.0244    0.0015    0.0223   -0.0157    0.0057   -0.0001   -0.0042
          50   -0.0187   -0.0087   -0.0104    0.0384    0.0453    0.0122   -0.0051   -0.0063
          51   -0.0663   -0.1351    0.0178   -0.0213    0.0446   -0.0140   -0.0989    0.1586
          52   -0.0834   -0.0794    0.0203    0.0057    0.0124    0.0215    0.0999    0.0162
          53    0.0670    0.0370    0.0195    0.0148   -0.0367   -0.0306   -0.0682   -0.0170
          54   -0.0301   -0.0008   -0.0226    0.0037    0.0013    0.0441    0.0349    0.0288
          55    0.0154    0.0128   -0.0088   -0.0194    0.0226    0.0248   -0.0132   -0.0002
          56   -0.0172    0.0150   -0.0673    0.0125    0.0032   -0.0755   -0.0128   -0.0241
          57   -0.0256   -0.0115   -0.1068    0.0463   -0.0421   -0.0621   -0.0520   -0.0755
          58   -0.0677   -0.0408    0.0402    0.0657   -0.0906    0.0945   -0.0743   -0.0358
          59   -0.0243   -0.0398    0.0045    0.0155   -0.0328    0.0472   -0.0685   -0.0244
          60    0.0341    0.0114    0.0263   -0.0374    0.0456   -0.0042    0.0387    0.0191
          61   -0.0153    0.0130    0.0109   -0.0182    0.0226    0.0249    0.0131    0.0001
          62   -0.0175   -0.0152   -0.0656   -0.0201   -0.0033    0.0753   -0.0130   -0.0242
          63   -0.0260    0.0112   -0.1010   -0.0581    0.0418    0.0615   -0.0521   -0.0754
          64    0.0674   -0.0418   -0.0475    0.0604   -0.0905    0.0949    0.0742    0.0359
          65   -0.0238    0.0401    0.0065   -0.0148    0.0328   -0.0477   -0.0685   -0.0243
          66    0.0339   -0.0117    0.0217    0.0400   -0.0456    0.0044    0.0387    0.0192


   Root No.      17        18        19        20        21        22        23        24

                17 A      18 A      19 A      20 A      21 A      22 A      23 A      24 A   

                 815.4     833.7     932.0     952.9     973.9     981.8     990.8    1013.3
  
           1   -0.0022   -0.0028    0.0307    0.0238   -0.0005    0.0036    0.0150    0.0020
           2    0.0020    0.0030   -0.0056   -0.0059   -0.0016   -0.0007    0.0005    0.0158
           3   -0.0026    0.0057   -0.0180   -0.0177   -0.0012    0.0069   -0.0043    0.0132
           4    0.0022   -0.0027   -0.0307    0.0238   -0.0004    0.0037   -0.0151   -0.0020
           5    0.0020   -0.0030   -0.0056    0.0059    0.0017    0.0007    0.0005    0.0158
           6   -0.0026   -0.0056   -0.0180    0.0177    0.0012   -0.0069   -0.0044    0.0131
           7    0.0015    0.0035    0.0054   -0.0113   -0.0002    0.0012    0.0041    0.0065
           8   -0.0111    0.0072   -0.0087    0.0036   -0.0005    0.0058   -0.0040   -0.0163
           9   -0.0121    0.0000    0.0084   -0.0091   -0.0197    0.0277    0.0076    0.0012
          10   -0.0015    0.0035   -0.0054   -0.0113   -0.0002    0.0012   -0.0040   -0.0065
          11   -0.0111   -0.0071   -0.0087   -0.0036    0.0005   -0.0058   -0.0040   -0.0163
          12   -0.0121   -0.0000    0.0085    0.0091    0.0196   -0.0277    0.0076    0.0012
          13    0.0042   -0.0170   -0.0028    0.0013   -0.0087    0.0011   -0.0240    0.0139
          14    0.0194   -0.0115    0.0068    0.0021   -0.0139   -0.0008   -0.0113    0.0112
          15    0.0001    0.0051    0.0012    0.0066    0.0067   -0.0065    0.0047   -0.0129
          16   -0.0043   -0.0170    0.0027    0.0014   -0.0088    0.0010    0.0241   -0.0139
          17    0.0194    0.0114    0.0069   -0.0021    0.0139    0.0009   -0.0113    0.0112
          18    0.0000   -0.0051    0.0011   -0.0065   -0.0067    0.0065    0.0048   -0.0129
          19    0.0134   -0.0306   -0.0120   -0.0133    0.0163   -0.0106    0.0195   -0.0136
          20    0.0124   -0.0112   -0.0002    0.0001    0.0039   -0.0068    0.0096   -0.0081
          21    0.0140   -0.0118    0.0138    0.0124   -0.0005   -0.0052   -0.0077   -0.0152
          22   -0.0135   -0.0305    0.0121   -0.0133    0.0163   -0.0104   -0.0195    0.0136
          23    0.0124    0.0112   -0.0002   -0.0000   -0.0040    0.0067    0.0097   -0.0081
          24    0.0140    0.0118    0.0138   -0.0125    0.0005    0.0052   -0.0076   -0.0152
          25   -0.0006    0.0232   -0.0012    0.0042   -0.0065    0.0013    0.0005   -0.0029
          26   -0.0257    0.0199   -0.0041    0.0083    0.0135    0.0220   -0.0022   -0.0063
          27   -0.0216   -0.0110   -0.0029    0.0026    0.0168    0.0259   -0.0001    0.0073
          28    0.0008    0.0232    0.0012    0.0042   -0.0065    0.0013   -0.0005    0.0029
          29   -0.0257   -0.0198   -0.0040   -0.0084   -0.0135   -0.0220   -0.0025   -0.0063
          30   -0.0212    0.0110   -0.0029   -0.0026   -0.0169   -0.0259   -0.0002    0.0073
          31   -0.0026    0.0175   -0.0484   -0.0252    0.0088    0.0010   -0.0236   -0.0052
          32   -0.0079    0.0091   -0.0147    0.0055    0.0096    0.0025   -0.0172   -0.0173
          33   -0.0188   -0.0081    0.0590    0.0595    0.0082    0.0155    0.0097   -0.0357
          34    0.0063    0.0168   -0.0072   -0.0292    0.0095   -0.0105    0.0489    0.0984
          35    0.0019   -0.0023    0.1048    0.0446    0.0097   -0.0129    0.1044    0.1088
          36    0.0095    0.0339   -0.0940   -0.1021    0.0103   -0.0106    0.0218    0.1296
          37   -0.0062    0.0168    0.0071   -0.0292    0.0094   -0.0103   -0.0486   -0.0980
          38    0.0019    0.0023    0.1046   -0.0443   -0.0100    0.0125    0.1047    0.1087
          39    0.0094   -0.0338   -0.0940    0.1024   -0.0100    0.0106    0.0211    0.1294
          40    0.0026    0.0175    0.0485   -0.0253    0.0087    0.0009    0.0238    0.0051
          41   -0.0079   -0.0091   -0.0147   -0.0056   -0.0096   -0.0024   -0.0172   -0.0173
          42   -0.0187    0.0081    0.0589   -0.0595   -0.0084   -0.0155    0.0099   -0.0357
          43    0.0083    0.0198   -0.0077   -0.0405    0.0012    0.0132    0.0009    0.0415
          44   -0.0064    0.0166   -0.0171   -0.0116    0.0020    0.0103   -0.0060    0.0042
          45    0.0571    0.0132   -0.0303    0.0623    0.0981   -0.1288   -0.0157    0.0089
          46   -0.0538    0.1339   -0.0369   -0.0192    0.0704   -0.0173    0.0952   -0.0517
          47   -0.0180    0.0894    0.0006    0.0085    0.0250   -0.0101    0.0595   -0.0291
          48    0.0211   -0.0467    0.0362    0.0422   -0.0397    0.0052   -0.0485    0.0155
          49   -0.0082    0.0199    0.0076   -0.0405    0.0012    0.0132   -0.0006   -0.0416
          50   -0.0064   -0.0166   -0.0171    0.0116   -0.0019   -0.0103   -0.0061    0.0043
          51    0.0571   -0.0134   -0.0307   -0.0622   -0.0978    0.1287   -0.0158    0.0088
          52    0.0543    0.1335    0.0371   -0.0196    0.0707   -0.0167   -0.0952    0.0514
          53   -0.0185   -0.0894    0.0004   -0.0082   -0.0253    0.0098    0.0600   -0.0290
          54    0.0213    0.0465    0.0362   -0.0423    0.0397   -0.0048   -0.0482    0.0154
          55   -0.0187    0.0381    0.0071    0.0083   -0.0560   -0.0082   -0.0285    0.0053
          56    0.0688    0.0291    0.0016   -0.0112   -0.0141   -0.0529    0.0144   -0.0203
          57    0.1481    0.0268    0.0201   -0.0322   -0.1036   -0.1395   -0.0049   -0.0093
          58   -0.0757    0.0546    0.0626    0.0499   -0.0390    0.0611   -0.0706    0.0321
          59   -0.0020    0.0450    0.0644    0.0624   -0.0715   -0.0351   -0.0664   -0.0018
          60    0.0456   -0.0494   -0.0212   -0.0182    0.0306   -0.0240    0.0346   -0.0321
          61    0.0190    0.0380   -0.0070    0.0085   -0.0561   -0.0082    0.0281   -0.0051
          62    0.0685   -0.0295    0.0017    0.0113    0.0145    0.0534    0.0145   -0.0204
          63    0.1475   -0.0273    0.0202    0.0323    0.1042    0.1405   -0.0039   -0.0095
          64    0.0755    0.0541   -0.0626    0.0502   -0.0392    0.0607    0.0709   -0.0320
          65   -0.0024   -0.0450    0.0645   -0.0627    0.0717    0.0355   -0.0659   -0.0018
          66    0.0456    0.0491   -0.0211    0.0183   -0.0307    0.0237    0.0347   -0.0320


   Root No.      25        26        27        28        29        30        31        32

                25 A      26 A      27 A      28 A      29 A      30 A      31 A      32 A   

                1016.7    1034.5    1040.4    1058.6    1072.4    1100.9    1127.7    1135.3
  
           1   -0.0153    0.0042   -0.0173   -0.0017   -0.0014   -0.0073    0.0085    0.0009
           2    0.0018    0.0099   -0.0033   -0.0080    0.0185    0.0141    0.0093   -0.0011
           3    0.0157   -0.0101   -0.0051   -0.0001   -0.0243   -0.0175   -0.0004    0.0042
           4   -0.0152   -0.0037   -0.0174   -0.0017    0.0014   -0.0073   -0.0085   -0.0009
           5   -0.0018    0.0099    0.0035    0.0079    0.0186   -0.0141    0.0096   -0.0014
           6   -0.0157   -0.0102    0.0049    0.0001   -0.0244    0.0174   -0.0004    0.0041
           7    0.0037    0.0031    0.0143    0.0042    0.0043    0.0000    0.0039   -0.0006
           8   -0.0046   -0.0138   -0.0041    0.0069   -0.0197   -0.0103   -0.0145    0.0011
           9   -0.0253    0.0033   -0.0074   -0.0014    0.0047    0.0067    0.0010   -0.0011
          10    0.0037   -0.0035    0.0142    0.0042   -0.0044    0.0000   -0.0040    0.0007
          11    0.0046   -0.0140    0.0037   -0.0068   -0.0197    0.0103   -0.0148    0.0013
          12    0.0252    0.0031    0.0074    0.0014    0.0047   -0.0067    0.0010   -0.0011
          13    0.0187    0.0122    0.0090   -0.0133    0.0099    0.0120   -0.0055    0.0064
          14    0.0128   -0.0120   -0.0059    0.0006   -0.0137   -0.0122    0.0024   -0.0006
          15   -0.0108    0.0079    0.0086    0.0021    0.0189    0.0132   -0.0008   -0.0001
          16    0.0186   -0.0126    0.0087   -0.0132   -0.0099    0.0121    0.0055   -0.0065
          17   -0.0128   -0.0122    0.0057   -0.0006   -0.0137    0.0122    0.0024   -0.0007
          18    0.0108    0.0082   -0.0084   -0.0021    0.0190   -0.0132   -0.0008   -0.0001
          19   -0.0172    0.0143   -0.0033    0.0064   -0.0009    0.0003   -0.0020   -0.0124
          20   -0.0063   -0.0099   -0.0044    0.0137    0.0029    0.0013    0.0005   -0.0077
          21   -0.0109    0.0299    0.0153   -0.0177   -0.0027   -0.0046   -0.0009    0.0112
          22   -0.0172   -0.0141   -0.0035    0.0064    0.0009    0.0003    0.0020    0.0123
          23    0.0063   -0.0101    0.0042   -0.0137    0.0029   -0.0012    0.0005   -0.0078
          24    0.0110    0.0304   -0.0147    0.0175   -0.0027    0.0046   -0.0009    0.0112
          25    0.0042    0.0118    0.0004   -0.0007   -0.0028    0.0007   -0.0004   -0.0039
          26    0.0060    0.0330    0.0091   -0.0111   -0.0011    0.0077   -0.0024    0.0045
          27    0.0117   -0.0243   -0.0053    0.0141    0.0124    0.0176   -0.0042   -0.0032
          28    0.0042   -0.0117    0.0002   -0.0006    0.0028    0.0007    0.0004    0.0039
          29   -0.0060    0.0334   -0.0084    0.0110   -0.0011   -0.0077   -0.0024    0.0045
          30   -0.0117   -0.0246    0.0047   -0.0139    0.0125   -0.0175   -0.0042   -0.0031
          31    0.0109    0.0152    0.0349    0.0034    0.0308   -0.0006    0.0518   -0.0062
          32    0.0028    0.0009    0.0245    0.0092    0.0173   -0.0131    0.0620   -0.0096
          33   -0.0126   -0.0369   -0.0168    0.0235   -0.0647   -0.0742    0.0427   -0.0014
          34    0.0187    0.0258   -0.0805   -0.0417    0.0042    0.0212   -0.0106    0.0018
          35   -0.0156    0.0120   -0.1421   -0.0478   -0.0168    0.0168   -0.0381    0.0018
          36    0.0679    0.0184   -0.0666   -0.0484   -0.0109    0.0218   -0.0179    0.0047
          37    0.0189   -0.0240   -0.0810   -0.0417   -0.0041    0.0212    0.0108   -0.0021
          38    0.0150    0.0083    0.1424    0.0480   -0.0170   -0.0169   -0.0386    0.0022
          39   -0.0681    0.0172    0.0671    0.0485   -0.0110   -0.0219   -0.0180    0.0049
          40    0.0108   -0.0162    0.0345    0.0035   -0.0310   -0.0008   -0.0530    0.0071
          41   -0.0027    0.0015   -0.0245   -0.0093    0.0173    0.0135    0.0636   -0.0108
          42    0.0126   -0.0377    0.0160   -0.0235   -0.0647    0.0745    0.0434   -0.0021
          43    0.0167    0.0275    0.0609    0.0442    0.0735   -0.0438    0.1150   -0.0317
          44    0.0043   -0.0004    0.0211    0.0292    0.0193   -0.0354    0.0490   -0.0170
          45    0.0894   -0.0123    0.0032   -0.0035   -0.0231   -0.0134   -0.0046    0.0043
          46   -0.0680    0.0171   -0.0036    0.0151    0.0279    0.0169    0.0042   -0.0032
          47   -0.0290   -0.0765   -0.0300    0.0652   -0.0023   -0.0287    0.0443   -0.0587
          48    0.0427   -0.0904   -0.0102    0.0574    0.0110   -0.0179    0.0480   -0.0715
          49    0.0168   -0.0289    0.0600    0.0443   -0.0734   -0.0442   -0.1138    0.0305
          50   -0.0043    0.0000   -0.0210   -0.0291    0.0193    0.0355    0.0479   -0.0160
          51   -0.0892   -0.0120   -0.0034    0.0035   -0.0231    0.0133   -0.0047    0.0044
          52   -0.0676   -0.0171   -0.0038    0.0149   -0.0280    0.0169   -0.0041    0.0031
          53    0.0288   -0.0779    0.0282   -0.0647   -0.0021    0.0287    0.0442   -0.0585
          54   -0.0426   -0.0911    0.0083   -0.0569    0.0111    0.0179    0.0476   -0.0710
          55    0.0507    0.0754   -0.0502    0.0971   -0.0303    0.0267   -0.0323   -0.2432
          56   -0.0434    0.0161    0.0370   -0.0731   -0.0008   -0.0299    0.0197    0.1315
          57   -0.0292    0.0207   -0.0143    0.0146   -0.0228   -0.0260   -0.0012   -0.0615
          58    0.0413    0.0579    0.0097   -0.0597   -0.0876   -0.0889    0.0517    0.0330
          59    0.0103   -0.0357    0.0424    0.0085    0.1392    0.1383   -0.0803   -0.0004
          60   -0.0332    0.0206    0.0036    0.0049    0.0028    0.0012   -0.0045   -0.0053
          61    0.0506   -0.0731   -0.0519    0.0979    0.0302    0.0270    0.0320    0.2435
          62    0.0436    0.0178   -0.0367    0.0731   -0.0009    0.0300    0.0195    0.1314
          63    0.0295    0.0200    0.0147   -0.0147   -0.0227    0.0261   -0.0012   -0.0617
          64    0.0410   -0.0586    0.0082   -0.0591    0.0880   -0.0890   -0.0517   -0.0327
          65   -0.0101   -0.0347   -0.0430   -0.0083    0.1394   -0.1382   -0.0802   -0.0000
          66    0.0331    0.0207   -0.0033   -0.0049    0.0028   -0.0012   -0.0045   -0.0052


   Root No.      33        34        35        36        37        38        39        40

                33 A      34 A      35 A      36 A      37 A      38 A      39 A      40 A   

                1141.7    1178.9    1186.4    1207.1    1215.9    1268.3    1271.4    1370.7
  
           1    0.0002    0.0125   -0.0133   -0.0006   -0.0038   -0.0062    0.0156   -0.0126
           2    0.0252   -0.0130    0.0058   -0.0261   -0.0078   -0.0049    0.0227   -0.0126
           3    0.0029    0.0171   -0.0154    0.0098   -0.0021   -0.0195    0.0127   -0.0262
           4    0.0001    0.0125    0.0132    0.0005   -0.0039   -0.0062   -0.0156   -0.0126
           5   -0.0251    0.0130    0.0058   -0.0258    0.0082    0.0050    0.0227    0.0127
           6   -0.0029   -0.0172   -0.0153    0.0100    0.0020    0.0195    0.0127    0.0262
           7    0.0078   -0.0020   -0.0007    0.0007   -0.0054   -0.0150    0.0048    0.0136
           8   -0.0212    0.0055    0.0028    0.0241   -0.0099   -0.0233   -0.0124    0.0193
           9    0.0020   -0.0033    0.0004   -0.0041    0.0046    0.0055   -0.0041    0.0044
          10    0.0077   -0.0020    0.0007   -0.0009   -0.0054   -0.0150   -0.0048    0.0136
          11    0.0210   -0.0054    0.0029    0.0243    0.0095    0.0233   -0.0124   -0.0193
          12   -0.0020    0.0033    0.0004   -0.0042   -0.0046   -0.0055   -0.0041   -0.0044
          13   -0.0060   -0.0079    0.0119    0.0008   -0.0046    0.0112   -0.0020    0.0062
          14    0.0023    0.0055   -0.0070    0.0004    0.0016   -0.0032    0.0060   -0.0084
          15   -0.0012   -0.0091    0.0146    0.0012   -0.0188    0.0158    0.0202   -0.0034
          16   -0.0059   -0.0079   -0.0118   -0.0008   -0.0045    0.0112    0.0020    0.0062
          17   -0.0023   -0.0056   -0.0070    0.0004   -0.0015    0.0031    0.0061    0.0084
          18    0.0013    0.0091    0.0147    0.0017    0.0187   -0.0158    0.0202    0.0033
          19   -0.0008   -0.0015    0.0010   -0.0002    0.0039   -0.0017   -0.0127    0.0074
          20    0.0041    0.0066   -0.0040   -0.0001   -0.0093    0.0093    0.0155   -0.0022
          21   -0.0053   -0.0005    0.0038    0.0015    0.0034    0.0062   -0.0173    0.0143
          22   -0.0009   -0.0015   -0.0009    0.0003    0.0039   -0.0017    0.0127    0.0073
          23   -0.0041   -0.0066   -0.0039    0.0002    0.0093   -0.0093    0.0155    0.0021
          24    0.0052    0.0005    0.0038    0.0014   -0.0035   -0.0062   -0.0173   -0.0142
          25   -0.0022   -0.0040    0.0022    0.0001    0.0081   -0.0118   -0.0066   -0.0154
          26   -0.0009    0.0054    0.0047    0.0008   -0.0077    0.0133   -0.0123    0.0192
          27   -0.0024    0.0003   -0.0049    0.0003    0.0065   -0.0099    0.0061   -0.0114
          28   -0.0022   -0.0040   -0.0021    0.0001    0.0082   -0.0118    0.0065   -0.0155
          29    0.0008   -0.0054    0.0047    0.0010    0.0076   -0.0133   -0.0124   -0.0191
          30    0.0023   -0.0004   -0.0050    0.0001   -0.0064    0.0099    0.0061    0.0113
          31    0.0918    0.0083   -0.0358   -0.0830    0.0544    0.0576   -0.0153   -0.0614
          32    0.1176    0.0132   -0.0541   -0.1204    0.0740    0.0437   -0.0441    0.0179
          33    0.0550    0.0717   -0.0996   -0.0597    0.0737   -0.0144   -0.0730    0.1083
          34   -0.0228   -0.0047   -0.0022   -0.0193    0.0285    0.0195   -0.0473    0.0534
          35   -0.0369   -0.0006    0.0200    0.0195    0.0356    0.0634   -0.0277   -0.0617
          36   -0.0160   -0.0109   -0.0030   -0.0302    0.0348   -0.0022   -0.0696    0.0922
          37   -0.0225   -0.0046    0.0025    0.0203    0.0282    0.0195    0.0473    0.0532
          38    0.0364    0.0006    0.0196    0.0183   -0.0362   -0.0635   -0.0276    0.0615
          39    0.0155    0.0109   -0.0034   -0.0315   -0.0344    0.0022   -0.0698   -0.0922
          40    0.0912    0.0084    0.0357    0.0841    0.0529    0.0576    0.0150   -0.0614
          41   -0.1170   -0.0136   -0.0542   -0.1221   -0.0720   -0.0436   -0.0440   -0.0180
          42   -0.0549   -0.0721   -0.0993   -0.0614   -0.0724    0.0144   -0.0729   -0.1080
          43   -0.1065    0.0241   -0.0407    0.1635    0.0520    0.0954   -0.0196   -0.0424
          44   -0.0873    0.0203   -0.0198    0.1207    0.0228    0.0399   -0.0277   -0.0134
          45   -0.0029    0.0060   -0.0062    0.0056   -0.0048   -0.0059    0.0077   -0.0043
          46    0.0032   -0.0100    0.0120   -0.0043   -0.0104    0.0087    0.0064    0.0037
          47    0.0042   -0.1055    0.0700   -0.0202    0.0340   -0.0205   -0.0455    0.0054
          48   -0.0122   -0.1710    0.1301   -0.0212    0.0351   -0.0042   -0.0677    0.0231
          49   -0.1090    0.0240    0.0411   -0.1616    0.0541    0.0956    0.0194   -0.0424
          50    0.0884   -0.0202   -0.0200    0.1197   -0.0244   -0.0400   -0.0276    0.0134
          51    0.0028   -0.0060   -0.0061    0.0058    0.0048    0.0059    0.0077    0.0043
          52    0.0031   -0.0098   -0.0119    0.0040   -0.0105    0.0087   -0.0064    0.0037
          53   -0.0028    0.1060    0.0696   -0.0212   -0.0340    0.0204   -0.0455   -0.0054
          54    0.0140    0.1717    0.1293   -0.0224   -0.0352    0.0042   -0.0677   -0.0231
          55    0.0319    0.0527   -0.0219   -0.0037   -0.0622    0.0671    0.0141    0.0531
          56   -0.0161   -0.0259    0.0209    0.0028    0.0263   -0.0245   -0.0254   -0.0146
          57    0.0109    0.0099   -0.0048   -0.0007   -0.0160    0.0158    0.0103    0.0091
          58    0.0173   -0.0352    0.0458   -0.0043   -0.0412    0.0322    0.0272    0.0032
          59   -0.0382    0.0519   -0.0656    0.0063    0.0738   -0.0500   -0.0622    0.0031
          60   -0.0044    0.0017    0.0009    0.0019    0.0039    0.0062   -0.0182    0.0162
          61    0.0308    0.0526    0.0212    0.0019   -0.0623    0.0671   -0.0139    0.0532
          62    0.0155    0.0259    0.0205    0.0020   -0.0264    0.0244   -0.0253    0.0146
          63   -0.0105   -0.0098   -0.0046   -0.0003    0.0160   -0.0158    0.0103   -0.0091
          64    0.0167   -0.0356   -0.0461    0.0032   -0.0412    0.0322   -0.0273    0.0032
          65    0.0367   -0.0523   -0.0660    0.0041   -0.0737    0.0499   -0.0621   -0.0030
          66    0.0044   -0.0017    0.0009    0.0018   -0.0039   -0.0062   -0.0182   -0.0162


   Root No.      41        42        43        44        45        46        47        48

                41 A      42 A      43 A      44 A      45 A      46 A      47 A      48 A   

                1386.4    1421.5    1442.8    1455.8    1847.8    1877.8    1895.9    1939.2
  
           1    0.0234    0.0236    0.0071    0.0178   -0.0048   -0.0222    0.0029   -0.0001
           2    0.0316    0.0348    0.0179    0.0226   -0.0086   -0.0194    0.0086   -0.0036
           3    0.0359   -0.0099   -0.0255    0.0299   -0.0128    0.0017    0.0171   -0.0094
           4   -0.0233    0.0236   -0.0072    0.0177    0.0047    0.0222    0.0028    0.0001
           5    0.0317   -0.0347    0.0179   -0.0225   -0.0086   -0.0194   -0.0086   -0.0036
           6    0.0359    0.0099   -0.0254   -0.0299   -0.0128    0.0017   -0.0171   -0.0095
           7    0.0065   -0.0215    0.0050   -0.0102    0.0170    0.2042    0.0007   -0.0099
           8   -0.0103   -0.0316   -0.0016   -0.0141    0.0026    0.0314    0.0007   -0.0018
           9   -0.0044   -0.0014   -0.0001   -0.0037   -0.0006    0.0009    0.0007   -0.0005
          10   -0.0065   -0.0216   -0.0050   -0.0102   -0.0170   -0.2042    0.0008    0.0099
          11   -0.0103    0.0316   -0.0016    0.0141    0.0026    0.0314   -0.0007   -0.0018
          12   -0.0044    0.0014   -0.0001    0.0037   -0.0006    0.0009   -0.0007   -0.0005
          13   -0.0154   -0.0022    0.0025   -0.0084   -0.0164    0.0013    0.0259   -0.0167
          14   -0.0070    0.0022   -0.0012   -0.0159    0.0675   -0.0084   -0.0984    0.0588
          15   -0.0330    0.0071    0.0089   -0.0344    0.0538   -0.0072   -0.0775    0.0461
          16    0.0154   -0.0022   -0.0024   -0.0083    0.0165   -0.0014    0.0260    0.0169
          17   -0.0070   -0.0022   -0.0012    0.0159    0.0674   -0.0083    0.0983    0.0591
          18   -0.0330   -0.0071    0.0089    0.0343    0.0537   -0.0072    0.0774    0.0463
          19    0.0190   -0.0047   -0.0035    0.0253    0.0184    0.0000   -0.0518    0.0477
          20   -0.0279    0.0040    0.0056   -0.0267   -0.0617    0.0047    0.1154   -0.0845
          21    0.0073   -0.0076   -0.0020    0.0200   -0.0358    0.0051    0.0428   -0.0187
          22   -0.0191   -0.0047    0.0035    0.0253   -0.0185   -0.0000   -0.0519   -0.0480
          23   -0.0279   -0.0040    0.0055    0.0266   -0.0616    0.0047   -0.1152   -0.0848
          24    0.0074    0.0076   -0.0020   -0.0200   -0.0357    0.0051   -0.0427   -0.0188
          25    0.0100    0.0069   -0.0018   -0.0279    0.0977   -0.0240    0.0170   -0.1352
          26    0.0122   -0.0092   -0.0024    0.0350   -0.0066    0.0033   -0.0221    0.0330
          27   -0.0049    0.0049    0.0009   -0.0177    0.0056   -0.0019    0.0059   -0.0149
          28   -0.0099    0.0069    0.0019   -0.0280   -0.0977    0.0240    0.0165    0.1353
          29    0.0122    0.0092   -0.0023   -0.0350   -0.0066    0.0033    0.0220    0.0330
          30   -0.0050   -0.0049    0.0009    0.0177    0.0055   -0.0019   -0.0059   -0.0149
          31   -0.0495   -0.1158   -0.1850   -0.0082    0.0041    0.0364   -0.0007   -0.0014
          32   -0.0577   -0.0284   -0.0544   -0.0339    0.0130    0.0220   -0.0138    0.0058
          33   -0.0339    0.0741    0.1235   -0.0446    0.0134   -0.0034   -0.0187    0.0103
          34   -0.0351    0.0311    0.0506   -0.0244   -0.0033   -0.0188    0.0031   -0.0017
          35   -0.0504   -0.1134   -0.1401   -0.0067   -0.0027   -0.0274    0.0012    0.0001
          36   -0.0292    0.0496    0.0964   -0.0274   -0.0089    0.0001    0.0135   -0.0088
          37    0.0350    0.0311   -0.0505   -0.0245    0.0033    0.0188    0.0031    0.0017
          38   -0.0507    0.1133   -0.1401    0.0063   -0.0027   -0.0274   -0.0012    0.0001
          39   -0.0291   -0.0498    0.0966    0.0276   -0.0089    0.0001   -0.0135   -0.0089
          40    0.0496   -0.1159    0.1851   -0.0076   -0.0041   -0.0363   -0.0006    0.0015
          41   -0.0577    0.0283   -0.0542    0.0337    0.0130    0.0220    0.0138    0.0058
          42   -0.0335   -0.0740    0.1234    0.0447    0.0133   -0.0034    0.0186    0.0103
          43   -0.0063    0.0697    0.0062    0.0234    0.0019    0.0157   -0.0018   -0.0004
          44   -0.0190    0.0209   -0.0014    0.0058   -0.0095   -0.1174   -0.0003    0.0056
          45    0.0127    0.0001   -0.0040    0.0027   -0.0008   -0.0000    0.0002   -0.0006
          46   -0.0054    0.0053    0.0064   -0.0021   -0.0244    0.0011    0.0419   -0.0294
          47    0.0565   -0.0039   -0.0071    0.0462    0.0169   -0.0028   -0.0304    0.0205
          48    0.0461   -0.0127   -0.0041    0.0510   -0.0418    0.0056    0.0503   -0.0235
          49    0.0063    0.0697   -0.0062    0.0234   -0.0019   -0.0157   -0.0018    0.0003
          50   -0.0190   -0.0209   -0.0014   -0.0058   -0.0095   -0.1174    0.0004    0.0056
          51    0.0127   -0.0001   -0.0040   -0.0027   -0.0008   -0.0000   -0.0002   -0.0006
          52    0.0055    0.0053   -0.0064   -0.0022    0.0244   -0.0010    0.0419    0.0296
          53    0.0566    0.0039   -0.0070   -0.0461    0.0168   -0.0028    0.0302    0.0205
          54    0.0461    0.0127   -0.0040   -0.0509   -0.0418    0.0055   -0.0502   -0.0237
          55   -0.0058   -0.0195    0.0010    0.0691    0.0049   -0.0020   -0.0083   -0.0159
          56    0.0207    0.0039   -0.0043   -0.0144    0.0525   -0.0114   -0.0043   -0.0551
          57   -0.0132   -0.0026    0.0017    0.0084   -0.0358    0.0068    0.0036    0.0201
          58   -0.0302    0.0048    0.0074   -0.0166   -0.0201    0.0009    0.0321   -0.0196
          59    0.0655   -0.0082   -0.0122    0.0465    0.0113   -0.0014   -0.0125    0.0011
          60    0.0068   -0.0094   -0.0026    0.0220   -0.0484    0.0074    0.0594   -0.0273
          61    0.0057   -0.0195   -0.0012    0.0691   -0.0049    0.0020   -0.0084    0.0158
          62    0.0206   -0.0039   -0.0043    0.0144    0.0525   -0.0114    0.0045   -0.0551
          63   -0.0132    0.0026    0.0018   -0.0084   -0.0358    0.0068   -0.0038    0.0201
          64    0.0303    0.0049   -0.0074   -0.0166    0.0200   -0.0009    0.0320    0.0197
          65    0.0655    0.0083   -0.0120   -0.0464    0.0112   -0.0014    0.0124    0.0011
          66    0.0069    0.0094   -0.0025   -0.0220   -0.0483    0.0073   -0.0594   -0.0274


   Root No.      49        50        51        52        53        54        55        56

                49 A      50 A      51 A      52 A      53 A      54 A      55 A      56 A   

                2898.8    2917.5    3001.9    3004.3    3016.7    3026.7    3027.0    3036.5
  
           1    0.0221   -0.0222    0.0156   -0.0139    0.0003    0.0003    0.0005    0.0002
           2   -0.0206    0.0197    0.0033   -0.0049    0.0001   -0.0001   -0.0002   -0.0000
           3    0.0047   -0.0032   -0.0174    0.0177   -0.0004    0.0001    0.0001   -0.0001
           4   -0.0218   -0.0224   -0.0158   -0.0136    0.0003   -0.0005    0.0003   -0.0002
           5   -0.0204   -0.0198    0.0034    0.0049   -0.0001   -0.0002    0.0001   -0.0000
           6    0.0047    0.0033   -0.0177   -0.0174    0.0004    0.0001   -0.0001   -0.0001
           7   -0.0007    0.0007   -0.0006    0.0006   -0.0000   -0.0000   -0.0001    0.0000
           8    0.0006   -0.0010    0.0014   -0.0012    0.0000    0.0000    0.0002   -0.0000
           9   -0.0001    0.0000   -0.0001   -0.0000    0.0000    0.0000    0.0000    0.0000
          10    0.0007    0.0007    0.0006    0.0006   -0.0000    0.0000   -0.0001   -0.0000
          11    0.0006    0.0010    0.0014    0.0012   -0.0000    0.0001   -0.0002   -0.0000
          12   -0.0001   -0.0000   -0.0001    0.0000   -0.0000    0.0000   -0.0000    0.0000
          13   -0.0005    0.0006   -0.0005    0.0004    0.0001    0.0060    0.0088    0.0018
          14    0.0006   -0.0007    0.0005   -0.0003   -0.0001   -0.0063   -0.0093   -0.0022
          15   -0.0005    0.0005   -0.0006    0.0005    0.0003    0.0050    0.0073    0.0015
          16    0.0005    0.0006    0.0005    0.0004    0.0001   -0.0084    0.0064   -0.0018
          17    0.0006    0.0007    0.0005    0.0003    0.0002   -0.0089    0.0068   -0.0022
          18   -0.0005   -0.0005   -0.0006   -0.0005   -0.0003    0.0070   -0.0053    0.0015
          19    0.0000   -0.0000   -0.0000    0.0000    0.0003   -0.0058   -0.0083   -0.0008
          20    0.0001   -0.0001    0.0001   -0.0001   -0.0002   -0.0037   -0.0053   -0.0002
          21    0.0001   -0.0001   -0.0001    0.0001    0.0002   -0.0186   -0.0268   -0.0013
          22   -0.0000   -0.0000    0.0000    0.0000    0.0002    0.0080   -0.0060    0.0007
          23    0.0001    0.0001    0.0001    0.0001    0.0002   -0.0051    0.0038   -0.0001
          24    0.0001    0.0001   -0.0001   -0.0001   -0.0002   -0.0258    0.0193   -0.0012
          25   -0.0001    0.0000    0.0001   -0.0002   -0.0185    0.0011    0.0002   -0.0222
          26    0.0000   -0.0000    0.0001   -0.0003   -0.0288    0.0016    0.0004   -0.0260
          27    0.0001   -0.0000   -0.0000    0.0002    0.0141   -0.0009   -0.0001    0.0127
          28    0.0001    0.0000   -0.0001   -0.0002   -0.0184   -0.0011   -0.0002    0.0223
          29    0.0000    0.0000    0.0001    0.0003    0.0287    0.0016    0.0002   -0.0261
          30    0.0001    0.0000   -0.0000   -0.0002   -0.0140   -0.0009   -0.0002    0.0128
          31   -0.1721    0.1567    0.0747   -0.0845    0.0018   -0.0015   -0.0025    0.0000
          32    0.2414   -0.2252   -0.0895    0.1072   -0.0024    0.0018    0.0032   -0.0002
          33   -0.1305    0.1230    0.0397   -0.0496    0.0011   -0.0015   -0.0024   -0.0003
          34   -0.0933    0.1088   -0.2591    0.2507   -0.0054   -0.0023   -0.0027   -0.0023
          35    0.0073   -0.0110    0.0480   -0.0470    0.0010    0.0003    0.0004    0.0004
          36    0.0732   -0.0826    0.1717   -0.1655    0.0035    0.0024    0.0031    0.0017
          37    0.0925    0.1100    0.2636    0.2464   -0.0054    0.0030   -0.0019    0.0023
          38    0.0073    0.0112    0.0489    0.0463   -0.0010    0.0004   -0.0003    0.0004
          39    0.0723    0.0833    0.1741    0.1622   -0.0035    0.0032   -0.0022    0.0017
          40    0.1703    0.1581   -0.0763   -0.0832    0.0018    0.0022   -0.0019   -0.0001
          41    0.2390    0.2274   -0.0916   -0.1058    0.0024    0.0027   -0.0024   -0.0002
          42   -0.1296   -0.1246    0.0408    0.0492   -0.0011   -0.0021    0.0018   -0.0002
          43    0.0086   -0.0078    0.0102   -0.0078    0.0001    0.0002    0.0016   -0.0001
          44   -0.0098    0.0094   -0.0153    0.0123   -0.0001   -0.0002   -0.0025    0.0002
          45    0.0009   -0.0004   -0.0005    0.0000    0.0000    0.0000    0.0001   -0.0000
          46    0.0074   -0.0080    0.0061   -0.0046   -0.0035   -0.0749   -0.1095   -0.0233
          47   -0.0094    0.0100   -0.0063    0.0046    0.0032    0.0824    0.1204    0.0253
          48    0.0038   -0.0042    0.0036   -0.0027   -0.0021   -0.0574   -0.0839   -0.0172
          49   -0.0086   -0.0079   -0.0104   -0.0076    0.0001   -0.0007    0.0014    0.0001
          50   -0.0097   -0.0095   -0.0156   -0.0120    0.0001   -0.0010    0.0023    0.0003
          51    0.0009    0.0004   -0.0005    0.0000   -0.0000    0.0000   -0.0001   -0.0000
          52   -0.0073   -0.0081   -0.0062   -0.0046   -0.0037    0.1047   -0.0796    0.0233
          53   -0.0093   -0.0101   -0.0064   -0.0046   -0.0034    0.1149   -0.0874    0.0252
          54    0.0037    0.0043    0.0037    0.0027    0.0023   -0.0803    0.0611   -0.0172
          55    0.0001   -0.0001   -0.0007    0.0026    0.2207   -0.0127   -0.0026    0.2024
          56    0.0001   -0.0001   -0.0011    0.0041    0.3468   -0.0195   -0.0037    0.3099
          57   -0.0001    0.0000    0.0006   -0.0020   -0.1696    0.0085    0.0012   -0.1515
          58    0.0003   -0.0004    0.0008   -0.0009   -0.0015    0.0718    0.1029    0.0044
          59    0.0004   -0.0004    0.0006   -0.0006   -0.0014    0.0370    0.0533    0.0018
          60    0.0011   -0.0013    0.0021   -0.0021   -0.0026    0.2189    0.3146    0.0156
[...]
 RED. MASS   0.4288         C  1 -- H 12          +7.3% ( 37.3%)      0.1%
 EFF. MASS   6.2410

 VIBRATION   40   40A         ATOM PAIR      ENERGY CONTRIBUTION    RADIAL
 FREQ.      1370.69         C  1 -- H 11          +9.1% ( 39.1%)      1.5%
 T-DIPOLE    0.0810         C  2 -- H 14          +9.1% ( 39.1%)      1.5%
 TRAVEL      0.0912         C  1 -- H 12          +8.4% ( 37.5%)      1.3%
 RED. MASS   0.4031         C  2 -- H 13          +8.4% ( 37.5%)      1.2%
 EFF. MASS   5.9114

 VIBRATION   41   41A         ATOM PAIR      ENERGY CONTRIBUTION    RADIAL
 FREQ.      1386.39         C  2 -- C  6         +11.2% ( 51.1%)     90.7%
 T-DIPOLE    0.0278         C  1 -- C  5         +11.2% ( 51.0%)     90.7%
 TRAVEL      0.0735         C  2 -- H 14          +7.2% ( 41.0%)      0.1%
 RED. MASS   1.1375         C  1 -- H 11          +7.2% ( 41.0%)      0.1%
 EFF. MASS   9.0014

 VIBRATION   42   42A         ATOM PAIR      ENERGY CONTRIBUTION    RADIAL
 FREQ.      1421.55         C  1 -- C  3         +13.3% ( 48.0%)     98.9%
 T-DIPOLE    0.0103         C  2 -- C  4         +13.3% ( 48.0%)     98.9%
 TRAVEL      0.0861         C  1 -- H 11         +10.4% ( 42.5%)      3.8%
 RED. MASS   0.7068         C  2 -- H 14         +10.4% ( 42.5%)      3.8%
 EFF. MASS   6.4024

 VIBRATION   43   43A         ATOM PAIR      ENERGY CONTRIBUTION    RADIAL
 FREQ.      1442.85         C  1 -- H 11         +24.5% ( 48.6%)      4.1%
 T-DIPOLE    0.0481         C  2 -- H 14         +24.5% ( 48.6%)      4.1%
 TRAVEL      0.1414         C  2 -- H 13         +14.9% ( 37.9%)      4.6%
 RED. MASS   0.2866         C  1 -- H 12         +14.9% ( 37.9%)      4.6%
 EFF. MASS   2.3383

 VIBRATION   44   44A         ATOM PAIR      ENERGY CONTRIBUTION    RADIAL
 FREQ.      1455.77         C  7 -- C  9         +11.0% ( 50.6%)     99.7%
 T-DIPOLE    0.0417         C  8 -- C 10         +11.0% ( 50.6%)     99.7%
 TRAVEL      0.0680         C  1 -- C  5          +7.4% ( 41.5%)     91.6%
 RED. MASS   0.9989         C  2 -- C  6          +7.4% ( 41.4%)     91.6%
 EFF. MASS  10.0178

 VIBRATION   45   45A         ATOM PAIR      ENERGY CONTRIBUTION    RADIAL
 FREQ.      1847.79         C  9 -- C 10         +19.4% ( 65.4%)    100.0%
 T-DIPOLE    0.1451         C  5 -- C  7         +13.0% ( 53.6%)     99.0%
 TRAVEL      0.0555         C  6 -- C  8         +13.0% ( 53.5%)     99.0%
 RED. MASS   1.8684         C  7 -- C  9          +8.0% ( 42.1%)      4.3%
 EFF. MASS  11.8383

 VIBRATION   46   46A         ATOM PAIR      ENERGY CONTRIBUTION    RADIAL
 FREQ.      1877.84         C  3 -- C  4         +43.7% ( 97.2%)    100.0%
 T-DIPOLE    0.0377         C  1 -- C  3         +13.9% ( 54.9%)     51.9%
 TRAVEL      0.0551         C  2 -- C  4         +13.9% ( 54.9%)     51.9%
 RED. MASS   5.2280         C  3 -- H 15         +12.9% ( 52.8%)      4.5%
 EFF. MASS  11.8277         C  4 -- H 17         +12.9% ( 52.8%)      4.5%

 VIBRATION   47   47A         ATOM PAIR      ENERGY CONTRIBUTION    RADIAL
 FREQ.      1895.92         C  5 -- C  7         +21.8% ( 68.7%)     99.9%
 T-DIPOLE    0.0125         C  6 -- C  8         +21.7% ( 68.6%)     99.9%
 TRAVEL      0.0547         C  7 -- C  9          +7.9% ( 41.4%)     62.7%
 RED. MASS   2.6763         C  8 -- C 10          +7.9% ( 41.3%)     62.5%
 EFF. MASS  11.8882

 VIBRATION   48   48A         ATOM PAIR      ENERGY CONTRIBUTION    RADIAL
 FREQ.      1939.20         C  9 -- C 10         +23.8% ( 71.6%)    100.0%
 T-DIPOLE    0.0801         C  8 -- C 10         +13.2% ( 53.4%)     75.9%
 TRAVEL      0.0540         C  7 -- C  9         +13.2% ( 53.3%)     75.9%
 RED. MASS   2.3761         C  6 -- C  8          +9.3% ( 44.8%)     97.9%
 EFF. MASS  11.9373

 VIBRATION   49   49A         ATOM PAIR      ENERGY CONTRIBUTION    RADIAL
 FREQ.      2898.77         C  1 -- H 11         +42.3% ( 67.2%)     99.2%
 T-DIPOLE    0.1027         C  2 -- H 14         +41.4% ( 66.5%)     99.2%
 TRAVEL      0.1244         C  1 -- H 12          +6.9% ( 27.2%)     84.8%
 RED. MASS   0.3752         C  2 -- H 13          +6.8% ( 26.9%)     84.8%
 EFF. MASS   1.5043

 VIBRATION   50   50A         ATOM PAIR      ENERGY CONTRIBUTION    RADIAL
 FREQ.      2917.45         C  2 -- H 14         +39.5% ( 64.7%)     99.0%
 T-DIPOLE    0.0640         C  1 -- H 11         +38.8% ( 64.1%)     99.0%
 TRAVEL      0.1232         C  2 -- H 13          +9.6% ( 31.9%)     88.4%
 RED. MASS   0.3444         C  1 -- H 12          +9.4% ( 31.6%)     88.4%
 EFF. MASS   1.5232

 VIBRATION   51   51A         ATOM PAIR      ENERGY CONTRIBUTION    RADIAL
 FREQ.      3001.92         C  2 -- H 13         +43.8% ( 65.9%)     99.8%
 T-DIPOLE    0.0818         C  1 -- H 12         +42.4% ( 64.8%)     99.8%
 TRAVEL      0.1303         C  2 -- H 14          +6.1% ( 24.7%)     79.1%
 RED. MASS   0.3612         C  1 -- H 11          +5.9% ( 24.1%)     78.9%
 EFF. MASS   1.3222

 VIBRATION   52   52A         ATOM PAIR      ENERGY CONTRIBUTION    RADIAL
 FREQ.      3004.28         C  1 -- H 12         +41.4% ( 63.9%)     99.7%
 T-DIPOLE    0.0330         C  2 -- H 13         +39.9% ( 62.7%)     99.7%
 TRAVEL      0.1309         C  1 -- H 11          +8.6% ( 29.2%)     85.4%
 RED. MASS   0.3300         C  2 -- H 14          +8.4% ( 28.8%)     85.6%
 EFF. MASS   1.3103

 VIBRATION   53   53A         ATOM PAIR      ENERGY CONTRIBUTION    RADIAL
 FREQ.      3016.69         C  9 -- H 19         +49.1% ( 71.1%)    100.0%
 T-DIPOLE    0.2638         C 10 -- H 21         +48.6% ( 70.7%)    100.0%
 TRAVEL      0.1242         C  9 -- C 10          +1.0% ( 10.2%)      0.0%
 RED. MASS   0.4645         C  7 -- C  9          +0.6% (  7.9%)     16.6%
 EFF. MASS   1.4480

 VIBRATION   54   54A         ATOM PAIR      ENERGY CONTRIBUTION    RADIAL
 FREQ.      3026.68         C  8 -- H 22         +49.4% ( 71.3%)    100.0%
 T-DIPOLE    0.3806         C  7 -- H 20         +25.7% ( 51.5%)    100.0%
 TRAVEL      0.1236         C  6 -- H 18         +14.5% ( 38.6%)     99.9%
 RED. MASS   0.3292         C  5 -- H 16          +7.4% ( 27.6%)     99.9%
 EFF. MASS   1.4572

 VIBRATION   55   55A         ATOM PAIR      ENERGY CONTRIBUTION    RADIAL
 FREQ.      3026.99         C  7 -- H 20         +49.4% ( 71.3%)    100.0%
 T-DIPOLE    0.0627         C  8 -- H 22         +25.7% ( 51.4%)    100.0%
 TRAVEL      0.1235         C  5 -- H 16         +14.7% ( 38.9%)     99.9%
 RED. MASS   0.3303         C  6 -- H 18          +7.8% ( 28.3%)     99.9%
 EFF. MASS   1.4611

 VIBRATION   56   56A         ATOM PAIR      ENERGY CONTRIBUTION    RADIAL
 FREQ.      3036.54         C 10 -- H 21         +48.0% ( 70.2%)     99.9%
 T-DIPOLE    0.3290         C  9 -- H 19         +47.6% ( 69.9%)     99.9%
 TRAVEL      0.1189         C  9 -- C 10          +1.9% ( 14.0%)    100.0%
 RED. MASS   0.4562         C  8 -- C 10          +0.7% (  8.8%)      9.9%
 EFF. MASS   1.5714

 VIBRATION   57   57A         ATOM PAIR      ENERGY CONTRIBUTION    RADIAL
 FREQ.      3041.83         C  4 -- H 17         +48.9% ( 70.9%)    100.0%
 T-DIPOLE    0.2596         C  3 -- H 15         +48.5% ( 70.6%)    100.0%
 TRAVEL      0.1236         C  3 -- C  4          +1.0% ( 10.4%)      0.0%
 RED. MASS   0.4611         C  2 -- C  4          +0.6% (  8.0%)     22.1%
 EFF. MASS   1.4521

 VIBRATION   58   58A         ATOM PAIR      ENERGY CONTRIBUTION    RADIAL
 FREQ.      3050.50         C  6 -- H 18         +59.7% ( 78.3%)    100.0%
 T-DIPOLE    0.2777         C  8 -- H 22         +17.7% ( 42.6%)     99.7%
 TRAVEL      0.1188         C  5 -- H 16         +14.6% ( 38.8%)    100.0%
 RED. MASS   0.4084         C  7 -- H 20          +4.3% ( 21.1%)     99.7%
 EFF. MASS   1.5656

 VIBRATION   59   59A         ATOM PAIR      ENERGY CONTRIBUTION    RADIAL
 FREQ.      3050.72         C  5 -- H 16         +59.7% ( 78.3%)    100.0%
 T-DIPOLE    0.2755         C  7 -- H 20         +17.5% ( 42.4%)     99.7%
 TRAVEL      0.1188         C  6 -- H 18         +14.5% ( 38.6%)    100.0%
 RED. MASS   0.4072         C  8 -- H 22          +4.3% ( 20.9%)     99.7%
 EFF. MASS   1.5658

 VIBRATION   60   60A         ATOM PAIR      ENERGY CONTRIBUTION    RADIAL
 FREQ.      3061.78         C  3 -- H 15         +48.2% ( 70.4%)     99.9%
 T-DIPOLE    0.2870         C  4 -- H 17         +47.8% ( 70.1%)     99.9%
 TRAVEL      0.1181         C  3 -- C  4          +1.9% ( 14.1%)    100.0%
 RED. MASS   0.4602         C  1 -- C  3          +0.8% (  8.9%)     13.1%
 EFF. MASS   1.5779

      SYMMETRY NUMBER FOR POINT-GROUP C1  =  1


          SYSTEM IS A GROUND STATE



 InChI=1S/C10H12/c1-2-4-6-8-10-9-7-5-3-1/h1-6,9-10H,7-8H2


          MOLECULE IS NOT LINEAR

          THERE ARE 60 GENUINE VIBRATIONS IN THIS SYSTEM
          THIS THERMODYNAMICS CALCULATION IS LIMITED TO
          MOLECULES WHICH HAVE NO INTERNAL ROTATIONS




                    CALCULATED THERMODYNAMIC PROPERTIES
                                          *
   TEMP. (K)   PARTITION FUNCTION   H.O.F.    ENTHALPY  HEAT CAPACITY ENTROPY
                                   KCAL/MOL   CAL/MOLE    CAL/K/MOL  CAL/K/MOL


 298.00  VIB.     0.4342D+02                  3639.3349    29.5253    19.7061
         ROT.     0.5654D+06                   888.2813     2.9808    29.3018
         INT.     0.2455D+08                  4527.6162    32.5061    49.0079
         TRA.     0.1470D+28                  1480.4688     4.9680    40.5480
         TOT.                       55.991    6008.0850    37.4741    89.5559

 200.00  VIB.     0.6720D+01                  1372.3813    16.9788    10.6478
         ROT.     0.3108D+06                   596.1620     2.9808    28.1131
         INT.     0.2089D+07                  1968.5433    19.9597    38.7609
         TRA.     0.8080D+27                   993.6033     4.9680    38.5668
         TOT.                       52.945    2962.1465    24.9277    77.3277

 210.00  VIB.     0.8003D+01                  1548.1274    18.1750    11.5051
         ROT.     0.3344D+06                   625.9700     2.9808    28.2585
         INT.     0.2677D+07                  2174.0974    21.1558    39.7636
         TRA.     0.8694D+27                  1043.2834     4.9680    38.8092
         TOT.                       53.200    3217.3809    26.1238    78.5728

 220.00  VIB.     0.9568D+01                  1735.9697    19.3978    12.3787
         ROT.     0.3586D+06                   655.7781     2.9808    28.3972
         INT.     0.3431D+07                  2391.7479    22.3786    40.7759
         TRA.     0.9322D+27                  1092.9636     4.9680    39.0403
         TOT.                       53.467    3484.7114    27.3466    79.8162

 230.00  VIB.     0.1148D+02                  1936.1641    20.6450    13.2684
         ROT.     0.3833D+06                   685.5862     2.9808    28.5297
         INT.     0.4401D+07                  2621.7504    23.6258    41.7981
         TRA.     0.9965D+27                  1142.6437     4.9680    39.2612
         TOT.                       53.747    3764.3941    28.5938    81.0592

 240.00  VIB.     0.1383D+02                  2148.9411    21.9138    14.1738
         ROT.     0.4086D+06                   715.3943     2.9808    28.6565
         INT.     0.5650D+07                  2864.3354    24.8946    42.8303
         TRA.     0.1062D+28                  1192.3239     4.9680    39.4726
         TOT.                       54.039    4056.6593    29.8626    82.3029

 250.00  VIB.     0.1671D+02                  2374.5008    23.2010    15.0944
         ROT.     0.4344D+06                   745.2024     2.9808    28.7782
         INT.     0.7260D+07                  3119.7033    26.1818    43.8726
         TRA.     0.1129D+28                  1242.0041     4.9680    39.6754
         TOT.                       54.344    4361.7073    31.1498    83.5480

 260.00  VIB.     0.2027D+02                  2613.0104    24.5031    16.0297
         ROT.     0.4607D+06                   775.0105     2.9808    28.8951
         INT.     0.9338D+07                  3388.0209    27.4839    44.9248
         TRA.     0.1198D+28                  1291.6842     4.9680    39.8703
         TOT.                       54.662    4679.7051    32.4520    84.7951

 270.00  VIB.     0.2466D+02                  2864.6015    25.8167    16.9790
         ROT.     0.4876D+06                   804.8186     2.9808    29.0076
         INT.     0.1202D+08                  3669.4202    28.7975    45.9866
         TRA.     0.1267D+28                  1341.3644     4.9680    40.0578
         TOT.                       54.994    5010.7846    33.7655    86.0444

 280.00  VIB.     0.3010D+02                  3129.3705    27.1381    17.9418
         ROT.     0.5149D+06                   834.6267     2.9808    29.1160
         INT.     0.1550D+08                  3963.9972    30.1189    47.0578
         TRA.     0.1338D+28                  1391.0445     4.9680    40.2384
         TOT.                       55.338    5355.0418    35.0869    87.2962

 290.00  VIB.     0.3685D+02                  3407.3781    28.4638    18.9172
         ROT.     0.5427D+06                   864.4348     2.9808    29.2206
         INT.     0.2000D+08                  4271.8129    31.4447    48.1378
         TRA.     0.1411D+28                  1440.7247     4.9680    40.4128
         TOT.                       55.695    5712.5376    36.4127    88.5506

 300.00  VIB.     0.4525D+02                  3698.6508    29.7906    19.9045
         ROT.     0.5711D+06                   894.2429     2.9808    29.3217
         INT.     0.2584D+08                  4592.8937    32.7714    49.2262
         TRA.     0.1484D+28                  1490.4049     4.9680    40.5812
         TOT.                       56.066    6083.2986    37.7394    89.8074

 310.00  VIB.     0.5573D+02                  4003.1829    31.1152    20.9030
         ROT.     0.5998D+06                   924.0510     2.9808    29.4194
         INT.     0.3343D+08                  4927.2339    34.0960    50.3224
         TRA.     0.1559D+28                  1540.0850     4.9680    40.7441
         TOT.                       56.450    6467.3189    39.0640    91.0665

 320.00  VIB.     0.6882D+02                  4320.9383    32.4348    21.9117
         ROT.     0.6291D+06                   953.8591     2.9808    29.5141
         INT.     0.4329D+08                  5274.7974    35.4156    51.4258
         TRA.     0.1635D+28                  1589.7652     4.9680    40.9018
         TOT.                       56.847    6864.5626    40.3836    92.3276

 330.00  VIB.     0.8521D+02                  4651.8531    33.7467    22.9299
         ROT.     0.6588D+06                   983.6672     2.9808    29.6058
         INT.     0.5614D+08                  5635.5203    36.7275    52.5357
         TRA.     0.1713D+28                  1639.4454     4.9680    41.0547
         TOT.                       57.258    7274.9657    41.6955    93.5904

 340.00  VIB.     0.1058D+03                  4995.8385    35.0485    23.9567
         ROT.     0.6890D+06                  1013.4753     2.9808    29.6948
         INT.     0.7288D+08                  6009.3138    38.0293    53.6514
         TRA.     0.1791D+28                  1689.1255     4.9680    41.2030
         TOT.                       57.681    7698.4393    42.9974    94.8545

 350.00  VIB.     0.1316D+03                  5352.7831    36.3382    24.9913
         ROT.     0.7196D+06                  1043.2834     2.9808    29.7812
         INT.     0.9472D+08                  6396.0665    39.3190    54.7725
         TRA.     0.1871D+28                  1738.8057     4.9680    41.3470
         TOT.                       58.118    8134.8722    44.2870    96.1195

 360.00  VIB.     0.1642D+03                  5722.5559    37.6139    26.0329
         ROT.     0.7507D+06                  1073.0915     2.9808    29.8652
         INT.     0.1233D+09                  6795.6474    40.5947    55.8980
         TRA.     0.1951D+28                  1788.4859     4.9680    41.4870
         TOT.                       58.567    8584.1333    45.5627    97.3850

 370.00  VIB.     0.2053D+03                  6105.0090    38.8740    27.0807
         ROT.     0.7822D+06                  1102.8996     2.9808    29.9468
         INT.     0.1606D+09                  7207.9086    41.8548    57.0275
         TRA.     0.2033D+28                  1838.1660     4.9680    41.6231
         TOT.                       59.029    9046.0746    46.8228    98.6506

 380.00  VIB.     0.2572D+03                  6499.9796    40.1172    28.1339
         ROT.     0.8141D+06                  1132.7077     2.9808    30.0263
         INT.     0.2094D+09                  7632.6873    43.0980    58.1602
         TRA.     0.2116D+28                  1887.8462     4.9680    41.7556
         TOT.                       59.503    9520.5335    48.0660    99.9158

 390.00  VIB.     0.3229D+03                  6907.2931    41.3424    29.1919
         ROT.     0.8464D+06                  1162.5158     2.9808    30.1038
         INT.     0.2733D+09                  8069.8089    44.3232    59.2956
         TRA.     0.2200D+28                  1937.5263     4.9680    41.8846
         TOT.                       59.990   10007.3352    49.2912   101.1802

 400.00  VIB.     0.4062D+03                  7326.7645    42.5487    30.2538
         ROT.     0.8792D+06                  1192.3239     2.9808    30.1792
         INT.     0.3571D+09                  8519.0884    45.5295    60.4330
         TRA.     0.2285D+28                  1987.2065     4.9680    42.0104
         TOT.                       60.489   10506.2949    50.4975   102.4434

   *: NOTE: HEATS OF FORMATION ARE RELATIVE TO THE
            ELEMENTS IN THEIR STANDARD STATE AT 298K
              (=  Standard Enthalpy of Formation).

            Hvib:  Zero-point energy is not included.
                   frequencies of less than zero cm-1 are not included.
            Hrot = (3/2)RT
            Htra = (3/2)RT + pV = (5/2)RT

            Heat capacity is Cp, not Cv

          For more information, see: HTTP://OpenMOPAC.net/Manual/thermochemistry.html


           FORCE CONSTANT IN CARTESIAN COORDINATES (Millidynes/A)

    ATOM   CHEMICAL       X               Y               Z
   NUMBER   SYMBOL  FORCE CONSTANT  FORCE CONSTANT  FORCE CONSTANT

      1       C        8.625796        8.587164        8.582458
      2       C        8.626107        8.585998        8.583013
      3       C       15.224849        9.315555        2.529014
      4       C       15.224661        9.314781        2.529005
      5       C        5.465864       11.818279        9.805779
      6       C        5.471471       11.808098        9.807660
      7       C        5.801880       12.130095        9.752624
      8       C        5.810797       12.121870        9.742535
      9       C       15.520091        8.240712        3.882779
     10       C       15.520476        8.238479        3.878688
     11       H        1.953972        2.988580        1.376292
     12       H        3.533595        0.756681        1.984310
     13       H        3.538399        0.757331        1.978977
     14       H        1.951784        2.987070        1.379878
     15       H        1.860335        4.027013        0.344056
     16       H        2.048425        2.575728        1.592514
     17       H        1.860170        4.026993        0.343574
     18       H        2.050983        2.570000        1.595074
     19       H        1.806686        3.250650        1.034338
     20       H        0.876945        0.740800        4.491931
     21       H        1.804934        3.251082        1.037619
     22       H        0.874700        0.740561        4.493890

 **********************
 *                    *
 * JOB ENDED NORMALLY *
 *                    *
 **********************



 TOTAL JOB TIME:             7.57 SECONDS

 == MOPAC DONE ==
