 *******************************************************************************
 ** Site#: 14399        For non-commercial use only    Version 18.184L 64BITS **
 *******************************************************************************
 ** Cite this program as: MOPAC2016, Version: 18.184L, James J. P. Stewart,   **
 ** Stewart Computational Chemistry, web: HTTP://OpenMOPAC.net. Days left:  20**
 *******************************************************************************
 **                                                                           **
 **                                MOPAC2016                                  **
 **                                                                           **
 *******************************************************************************

                              PM3 CALCULATION RESULTS

 *******************************************************************************
 *  CALCULATION DONE:                                Thu Jun 13 16:09:18 2019  *
 *  PM3        - The PM3 Hamiltonian to be used
 *  PRECISE    - CRITERIA TO BE INCREASED BY 100 TIMES
 *  NOSYM      - POINT-GROUP SYMMETRY SET TO C1
 *  THREADS=1  - MULTI-THREADING NOT USED
 *  T=         - A TIME OF 172800.0 SECONDS REQUESTED
 *  DUMP=N     - RESTART FILE WRITTEN EVERY  7200.000 SECONDS
 *******************************************************************************
pm3  precise nosym THREADS=1
 InChI=1S/C7H12/c1-3-7-5-4-6(7)2/h4-7H,3H2,1-2H3

   ATOM   CHEMICAL          X               Y               Z
  NUMBER   SYMBOL      (ANGSTROMS)     (ANGSTROMS)     (ANGSTROMS)
 
     1       C         -0.17860000  *   0.57490000  *  -0.24800000  *
     2       C          0.97370000  *  -0.28130000  *  -0.07280000  *
     3       C         -1.50600000  *  -0.16290000  *  -0.49830000  *
     4       C          1.83220000  *   0.05600000  *   1.15000000  *
     5       C         -2.06580000  *  -0.74910000  *   0.79530000  *
     6       C          0.42620000  *   1.08060000  *  -1.52170000  *
     7       C          1.54940000  *   0.27270000  *  -1.33780000  *
     8       H         -0.28000000  *   1.39730000  *   0.49720000  *
     9       H          0.77500000  *  -1.37330000  *  -0.16230000  *
    10       H         -1.37550000  *  -0.97730000  *  -1.24580000  *
    11       H         -2.24610000  *   0.55840000  *  -0.90790000  *
    12       H         -3.03510000  *  -1.24910000  *   0.58770000  *
    13       H         -2.23370000  *   0.05610000  *   1.54190000  *
    14       H          2.77340000  *  -0.53230000  *   1.11710000  *
    15       H          1.28050000  *  -0.21120000  *   2.07600000  *
    16       H          2.08890000  *   1.13760000  *   1.18200000  *
    17       H         -1.36400000  *  -1.49880000  *   1.21800000  *
    18       H          2.46530000  *   0.10490000  *  -1.89410000  *
    19       H          0.12000000  *   1.79680000  *  -2.27660000  *
 


          CARTESIAN COORDINATES 

    NO.       ATOM           X           Y           Z

     1         C         -0.1786      0.5749     -0.2480
     2         C          0.9737     -0.2813     -0.0728
     3         C         -1.5060     -0.1629     -0.4983
     4         C          1.8322      0.0560      1.1500
     5         C         -2.0658     -0.7491      0.7953
     6         C          0.4262      1.0806     -1.5217
     7         C          1.5494      0.2727     -1.3378
     8         H         -0.2800      1.3973      0.4972
     9         H          0.7750     -1.3733     -0.1623
    10         H         -1.3755     -0.9773     -1.2458
    11         H         -2.2461      0.5584     -0.9079
    12         H         -3.0351     -1.2491      0.5877
    13         H         -2.2337      0.0561      1.5419
    14         H          2.7734     -0.5323      1.1171
    15         H          1.2805     -0.2112      2.0760
    16         H          2.0889      1.1376      1.1820
    17         H         -1.3640     -1.4988      1.2180
    18         H          2.4653      0.1049     -1.8941
    19         H          0.1200      1.7968     -2.2766

  H: (PM3): J. J. P. STEWART, J. COMP. CHEM. 10, 209 (1989).
  C: (PM3): J. J. P. STEWART, J. COMP. CHEM. 10, 209 (1989).

           Empirical Formula: C7 H12  =    19 atoms



      MOLECULAR POINT GROUP   :   C1  


      RHF CALCULATION, NO. OF DOUBLY OCCUPIED LEVELS = 20


          Geometry optimization using EF

          DIAGONAL MATRIX USED AS START HESSIAN

 CYCLE:     1 TIME:   0.023 TIME LEFT:  2.00D  GRAD.:   213.881 HEAT:  30.97648
 CYCLE:     2 TIME:   0.035 TIME LEFT:  2.00D  GRAD.:    58.408 HEAT:  21.50551
 CYCLE:     3 TIME:   0.027 TIME LEFT:  2.00D  GRAD.:    63.032 HEAT:  20.95661
 CYCLE:     4 TIME:   0.031 TIME LEFT:  2.00D  GRAD.:    33.888 HEAT:  20.13324
 CYCLE:     5 TIME:   0.027 TIME LEFT:  2.00D  GRAD.:    22.427 HEAT:  19.82254
 CYCLE:     6 TIME:   0.023 TIME LEFT:  2.00D  GRAD.:    31.869 HEAT:  19.72013
 CYCLE:     7 TIME:   0.023 TIME LEFT:  2.00D  GRAD.:    27.115 HEAT:  19.51099
 CYCLE:     8 TIME:   0.027 TIME LEFT:  2.00D  GRAD.:    13.444 HEAT:  19.33635
 CYCLE:     9 TIME:   0.027 TIME LEFT:  2.00D  GRAD.:     9.694 HEAT:  19.27400
 CYCLE:    10 TIME:   0.023 TIME LEFT:  2.00D  GRAD.:    10.576 HEAT:  19.21429
 CYCLE:    11 TIME:   0.023 TIME LEFT:  2.00D  GRAD.:    16.789 HEAT:  19.20534
 CYCLE:    12 TIME:   0.027 TIME LEFT:  2.00D  GRAD.:     9.591 HEAT:  19.14669
 CYCLE:    13 TIME:   0.035 TIME LEFT:  2.00D  GRAD.:     8.293 HEAT:  19.12926
 CYCLE:    14 TIME:   0.023 TIME LEFT:  2.00D  GRAD.:     6.559 HEAT:  19.11206
 CYCLE:    15 TIME:   0.023 TIME LEFT:  2.00D  GRAD.:     8.784 HEAT:  19.10896
 CYCLE:    16 TIME:   0.023 TIME LEFT:  2.00D  GRAD.:     4.141 HEAT:  19.08273
 CYCLE:    17 TIME:   0.027 TIME LEFT:  2.00D  GRAD.:     4.285 HEAT:  19.07550
 CYCLE:    18 TIME:   0.023 TIME LEFT:  2.00D  GRAD.:     2.850 HEAT:  19.06463
 CYCLE:    19 TIME:   0.023 TIME LEFT:  2.00D  GRAD.:     2.329 HEAT:  19.05465
 CYCLE:    20 TIME:   0.023 TIME LEFT:  2.00D  GRAD.:     2.908 HEAT:  19.04365
 CYCLE:    21 TIME:   0.020 TIME LEFT:  2.00D  GRAD.:     2.468 HEAT:  19.03747
 CYCLE:    22 TIME:   0.023 TIME LEFT:  2.00D  GRAD.:     1.972 HEAT:  19.03230
 CYCLE:    23 TIME:   0.023 TIME LEFT:  2.00D  GRAD.:     3.061 HEAT:  19.02829
 CYCLE:    24 TIME:   0.023 TIME LEFT:  2.00D  GRAD.:     2.575 HEAT:  19.02409
 CYCLE:    25 TIME:   0.023 TIME LEFT:  2.00D  GRAD.:     1.932 HEAT:  19.02034
 CYCLE:    26 TIME:   0.023 TIME LEFT:  2.00D  GRAD.:     2.472 HEAT:  19.01765
 CYCLE:    27 TIME:   0.023 TIME LEFT:  2.00D  GRAD.:     1.628 HEAT:  19.01376
 CYCLE:    28 TIME:   0.020 TIME LEFT:  2.00D  GRAD.:     1.245 HEAT:  19.01162
 CYCLE:    29 TIME:   0.023 TIME LEFT:  2.00D  GRAD.:     1.162 HEAT:  19.01036
 CYCLE:    30 TIME:   0.023 TIME LEFT:  2.00D  GRAD.:     0.718 HEAT:  19.00921
 CYCLE:    31 TIME:   0.023 TIME LEFT:  2.00D  GRAD.:     0.732 HEAT:  19.00781
 CYCLE:    32 TIME:   0.023 TIME LEFT:  2.00D  GRAD.:     0.884 HEAT:  19.00642
 CYCLE:    33 TIME:   0.023 TIME LEFT:  2.00D  GRAD.:     0.955 HEAT:  19.00444
 CYCLE:    34 TIME:   0.020 TIME LEFT:  2.00D  GRAD.:     0.989 HEAT:  19.00226
 CYCLE:    35 TIME:   0.023 TIME LEFT:  2.00D  GRAD.:     1.024 HEAT:  18.99977
 CYCLE:    36 TIME:   0.023 TIME LEFT:  2.00D  GRAD.:     1.078 HEAT:  18.99736
 CYCLE:    37 TIME:   0.023 TIME LEFT:  2.00D  GRAD.:     0.852 HEAT:  18.99544
 CYCLE:    38 TIME:   0.023 TIME LEFT:  2.00D  GRAD.:     0.706 HEAT:  18.99400
 CYCLE:    39 TIME:   0.023 TIME LEFT:  2.00D  GRAD.:     0.731 HEAT:  18.99277
 CYCLE:    40 TIME:   0.023 TIME LEFT:  2.00D  GRAD.:     0.837 HEAT:  18.99126
 CYCLE:    41 TIME:   0.020 TIME LEFT:  2.00D  GRAD.:     0.900 HEAT:  18.98939
 CYCLE:    42 TIME:   0.023 TIME LEFT:  2.00D  GRAD.:     0.695 HEAT:  18.98786
 CYCLE:    43 TIME:   0.023 TIME LEFT:  2.00D  GRAD.:     0.473 HEAT:  18.98696
 CYCLE:    44 TIME:   0.023 TIME LEFT:  2.00D  GRAD.:     0.445 HEAT:  18.98649
 CYCLE:    45 TIME:   0.023 TIME LEFT:  2.00D  GRAD.:     0.454 HEAT:  18.98612
 CYCLE:    46 TIME:   0.023 TIME LEFT:  2.00D  GRAD.:     0.510 HEAT:  18.98556
 CYCLE:    47 TIME:   0.023 TIME LEFT:  2.00D  GRAD.:     0.524 HEAT:  18.98501
 CYCLE:    48 TIME:   0.020 TIME LEFT:  2.00D  GRAD.:     0.502 HEAT:  18.98424
 CYCLE:    49 TIME:   0.023 TIME LEFT:  2.00D  GRAD.:     0.400 HEAT:  18.98387
 CYCLE:    50 TIME:   0.023 TIME LEFT:  2.00D  GRAD.:     0.507 HEAT:  18.98349
 CYCLE:    51 TIME:   0.027 TIME LEFT:  2.00D  GRAD.:     0.334 HEAT:  18.98321
 CYCLE:    52 TIME:   0.023 TIME LEFT:  2.00D  GRAD.:     0.251 HEAT:  18.98302
 CYCLE:    53 TIME:   0.023 TIME LEFT:  2.00D  GRAD.:     0.353 HEAT:  18.98262
 CYCLE:    54 TIME:   0.023 TIME LEFT:  2.00D  GRAD.:     0.325 HEAT:  18.98239
 CYCLE:    55 TIME:   0.023 TIME LEFT:  2.00D  GRAD.:     0.397 HEAT:  18.98181
 CYCLE:    56 TIME:   0.023 TIME LEFT:  2.00D  GRAD.:     0.348 HEAT:  18.98158
 CYCLE:    57 TIME:   0.023 TIME LEFT:  2.00D  GRAD.:     0.628 HEAT:  18.98039
 CYCLE:    58 TIME:   0.020 TIME LEFT:  2.00D  GRAD.:     0.451 HEAT:  18.98001
 CYCLE:    59 TIME:   0.023 TIME LEFT:  2.00D  GRAD.:     0.493 HEAT:  18.97924
 CYCLE:    60 TIME:   0.023 TIME LEFT:  2.00D  GRAD.:     0.260 HEAT:  18.97904
 CYCLE:    61 TIME:   0.023 TIME LEFT:  2.00D  GRAD.:     0.247 HEAT:  18.97885
 CYCLE:    62 TIME:   0.023 TIME LEFT:  2.00D  GRAD.:     0.221 HEAT:  18.97877
 CYCLE:    63 TIME:   0.023 TIME LEFT:  2.00D  GRAD.:     0.205 HEAT:  18.97859
 CYCLE:    64 TIME:   0.020 TIME LEFT:  2.00D  GRAD.:     0.153 HEAT:  18.97854
 CYCLE:    65 TIME:   0.023 TIME LEFT:  2.00D  GRAD.:     0.165 HEAT:  18.97845
 CYCLE:    66 TIME:   0.023 TIME LEFT:  2.00D  GRAD.:     0.134 HEAT:  18.97841
 CYCLE:    67 TIME:   0.027 TIME LEFT:  2.00D  GRAD.:     0.198 HEAT:  18.97836
 CYCLE:    68 TIME:   0.020 TIME LEFT:  2.00D  GRAD.:     0.076 HEAT:  18.97830
 CYCLE:    69 TIME:   0.023 TIME LEFT:  2.00D  GRAD.:     0.059 HEAT:  18.97829
 CYCLE:    70 TIME:   0.023 TIME LEFT:  2.00D  GRAD.:     0.069 HEAT:  18.97828
 CYCLE:    71 TIME:   0.020 TIME LEFT:  2.00D  GRAD.:     0.065 HEAT:  18.97827
 CYCLE:    72 TIME:   0.023 TIME LEFT:  2.00D  GRAD.:     0.062 HEAT:  18.97826
 CYCLE:    73 TIME:   0.023 TIME LEFT:  2.00D  GRAD.:     0.071 HEAT:  18.97824
 CYCLE:    74 TIME:   0.023 TIME LEFT:  2.00D  GRAD.:     0.090 HEAT:  18.97823
 CYCLE:    75 TIME:   0.027 TIME LEFT:  2.00D  GRAD.:     0.129 HEAT:  18.97818
 CYCLE:    76 TIME:   0.023 TIME LEFT:  2.00D  GRAD.:     0.161 HEAT:  18.97813
 CYCLE:    77 TIME:   0.023 TIME LEFT:  2.00D  GRAD.:     0.152 HEAT:  18.97804
 CYCLE:    78 TIME:   0.023 TIME LEFT:  2.00D  GRAD.:     0.080 HEAT:  18.97797
 CYCLE:    79 TIME:   0.023 TIME LEFT:  2.00D  GRAD.:     0.047 HEAT:  18.97795

     GRADIENT =  0.04669  IS LESS THAN CUTOFF =  0.05000



 -------------------------------------------------------------------------------
 pm3  precise nosym THREADS=1
 InChI=1S/C7H12/c1-3-7-5-4-6(7)2/h4-7H,3H2,1-2H3



     GEOMETRY OPTIMISED USING EIGENVECTOR FOLLOWING (EF).     
     SCF FIELD WAS ACHIEVED                                   


                              PM3 CALCULATION
                                                       MOPAC2016 (Version: 18.184L)
                                                       Thu Jun 13 16:09:20 2019
                                                       No. of days remaining =  20




          FINAL HEAT OF FORMATION =         18.97795 KCAL/MOL =      79.40375 KJ/MOL


          TOTAL ENERGY            =      -1013.65209 EV
          ELECTRONIC ENERGY       =      -4901.84925 EV  POINT GROUP:     C1  
          CORE-CORE REPULSION     =       3888.19715 EV
          COSMO AREA              =        152.10 SQUARE ANGSTROMS
          COSMO VOLUME            =        149.92 CUBIC ANGSTROMS

          GRADIENT NORM           =          0.04669 = 0.01071 PER ATOM
          IONIZATION POTENTIAL    =          9.881356 EV
          HOMO LUMO ENERGIES (EV) =         -9.881  1.052
          NO. OF FILLED LEVELS    =         20
          MOLECULAR WEIGHT        =         96.1718

          MOLECULAR DIMENSIONS (Angstroms)

            Atom       Atom       Distance
            H    18    H    12     6.23645
            H    19    H    14     4.93130
            H    10    H    16     3.15734


          SCF CALCULATIONS        =         89
 
          WALL-CLOCK TIME         =          1.934 SECONDS
          COMPUTATION TIME        =          0.578 SECONDS




   ATOM   CHEMICAL          X               Y               Z
  NUMBER   SYMBOL      (ANGSTROMS)     (ANGSTROMS)     (ANGSTROMS)
 
     1       C         -0.24303193  *   0.58471406  *  -0.28362486  *
     2       C          1.05271193  *  -0.30257214  *  -0.07047244  *
     3       C         -1.53654097  *  -0.16742693  *  -0.49282465  *
     4       C          1.85095284  *  -0.00157926  *   1.16599931  *
     5       C         -2.08277421  *  -0.70633308  *   0.81053023  *
     6       C          0.44370162  *   1.06897741  *  -1.55538989  *
     7       C          1.55647215  *   0.33626359  *  -1.35959876  *
     8       H         -0.36146487  *   1.37731216  *   0.48488130  *
     9       H          0.85744946  *  -1.39140159  *  -0.16479114  *
    10       H         -1.38532583  *  -0.99611875  *  -1.21293251  *
    11       H         -2.27448738  *   0.50929445  *  -0.96690013  *
    12       H         -3.01030391  *  -1.27056998  *   0.65154988  *
    13       H         -2.30553132  *   0.10003542  *   1.52188938  *
    14       H          2.82086197  *  -0.51460972  *   1.14383879  *
    15       H          1.31608199  *  -0.33377996  *   2.06533355  *
    16       H          2.04911539  *   1.07260473  *   1.27769706  *
    17       H         -1.36432147  *  -1.38032699  *   1.29692969  *
    18       H          2.49759329  *   0.20291086  *  -1.87535491  *
    19       H          0.09316058  *   1.76075978  *  -2.30915297  *

                             CARTESIAN COORDINATES

   1    C       -0.243031929     0.584714063    -0.283624856
   2    C        1.052711931    -0.302572142    -0.070472438
   3    C       -1.536540966    -0.167426929    -0.492824652
   4    C        1.850952841    -0.001579261     1.165999313
   5    C       -2.082774206    -0.706333082     0.810530231
   6    C        0.443701618     1.068977413    -1.555389894
   7    C        1.556472155     0.336263592    -1.359598760
   8    H       -0.361464871     1.377312158     0.484881301
   9    H        0.857449458    -1.391401586    -0.164791143
  10    H       -1.385325834    -0.996118748    -1.212932513
  11    H       -2.274487376     0.509294454    -0.966900133
  12    H       -3.010303905    -1.270569981     0.651549883
  13    H       -2.305531321     0.100035420     1.521889380
  14    H        2.820861971    -0.514609720     1.143838790
  15    H        1.316081993    -0.333779956     2.065333548
  16    H        2.049115386     1.072604732     1.277697056
  17    H       -1.364321467    -1.380326993     1.296929686
  18    H        2.497593292     0.202910857    -1.875354908
  19    H        0.093160581     1.760759778    -2.309152969


           Empirical Formula: C7 H12  =    19 atoms



      MOLECULAR POINT GROUP   :   C1  


                  EIGENVALUES  
 -40.87456 -33.42549 -29.75787 -24.69626 -21.99138 -21.01993 -17.88820 -17.11156
 -15.98629 -15.24078 -14.72675 -14.18649 -13.60921 -13.30983 -12.73321 -12.36206
 -12.07146 -11.39239 -11.18043  -9.88136   1.05229   3.19458   3.24322   3.35293
   3.79895   3.83775   3.93880   4.08113   4.18394   4.28156   4.34210   4.40095
   4.58931   4.74476   4.79210   4.92691   5.01867   5.22854   5.28280   6.20011


              NET ATOMIC CHARGES AND DIPOLE CONTRIBUTIONS

  ATOM NO.   TYPE          CHARGE      No. of ELECS.   s-Pop       p-Pop       
    1          C          -0.071817        4.0718     1.19276     2.87906
    2          C          -0.068122        4.0681     1.18866     2.87946
    3          C          -0.085388        4.0854     1.15393     2.93146
    4          C          -0.098082        4.0981     1.13398     2.96410
    5          C          -0.109599        4.1096     1.13816     2.97143
    6          C          -0.159490        4.1595     1.22008     2.93941
    7          C          -0.157897        4.1579     1.22025     2.93765
    8          H           0.080776        0.9192     0.91922
    9          H           0.078859        0.9211     0.92114
   10          H           0.053097        0.9469     0.94690
   11          H           0.050469        0.9495     0.94953
   12          H           0.037317        0.9627     0.96268
   13          H           0.037627        0.9624     0.96237
   14          H           0.040436        0.9596     0.95956
   15          H           0.040239        0.9598     0.95976
   16          H           0.042389        0.9576     0.95761
   17          H           0.039584        0.9604     0.96042
   18          H           0.124771        0.8752     0.87523
   19          H           0.124831        0.8752     0.87517
 DIPOLE           X         Y         Z       TOTAL
 POINT-CHG.    -0.090    -0.099     0.163     0.211
 HYBRID         0.040     0.033    -0.035     0.063
 SUM           -0.050    -0.067     0.128     0.152


          ATOMIC ORBITAL ELECTRON POPULATIONS

     Atom    s        px        py        pz   
    1  C   1.19276   0.93804   0.97487   0.96615
    2  C   1.18866   0.95293   0.98789   0.93864
    3  C   1.15393   0.96175   0.99700   0.97271
    4  C   1.13398   0.98982   1.01038   0.96390
    5  C   1.13816   0.99957   1.00265   0.96922
    6  C   1.22008   0.97083   0.98985   0.97874
    7  C   1.22025   0.97800   0.98501   0.97464
    8  H   0.91922
    9  H   0.92114
   10  H   0.94690
   11  H   0.94953
   12  H   0.96268
   13  H   0.96237
   14  H   0.95956
   15  H   0.95976
   16  H   0.95761
   17  H   0.96042
   18  H   0.87523
   19  H   0.87517
 *******************************************************************************
 ** Site#: 14399        For non-commercial use only    Version 18.184L 64BITS **
 *******************************************************************************
 ** Cite this program as: MOPAC2016, Version: 18.184L, James J. P. Stewart,   **
 ** Stewart Computational Chemistry, web: HTTP://OpenMOPAC.net. Days left:  20**
 *******************************************************************************
 **                                                                           **
 **                                MOPAC2016                                  **
 **                                                                           **
 *******************************************************************************

                              PM3 CALCULATION RESULTS

 *******************************************************************************
 *  CALCULATION DONE:                                Thu Jun 13 16:09:20 2019  *
 *  PM3        - The PM3 Hamiltonian to be used
 *  OLDGEO     - PREVIOUS GEOMETRY TO BE USED
 *  PRECISE    - CRITERIA TO BE INCREASED BY 100 TIMES
 *  NOSYM      - POINT-GROUP SYMMETRY SET TO C1
 *  THREADS=1  - MULTI-THREADING NOT USED
 *  T=         - A TIME OF 172800.0 SECONDS REQUESTED
 *  DUMP=N     - RESTART FILE WRITTEN EVERY  7200.000 SECONDS
 *  THERMO     - THERMODYNAMIC QUANTITIES TO BE CALCULATED
 *******************************************************************************
oldgeo thermo nosym precise THREADS=1  pm3
 InChI=1S/C7H12/c1-3-7-5-4-6(7)2/h4-7H,3H2,1-2H3

   ATOM   CHEMICAL          X               Y               Z
  NUMBER   SYMBOL      (ANGSTROMS)     (ANGSTROMS)     (ANGSTROMS)
 
     1       C         -0.24303193  *   0.58471406  *  -0.28362486  *
     2       C          1.05271193  *  -0.30257214  *  -0.07047244  *
     3       C         -1.53654097  *  -0.16742693  *  -0.49282465  *
     4       C          1.85095284  *  -0.00157926  *   1.16599931  *
     5       C         -2.08277421  *  -0.70633308  *   0.81053023  *
     6       C          0.44370162  *   1.06897741  *  -1.55538989  *
     7       C          1.55647215  *   0.33626359  *  -1.35959876  *
     8       H         -0.36146487  *   1.37731216  *   0.48488130  *
     9       H          0.85744946  *  -1.39140159  *  -0.16479114  *
    10       H         -1.38532583  *  -0.99611875  *  -1.21293251  *
    11       H         -2.27448738  *   0.50929445  *  -0.96690013  *
    12       H         -3.01030391  *  -1.27056998  *   0.65154988  *
    13       H         -2.30553132  *   0.10003542  *   1.52188938  *
    14       H          2.82086197  *  -0.51460972  *   1.14383879  *
    15       H          1.31608199  *  -0.33377996  *   2.06533355  *
    16       H          2.04911539  *   1.07260473  *   1.27769706  *
    17       H         -1.36432147  *  -1.38032699  *   1.29692969  *
    18       H          2.49759329  *   0.20291086  *  -1.87535491  *
    19       H          0.09316058  *   1.76075978  *  -2.30915297  *
 


          CARTESIAN COORDINATES 

    NO.       ATOM           X           Y           Z

     1         C         -0.2430      0.5847     -0.2836
     2         C          1.0527     -0.3026     -0.0705
     3         C         -1.5365     -0.1674     -0.4928
     4         C          1.8510     -0.0016      1.1660
     5         C         -2.0828     -0.7063      0.8105
     6         C          0.4437      1.0690     -1.5554
     7         C          1.5565      0.3363     -1.3596
     8         H         -0.3615      1.3773      0.4849
     9         H          0.8574     -1.3914     -0.1648
    10         H         -1.3853     -0.9961     -1.2129
    11         H         -2.2745      0.5093     -0.9669
    12         H         -3.0103     -1.2706      0.6515
    13         H         -2.3055      0.1000      1.5219
    14         H          2.8209     -0.5146      1.1438
    15         H          1.3161     -0.3338      2.0653
    16         H          2.0491      1.0726      1.2777
    17         H         -1.3643     -1.3803      1.2969
    18         H          2.4976      0.2029     -1.8754
    19         H          0.0932      1.7608     -2.3092

  H: (PM3): J. J. P. STEWART, J. COMP. CHEM. 10, 209 (1989).
  C: (PM3): J. J. P. STEWART, J. COMP. CHEM. 10, 209 (1989).

           Empirical Formula: C7 H12  =    19 atoms



      MOLECULAR POINT GROUP   :   C1  


      RHF CALCULATION, NO. OF DOUBLY OCCUPIED LEVELS = 20



          HEAT OF FORMATION =      18.977953 KCALS/MOLE


          CARTESIAN COORDINATE DERIVATIVES

   NUMBER  ATOM         X            Y            Z

     1       C     -0.001883     0.006653    -0.002450
     2       C      0.000315     0.004178    -0.001767
     3       C      0.002099     0.001899    -0.003719
     4       C      0.000482    -0.004458    -0.003976
     5       C     -0.006974     0.009579    -0.000430
     6       C     -0.006937     0.010069    -0.004591
     7       C     -0.007091     0.011937     0.001484
     8       H     -0.002048    -0.007430    -0.001052
     9       H      0.000692    -0.001620    -0.005903
    10       H     -0.005916    -0.009405     0.002519
    11       H      0.012773    -0.008905     0.004079
    12       H      0.008404     0.007471    -0.003684
    13       H      0.009290    -0.010739     0.006771
    14       H      0.006754    -0.007104     0.002187
    15       H     -0.008053     0.010714     0.005967
    16       H      0.003331    -0.002218     0.002969
    17       H     -0.008064     0.000420     0.000516
    18       H     -0.007962    -0.007076    -0.002545
    19       H      0.010787    -0.003967     0.003625
 


          GRADIENT NORM =   0.04674


          TIME FOR SCF CALCULATION =    0.02

          TIME FOR DERIVATIVES     =    0.01

          MOLECULAR WEIGHT =   96.17



          ROTATIONAL CONSTANTS IN CM(-1)

          A =    0.13170721   B =    0.07029212   C =    0.05124341



           PRINCIPAL MOMENTS OF INERTIA IN UNITS OF 10**(-40)*GRAM-CM**2

          A =      212.5379   B =      398.2349   C =      546.2707


          ORIENTATION OF MOLECULE IN FORCE CALCULATION

    NO.       ATOM         X         Y         Z

     1          C      -0.5824   -0.2007    0.0204
     2          C       1.0024   -0.2007    0.0204
     3          C      -1.2470    1.1561    0.0204
     4          C       1.6528   -1.0006   -1.0722
     5          C      -1.2166    1.7895   -1.3527
     6          C      -0.4631   -0.8694    1.3850
     7          C       0.8832   -0.8947    1.3724
     8          H      -1.0196   -0.8599   -0.7589
     9          H       1.4397    0.8177    0.0844
    10          H      -0.7563    1.8227    0.7572
    11          H      -2.2930    1.0452    0.3681
    12          H      -1.6804    2.7839   -1.3438
    13          H      -1.7545    1.1817   -2.0924
    14          H       2.7301   -1.1098   -0.8932
    15          H       1.5225   -0.5091   -2.0452
    16          H       1.2285   -2.0101   -1.1529
    17          H      -0.1864    1.9078   -1.7158
    18          H       1.6580   -1.2590    2.0331
    19          H      -1.2384   -1.1822    2.0710


    FIRST DERIVATIVES WILL BE USED IN THE CALCULATION OF SECOND DERIVATIVES

          ESTIMATED TIME TO COMPLETE CALCULATION =        7.12 SECONDS

    FOR POINT-GROUP C1   THERE ARE   1 UNIQUE SYMMETRY FUNCTIONS.

 STEP:   1 TIME =     0.04 SECS, INTEGRAL =      0.04 TIME LEFT: 172799.93
 STEP:   2 TIME =     0.04 SECS, INTEGRAL =      0.07 TIME LEFT: 172799.89
 STEP:   3 TIME =     0.04 SECS, INTEGRAL =      0.11 TIME LEFT: 172799.86
 STEP:   4 TIME =     0.03 SECS, INTEGRAL =      0.14 TIME LEFT: 172799.83
 STEP:   5 TIME =     0.04 SECS, INTEGRAL =      0.18 TIME LEFT: 172799.79
 STEP:   6 TIME =     0.04 SECS, INTEGRAL =      0.21 TIME LEFT: 172799.76
 STEP:   7 TIME =     0.03 SECS, INTEGRAL =      0.24 TIME LEFT: 172799.73
 STEP:   8 TIME =     0.04 SECS, INTEGRAL =      0.28 TIME LEFT: 172799.69
 STEP:   9 TIME =     0.04 SECS, INTEGRAL =      0.31 TIME LEFT: 172799.66
 STEP:  10 TIME =     0.03 SECS, INTEGRAL =      0.34 TIME LEFT: 172799.62
 STEP:  11 TIME =     0.04 SECS, INTEGRAL =      0.38 TIME LEFT: 172799.59
 STEP:  12 TIME =     0.04 SECS, INTEGRAL =      0.41 TIME LEFT: 172799.55
 STEP:  13 TIME =     0.03 SECS, INTEGRAL =      0.45 TIME LEFT: 172799.52
 STEP:  14 TIME =     0.04 SECS, INTEGRAL =      0.48 TIME LEFT: 172799.49
 STEP:  15 TIME =     0.04 SECS, INTEGRAL =      0.52 TIME LEFT: 172799.45
 STEP:  16 TIME =     0.04 SECS, INTEGRAL =      0.55 TIME LEFT: 172799.42
 STEP:  17 TIME =     0.04 SECS, INTEGRAL =      0.59 TIME LEFT: 172799.38
 STEP:  18 TIME =     0.04 SECS, INTEGRAL =      0.62 TIME LEFT: 172799.35
 STEP:  19 TIME =     0.04 SECS, INTEGRAL =      0.66 TIME LEFT: 172799.31
 STEP:  20 TIME =     0.04 SECS, INTEGRAL =      0.69 TIME LEFT: 172799.28
 STEP:  21 TIME =     0.04 SECS, INTEGRAL =      0.73 TIME LEFT: 172799.24
 STEP:  22 TIME =     0.04 SECS, INTEGRAL =      0.76 TIME LEFT: 172799.21
 STEP:  23 TIME =     0.04 SECS, INTEGRAL =      0.80 TIME LEFT: 172799.17
 STEP:  24 TIME =     0.04 SECS, INTEGRAL =      0.83 TIME LEFT: 172799.14
 STEP:  25 TIME =     0.04 SECS, INTEGRAL =      0.87 TIME LEFT: 172799.10
 STEP:  26 TIME =     0.04 SECS, INTEGRAL =      0.90 TIME LEFT: 172799.07
 STEP:  27 TIME =     0.04 SECS, INTEGRAL =      0.94 TIME LEFT: 172799.03
 STEP:  28 TIME =     0.04 SECS, INTEGRAL =      0.97 TIME LEFT: 172799.00
 STEP:  29 TIME =     0.04 SECS, INTEGRAL =      1.01 TIME LEFT: 172798.96
 STEP:  30 TIME =     0.04 SECS, INTEGRAL =      1.04 TIME LEFT: 172798.93
 STEP:  31 TIME =     0.04 SECS, INTEGRAL =      1.08 TIME LEFT: 172798.89
 STEP:  32 TIME =     0.04 SECS, INTEGRAL =      1.11 TIME LEFT: 172798.86
 STEP:  33 TIME =     0.04 SECS, INTEGRAL =      1.15 TIME LEFT: 172798.82
 STEP:  34 TIME =     0.04 SECS, INTEGRAL =      1.18 TIME LEFT: 172798.79
 STEP:  35 TIME =     0.04 SECS, INTEGRAL =      1.22 TIME LEFT: 172798.75
 STEP:  36 TIME =     0.04 SECS, INTEGRAL =      1.25 TIME LEFT: 172798.71
 STEP:  37 TIME =     0.04 SECS, INTEGRAL =      1.29 TIME LEFT: 172798.68
 STEP:  38 TIME =     0.04 SECS, INTEGRAL =      1.32 TIME LEFT: 172798.64
 STEP:  39 TIME =     0.04 SECS, INTEGRAL =      1.36 TIME LEFT: 172798.61
 STEP:  40 TIME =     0.03 SECS, INTEGRAL =      1.39 TIME LEFT: 172798.58
 STEP:  41 TIME =     0.04 SECS, INTEGRAL =      1.43 TIME LEFT: 172798.54
 STEP:  42 TIME =     0.04 SECS, INTEGRAL =      1.46 TIME LEFT: 172798.51
 STEP:  43 TIME =     0.04 SECS, INTEGRAL =      1.50 TIME LEFT: 172798.47
 STEP:  44 TIME =     0.04 SECS, INTEGRAL =      1.53 TIME LEFT: 172798.44
 STEP:  45 TIME =     0.03 SECS, INTEGRAL =      1.56 TIME LEFT: 172798.41
 STEP:  46 TIME =     0.04 SECS, INTEGRAL =      1.60 TIME LEFT: 172798.37
 STEP:  47 TIME =     0.04 SECS, INTEGRAL =      1.63 TIME LEFT: 172798.34
 STEP:  48 TIME =     0.04 SECS, INTEGRAL =      1.67 TIME LEFT: 172798.30
 STEP:  49 TIME =     0.04 SECS, INTEGRAL =      1.70 TIME LEFT: 172798.27
 STEP:  50 TIME =     0.04 SECS, INTEGRAL =      1.74 TIME LEFT: 172798.23
 STEP:  51 TIME =     0.04 SECS, INTEGRAL =      1.77 TIME LEFT: 172798.20
 STEP:  52 TIME =     0.04 SECS, INTEGRAL =      1.81 TIME LEFT: 172798.16
 STEP:  53 TIME =     0.04 SECS, INTEGRAL =      1.84 TIME LEFT: 172798.12
 STEP:  54 TIME =     0.04 SECS, INTEGRAL =      1.88 TIME LEFT: 172798.09
 STEP:  55 TIME =     0.04 SECS, INTEGRAL =      1.91 TIME LEFT: 172798.05
 STEP:  56 TIME =     0.04 SECS, INTEGRAL =      1.95 TIME LEFT: 172798.02
 STEP:  57 TIME =     0.04 SECS, INTEGRAL =      1.99 TIME LEFT: 172797.98

(To convert to Hartree/Bohr^2, multiply by (10^(-21) x N x a0^2)/(4.184 x 627.51) =  0.0642)


           FORCE MATRIX IN MILLIDYNES/ANGSTROM


                  C  1       C  2       C  3       C  4       C  5       C  6
 ------------------------------------------------------------------------------
     C    1  14.360019
     C    2   2.603759  14.392727
     C    3   4.398850   0.485461  14.516284
     C    4   0.497641   4.706050   0.028847  14.536305
     C    5   0.673412   0.027591   4.458006   0.002485  14.371396
     C    6   3.925230   2.229327   0.547170   0.050319   0.050207  18.377250
     C    7   2.230215   3.919369   0.048086   0.561150   0.008133  10.391404
     H    8   4.408751   0.422970   0.435195   0.026253   0.029043   0.413250
     H    9   0.422088   4.413316   0.025964   0.427990   0.007024   0.043353
     H   10   0.449754   0.022492   4.453994   0.001105   0.437024   0.014525
     H   11   0.432549   0.043640   4.464331   0.005606   0.440623   0.016206
     H   12   0.052439   0.001919   0.450364   0.000258   4.756572   0.009105
     H   13   0.023886   0.002203   0.463512   0.000659   4.725004   0.001494
     H   14   0.044785   0.452736   0.005494   4.748456   0.000468   0.003729
     H   15   0.010420   0.451054   0.001933   4.735950   0.001652   0.006023
     H   16   0.018949   0.468624   0.001006   4.734037   0.000393   0.002467
     H   17   0.021679   0.005661   0.462695   0.002587   4.712782   0.001602
     H   18   0.113599   0.340816   0.016153   0.008710   0.002212   0.423817
     H   19   0.341337   0.114512   0.010604   0.016671   0.002342   5.278225


                  C  7       H  8       H  9       H 10       H 11       H 12
 ------------------------------------------------------------------------------
     C    7  18.372268
     H    8   0.042998   4.927211
     H    9   0.413919   0.022515   4.929214
     H   10   0.002895   0.042768   0.023503   5.065687
     H   11   0.003410   0.023564   0.002403   0.569595   5.071084
     H   12   0.001416   0.002055   0.000530   0.030969   0.027824   5.491162
     H   13   0.000962   0.019895   0.000564   0.047673   0.025075   0.571891
     H   14   0.010958   0.002323   0.027992   0.000439   0.001202   0.000123
     H   15   0.047855   0.003603   0.028752   0.000313   0.000389   0.000245
     H   16   0.013255   0.018934   0.044911   0.000473   0.000374   0.000142
     H   17   0.000810   0.002149   0.007974   0.023766   0.048569   0.568478
     H   18   5.280444   0.013844   0.005658   0.001241   0.001144   0.000456
     H   19   0.423635   0.005721   0.014294   0.002029   0.004154   0.000571


                  H 13       H 14       H 15       H 16       H 17       H 18
 ------------------------------------------------------------------------------
     H   13   5.468054
     H   14   0.000212   5.472043
     H   15   0.000591   0.565249   5.456400
     H   16   0.000292   0.571725   0.569220   5.465551
     H   17   0.575807   0.000196   0.006960   0.000271   5.446252
     H   18   0.000197   0.003112   0.001595   0.002219   0.000379   5.665613
     H   19   0.000592   0.001149   0.002482   0.001316   0.000642   0.030438


                  H 19
 ------------------
     H   19   5.664463


          HEAT OF FORMATION =      18.977953 KCALS/MOLE

          ZERO POINT ENERGY     106.810 KCAL/MOL


           NORMAL COORDINATE ANALYSIS (Total motion = 1 Angstrom)


   Root No.       1         2         3         4         5         6         7         8

                 1 A       2 A       3 A       4 A       5 A       6 A       7 A       8 A   

                  89.9     131.8     175.9     187.1     286.6     310.7     350.5     427.5
  
           1   -0.0156   -0.0067   -0.0036   -0.0078    0.0073   -0.0338    0.0152   -0.0191
           2   -0.0178    0.0048    0.0005   -0.0115    0.0046   -0.0237   -0.0324   -0.0229
           3    0.0060    0.0266    0.0078   -0.0075    0.0055   -0.0019   -0.0187    0.0208
           4   -0.0158   -0.0076   -0.0032   -0.0069    0.0106   -0.0327    0.0105   -0.0240
           5    0.0066    0.0003   -0.0013    0.0071   -0.0282   -0.0200   -0.0232    0.0029
           6   -0.0134    0.0176   -0.0038   -0.0088    0.0004   -0.0298    0.0140    0.0077
           7   -0.0324    0.0071   -0.0078   -0.0066   -0.0296    0.0237    0.0311    0.0192
           8   -0.0262    0.0102   -0.0019   -0.0105   -0.0130    0.0060   -0.0277    0.0025
           9   -0.0056   -0.0036   -0.0010    0.0031   -0.0209    0.0161   -0.0147   -0.0418
          10   -0.0192   -0.0187    0.0010    0.0071    0.0291    0.0428   -0.0165   -0.0095
          11    0.0008    0.0523    0.0050   -0.0026   -0.0026    0.0102    0.0167    0.0063
          12   -0.0112   -0.0253   -0.0061    0.0067   -0.0080   -0.0053   -0.0307    0.0199
          13    0.0565    0.0276    0.0012    0.0073   -0.0180    0.0084   -0.0058   -0.0120
          14    0.0089   -0.0366   -0.0071    0.0009    0.0270   -0.0078    0.0139    0.0472
          15    0.0125   -0.0262   -0.0033    0.0090   -0.0014    0.0111    0.0059   -0.0307
          16    0.0114   -0.0021    0.0060    0.0013    0.0030   -0.0125   -0.0146    0.0224
          17    0.0032   -0.0029    0.0080   -0.0059    0.0462    0.0150    0.0126   -0.0387
          18    0.0141    0.0216    0.0108   -0.0056    0.0278    0.0151    0.0066    0.0249
          19    0.0118   -0.0024    0.0055    0.0018    0.0008   -0.0131   -0.0136    0.0229
          20    0.0249   -0.0325   -0.0023    0.0225   -0.0379    0.0102    0.0252   -0.0094
          21   -0.0018    0.0011   -0.0036   -0.0004   -0.0052   -0.0135    0.0401    0.0017
          22   -0.0151   -0.0103   -0.0097   -0.0071    0.0092   -0.0668    0.0232   -0.0308
          23   -0.0337   -0.0010   -0.0067   -0.0093   -0.0232   -0.0248   -0.0385   -0.0385
          24    0.0193    0.0325    0.0170   -0.0086    0.0276    0.0205   -0.0166    0.0414
          25   -0.0307   -0.0074   -0.0021   -0.0180    0.0156   -0.0616    0.0086   -0.0463
          26    0.0144   -0.0012   -0.0018    0.0128   -0.0314   -0.0045   -0.0212    0.0135
          27   -0.0339    0.0526    0.0012   -0.0234    0.0261   -0.0372    0.0149   -0.0006
          28   -0.0896    0.0127   -0.0165   -0.0038   -0.0776    0.0836    0.0532    0.0496
          29   -0.0394    0.0250    0.0026   -0.0217   -0.0088   -0.0119   -0.0435   -0.0014
          30    0.0444   -0.0210    0.0006    0.0117    0.0070   -0.0064   -0.0137   -0.0572
          31   -0.0547    0.0039   -0.0103   -0.0085   -0.0378    0.0319    0.0382    0.0205
          32   -0.0464    0.0353   -0.0050   -0.0048   -0.0567    0.0610   -0.0251    0.0418
          33   -0.0797   -0.0062   -0.0093   -0.0016   -0.0571    0.0574    0.0086   -0.0260
          34    0.0393    0.0809   -0.0275    0.2011    0.0178   -0.0194   -0.0204   -0.0255
          35    0.0010   -0.0117   -0.0204    0.0907    0.0439   -0.0207    0.0072    0.0421
          36    0.0042   -0.0571   -0.0171    0.0573    0.0377   -0.0011    0.0564    0.0304
          37    0.1203   -0.0114    0.0334   -0.1688   -0.0470    0.0263   -0.0166   -0.0268
          38    0.0183   -0.0338   -0.0259    0.1137    0.0723   -0.0319    0.0342    0.0775
          39   -0.0414   -0.0003   -0.0114    0.0448   -0.0169    0.0178   -0.0024   -0.0437
          40   -0.0149   -0.0106   -0.0406   -0.0006    0.0329    0.0412   -0.0119   -0.0119
          41    0.0202    0.0729   -0.1943   -0.0265    0.0290    0.0696   -0.0015    0.0142
          42   -0.0256   -0.0619    0.1254    0.0394   -0.0102    0.0452   -0.0741    0.0403
          43   -0.0413   -0.0608    0.2129    0.0473    0.0139    0.0634   -0.0453    0.0039
          44   -0.0149    0.0847    0.1274    0.0039    0.0013    0.0029    0.0738   -0.0006
          45   -0.0161   -0.0037    0.0274    0.0045   -0.0040   -0.0117    0.0005    0.0151
          46   -0.0048    0.0037   -0.1563   -0.0122    0.0599    0.1008   -0.0282   -0.0024
          47   -0.0069    0.0449    0.0836    0.0068   -0.0145   -0.0116    0.0255    0.0032
          48    0.0095   -0.0486   -0.1689   -0.0099   -0.0155   -0.0237   -0.0763    0.0204
          49    0.0807    0.0310    0.0050    0.0023   -0.0173    0.0055   -0.0172   -0.0258
          50    0.0355   -0.1054    0.0208   -0.1953    0.0030    0.0169    0.0435    0.0819
          51    0.0895   -0.0398    0.0168   -0.0705   -0.0063    0.0108   -0.0160   -0.0562
          52    0.0257   -0.0007    0.0103    0.0072   -0.0062   -0.0005   -0.0287    0.0494
          53    0.0472   -0.0619   -0.0079    0.0466   -0.0892    0.0287    0.0788   -0.0043
          54   -0.0059   -0.0171   -0.0123    0.0066   -0.0252   -0.0181    0.0872   -0.0260
          55    0.0250    0.0015    0.0111    0.0056    0.0010    0.0007   -0.0315    0.0484
          56   -0.0001    0.0055    0.0170   -0.0184    0.1209    0.0468    0.0438   -0.0860
          57    0.0279    0.0295    0.0207   -0.0066    0.0597    0.0445    0.0018    0.0325


   Root No.       9        10        11        12        13        14        15        16

                 9 A      10 A      11 A      12 A      13 A      14 A      15 A      16 A   

                 564.6     763.9     792.2     833.0     878.7     936.9     942.3     969.3
  
           1    0.0068   -0.0189   -0.0253   -0.0019    0.0309   -0.0052   -0.0128   -0.0142
           2   -0.0217   -0.0079   -0.0114   -0.0004    0.0185   -0.0084    0.0148    0.0133
           3   -0.0260   -0.0273   -0.0010    0.0320    0.0072    0.0034    0.0061    0.0198
           4   -0.0087   -0.0027    0.0293    0.0303   -0.0209   -0.0011    0.0041    0.0033
           5    0.0425   -0.0176    0.0048    0.0331    0.0010    0.0115   -0.0101    0.0009
           6    0.0036    0.0162    0.0103   -0.0073   -0.0106   -0.0095    0.0022    0.0002
           7    0.0265   -0.0230   -0.0294    0.0008   -0.0090   -0.0029    0.0052    0.0020
           8   -0.0324    0.0136   -0.0060   -0.0078   -0.0121    0.0024   -0.0098   -0.0039
           9   -0.0047    0.0055   -0.0044   -0.0038   -0.0059    0.0007   -0.0076   -0.0018
          10   -0.0276   -0.0089    0.0137    0.0197   -0.0145    0.0005   -0.0039    0.0012
          11    0.0150    0.0051   -0.0045    0.0006    0.0010    0.0162    0.0018   -0.0050
          12    0.0327    0.0189   -0.0032   -0.0179   -0.0082   -0.0253    0.0155    0.0040
          13    0.0058   -0.0037   -0.0051    0.0007   -0.0076    0.0018    0.0070    0.0112
          14   -0.0109    0.0054    0.0011   -0.0009   -0.0081    0.0039   -0.0181   -0.0269
          15    0.0128   -0.0028   -0.0001   -0.0039   -0.0017    0.0010    0.0059   -0.0015
          16   -0.0003    0.0257    0.0014   -0.0267   -0.0018    0.0143    0.0030    0.0060
          17    0.0326   -0.0094    0.0137   -0.0329   -0.0040    0.0150    0.0393   -0.0121
          18   -0.0024   -0.0286   -0.0022    0.0175    0.0079   -0.0141   -0.0042   -0.0314
          19   -0.0015    0.0257    0.0010   -0.0274   -0.0018    0.0118    0.0010    0.0083
          20   -0.0182   -0.0246    0.0116   -0.0081   -0.0086   -0.0278   -0.0221    0.0109
          21   -0.0298    0.0000    0.0030   -0.0307    0.0072    0.0324   -0.0337    0.0118
          22    0.0282   -0.0168   -0.0122    0.0219    0.0531   -0.0571   -0.0673   -0.0648
          23   -0.0434    0.0213   -0.0396   -0.0082    0.0253   -0.0462   -0.0149    0.0407
          24   -0.0195   -0.0515    0.0178    0.0260   -0.0132    0.0646    0.0614    0.0250
          25   -0.0269   -0.0089    0.0315    0.0487    0.0064   -0.0562    0.0600   -0.0187
          26    0.0485   -0.0172    0.0021    0.0208   -0.0089    0.0333   -0.0385    0.0141
          27    0.0216    0.0584    0.0121    0.0275   -0.0215   -0.0034    0.0793   -0.0629
          28    0.0648    0.0329    0.1052    0.0149    0.0523    0.0005    0.0046   -0.0143
          29   -0.0557    0.0000   -0.0224    0.0053    0.0376   -0.0131   -0.0055    0.0392
          30   -0.0067   -0.0185   -0.0741   -0.0239   -0.0876    0.0125   -0.0102   -0.0286
          31    0.0367   -0.0129   -0.0019    0.0013    0.0305   -0.0110   -0.0003   -0.0102
          32   -0.0187    0.0640    0.1044    0.0154   -0.0196    0.0292   -0.0014    0.0242
          33    0.0292    0.0477    0.1043    0.0040    0.1021   -0.0142   -0.0179   -0.0248
          34   -0.0045    0.0162    0.0278   -0.0014    0.0351   -0.0052   -0.0139   -0.0198
          35   -0.0160    0.0143    0.0164   -0.0012    0.0118    0.0007   -0.0272   -0.0393
          36    0.0492   -0.0504   -0.0061    0.0344    0.0338   -0.0146    0.1080    0.1747
          37   -0.0008    0.0207    0.0344   -0.0016    0.0361   -0.0066   -0.0132   -0.0200
          38    0.0021   -0.0035    0.0362    0.0259    0.0662   -0.0166    0.0292    0.0687
          39    0.0074   -0.0131   -0.0548   -0.0230   -0.0899    0.0231   -0.0168   -0.0544
          40   -0.0325   -0.0071    0.0196    0.0183   -0.0229   -0.0134   -0.0017    0.0051
          41   -0.0123    0.0071   -0.0448   -0.0697    0.0573   -0.0167    0.0114    0.0089
          42    0.0418    0.0064   -0.0678   -0.0542    0.0865    0.0443    0.0071   -0.0108
          43   -0.0157   -0.0267   -0.0236    0.0203    0.0465    0.0773   -0.0230   -0.0140
          44   -0.0252    0.0302    0.0093   -0.0693   -0.0273   -0.1226    0.0327    0.0299
          45    0.0122    0.0341    0.0079   -0.0522   -0.0296   -0.1027    0.0341    0.0225
          46   -0.0612   -0.0088   -0.0248   -0.0513    0.0437   -0.0373    0.0011    0.0151
          47    0.0236    0.0062    0.0104    0.0212   -0.0218    0.0199    0.0017   -0.0068
          48    0.0829    0.0046    0.0046    0.0701   -0.0169    0.0974   -0.0008   -0.0323
          49   -0.0013    0.0157    0.0270   -0.0015    0.0310   -0.0057   -0.0086   -0.0140
          50    0.0095   -0.0236   -0.0178    0.0173   -0.0169    0.0026    0.0318    0.0637
          51   -0.0007    0.0396    0.0789   -0.0036    0.0967   -0.0190   -0.0184   -0.0385
          52    0.0031    0.0285   -0.0249   -0.0236    0.0162   -0.0707    0.0180   -0.0403
          53   -0.0995    0.1422   -0.0932    0.1396    0.0381   -0.0166    0.1746   -0.0818
          54   -0.0806    0.0895   -0.0236    0.0458    0.0112    0.1358    0.0540    0.0176
          55   -0.0038    0.0365    0.0134    0.0067   -0.0331   -0.0436    0.0009   -0.0163
          56    0.1053    0.1808   -0.0724    0.0972    0.0057   -0.0069   -0.1446    0.1108
          57    0.0262    0.0698   -0.0273    0.1163   -0.0232   -0.0890   -0.0915   -0.0006


   Root No.      17        18        19        20        21        22        23        24

                17 A      18 A      19 A      20 A      21 A      22 A      23 A      24 A   

                 996.9    1022.0    1033.5    1044.7    1118.6    1122.4    1139.3    1151.0
  
           1   -0.0081    0.0097    0.0027    0.0095    0.0154    0.0068   -0.0250    0.0154
           2    0.0034   -0.0027    0.0012    0.0033    0.0071    0.0127   -0.0322    0.0246
           3   -0.0023    0.0214    0.0016   -0.0031   -0.0125   -0.0002    0.0057   -0.0063
           4    0.0075    0.0120   -0.0106   -0.0120   -0.0123   -0.0123    0.0166   -0.0418
           5    0.0035    0.0154   -0.0092    0.0077   -0.0049   -0.0054    0.0256    0.0330
           6    0.0062   -0.0042    0.0049   -0.0026   -0.0026   -0.0064    0.0228   -0.0125
           7   -0.0130   -0.0070   -0.0109   -0.0175   -0.0047   -0.0336    0.0064    0.0044
           8   -0.0046   -0.0066    0.0002    0.0000    0.0130   -0.0207    0.0124   -0.0030
           9   -0.0027   -0.0043   -0.0002    0.0016   -0.0483    0.0070    0.0129   -0.0024
          10   -0.0170   -0.0102    0.0099    0.0126    0.0036    0.0050   -0.0068    0.0157
          11   -0.0030   -0.0120    0.0045   -0.0064   -0.0000    0.0016   -0.0278   -0.0304
          12   -0.0132    0.0098   -0.0088    0.0031    0.0003    0.0031   -0.0177   -0.0054
          13    0.0113    0.0001    0.0067    0.0118    0.0042    0.0382    0.0041   -0.0061
          14   -0.0026    0.0149   -0.0027   -0.0045   -0.0080    0.0193    0.0016   -0.0038
          15    0.0026    0.0036    0.0007   -0.0001    0.0544   -0.0095   -0.0029   -0.0051
          16    0.0008   -0.0031   -0.0024    0.0005   -0.0012    0.0018    0.0002    0.0096
          17   -0.0006   -0.0055   -0.0092    0.0101   -0.0078   -0.0026    0.0121   -0.0073
          18    0.0012   -0.0102    0.0032    0.0195   -0.0053   -0.0051   -0.0016   -0.0005
          19   -0.0005   -0.0007    0.0050    0.0011   -0.0033   -0.0009    0.0051    0.0019
          20    0.0078   -0.0062    0.0087   -0.0252    0.0035    0.0057   -0.0030    0.0014
          21    0.0012   -0.0095    0.0148    0.0044    0.0040    0.0006   -0.0083    0.0102
          22    0.0719    0.0070    0.0002    0.1211    0.0295   -0.0268    0.0820   -0.0159
          23    0.0092   -0.1020   -0.0051    0.0440   -0.0858   -0.0035   -0.0379   -0.0318
          24   -0.0522    0.1062    0.0083   -0.1003    0.0554    0.0309   -0.0493    0.0587
          25    0.0934    0.0285    0.0209   -0.1099   -0.0301    0.0063   -0.1045   -0.0457
          26   -0.0373    0.0140   -0.0293    0.0570    0.0011   -0.0162    0.0723    0.0227
          27    0.0536   -0.0934    0.1037   -0.1177    0.0328    0.0406    0.1133    0.2108
          28    0.0393    0.0327    0.0158    0.0297   -0.0127    0.0210   -0.0736    0.0422
          29   -0.0682   -0.0463   -0.0202   -0.0306    0.1385    0.0405    0.1451   -0.1089
          30    0.0205    0.0055    0.0012   -0.0003   -0.1558   -0.0841   -0.0532    0.0698
          31   -0.0329   -0.0101   -0.0225   -0.0292   -0.0175    0.0408    0.0181    0.0005
          32    0.0979    0.0405    0.0662    0.0979    0.0670   -0.1283   -0.0549    0.0141
          33   -0.0297   -0.0005   -0.0129   -0.0036   -0.0711    0.1955    0.0284   -0.0105
          34   -0.0238   -0.0018   -0.0126   -0.0183   -0.0129   -0.0293    0.0001    0.0057
          35   -0.0185    0.0135   -0.0111   -0.0176   -0.0166   -0.0119    0.0012    0.0004
          36    0.0330   -0.0673    0.0292    0.0433    0.0416   -0.0169    0.0071    0.0051
          37   -0.0223   -0.0014   -0.0122   -0.0176   -0.0143   -0.0292   -0.0030    0.0074
          38   -0.0197   -0.0430   -0.0027   -0.0030   -0.0747   -0.0488    0.0149    0.0079
          39    0.0392    0.0506    0.0140    0.0190    0.1235    0.0927   -0.0076   -0.0240
          40   -0.0256   -0.0059    0.0085    0.0199    0.0042    0.0064   -0.0054    0.0278
          41    0.0627    0.0470   -0.0362   -0.0396   -0.0152   -0.0151    0.0231   -0.0369
          42    0.0944    0.0245   -0.0267   -0.0694   -0.0173   -0.0197    0.0153   -0.0860
          43    0.0562   -0.0187    0.0122   -0.0319   -0.0077   -0.0120    0.0308   -0.0226
          44   -0.0334    0.0614   -0.0405    0.0256   -0.0007    0.0045   -0.0102    0.0246
          45   -0.0369    0.0464   -0.0308    0.0231    0.0015    0.0069   -0.0145    0.0250
          46    0.0576    0.0533   -0.0296   -0.0151   -0.0117   -0.0160    0.0755    0.0347
          47   -0.0320   -0.0290    0.0150    0.0061    0.0050    0.0093   -0.0565   -0.0332
          48   -0.0276   -0.0794    0.0442   -0.0184    0.0081    0.0138   -0.0948   -0.0836
          49   -0.0184   -0.0028   -0.0098   -0.0146    0.0050   -0.0237   -0.0026    0.0046
          50    0.0300   -0.0139    0.0207    0.0343   -0.0352    0.0616    0.0160   -0.0104
          51   -0.0648   -0.0139   -0.0348   -0.0585    0.0512   -0.1667   -0.0181    0.0229
          52   -0.0182   -0.0063    0.1766    0.0100   -0.0029   -0.0224    0.0139   -0.0501
          53   -0.0236    0.0256    0.0410    0.0447   -0.0074   -0.0160    0.0186   -0.0286
          54    0.0050    0.0139   -0.1672    0.0330   -0.0031    0.0130   -0.0061    0.0533
          55    0.0491   -0.0839   -0.1512   -0.0163    0.0507    0.0254   -0.0382    0.0225
          56   -0.0159    0.0643    0.0818   -0.0394   -0.0111   -0.0021    0.0031    0.0077
          57    0.0487   -0.0693   -0.1226   -0.0215    0.0508    0.0209   -0.0484    0.0194


   Root No.      25        26        27        28        29        30        31        32

                25 A      26 A      27 A      28 A      29 A      30 A      31 A      32 A   

                1165.5    1185.6    1193.6    1223.3    1276.1    1341.5    1378.7    1397.4
  
           1   -0.0365   -0.0010   -0.0047   -0.0401   -0.0139    0.0097    0.0169   -0.0008
           2    0.0161   -0.0129   -0.0276    0.0123    0.0167    0.0098   -0.0233   -0.0009
           3    0.0310    0.0330   -0.0367    0.0061   -0.0306   -0.0137    0.0172    0.0012
           4   -0.0020   -0.0203   -0.0121   -0.0261    0.0203   -0.0251   -0.0068    0.0064
           5    0.0117   -0.0271    0.0413    0.0110   -0.0125   -0.0083    0.0005   -0.0029
           6    0.0079   -0.0239   -0.0271    0.0066    0.0140    0.0533   -0.0001   -0.0118
           7    0.0153    0.0045   -0.0026    0.0109   -0.0109    0.0030    0.0005   -0.0025
           8   -0.0300   -0.0012    0.0102    0.0185    0.0397   -0.0147    0.0024    0.0047
           9   -0.0381    0.0078    0.0072   -0.0067   -0.0283    0.0109   -0.0158    0.0007
          10    0.0055    0.0041    0.0040    0.0101   -0.0052   -0.0075   -0.0057   -0.0290
          11   -0.0073    0.0121   -0.0044    0.0043    0.0015    0.0145    0.0056   -0.0244
          12   -0.0054    0.0130    0.0087   -0.0008   -0.0035    0.0110    0.0109    0.0116
          13   -0.0041   -0.0037    0.0035   -0.0007    0.0054   -0.0015    0.0039   -0.0008
          14    0.0111    0.0040   -0.0029   -0.0053   -0.0113   -0.0009    0.0120   -0.0027
          15    0.0228   -0.0020    0.0026   -0.0016    0.0007    0.0052   -0.0287    0.0029
          16    0.0063    0.0107    0.0128    0.0024    0.0096    0.0038   -0.0044   -0.0002
          17    0.0046   -0.0017   -0.0103    0.0067   -0.0251   -0.0029    0.0080   -0.0006
          18   -0.0010   -0.0005    0.0436   -0.0226    0.0435    0.0064   -0.0121    0.0005
          19    0.0108    0.0141    0.0024    0.0031    0.0084    0.0090   -0.0000   -0.0015
          20   -0.0027    0.0257   -0.0162   -0.0144    0.0124    0.0136    0.0009   -0.0012
          21    0.0013   -0.0316    0.0152    0.0232   -0.0239   -0.0330   -0.0032    0.0036
          22   -0.0438    0.1676   -0.0891    0.1695    0.0036   -0.0316   -0.0217    0.0098
          23    0.1969   -0.0226    0.0422   -0.1330   -0.0394   -0.0126    0.0403   -0.0019
          24   -0.1174   -0.0563   -0.0482    0.0058    0.0092    0.0289   -0.0144   -0.0040
          25    0.0132    0.0339    0.2258    0.1266   -0.0565    0.0227    0.0204   -0.0121
          26    0.0052   -0.0574   -0.0633   -0.0535    0.0236   -0.0221   -0.0116    0.0030
          27   -0.0005    0.0843   -0.0260   -0.0871   -0.0118   -0.0672    0.0012    0.0135
          28    0.0585   -0.0142   -0.0509    0.0067    0.0267    0.0004   -0.1109    0.0231
          29   -0.0526    0.0380    0.0995   -0.0252   -0.0899    0.0247   -0.0027   -0.0064
          30   -0.0504   -0.0151   -0.0435    0.0351    0.0652   -0.0242    0.0775   -0.0091
          31    0.0265   -0.0090   -0.0101    0.0380    0.0343   -0.0140    0.0250   -0.0034
          32   -0.0798    0.0280    0.0135   -0.1208   -0.0992    0.0320    0.0774   -0.0198
          33   -0.0235   -0.0258   -0.0120    0.0277    0.0662   -0.0277    0.1136   -0.0157
          34   -0.0021    0.0038   -0.0051    0.0020   -0.0133    0.0133   -0.0399    0.0131
          35    0.0092    0.0086   -0.0056   -0.0061   -0.0251    0.0094   -0.0172    0.0049
          36   -0.0623   -0.0204    0.0135    0.0379    0.1026   -0.0464    0.1029   -0.0050
          37    0.0040    0.0029   -0.0056    0.0019   -0.0120    0.0098   -0.0542    0.0057
          38   -0.0674    0.0083    0.0087   -0.0019   -0.0296    0.0221   -0.0649    0.0018
          39    0.0790   -0.0105   -0.0006   -0.0037    0.0332   -0.0253    0.0894   -0.0057
          40    0.0094    0.0011    0.0120    0.0175   -0.0100    0.0169    0.0069    0.0489
          41   -0.0080   -0.0184   -0.0028   -0.0417    0.0152   -0.0677   -0.0121    0.2052
          42   -0.0226   -0.0014   -0.0335   -0.0600    0.0321   -0.1269   -0.0533   -0.2285
          43    0.0111   -0.0344   -0.0173    0.0138    0.0061    0.0954    0.0363    0.3187
          44   -0.0078    0.0215    0.0307   -0.0239   -0.0039   -0.1194   -0.0331    0.1286
          45   -0.0076    0.0251    0.0267   -0.0183   -0.0061   -0.0805   -0.0191    0.0313
          46    0.0180   -0.0488    0.0156    0.0056   -0.0006    0.0717    0.0203   -0.0634
          47   -0.0108    0.0298   -0.0046    0.0045   -0.0012   -0.0203   -0.0044    0.0055
          48   -0.0255    0.0628   -0.0342   -0.0071    0.0115   -0.0838   -0.0329    0.1332
          49    0.0100   -0.0012   -0.0034    0.0076    0.0164   -0.0135    0.0486   -0.0056
          50   -0.0516    0.0006    0.0111   -0.0086   -0.0167    0.0175   -0.0410    0.0127
          51    0.0423    0.0029   -0.0120    0.0221    0.0394   -0.0309    0.1134   -0.0099
          52   -0.0022   -0.1271   -0.0331    0.0532   -0.0614   -0.0487    0.0003    0.0043
          53   -0.0018   -0.0568   -0.0250    0.0163   -0.0202   -0.0052    0.0015   -0.0002
          54    0.0186    0.0862    0.0540   -0.0173    0.0421    0.0229   -0.0047   -0.0026
          55   -0.0465   -0.0728   -0.0775    0.0391   -0.0961   -0.0201    0.0161    0.0001
          56    0.0261    0.0344    0.0129    0.0010    0.0295    0.0107   -0.0054   -0.0011
          57   -0.0499   -0.0800   -0.0457    0.0161   -0.0493   -0.0169    0.0042    0.0011


   Root No.      33        34        35        36        37        38        39        40

                33 A      34 A      35 A      36 A      37 A      38 A      39 A      40 A   

                1404.7    1407.6    1411.2    1415.9    1429.5    1451.7    1778.3    2948.3
  
           1   -0.0021   -0.0016    0.0039    0.0179    0.0071    0.0372    0.0046   -0.0107
           2    0.0014    0.0052   -0.0060   -0.0279   -0.0186   -0.0484   -0.0150   -0.0161
           3    0.0005   -0.0033    0.0029    0.0137    0.0159    0.0221    0.0184   -0.0198
           4    0.0007   -0.0042    0.0003    0.0056    0.0145   -0.0415   -0.0046    0.0060
           5    0.0002    0.0018   -0.0003   -0.0017   -0.0043    0.0157   -0.0055    0.0153
           6   -0.0010    0.0062   -0.0021   -0.0156   -0.0296    0.0545    0.0231    0.0006
           7    0.0026    0.0045   -0.0024   -0.0227   -0.0060   -0.0188   -0.0017    0.0198
           8   -0.0026   -0.0080    0.0014    0.0313    0.0275    0.0421    0.0063    0.0102
           9   -0.0085   -0.0020    0.0028    0.0190   -0.0358   -0.0200   -0.0044    0.0056
          10    0.0028   -0.0183   -0.0016   -0.0124   -0.0157    0.0247    0.0017   -0.0006
          11   -0.0010    0.0108    0.0023    0.0151    0.0183   -0.0267   -0.0011   -0.0007
          12    0.0013   -0.0292    0.0038    0.0159    0.0251   -0.0396   -0.0065    0.0003
          13   -0.0247   -0.0025   -0.0274    0.0013    0.0012    0.0012   -0.0003   -0.0010
          14   -0.0250    0.0002    0.0286   -0.0001   -0.0191   -0.0118   -0.0000   -0.0007
          15   -0.0065   -0.0012    0.0013   -0.0168    0.0402    0.0188    0.0010   -0.0003
          16    0.0002    0.0006   -0.0009   -0.0046   -0.0035   -0.0086    0.2116   -0.0005
          17   -0.0004   -0.0009    0.0016    0.0062    0.0021    0.0140   -0.0035    0.0001
          18    0.0003    0.0012   -0.0017   -0.0078   -0.0053   -0.0187   -0.0033   -0.0001
          19    0.0001    0.0009   -0.0004   -0.0026   -0.0032    0.0096   -0.2115    0.0005
          20   -0.0002    0.0004   -0.0000   -0.0007   -0.0023    0.0058    0.0048   -0.0001
          21    0.0007   -0.0010   -0.0000    0.0020    0.0081   -0.0224    0.0008   -0.0000
          22   -0.0007   -0.0057   -0.0059   -0.0203   -0.0016   -0.0585    0.0169    0.1368
          23    0.0058   -0.0007    0.0097    0.0295    0.0290    0.0529    0.0268    0.1992
          24   -0.0046    0.0044   -0.0053   -0.0121   -0.0183   -0.0084   -0.0142    0.2387
          25    0.0026    0.0002    0.0020   -0.0060   -0.0105    0.0649   -0.0171   -0.0798
          26   -0.0009    0.0011   -0.0015    0.0018    0.0027   -0.0247   -0.0043   -0.1838
          27    0.0015   -0.0130    0.0031    0.0224    0.0327   -0.0471   -0.0297   -0.0106
          28   -0.0391   -0.0349   -0.0043    0.1746   -0.0457    0.0327    0.0018   -0.0797
          29   -0.0009    0.0090    0.0076   -0.0335   -0.0457   -0.0501   -0.0052   -0.1089
          30    0.0217    0.0131   -0.0013   -0.0763    0.0651    0.0260    0.0033   -0.1232
          31    0.0103    0.0060   -0.0041   -0.0393    0.0311    0.0053    0.0019   -0.1569
          32    0.0191    0.0284    0.0064   -0.1256   -0.0005   -0.0420   -0.0024   -0.0163
          33    0.0342    0.0236    0.0009   -0.1290    0.0850    0.0197    0.0019    0.0543
          34    0.3115    0.0208    0.0713    0.0149    0.0071    0.0072   -0.0001   -0.0002
          35    0.1402    0.0108    0.0446    0.0044   -0.0069   -0.0048    0.0004   -0.0002
          36    0.0136    0.0014    0.2040    0.0610   -0.0867   -0.0148   -0.0001    0.0001
          37    0.0251    0.0068    0.3168   -0.0299    0.0328    0.0156    0.0004    0.0058
          38   -0.1310   -0.0138   -0.1865   -0.0350    0.0792    0.0304    0.0003    0.0066
          39    0.0766    0.0056   -0.0766    0.0445   -0.0789   -0.0322    0.0001    0.0064
          40    0.0013   -0.0315    0.0004   -0.0065   -0.0050    0.0085   -0.0002    0.0025
          41    0.0163   -0.2261   -0.0047   -0.0701   -0.0561    0.0526    0.0008    0.0001
          42    0.0080    0.0137   -0.0088   -0.0350   -0.0467    0.0577    0.0028    0.0014
          43   -0.0146    0.0496    0.0034    0.0132    0.0176   -0.0253    0.0038   -0.0013
          44   -0.0133    0.1827   -0.0127   -0.0304   -0.0468    0.0647   -0.0034    0.0027
          45   -0.0037    0.0729   -0.0060   -0.0127   -0.0174    0.0217   -0.0081   -0.0037
          46   -0.0209    0.2390    0.0052    0.0744    0.0657   -0.0736   -0.0031    0.0030
          47    0.0104   -0.1183   -0.0004   -0.0248   -0.0176    0.0157    0.0006    0.0067
          48   -0.0181    0.2246   -0.0133   -0.0335   -0.0563    0.0803    0.0057   -0.0002
          49   -0.0319   -0.0017   -0.0481    0.0178   -0.0431   -0.0202   -0.0006    0.0085
          50    0.2825    0.0128   -0.1903    0.0260    0.0244    0.0178    0.0001    0.0000
          51    0.0271    0.0013   -0.1796    0.0498   -0.0967   -0.0439   -0.0002   -0.0014
          52    0.0009   -0.0021    0.0006    0.0050    0.0110   -0.0181   -0.1137    0.0021
          53    0.0000   -0.0008    0.0000    0.0006    0.0002    0.0016    0.0786   -0.0010
          54    0.0001    0.0020   -0.0014   -0.0075   -0.0074    0.0049   -0.1532    0.0019
          55   -0.0008   -0.0018    0.0028    0.0119    0.0069    0.0175    0.1136   -0.0013
          56    0.0005    0.0015   -0.0017   -0.0071   -0.0046   -0.0024    0.0758   -0.0009
          57   -0.0004   -0.0005    0.0010    0.0048    0.0044    0.0005   -0.1549    0.0013


   Root No.      41        42        43        44        45        46        47        48

                41 A      42 A      43 A      44 A      45 A      46 A      47 A      48 A   

                2954.6    2959.6    3034.3    3075.6    3079.5    3082.9    3085.0    3177.3
  
           1   -0.0007   -0.0107   -0.0001    0.0000    0.0001    0.0001   -0.0001    0.0000
           2   -0.0004   -0.0152    0.0008    0.0000   -0.0000   -0.0002    0.0002   -0.0001
           3   -0.0002   -0.0182    0.0004    0.0002    0.0000   -0.0003   -0.0003   -0.0001
           4   -0.0135   -0.0069   -0.0001    0.0001   -0.0008   -0.0004   -0.0000   -0.0002
           5   -0.0307   -0.0152   -0.0006    0.0000   -0.0018   -0.0005   -0.0001    0.0000
           6   -0.0016   -0.0010   -0.0000    0.0000    0.0000   -0.0001   -0.0000    0.0003
           7    0.0254   -0.0212   -0.0170   -0.0026    0.0002   -0.0001    0.0008    0.0000
           8    0.0130   -0.0110    0.0156   -0.0009    0.0002   -0.0001   -0.0014   -0.0001
           9    0.0066   -0.0057    0.0312    0.0000    0.0001   -0.0001   -0.0023    0.0000
          10    0.0010    0.0004    0.0000   -0.0001   -0.0158   -0.0402    0.0018   -0.0098
          11    0.0012    0.0006    0.0001   -0.0050   -0.0399    0.0027   -0.0013    0.0113
          12   -0.0005   -0.0002   -0.0001    0.0037    0.0193   -0.0267    0.0020    0.0147
          13   -0.0016    0.0009    0.0025   -0.0445    0.0050   -0.0013    0.0151    0.0004
          14   -0.0007    0.0005   -0.0036   -0.0138    0.0028   -0.0031   -0.0388   -0.0018
          15   -0.0003    0.0003   -0.0010   -0.0067    0.0015   -0.0016   -0.0187    0.0033
          16    0.0003   -0.0002   -0.0001    0.0000    0.0000    0.0000    0.0000   -0.0001
          17   -0.0001   -0.0001    0.0002    0.0000   -0.0000   -0.0000    0.0000   -0.0000
          18   -0.0003   -0.0004   -0.0000   -0.0000   -0.0000    0.0000    0.0000    0.0001
          19   -0.0004    0.0001   -0.0000    0.0000    0.0001   -0.0001    0.0000   -0.0000
          20   -0.0002   -0.0003    0.0000   -0.0000   -0.0001    0.0000   -0.0000    0.0000
          21    0.0002    0.0002   -0.0000   -0.0000   -0.0002    0.0001   -0.0000   -0.0001
          22    0.0060    0.1267   -0.0027   -0.0013    0.0005    0.0011   -0.0001    0.0002
          23    0.0022    0.1868   -0.0049   -0.0008   -0.0009    0.0006    0.0009    0.0010
          24    0.0046    0.2215   -0.0043   -0.0019   -0.0004    0.0006   -0.0003    0.0012
          25    0.1652    0.0833    0.0021   -0.0003    0.0072    0.0015    0.0004    0.0004
          26    0.3759    0.1838    0.0062   -0.0010    0.0215    0.0073    0.0009    0.0019
          27    0.0217    0.0102    0.0006    0.0006    0.0040    0.0005   -0.0000    0.0007
          28   -0.0976    0.0800   -0.2109    0.0039   -0.0014    0.0012    0.0160    0.0003
          29   -0.1355    0.1152   -0.2517    0.0061   -0.0017    0.0014    0.0173    0.0003
          30   -0.1512    0.1264   -0.2655    0.0107   -0.0025    0.0018    0.0219    0.0005
          31   -0.2098    0.1731    0.4181    0.0250   -0.0016   -0.0005   -0.0247   -0.0005
          32   -0.0204    0.0158    0.0611    0.0040   -0.0002   -0.0001   -0.0051   -0.0002
          33    0.0725   -0.0603   -0.1147   -0.0113    0.0010   -0.0000    0.0074    0.0003
          34   -0.0005    0.0008   -0.0178    0.0011    0.0046   -0.0102   -0.1713   -0.0225
          35    0.0001   -0.0013    0.0367   -0.0580   -0.0028    0.0186    0.3590    0.0474
          36    0.0001   -0.0001    0.0043   -0.0054    0.0006   -0.0001    0.0040    0.0032
          37    0.0066   -0.0044    0.0088    0.1474   -0.0232    0.0170    0.1484   -0.0245
          38    0.0087   -0.0065    0.0077    0.1883   -0.0281    0.0185    0.1414   -0.0291
          39    0.0073   -0.0043    0.0092    0.2217   -0.0333    0.0224    0.1762   -0.0312
          40   -0.0079   -0.0050   -0.0002   -0.0089    0.0798    0.4174   -0.0216    0.2737
          41    0.0000    0.0002    0.0000   -0.0018   -0.0283   -0.0368    0.0013   -0.0189
          42   -0.0031   -0.0016   -0.0001    0.0002    0.0262    0.0691   -0.0032    0.0586
          43    0.0022    0.0009    0.0002   -0.0075   -0.0528    0.0199   -0.0026   -0.0395
          44   -0.0052   -0.0025   -0.0005    0.0243    0.1388   -0.1418    0.0118    0.1303
          45    0.0068    0.0033    0.0009   -0.0492   -0.2891    0.2553   -0.0221   -0.2291
          46   -0.0067   -0.0035   -0.0004    0.0175    0.1616    0.0430    0.0025   -0.1159
          47   -0.0123   -0.0051   -0.0010    0.0373    0.3666    0.1463    0.0029   -0.2495
          48    0.0007    0.0005   -0.0001    0.0042    0.0326   -0.0051    0.0012   -0.0084
          49    0.0148   -0.0084   -0.0211    0.3839   -0.0412    0.0084   -0.1578    0.0422
          50    0.0008   -0.0001   -0.0034    0.0357   -0.0029   -0.0008   -0.0373    0.0038
          51   -0.0037    0.0011    0.0061   -0.1366    0.0151   -0.0038    0.0443   -0.0122
          52   -0.0002    0.0020    0.0001    0.0000   -0.0000   -0.0002    0.0001    0.0003
          53   -0.0003   -0.0013   -0.0001   -0.0000   -0.0001    0.0000   -0.0001   -0.0002
          54   -0.0005    0.0015    0.0001   -0.0000   -0.0001    0.0001    0.0001    0.0004
          55    0.0026    0.0010   -0.0000   -0.0000    0.0003    0.0002   -0.0001    0.0008
          56    0.0007    0.0000    0.0003    0.0000    0.0002    0.0001   -0.0001    0.0004
          57   -0.0023   -0.0013   -0.0002   -0.0000   -0.0003   -0.0002    0.0001   -0.0007


   Root No.      49        50        51

                49 A      50 A      51 A   

                3179.0    3194.0    3214.4
  
           1   -0.0001    0.0004    0.0014
           2    0.0000   -0.0001   -0.0006
           3   -0.0001    0.0005    0.0015
           4    0.0001    0.0005   -0.0014
           5    0.0001    0.0004   -0.0008
           6   -0.0000   -0.0004    0.0013
           7    0.0001   -0.0000   -0.0000
           8   -0.0003    0.0000    0.0000
           9    0.0002    0.0000   -0.0000
          10    0.0017    0.0000   -0.0000
          11   -0.0019    0.0000   -0.0000
          12   -0.0027   -0.0000   -0.0000
          13    0.0013   -0.0000   -0.0000
          14   -0.0100   -0.0000    0.0000
          15    0.0184    0.0000    0.0000
          16    0.0000   -0.0280    0.0353
          17    0.0000   -0.0112    0.0113
          18   -0.0000    0.0246   -0.0251
          19    0.0000   -0.0274   -0.0358
          20   -0.0000    0.0128    0.0136
          21    0.0000   -0.0233   -0.0244
          22    0.0006   -0.0014   -0.0006
          23    0.0004   -0.0016   -0.0015
          24    0.0011   -0.0018   -0.0018
          25   -0.0005   -0.0014    0.0006
          26   -0.0016   -0.0025    0.0023
          27   -0.0000   -0.0002    0.0002
          28    0.0012    0.0001    0.0001
          29    0.0011    0.0000   -0.0001
          30    0.0022    0.0000   -0.0000
          31   -0.0026   -0.0004   -0.0001
          32   -0.0008   -0.0001    0.0002
          33    0.0015    0.0002   -0.0001
          34   -0.1247   -0.0001    0.0001
          35    0.2612    0.0002   -0.0001
          36    0.0178    0.0000    0.0000
          37   -0.1362   -0.0001   -0.0001
          38   -0.1613   -0.0001   -0.0001
          39   -0.1724   -0.0001   -0.0001
          40   -0.0478   -0.0011    0.0006
          41    0.0034    0.0001   -0.0001
          42   -0.0103   -0.0003   -0.0001
          43    0.0073    0.0002   -0.0000
          44   -0.0240   -0.0005    0.0001
          45    0.0420    0.0009   -0.0004
          46    0.0202    0.0004   -0.0002
          47    0.0435    0.0007   -0.0001
          48    0.0014    0.0000    0.0001
          49    0.2457    0.0001    0.0001
          50    0.0215    0.0000    0.0000
          51   -0.0718   -0.0000   -0.0000
          52   -0.0001    0.3237    0.3247
          53    0.0001   -0.1522   -0.1526
          54   -0.0002    0.2766    0.2770
          55   -0.0002    0.3292   -0.3194
          56   -0.0001    0.1333   -0.1290
          57    0.0002   -0.2918    0.2827


           MASS-WEIGHTED COORDINATE ANALYSIS (NORMAL COORDINATES)


   Root No.       1         2         3         4         5         6         7         8

                 1 A       2 A       3 A       4 A       5 A       6 A       7 A       8 A   

                  89.9     131.8     175.9     187.1     286.6     310.7     350.5     427.5
  
           1   -0.1339   -0.0556   -0.0282   -0.0660    0.0614   -0.2954    0.1303   -0.1526
           2   -0.1526    0.0397    0.0040   -0.0976    0.0390   -0.2075   -0.2769   -0.1830
           3    0.0516    0.2209    0.0618   -0.0642    0.0460   -0.0169   -0.1594    0.1657
           4   -0.1354   -0.0632   -0.0249   -0.0591    0.0893   -0.2858    0.0899   -0.1916
           5    0.0565    0.0027   -0.0107    0.0603   -0.2381   -0.1748   -0.1980    0.0233
           6   -0.1146    0.1465   -0.0300   -0.0745    0.0030   -0.2602    0.1194    0.0614
           7   -0.2773    0.0589   -0.0618   -0.0562   -0.2496    0.2069    0.2661    0.1534
           8   -0.2245    0.0852   -0.0147   -0.0892   -0.1099    0.0523   -0.2365    0.0196
           9   -0.0481   -0.0302   -0.0077    0.0262   -0.1766    0.1406   -0.1255   -0.3338
          10   -0.1643   -0.1551    0.0081    0.0606    0.2449    0.3744   -0.1413   -0.0760
          11    0.0070    0.4343    0.0398   -0.0220   -0.0217    0.0896    0.1426    0.0503
          12   -0.0955   -0.2101   -0.0480    0.0567   -0.0672   -0.0466   -0.2627    0.1591
          13    0.4835    0.2292    0.0094    0.0620   -0.1521    0.0732   -0.0495   -0.0960
          14    0.0764   -0.3044   -0.0565    0.0080    0.2278   -0.0681    0.1187    0.3769
          15    0.1072   -0.2176   -0.0262    0.0762   -0.0116    0.0972    0.0508   -0.2450
          16    0.0979   -0.0171    0.0472    0.0113    0.0250   -0.1097   -0.1244    0.1784
          17    0.0276   -0.0243    0.0631   -0.0501    0.3898    0.1311    0.1077   -0.3084
          18    0.1208    0.1798    0.0855   -0.0479    0.2342    0.1317    0.0561    0.1984
          19    0.1008   -0.0197    0.0437    0.0156    0.0063   -0.1143   -0.1161    0.1828
          20    0.2130   -0.2702   -0.0180    0.1916   -0.3198    0.0893    0.2155   -0.0747
          21   -0.0157    0.0090   -0.0288   -0.0038   -0.0441   -0.1178    0.3425    0.0138
          22   -0.0374   -0.0249   -0.0223   -0.0174    0.0225   -0.1693    0.0575   -0.0712
          23   -0.0837   -0.0024   -0.0154   -0.0230   -0.0566   -0.0627   -0.0954   -0.0889
          24    0.0480    0.0783    0.0389   -0.0213    0.0673    0.0519   -0.0412    0.0957
          25   -0.0763   -0.0179   -0.0049   -0.0443    0.0382   -0.1562    0.0214   -0.1070
          26    0.0357   -0.0029   -0.0042    0.0315   -0.0767   -0.0115   -0.0525    0.0311
          27   -0.0840    0.1266    0.0028   -0.0577    0.0637   -0.0941    0.0369   -0.0014
          28   -0.2222    0.0306   -0.0379   -0.0094   -0.1894    0.2117    0.1317    0.1145
          29   -0.0977    0.0601    0.0060   -0.0535   -0.0214   -0.0302   -0.1077   -0.0033
          30    0.1100   -0.0505    0.0014    0.0289    0.0170   -0.0163   -0.0339   -0.1321
          31   -0.1357    0.0095   -0.0235   -0.0209   -0.0924    0.0809    0.0946    0.0473
          32   -0.1150    0.0849   -0.0114   -0.0118   -0.1385    0.1545   -0.0622    0.0966
          33   -0.1978   -0.0149   -0.0213   -0.0039   -0.1394    0.1454    0.0212   -0.0601
          34    0.0975    0.1948   -0.0630    0.4955    0.0435   -0.0491   -0.0506   -0.0589
          35    0.0025   -0.0283   -0.0467    0.2234    0.1071   -0.0524    0.0178    0.0972
          36    0.0104   -0.1374   -0.0393    0.1412    0.0920   -0.0027    0.1397    0.0703
          37    0.2982   -0.0273    0.0766   -0.4160   -0.1148    0.0667   -0.0412   -0.0619
          38    0.0454   -0.0814   -0.0594    0.2801    0.1765   -0.0809    0.0848    0.1791
          39   -0.1028   -0.0007   -0.0261    0.1105   -0.0413    0.0451   -0.0060   -0.1009
          40   -0.0369   -0.0256   -0.0930   -0.0015    0.0804    0.1044   -0.0295   -0.0276
          41    0.0501    0.1755   -0.4455   -0.0653    0.0709    0.1763   -0.0037    0.0327
          42   -0.0634   -0.1491    0.2876    0.0971   -0.0249    0.1144   -0.1835    0.0931
          43   -0.1025   -0.1464    0.4881    0.1166    0.0340    0.1607   -0.1121    0.0089
          44   -0.0369    0.2039    0.2920    0.0096    0.0031    0.0073    0.1827   -0.0015
          45   -0.0400   -0.0090    0.0628    0.0112   -0.0097   -0.0296    0.0013    0.0350
          46   -0.0118    0.0088   -0.3584   -0.0300    0.1462    0.2553   -0.0697   -0.0056
          47   -0.0170    0.1082    0.1918    0.0168   -0.0355   -0.0295    0.0631    0.0074
          48    0.0237   -0.1171   -0.3872   -0.0245   -0.0378   -0.0601   -0.1888    0.0472
          49    0.2001    0.0747    0.0115    0.0056   -0.0422    0.0140   -0.0427   -0.0596
          50    0.0879   -0.2539    0.0477   -0.4813    0.0072    0.0427    0.1076    0.1893
          51    0.2219   -0.0957    0.0384   -0.1738   -0.0153    0.0274   -0.0395   -0.1298
          52    0.0638   -0.0018    0.0236    0.0178   -0.0152   -0.0012   -0.0712    0.1141
          53    0.1171   -0.1491   -0.0180    0.1150   -0.2178    0.0726    0.1951   -0.0100
          54   -0.0146   -0.0411   -0.0281    0.0162   -0.0616   -0.0458    0.2160   -0.0601
          55    0.0621    0.0036    0.0255    0.0137    0.0024    0.0018   -0.0780    0.1119
          56   -0.0003    0.0133    0.0389   -0.0452    0.2951    0.1185    0.1085   -0.1987
          57    0.0693    0.0710    0.0475   -0.0161    0.1457    0.1128    0.0044    0.0752


   Root No.       9        10        11        12        13        14        15        16

                 9 A      10 A      11 A      12 A      13 A      14 A      15 A      16 A   

                 564.6     763.9     792.2     833.0     878.7     936.9     942.3     969.3
  
           1    0.0562   -0.1621   -0.2530   -0.0156    0.3235   -0.0477   -0.1118   -0.1398
           2   -0.1788   -0.0677   -0.1138   -0.0030    0.1934   -0.0770    0.1293    0.1305
           3   -0.2137   -0.2348   -0.0104    0.2680    0.0753    0.0315    0.0531    0.1943
           4   -0.0717   -0.0229    0.2928    0.2539   -0.2189   -0.0105    0.0360    0.0328
           5    0.3495   -0.1515    0.0478    0.2767    0.0100    0.1053   -0.0881    0.0085
           6    0.0300    0.1393    0.1033   -0.0608   -0.1107   -0.0868    0.0194    0.0024
           7    0.2181   -0.1977   -0.2936    0.0071   -0.0946   -0.0262    0.0455    0.0194
           8   -0.2661    0.1172   -0.0598   -0.0651   -0.1267    0.0222   -0.0855   -0.0385
           9   -0.0387    0.0471   -0.0435   -0.0320   -0.0616    0.0065   -0.0663   -0.0176
          10   -0.2269   -0.0763    0.1366    0.1649   -0.1517    0.0047   -0.0345    0.0114
          11    0.1233    0.0434   -0.0446    0.0053    0.0100    0.1484    0.0158   -0.0486
          12    0.2693    0.1620   -0.0322   -0.1499   -0.0854   -0.2317    0.1355    0.0388
          13    0.0480   -0.0320   -0.0508    0.0060   -0.0790    0.0167    0.0610    0.1099
          14   -0.0897    0.0463    0.0110   -0.0075   -0.0847    0.0358   -0.1583   -0.2647
          15    0.1052   -0.0243   -0.0012   -0.0327   -0.0179    0.0089    0.0516   -0.0146
          16   -0.0021    0.2203    0.0137   -0.2236   -0.0189    0.1312    0.0265    0.0593
          17    0.2680   -0.0808    0.1368   -0.2751   -0.0419    0.1377    0.3433   -0.1186
          18   -0.0197   -0.2455   -0.0219    0.1466    0.0826   -0.1295   -0.0366   -0.3081
          19   -0.0121    0.2207    0.0104   -0.2296   -0.0191    0.1082    0.0090    0.0819
          20   -0.1499   -0.2108    0.1162   -0.0678   -0.0896   -0.2546   -0.1927    0.1069
          21   -0.2447    0.0003    0.0296   -0.2565    0.0751    0.2973   -0.2945    0.1158
          22    0.0672   -0.0417   -0.0353    0.0530    0.1608   -0.1517   -0.1702   -0.1844
          23   -0.1034    0.0529   -0.1148   -0.0199    0.0767   -0.1229   -0.0377    0.1160
          24   -0.0464   -0.1281    0.0516    0.0629   -0.0399    0.1717    0.1552    0.0710
          25   -0.0641   -0.0221    0.0914    0.1180    0.0193   -0.1494    0.1516   -0.0531
          26    0.1156   -0.0429    0.0060    0.0504   -0.0269    0.0884   -0.0973    0.0400
          27    0.0514    0.1452    0.0351    0.0666   -0.0651   -0.0090    0.2004   -0.1791
          28    0.1543    0.0819    0.3047    0.0361    0.1584    0.0013    0.0116   -0.0407
          29   -0.1326    0.0001   -0.0650    0.0129    0.1138   -0.0348   -0.0138    0.1117
          30   -0.0160   -0.0460   -0.2147   -0.0580   -0.2651    0.0333   -0.0258   -0.0814
          31    0.0873   -0.0320   -0.0055    0.0031    0.0923   -0.0293   -0.0007   -0.0290
          32   -0.0446    0.1593    0.3024    0.0374   -0.0593    0.0777   -0.0036    0.0690
          33    0.0696    0.1186    0.3021    0.0096    0.3093   -0.0378   -0.0452   -0.0706
          34   -0.0106    0.0402    0.0806   -0.0033    0.1064   -0.0139   -0.0350   -0.0562
          35   -0.0381    0.0356    0.0475   -0.0028    0.0357    0.0020   -0.0687   -0.1118
          36    0.1171   -0.1254   -0.0178    0.0833    0.1023   -0.0388    0.2732    0.4971
          37   -0.0020    0.0514    0.0997   -0.0039    0.1094   -0.0176   -0.0334   -0.0570
          38    0.0049   -0.0087    0.1050    0.0627    0.2005   -0.0440    0.0738    0.1956
          39    0.0175   -0.0326   -0.1589   -0.0557   -0.2723    0.0614   -0.0425   -0.1549
          40   -0.0774   -0.0178    0.0568    0.0445   -0.0694   -0.0357   -0.0043    0.0144
          41   -0.0293    0.0176   -0.1298   -0.1690    0.1736   -0.0443    0.0288    0.0252
          42    0.0996    0.0158   -0.1965   -0.1314    0.2619    0.1178    0.0180   -0.0308
          43   -0.0374   -0.0663   -0.0685    0.0491    0.1409    0.2053   -0.0580   -0.0400
          44   -0.0600    0.0751    0.0269   -0.1679   -0.0826   -0.3258    0.0827    0.0850
          45    0.0290    0.0847    0.0229   -0.1265   -0.0896   -0.2730    0.0862    0.0639
          46   -0.1458   -0.0219   -0.0719   -0.1243    0.1323   -0.0992    0.0029    0.0429
          47    0.0562    0.0154    0.0302    0.0513   -0.0660    0.0529    0.0043   -0.0193
          48    0.1975    0.0114    0.0133    0.1698   -0.0511    0.2589   -0.0021   -0.0921
          49   -0.0031    0.0391    0.0783   -0.0037    0.0938   -0.0152   -0.0217   -0.0399
          50    0.0227   -0.0586   -0.0514    0.0420   -0.0511    0.0068    0.0803    0.1812
          51   -0.0018    0.0984    0.2285   -0.0087    0.2929   -0.0505   -0.0465   -0.1097
[...]
 FREQ.      1341.48         C  2 -- C  7         +17.5% ( 60.0%)     87.5%
 T-DIPOLE    0.1107         C  2 -- H  9         +12.5% ( 50.7%)      1.6%
 TRAVEL      0.0939         C  1 -- C  2         +11.5% ( 48.6%)     20.1%
 RED. MASS   1.1082         C  2 -- C  6         +10.2% ( 45.8%)     88.6%
 EFF. MASS   5.6953

 VIBRATION   31   31A         ATOM PAIR      ENERGY CONTRIBUTION    RADIAL
 FREQ.      1378.75         C  5 -- H 17         +12.2% ( 41.2%)      4.0%
 T-DIPOLE    0.0154         C  5 -- H 13         +11.7% ( 40.3%)      2.4%
 TRAVEL      0.1191         C  5 -- H 12         +10.6% ( 38.4%)      1.8%
 RED. MASS   0.3428         C  3 -- H 11          +9.0% ( 35.2%)      1.7%
 EFF. MASS   3.4477

 VIBRATION   32   32A         ATOM PAIR      ENERGY CONTRIBUTION    RADIAL
 FREQ.      1397.39         C  4 -- H 15         +43.6% ( 59.0%)      1.3%
 T-DIPOLE    0.0526         C  4 -- H 14         +35.7% ( 53.4%)      3.0%
 TRAVEL      0.1657         C  4 -- H 16          +9.0% ( 26.8%)     59.3%
 RED. MASS   0.4158         C  2 -- C  4          +6.6% ( 23.0%)     19.3%
 EFF. MASS   1.7565

 VIBRATION   33   33A         ATOM PAIR      ENERGY CONTRIBUTION    RADIAL
 FREQ.      1404.74         C  5 -- H 12         +47.6% ( 59.9%)      0.7%
 T-DIPOLE    0.0451         C  5 -- H 17         +33.3% ( 50.1%)      3.8%
 TRAVEL      0.1740         C  5 -- H 13         +10.5% ( 28.2%)     38.4%
 RED. MASS   0.4009         C  3 -- C  5          +5.2% ( 19.9%)     10.9%
 EFF. MASS   1.5862

 VIBRATION   34   34A         ATOM PAIR      ENERGY CONTRIBUTION    RADIAL
 FREQ.      1407.58         C  4 -- H 16         +49.6% ( 62.2%)      0.0%
 T-DIPOLE    0.0488         C  4 -- H 14         +22.1% ( 41.4%)      6.9%
 TRAVEL      0.1689         C  4 -- H 15         +17.4% ( 36.8%)     16.4%
 RED. MASS   0.3966         C  2 -- C  4          +5.5% ( 20.7%)     14.5%
 EFF. MASS   1.6790

 VIBRATION   35   35A         ATOM PAIR      ENERGY CONTRIBUTION    RADIAL
 FREQ.      1411.18         C  5 -- H 13         +49.4% ( 61.5%)      0.0%
 T-DIPOLE    0.0536         C  5 -- H 17         +25.7% ( 44.4%)      4.5%
 TRAVEL      0.1713         C  5 -- H 12         +17.5% ( 36.6%)     19.7%
 RED. MASS   0.4006         C  3 -- C  5          +5.2% ( 20.0%)     10.9%
 EFF. MASS   1.6280

 VIBRATION   36   36A         ATOM PAIR      ENERGY CONTRIBUTION    RADIAL
 FREQ.      1415.87         C  3 -- H 10         +17.4% ( 51.8%)      4.4%
 T-DIPOLE    0.0626         C  3 -- H 11         +15.8% ( 49.3%)      5.9%
 TRAVEL      0.1019         C  1 -- C  3         +13.5% ( 45.6%)     97.3%
 RED. MASS   0.5288         C  3 -- C  5          +6.9% ( 32.5%)     13.9%
 EFF. MASS   4.5844

 VIBRATION   37   37A         ATOM PAIR      ENERGY CONTRIBUTION    RADIAL
 FREQ.      1429.45         C  3 -- C  5         +13.3% ( 51.9%)     97.6%
 T-DIPOLE    0.0465         C  5 -- H 13          +8.3% ( 41.0%)      3.9%
 TRAVEL      0.0832         C  2 -- C  4          +8.0% ( 40.4%)     95.4%
 RED. MASS   0.8503         C  5 -- H 17          +7.9% ( 40.1%)      2.8%
 EFF. MASS   6.8136

 VIBRATION   38   38A         ATOM PAIR      ENERGY CONTRIBUTION    RADIAL
 FREQ.      1451.70         C  2 -- C  4         +12.4% ( 58.4%)     95.3%
 T-DIPOLE    0.0618         C  1 -- C  2         +11.4% ( 56.2%)     54.5%
 TRAVEL      0.0696         C  1 -- C  3         +10.1% ( 52.8%)     85.6%
 RED. MASS   1.6709         C  2 -- C  7          +7.2% ( 44.7%)     53.2%
 EFF. MASS   9.5790

 VIBRATION   39   39A         ATOM PAIR      ENERGY CONTRIBUTION    RADIAL
 FREQ.      1778.25         C  6 -- C  7         +36.2% (102.1%)    100.0%
 T-DIPOLE    0.1004         C  2 -- C  6         +11.1% ( 56.6%)     59.4%
 TRAVEL      0.0562         C  1 -- C  7         +11.1% ( 56.6%)     59.4%
 RED. MASS   4.9977         C  1 -- C  6         +10.9% ( 56.0%)      0.2%
 EFF. MASS  12.0068         C  2 -- C  7         +10.9% ( 56.0%)      0.2%

 VIBRATION   40   40A         ATOM PAIR      ENERGY CONTRIBUTION    RADIAL
 FREQ.      2948.34         C  1 -- H  8         +50.0% ( 72.8%)    100.0%
 T-DIPOLE    0.0554         C  2 -- H  9         +17.5% ( 43.0%)    100.0%
 TRAVEL      0.1243         C  3 -- H 10         +15.5% ( 40.5%)     96.8%
 RED. MASS   0.3337         C  3 -- H 11         +13.1% ( 37.3%)     95.9%
 EFF. MASS   1.4794

 VIBRATION   41   41A         ATOM PAIR      ENERGY CONTRIBUTION    RADIAL
 FREQ.      2954.59         C  2 -- H  9         +58.7% ( 78.8%)    100.0%
 T-DIPOLE    0.0807         C  3 -- H 10         +18.9% ( 44.7%)     96.5%
 TRAVEL      0.1244         C  3 -- H 11         +18.6% ( 44.3%)     96.4%
 RED. MASS   0.4315         C  2 -- C  4          +0.6% (  8.2%)     10.8%
 EFF. MASS   1.4749

 VIBRATION   42   42A         ATOM PAIR      ENERGY CONTRIBUTION    RADIAL
 FREQ.      2959.63         C  1 -- H  8         +44.7% ( 68.5%)    100.0%
 T-DIPOLE    0.1224         C  2 -- H  9         +18.3% ( 43.8%)    100.0%
 TRAVEL      0.1246         C  3 -- H 10         +17.1% ( 42.4%)     96.8%
 RED. MASS   0.2994         C  3 -- H 11         +16.3% ( 41.4%)     96.4%
 EFF. MASS   1.4672

 VIBRATION   43   43A         ATOM PAIR      ENERGY CONTRIBUTION    RADIAL
 FREQ.      3034.28         C  3 -- H 11         +50.9% ( 70.3%)     97.9%
 T-DIPOLE    0.0363         C  3 -- H 10         +47.1% ( 67.6%)     97.5%
 TRAVEL      0.1320         C  3 -- C  5          +0.6% (  7.8%)     26.0%
 RED. MASS   0.4779         C  1 -- C  3          +0.6% (  7.7%)     29.6%
 EFF. MASS   1.2755

 VIBRATION   44   44A         ATOM PAIR      ENERGY CONTRIBUTION    RADIAL
 FREQ.      3075.64         C  5 -- H 17         +57.8% ( 78.4%)     98.2%
 T-DIPOLE    0.0078         C  5 -- H 13         +37.3% ( 63.0%)     95.1%
 TRAVEL      0.1208         C  5 -- H 12          +1.9% ( 14.3%)     22.8%
 RED. MASS   0.5003         C  4 -- H 15          +1.1% ( 10.6%)     98.5%
 EFF. MASS   1.5018

 VIBRATION   45   45A         ATOM PAIR      ENERGY CONTRIBUTION    RADIAL
 FREQ.      3079.50         C  4 -- H 16         +56.6% ( 77.6%)     98.2%
 T-DIPOLE    0.0256         C  4 -- H 15         +37.2% ( 62.9%)     94.9%
 TRAVEL      0.1206         C  4 -- H 14          +3.4% ( 19.2%)     41.3%
 RED. MASS   0.4886         C  2 -- C  4          +1.0% ( 10.3%)      0.0%
 EFF. MASS   1.5059

 VIBRATION   46   46A         ATOM PAIR      ENERGY CONTRIBUTION    RADIAL
 FREQ.      3082.95         C  4 -- H 14         +60.8% ( 80.5%)     98.6%
 T-DIPOLE    0.0248         C  4 -- H 15         +29.1% ( 55.7%)     92.2%
 TRAVEL      0.1205         C  4 -- H 16          +8.4% ( 30.0%)     69.1%
 RED. MASS   0.4915         C  2 -- C  4          +1.0% ( 10.4%)      0.0%
 EFF. MASS   1.5070

 VIBRATION   47   47A         ATOM PAIR      ENERGY CONTRIBUTION    RADIAL
 FREQ.      3084.99         C  5 -- H 12         +59.5% ( 79.5%)     98.6%
 T-DIPOLE    0.0031         C  5 -- H 13         +27.5% ( 54.1%)     91.4%
 TRAVEL      0.1206         C  5 -- H 17         +11.0% ( 34.2%)     75.8%
 RED. MASS   0.4701         C  3 -- C  5          +1.0% ( 10.3%)      0.0%
 EFF. MASS   1.5037

 VIBRATION   48   48A         ATOM PAIR      ENERGY CONTRIBUTION    RADIAL
 FREQ.      3177.30         C  4 -- H 14         +33.9% ( 56.0%)     97.4%
 T-DIPOLE    0.0363         C  4 -- H 16         +32.5% ( 54.9%)     97.1%
 TRAVEL      0.1366         C  4 -- H 15         +30.3% ( 53.0%)     96.7%
 RED. MASS   0.3081         C  5 -- H 12          +1.2% ( 10.5%)     97.9%
 EFF. MASS   1.1368

 VIBRATION   49   49A         ATOM PAIR      ENERGY CONTRIBUTION    RADIAL
 FREQ.      3178.97         C  5 -- H 12         +36.6% ( 58.2%)     97.7%
 T-DIPOLE    0.0139         C  5 -- H 13         +31.9% ( 54.4%)     97.0%
 TRAVEL      0.1366         C  5 -- H 17         +28.1% ( 51.0%)     96.3%
 RED. MASS   0.3105         C  4 -- H 14          +1.0% (  9.8%)     97.2%
 EFF. MASS   1.1369

 VIBRATION   50   50A         ATOM PAIR      ENERGY CONTRIBUTION    RADIAL
 FREQ.      3193.95         C  6 -- H 19         +48.7% ( 71.5%)    100.0%
 T-DIPOLE    0.4689         C  7 -- H 18         +47.1% ( 70.3%)    100.0%
 TRAVEL      0.1201         C  6 -- C  7          +1.1% ( 10.5%)      0.0%
 RED. MASS   0.4650         C  2 -- C  6          +0.8% (  9.2%)     99.9%
 EFF. MASS   1.4627

 VIBRATION   51   51A         ATOM PAIR      ENERGY CONTRIBUTION    RADIAL
 FREQ.      3214.37         C  7 -- H 18         +47.1% ( 71.0%)     99.9%
 T-DIPOLE    0.3747         C  6 -- H 19         +45.5% ( 69.8%)     99.9%
 TRAVEL      0.1099         C  6 -- C  7          +3.0% ( 18.0%)    100.0%
 RED. MASS   0.4705         C  1 -- C  7          +1.1% ( 10.9%)     98.2%
 EFF. MASS   1.7366

      SYMMETRY NUMBER FOR POINT-GROUP C1  =  1


          SYSTEM IS A GROUND STATE



 InChI=1S/C7H12/c1-3-7-5-4-6(7)2/h4-7H,3H2,1-2H3


          MOLECULE IS NOT LINEAR

          THERE ARE 51 GENUINE VIBRATIONS IN THIS SYSTEM
          THIS THERMODYNAMICS CALCULATION IS LIMITED TO
          MOLECULES WHICH HAVE NO INTERNAL ROTATIONS




                    CALCULATED THERMODYNAMIC PROPERTIES
                                          *
   TEMP. (K)   PARTITION FUNCTION   H.O.F.    ENTHALPY  HEAT CAPACITY ENTROPY
                                   KCAL/MOL   CAL/MOLE    CAL/K/MOL  CAL/K/MOL


 298.00  VIB.     0.5484D+02                  3186.3788    23.2435    18.6501
         ROT.     0.2426D+06                   888.2813     2.9808    27.6203
         INT.     0.1330D+08                  4074.6601    26.2243    46.2704
         TRA.     0.9118D+27                  1480.4688     4.9680    39.5994
         TOT.                       18.978    5555.1289    31.1923    85.8698

 200.00  VIB.     0.9800D+01                  1359.3575    14.4216    11.3323
         ROT.     0.1334D+06                   596.1620     2.9808    26.4316
         INT.     0.1307D+07                  1955.5195    17.4024    37.7639
         TRA.     0.5013D+27                   993.6033     4.9680    37.6183
         TOT.                       16.372    2949.1227    22.3704    75.3822

 210.00  VIB.     0.1163D+02                  1507.4826    15.2081    12.0549
         ROT.     0.1435D+06                   625.9700     2.9808    26.5770
         INT.     0.1669D+07                  2133.4526    18.1889    38.6319
         TRA.     0.5394D+27                  1043.2834     4.9680    37.8607
         TOT.                       16.600    3176.7360    23.1569    76.4926

 220.00  VIB.     0.1382D+02                  1663.6143    16.0231    12.7811
         ROT.     0.1539D+06                   655.7781     2.9808    26.7157
         INT.     0.2127D+07                  2319.3925    19.0039    39.4967
         TRA.     0.5784D+27                  1092.9636     4.9680    38.0918
         TOT.                       16.835    3412.3560    23.9719    77.5885

 230.00  VIB.     0.1644D+02                  1828.0395    16.8668    13.5118
         ROT.     0.1645D+06                   685.5862     2.9808    26.8482
         INT.     0.2704D+07                  2513.6258    19.8476    40.3600
         TRA.     0.6182D+27                  1142.6437     4.9680    38.3126
         TOT.                       17.079    3656.2695    24.8156    78.6726

 240.00  VIB.     0.1957D+02                  2001.0432    17.7386    14.2480
         ROT.     0.1753D+06                   715.3943     2.9808    26.9750
         INT.     0.3432D+07                  2716.4375    20.7194    41.2230
         TRA.     0.6590D+27                  1192.3239     4.9680    38.5241
         TOT.                       17.332    3908.7614    25.6874    79.7471

 250.00  VIB.     0.2332D+02                  2182.8995    18.6370    14.9902
         ROT.     0.1864D+06                   745.2024     2.9808    27.0967
         INT.     0.4347D+07                  2928.1020    21.6178    42.0870
         TRA.     0.7006D+27                  1242.0041     4.9680    38.7269
         TOT.                       17.593    4170.1060    26.5858    80.8138

 260.00  VIB.     0.2782D+02                  2373.8651    19.5600    15.7391
         ROT.     0.1977D+06                   775.0105     2.9808    27.2136
         INT.     0.5499D+07                  3148.8756    22.5408    42.9527
         TRA.     0.7431D+27                  1291.6842     4.9680    38.9217
         TOT.                       17.863    4440.5598    27.5088    81.8745

 270.00  VIB.     0.3321D+02                  2574.1730    20.5050    16.4950
         ROT.     0.2092D+06                   804.8186     2.9808    27.3261
         INT.     0.6948D+07                  3378.9916    23.4858    43.8211
         TRA.     0.7864D+27                  1341.3644     4.9680    39.1092
         TOT.                       18.143    4720.3560    28.4538    82.9303

 280.00  VIB.     0.3969D+02                  2784.0295    21.4692    17.2581
         ROT.     0.2209D+06                   834.6267     2.9808    27.4345
         INT.     0.8768D+07                  3618.6562    24.4500    44.6926
         TRA.     0.8304D+27                  1391.0445     4.9680    39.2899
         TOT.                       18.433    5009.7008    29.4181    83.9825

 290.00  VIB.     0.4748D+02                  3003.6115    22.4496    18.0285
         ROT.     0.2329D+06                   864.4348     2.9808    27.5391
         INT.     0.1106D+08                  3868.0463    25.4304    45.5676
         TRA.     0.8753D+27                  1440.7247     4.9680    39.4642
         TOT.                       18.732    5308.7710    30.3984    85.0319

 300.00  VIB.     0.5686D+02                  3233.0653    23.4431    18.8063
         ROT.     0.2450D+06                   894.2429     2.9808    27.6402
         INT.     0.1393D+08                  4127.3082    26.4239    46.4465
         TRA.     0.9210D+27                  1490.4049     4.9680    39.6326
         TOT.                       19.041    5617.7131    31.3919    86.0791

 310.00  VIB.     0.6816D+02                  3472.5064    24.4466    19.5913
         ROT.     0.2574D+06                   924.0510     2.9808    27.7379
         INT.     0.1754D+08                  4396.5574    27.4274    47.3292
         TRA.     0.9674D+27                  1540.0850     4.9680    39.7955
         TOT.                       19.359    5936.6424    32.3954    87.1248

 320.00  VIB.     0.8180D+02                  3722.0201    25.4571    20.3834
         ROT.     0.2699D+06                   953.8591     2.9808    27.8326
         INT.     0.2208D+08                  4675.8792    28.4379    48.2160
         TRA.     0.1015D+28                  1589.7652     4.9680    39.9533
         TOT.                       19.688    6265.6444    33.4059    88.1692

 330.00  VIB.     0.9826D+02                  3981.6625    26.4719    21.1823
         ROT.     0.2827D+06                   983.6672     2.9808    27.9243
         INT.     0.2778D+08                  4965.3298    29.4527    49.1066
         TRA.     0.1063D+28                  1639.4454     4.9680    40.1062
         TOT.                       20.028    6604.7751    34.4207    89.2127

 340.00  VIB.     0.1182D+03                  4251.4623    27.4881    21.9876
         ROT.     0.2956D+06                  1013.4753     2.9808    28.0133
         INT.     0.3494D+08                  5264.9376    30.4690    50.0009
         TRA.     0.1111D+28                  1689.1255     4.9680    40.2545
         TOT.                       20.377    6954.0632    35.4370    90.2554

 350.00  VIB.     0.1423D+03                  4531.4223    28.5035    22.7991
         ROT.     0.3088D+06                  1043.2834     2.9808    28.0997
         INT.     0.4393D+08                  5574.7057    31.4843    50.8988
         TRA.     0.1161D+28                  1738.8057     4.9680    40.3985
         TOT.                       20.736    7313.5114    36.4523    91.2973

 360.00  VIB.     0.1715D+03                  4821.5219    29.5157    23.6163
         ROT.     0.3221D+06                  1073.0915     2.9808    28.1837
         INT.     0.5523D+08                  5894.6134    32.4965    51.7999
         TRA.     0.1211D+28                  1788.4859     4.9680    40.5384
         TOT.                       21.106    7683.0993    37.4645    92.3384

 370.00  VIB.     0.2069D+03                  5121.7189    30.5227    24.4387
         ROT.     0.3356D+06                  1102.8996     2.9808    28.2653
         INT.     0.6943D+08                  6224.6185    33.5035    52.7040
         TRA.     0.1261D+28                  1838.1660     4.9680    40.6745
         TOT.                       21.486    8062.7845    38.4715    93.3786

 380.00  VIB.     0.2499D+03                  5431.9521    31.5227    25.2660
         ROT.     0.3493D+06                  1132.7077     2.9808    28.3448
         INT.     0.8728D+08                  6564.6598    34.5035    53.6108
         TRA.     0.1313D+28                  1887.8462     4.9680    40.8070
         TOT.                       21.875    8452.5060    39.4715    94.4179

 390.00  VIB.     0.3021D+03                  5752.1433    32.5140    26.0977
         ROT.     0.3632D+06                  1162.5158     2.9808    28.4222
         INT.     0.1097D+09                  6914.6591    35.4948    54.5199
         TRA.     0.1365D+28                  1937.5263     4.9680    40.9361
         TOT.                       22.275    8852.1854    40.4628    95.4560

 400.00  VIB.     0.3656D+03                  6082.1993    33.4954    26.9332
         ROT.     0.3772D+06                  1192.3239     2.9808    28.4977
         INT.     0.1379D+09                  7274.5232    36.4762    55.4309
         TRA.     0.1418D+28                  1987.2065     4.9680    41.0619
         TOT.                       22.685    9261.7297    41.4442    96.4928

   *: NOTE: HEATS OF FORMATION ARE RELATIVE TO THE
            ELEMENTS IN THEIR STANDARD STATE AT 298K
              (=  Standard Enthalpy of Formation).

            Hvib:  Zero-point energy is not included.
                   frequencies of less than zero cm-1 are not included.
            Hrot = (3/2)RT
            Htra = (3/2)RT + pV = (5/2)RT

            Heat capacity is Cp, not Cv

          For more information, see: HTTP://OpenMOPAC.net/Manual/thermochemistry.html


           FORCE CONSTANT IN CARTESIAN COORDINATES (Millidynes/A)

    ATOM   CHEMICAL       X               Y               Z
   NUMBER   SYMBOL  FORCE CONSTANT  FORCE CONSTANT  FORCE CONSTANT

      1       C        7.227165        8.556119        8.455567
      2       C        7.264900        8.553168        8.467044
      3       C        8.315490        8.372670        8.453607
      4       C        8.390417        8.337006        8.447343
      5       C        8.232749        8.423389        8.232532
      6       C       15.243607        3.581411        7.756955
      7       C       15.237505        3.708270        7.629246
      8       H        1.376305        2.148713        2.693439
      9       H        1.384292        4.145220        0.687162
     10       H        1.618893        2.252298        2.524878
     11       H        4.544866        0.750672        1.076692
     12       H        1.528345        4.539134        0.727231
     13       H        1.828494        2.208528        2.742865
     14       H        5.196259        0.716564        0.831999
     15       H        0.736475        1.698728        4.293783
     16       H        1.442826        4.618261        0.705412
     17       H        4.856279        0.719411        1.168231
     18       H        3.190068        0.967699        2.432742
     19       H        3.192145        0.812615        2.583223

 **********************
 *                    *
 * JOB ENDED NORMALLY *
 *                    *
 **********************



 TOTAL JOB TIME:             6.59 SECONDS

 == MOPAC DONE ==
