 *******************************************************************************
 ** Site#: 14399        For non-commercial use only    Version 18.184L 64BITS **
 *******************************************************************************
 ** Cite this program as: MOPAC2016, Version: 18.184L, James J. P. Stewart,   **
 ** Stewart Computational Chemistry, web: HTTP://OpenMOPAC.net. Days left:  20**
 *******************************************************************************
 **                                                                           **
 **                                MOPAC2016                                  **
 **                                                                           **
 *******************************************************************************

                              PM3 CALCULATION RESULTS

 *******************************************************************************
 *  CALCULATION DONE:                                Thu Jun 13 15:50:55 2019  *
 *  PM3        - The PM3 Hamiltonian to be used
 *  PRECISE    - CRITERIA TO BE INCREASED BY 100 TIMES
 *  NOSYM      - POINT-GROUP SYMMETRY SET TO C1
 *  THREADS=1  - MULTI-THREADING NOT USED
 *  T=         - A TIME OF 172800.0 SECONDS REQUESTED
 *  DUMP=N     - RESTART FILE WRITTEN EVERY  7200.000 SECONDS
 *******************************************************************************
pm3  precise nosym THREADS=1
 InChI=1S/C10H10/c1-2-6-10-8-4-3-7-9(10)5-1/h1,4-8H,2-3H2

   ATOM   CHEMICAL          X               Y               Z
  NUMBER   SYMBOL      (ANGSTROMS)     (ANGSTROMS)     (ANGSTROMS)
 
     1       C          2.37800000  *  -0.79400000  *  -0.71700000  *
     2       C         -2.37800000  *   0.79400000  *   0.71700000  *
     3       C         -0.04270000  *  -0.73220000  *  -0.08070000  *
     4       C          0.04270000  *   0.73220000  *   0.08070000  *
     5       C          1.03700000  *  -1.43520000  *  -0.44910000  *
     6       C         -1.03700000  *   1.43520000  *   0.44910000  *
     7       C          2.40290000  *   0.70450000  *  -0.53570000  *
     8       C         -2.40290000  *  -0.70450000  *   0.53570000  *
     9       C          1.32840000  *   1.40590000  *  -0.16880000  *
    10       C         -1.32840000  *  -1.40590000  *   0.16880000  *
    11       H          2.67820000  *  -1.02770000  *  -1.75990000  *
    12       H          3.12690000  *  -1.24420000  *  -0.03230000  *
    13       H         -3.12690000  *   1.24420000  *   0.03230000  *
    14       H         -2.67820000  *   1.02770000  *   1.75990000  *
    15       H          0.96480000  *  -2.51040000  *  -0.56510000  *
    16       H          3.33470000  *   1.22710000  *  -0.71220000  *
    17       H         -3.33470000  *  -1.22710000  *   0.71220000  *
    18       H         -0.96480000  *   2.51040000  *   0.56510000  *
    19       H         -1.41160000  *  -2.48050000  *   0.05580000  *
    20       H          1.41160000  *   2.48050000  *  -0.05580000  *
 


          CARTESIAN COORDINATES 

    NO.       ATOM           X           Y           Z

     1         C          2.3780     -0.7940     -0.7170
     2         C         -2.3780      0.7940      0.7170
     3         C         -0.0427     -0.7322     -0.0807
     4         C          0.0427      0.7322      0.0807
     5         C          1.0370     -1.4352     -0.4491
     6         C         -1.0370      1.4352      0.4491
     7         C          2.4029      0.7045     -0.5357
     8         C         -2.4029     -0.7045      0.5357
     9         C          1.3284      1.4059     -0.1688
    10         C         -1.3284     -1.4059      0.1688
    11         H          2.6782     -1.0277     -1.7599
    12         H          3.1269     -1.2442     -0.0323
    13         H         -3.1269      1.2442      0.0323
    14         H         -2.6782      1.0277      1.7599
    15         H          0.9648     -2.5104     -0.5651
    16         H          3.3347      1.2271     -0.7122
    17         H         -3.3347     -1.2271      0.7122
    18         H         -0.9648      2.5104      0.5651
    19         H         -1.4116     -2.4805      0.0558
    20         H          1.4116      2.4805     -0.0558

  H: (PM3): J. J. P. STEWART, J. COMP. CHEM. 10, 209 (1989).
  C: (PM3): J. J. P. STEWART, J. COMP. CHEM. 10, 209 (1989).

           Empirical Formula: C10 H10  =    20 atoms



      MOLECULAR POINT GROUP   :   C1  


      RHF CALCULATION, NO. OF DOUBLY OCCUPIED LEVELS = 25


          Geometry optimization using EF

          DIAGONAL MATRIX USED AS START HESSIAN

 CYCLE:     1 TIME:   0.031 TIME LEFT:  2.00D  GRAD.:    75.337 HEAT:  50.85212
 CYCLE:     2 TIME:   0.035 TIME LEFT:  2.00D  GRAD.:    59.359 HEAT:  49.76554
 CYCLE:     3 TIME:   0.023 TIME LEFT:  2.00D  GRAD.:    60.279 HEAT:  49.57269
 CYCLE:     4 TIME:   0.031 TIME LEFT:  2.00D  GRAD.:    31.284 HEAT:  48.73117
 CYCLE:     5 TIME:   0.027 TIME LEFT:  2.00D  GRAD.:    22.689 HEAT:  48.46315
 CYCLE:     6 TIME:   0.027 TIME LEFT:  2.00D  GRAD.:    15.318 HEAT:  48.30992
 CYCLE:     7 TIME:   0.023 TIME LEFT:  2.00D  GRAD.:    14.570 HEAT:  48.13149
 CYCLE:     8 TIME:   0.023 TIME LEFT:  2.00D  GRAD.:    33.365 HEAT:  48.12949
 CYCLE:     9 TIME:   0.023 TIME LEFT:  2.00D  GRAD.:    26.754 HEAT:  48.04404
 CYCLE:    10 TIME:   0.027 TIME LEFT:  2.00D  GRAD.:    12.801 HEAT:  47.92920
 CYCLE:    11 TIME:   0.023 TIME LEFT:  2.00D  GRAD.:     9.994 HEAT:  47.90080
 CYCLE:    12 TIME:   0.020 TIME LEFT:  2.00D  GRAD.:     5.975 HEAT:  47.88413
 CYCLE:    13 TIME:   0.023 TIME LEFT:  2.00D  GRAD.:     6.552 HEAT:  47.88207
 CYCLE:    14 TIME:   0.023 TIME LEFT:  2.00D  GRAD.:     4.549 HEAT:  47.87432
 CYCLE:    15 TIME:   0.023 TIME LEFT:  2.00D  GRAD.:     3.134 HEAT:  47.87082
 CYCLE:    16 TIME:   0.023 TIME LEFT:  2.00D  GRAD.:     1.014 HEAT:  47.86747
 CYCLE:    17 TIME:   0.023 TIME LEFT:  2.00D  GRAD.:     1.162 HEAT:  47.86695
 CYCLE:    18 TIME:   0.023 TIME LEFT:  2.00D  GRAD.:     0.585 HEAT:  47.86639
 CYCLE:    19 TIME:   0.020 TIME LEFT:  2.00D  GRAD.:     1.056 HEAT:  47.86634
 CYCLE:    20 TIME:   0.023 TIME LEFT:  2.00D  GRAD.:     1.883 HEAT:  47.86702
 CYCLE:    21 TIME:   0.023 TIME LEFT:  2.00D  GRAD.:     0.485 HEAT:  47.86601
 CYCLE:    22 TIME:   0.023 TIME LEFT:  2.00D  GRAD.:     1.716 HEAT:  47.86640
 CYCLE:    23 TIME:   0.023 TIME LEFT:  2.00D  GRAD.:     0.288 HEAT:  47.86594
 CYCLE:    24 TIME:   0.023 TIME LEFT:  2.00D  GRAD.:     0.555 HEAT:  47.86595
 CYCLE:    25 TIME:   0.020 TIME LEFT:  2.00D  GRAD.:     0.552 HEAT:  47.86595
 CYCLE:    26 TIME:   0.023 TIME LEFT:  2.00D  GRAD.:     0.343 HEAT:  47.86590
 CYCLE:    27 TIME:   0.023 TIME LEFT:  2.00D  GRAD.:     0.234 HEAT:  47.86587
 CYCLE:    28 TIME:   0.023 TIME LEFT:  2.00D  GRAD.:     0.294 HEAT:  47.86588
 CYCLE:    29 TIME:   0.023 TIME LEFT:  2.00D  GRAD.:     0.060 HEAT:  47.86585
 CYCLE:    30 TIME:   0.023 TIME LEFT:  2.00D  GRAD.:     0.099 HEAT:  47.86585
 CYCLE:    31 TIME:   0.023 TIME LEFT:  2.00D  GRAD.:     0.046 HEAT:  47.86584

     GRADIENT =  0.04580  IS LESS THAN CUTOFF =  0.05000



 -------------------------------------------------------------------------------
 pm3  precise nosym THREADS=1
 InChI=1S/C10H10/c1-2-6-10-8-4-3-7-9(10)5-1/h1,4-8H,2-3H2



     GEOMETRY OPTIMISED USING EIGENVECTOR FOLLOWING (EF).     
     SCF FIELD WAS ACHIEVED                                   


                              PM3 CALCULATION
                                                       MOPAC2016 (Version: 18.184L)
                                                       Thu Jun 13 15:50:56 2019
                                                       No. of days remaining =  20




          FINAL HEAT OF FORMATION =         47.86584 KCAL/MOL =     200.27069 KJ/MOL


          TOTAL ENERGY            =      -1337.65528 EV
          ELECTRONIC ENERGY       =      -7055.89310 EV  POINT GROUP:     C1  
          CORE-CORE REPULSION     =       5718.23782 EV
          COSMO AREA              =        169.10 SQUARE ANGSTROMS
          COSMO VOLUME            =        167.97 CUBIC ANGSTROMS

          GRADIENT NORM           =          0.04580 = 0.01024 PER ATOM
          IONIZATION POTENTIAL    =          8.193178 EV
          HOMO LUMO ENERGIES (EV) =         -8.193 -0.180
          NO. OF FILLED LEVELS    =         25
          MOLECULAR WEIGHT        =        130.1890

          MOLECULAR DIMENSIONS (Angstroms)

            Atom       Atom       Distance
            H    17    H    16     7.24038
            H    18    H    15     5.52664
            H    14    H    11     1.77244


          SCF CALCULATIONS        =         37
 
          WALL-CLOCK TIME         =          0.805 SECONDS
          COMPUTATION TIME        =          0.316 SECONDS




   ATOM   CHEMICAL          X               Y               Z
  NUMBER   SYMBOL      (ANGSTROMS)     (ANGSTROMS)     (ANGSTROMS)
 
     1       C          2.37544628  *  -0.79455854  *  -0.71649368  *
     2       C         -2.37544774  *   0.79454978  *   0.71648733  *
     3       C         -0.02727313  *  -0.72686598  *  -0.08396875  *
     4       C          0.02727401  *   0.72686910  *   0.08398000  *
     5       C          1.05983939  *  -1.42824188  *  -0.45406352  *
     6       C         -1.05983485  *   1.42825509  *   0.45405333  *
     7       C          2.38912682  *   0.67916877  *  -0.53532148  *
     8       C         -2.38912607  *  -0.67917124  *   0.53531157  *
     9       C          1.30867902  *   1.37628169  *  -0.16732026  *
    10       C         -1.30868347  *  -1.37628594  *   0.16732916  *
    11       H          2.69457981  *  -1.03650570  *  -1.75174462  *
    12       H          3.13703812  *  -1.24990677  *  -0.04956560  *
    13       H         -3.13703863  *   1.24991116  *   0.04955560  *
    14       H         -2.69458240  *   1.03650429  *   1.75176574  *
    15       H          1.01051448  *  -2.51663260  *  -0.57747758  *
    16       H          3.34553839  *   1.18043577  *  -0.72090630  *
    17       H         -3.34553947  *  -1.18043512  *   0.72090213  *
    18       H         -1.01051254  *   2.51662199  *   0.57748607  *
    19       H         -1.35159617  *  -2.46455901  *   0.04194377  *
    20       H          1.35159751  *   2.46456302  *  -0.04193750  *

                             CARTESIAN COORDINATES

   1    C        2.375446276    -0.794558537    -0.716493682
   2    C       -2.375447743     0.794549777     0.716487330
   3    C       -0.027273135    -0.726865980    -0.083968753
   4    C        0.027274009     0.726869099     0.083979999
   5    C        1.059839395    -1.428241877    -0.454063517
   6    C       -1.059834849     1.428255091     0.454053334
   7    C        2.389126824     0.679168774    -0.535321475
   8    C       -2.389126069    -0.679171242     0.535311569
   9    C        1.308679017     1.376281693    -0.167320260
  10    C       -1.308683465    -1.376285935     0.167329163
  11    H        2.694579808    -1.036505698    -1.751744621
  12    H        3.137038120    -1.249906768    -0.049565602
  13    H       -3.137038634     1.249911156     0.049555596
  14    H       -2.694582399     1.036504292     1.751765740
  15    H        1.010514480    -2.516632602    -0.577477581
  16    H        3.345538394     1.180435767    -0.720906296
  17    H       -3.345539471    -1.180435120     0.720902132
  18    H       -1.010512536     2.516621985     0.577486075
  19    H       -1.351596169    -2.464559008     0.041943775
  20    H        1.351597511     2.464563016    -0.041937496


           Empirical Formula: C10 H10  =    20 atoms



      MOLECULAR POINT GROUP   :   C1  


                  EIGENVALUES  
 -40.83021 -35.93994 -31.72738 -29.04618 -27.54747 -23.15663 -21.29908 -20.90394
 -17.51520 -17.48031 -17.05771 -15.38422 -15.13123 -15.04905 -14.63988 -14.49751
 -14.16534 -13.64631 -12.66331 -12.62595 -11.89835 -11.48803 -11.11633  -9.58933
  -8.19318  -0.18043   0.50669   1.71823   2.67611   3.17308   3.29301   3.39411
   3.41046   3.60943   3.68703   3.78075   3.94693   4.14002   4.40010   4.43563
   4.46296   4.47538   4.86112   5.13010   5.32473   5.43163   5.68115   5.80171
   6.43318   6.46357


              NET ATOMIC CHARGES AND DIPOLE CONTRIBUTIONS

  ATOM NO.   TYPE          CHARGE      No. of ELECS.   s-Pop       p-Pop       
    1          C          -0.021785        4.0218     1.13121     2.89057
    2          C          -0.021788        4.0218     1.13122     2.89057
    3          C          -0.036972        4.0370     1.16161     2.87536
    4          C          -0.036973        4.0370     1.16161     2.87536
    5          C          -0.135183        4.1352     1.19399     2.94119
    6          C          -0.135183        4.1352     1.19399     2.94119
    7          C          -0.134598        4.1346     1.19482     2.93978
    8          C          -0.134596        4.1346     1.19482     2.93978
    9          C          -0.098967        4.0990     1.17769     2.92128
   10          C          -0.098965        4.0990     1.17769     2.92128
   11          H           0.063364        0.9366     0.93664
   12          H           0.063365        0.9366     0.93664
   13          H           0.063364        0.9366     0.93664
   14          H           0.063364        0.9366     0.93664
   15          H           0.101726        0.8983     0.89827
   16          H           0.097934        0.9021     0.90207
   17          H           0.097934        0.9021     0.90207
   18          H           0.101727        0.8983     0.89827
   19          H           0.101115        0.8989     0.89888
   20          H           0.101115        0.8989     0.89888
 DIPOLE           X         Y         Z       TOTAL
 POINT-CHG.    -0.000    -0.000     0.000     0.000
 HYBRID         0.000     0.000     0.000     0.000
 SUM            0.000    -0.000     0.000     0.000


          ATOMIC ORBITAL ELECTRON POPULATIONS

     Atom    s        px        py        pz   
    1  C   1.13121   0.95472   0.93380   1.00206
    2  C   1.13122   0.95472   0.93380   1.00205
    3  C   1.16161   0.94026   0.92997   1.00514
    4  C   1.16161   0.94026   0.92997   1.00514
    5  C   1.19399   0.94951   0.98397   1.00770
    6  C   1.19399   0.94951   0.98397   1.00771
    7  C   1.19482   0.97856   0.96168   0.99954
    8  C   1.19482   0.97856   0.96168   0.99954
    9  C   1.17769   0.93483   0.97794   1.00851
   10  C   1.17769   0.93483   0.97794   1.00851
   11  H   0.93664
   12  H   0.93664
   13  H   0.93664
   14  H   0.93664
   15  H   0.89827
   16  H   0.90207
   17  H   0.90207
   18  H   0.89827
   19  H   0.89888
   20  H   0.89888
 *******************************************************************************
 ** Site#: 14399        For non-commercial use only    Version 18.184L 64BITS **
 *******************************************************************************
 ** Cite this program as: MOPAC2016, Version: 18.184L, James J. P. Stewart,   **
 ** Stewart Computational Chemistry, web: HTTP://OpenMOPAC.net. Days left:  20**
 *******************************************************************************
 **                                                                           **
 **                                MOPAC2016                                  **
 **                                                                           **
 *******************************************************************************

                              PM3 CALCULATION RESULTS

 *******************************************************************************
 *  CALCULATION DONE:                                Thu Jun 13 15:50:56 2019  *
 *  PM3        - The PM3 Hamiltonian to be used
 *  OLDGEO     - PREVIOUS GEOMETRY TO BE USED
 *  PRECISE    - CRITERIA TO BE INCREASED BY 100 TIMES
 *  NOSYM      - POINT-GROUP SYMMETRY SET TO C1
 *  THREADS=1  - MULTI-THREADING NOT USED
 *  T=         - A TIME OF 172800.0 SECONDS REQUESTED
 *  DUMP=N     - RESTART FILE WRITTEN EVERY  7200.000 SECONDS
 *  THERMO     - THERMODYNAMIC QUANTITIES TO BE CALCULATED
 *******************************************************************************
oldgeo thermo nosym precise THREADS=1  pm3
 InChI=1S/C10H10/c1-2-6-10-8-4-3-7-9(10)5-1/h1,4-8H,2-3H2

   ATOM   CHEMICAL          X               Y               Z
  NUMBER   SYMBOL      (ANGSTROMS)     (ANGSTROMS)     (ANGSTROMS)
 
     1       C          2.37544628  *  -0.79455854  *  -0.71649368  *
     2       C         -2.37544774  *   0.79454978  *   0.71648733  *
     3       C         -0.02727313  *  -0.72686598  *  -0.08396875  *
     4       C          0.02727401  *   0.72686910  *   0.08398000  *
     5       C          1.05983939  *  -1.42824188  *  -0.45406352  *
     6       C         -1.05983485  *   1.42825509  *   0.45405333  *
     7       C          2.38912682  *   0.67916877  *  -0.53532148  *
     8       C         -2.38912607  *  -0.67917124  *   0.53531157  *
     9       C          1.30867902  *   1.37628169  *  -0.16732026  *
    10       C         -1.30868347  *  -1.37628594  *   0.16732916  *
    11       H          2.69457981  *  -1.03650570  *  -1.75174462  *
    12       H          3.13703812  *  -1.24990677  *  -0.04956560  *
    13       H         -3.13703863  *   1.24991116  *   0.04955560  *
    14       H         -2.69458240  *   1.03650429  *   1.75176574  *
    15       H          1.01051448  *  -2.51663260  *  -0.57747758  *
    16       H          3.34553839  *   1.18043577  *  -0.72090630  *
    17       H         -3.34553947  *  -1.18043512  *   0.72090213  *
    18       H         -1.01051254  *   2.51662199  *   0.57748607  *
    19       H         -1.35159617  *  -2.46455901  *   0.04194377  *
    20       H          1.35159751  *   2.46456302  *  -0.04193750  *
 


          CARTESIAN COORDINATES 

    NO.       ATOM           X           Y           Z

     1         C          2.3754     -0.7946     -0.7165
     2         C         -2.3754      0.7945      0.7165
     3         C         -0.0273     -0.7269     -0.0840
     4         C          0.0273      0.7269      0.0840
     5         C          1.0598     -1.4282     -0.4541
     6         C         -1.0598      1.4283      0.4541
     7         C          2.3891      0.6792     -0.5353
     8         C         -2.3891     -0.6792      0.5353
     9         C          1.3087      1.3763     -0.1673
    10         C         -1.3087     -1.3763      0.1673
    11         H          2.6946     -1.0365     -1.7517
    12         H          3.1370     -1.2499     -0.0496
    13         H         -3.1370      1.2499      0.0496
    14         H         -2.6946      1.0365      1.7518
    15         H          1.0105     -2.5166     -0.5775
    16         H          3.3455      1.1804     -0.7209
    17         H         -3.3455     -1.1804      0.7209
    18         H         -1.0105      2.5166      0.5775
    19         H         -1.3516     -2.4646      0.0419
    20         H          1.3516      2.4646     -0.0419

  H: (PM3): J. J. P. STEWART, J. COMP. CHEM. 10, 209 (1989).
  C: (PM3): J. J. P. STEWART, J. COMP. CHEM. 10, 209 (1989).

           Empirical Formula: C10 H10  =    20 atoms



      MOLECULAR POINT GROUP   :   C1  


      RHF CALCULATION, NO. OF DOUBLY OCCUPIED LEVELS = 25



          HEAT OF FORMATION =      47.865843 KCALS/MOLE


          CARTESIAN COORDINATE DERIVATIVES

   NUMBER  ATOM         X            Y            Z

     1       C     -0.004965     0.006785    -0.004290
     2       C     -0.002547     0.011873    -0.001833
     3       C     -0.007594    -0.006632    -0.002593
     4       C      0.009792     0.002138     0.005269
     5       C     -0.005068    -0.015541     0.002762
     6       C     -0.004937    -0.010577    -0.010309
     7       C     -0.007713     0.003876     0.001214
     8       C     -0.005161    -0.004400    -0.002194
     9       C      0.008972     0.008031    -0.001702
    10       C      0.008660     0.000244     0.001274
    11       H      0.007871     0.001325     0.007545
    12       H     -0.003260     0.002208    -0.001337
    13       H      0.004708    -0.004590    -0.004420
    14       H      0.003787    -0.003928     0.008552
    15       H     -0.008336     0.003784     0.002182
    16       H      0.004294    -0.001109    -0.003729
    17       H     -0.003928     0.001335     0.004066
    18       H      0.003713     0.010655    -0.000491
    19       H      0.007416     0.002088    -0.005143
    20       H     -0.005706    -0.007564     0.005177
 


          GRADIENT NORM =   0.04620


          TIME FOR SCF CALCULATION =    0.02

          TIME FOR DERIVATIVES     =    0.01

          MOLECULAR WEIGHT =  130.19



          ROTATIONAL CONSTANTS IN CM(-1)

          A =    0.09807647   B =    0.03880971   C =    0.02809972



           PRINCIPAL MOMENTS OF INERTIA IN UNITS OF 10**(-40)*GRAM-CM**2

          A =      285.4179   B =      721.2828   C =      996.1942


          ORIENTATION OF MOLECULE IN FORCE CALCULATION

    NO.       ATOM         X         Y         Z

     1          C      -2.6053    0.0000    0.0000
     2          C       2.6053    0.0000    0.0000
     3          C      -0.2199    0.6984    0.0000
     4          C       0.2199   -0.6984    0.0000
     5          C      -1.5268    1.0189    0.0001
     6          C       1.5268   -1.0189   -0.0001
     7          C      -2.1185   -1.4028    0.0001
     8          C       2.1185    1.4028   -0.0001
     9          C      -0.8195   -1.7214    0.0001
    10          C       0.8195    1.7214   -0.0001
    11          H      -3.2548    0.1593   -0.8860
    12          H      -3.2551    0.1594    0.8857
    13          H       3.2551   -0.1594   -0.8857
    14          H       3.2548   -0.1593    0.8860
    15          H      -1.8477    2.0674    0.0002
    16          H      -2.8887   -2.1821    0.0001
    17          H       2.8887    2.1821   -0.0001
    18          H       1.8477   -2.0674   -0.0002
    19          H       0.4923    2.7677   -0.0003
    20          H      -0.4923   -2.7677    0.0003


    FIRST DERIVATIVES WILL BE USED IN THE CALCULATION OF SECOND DERIVATIVES

          ESTIMATED TIME TO COMPLETE CALCULATION =        7.50 SECONDS

    FOR POINT-GROUP C1   THERE ARE   1 UNIQUE SYMMETRY FUNCTIONS.

 STEP:   1 TIME =     0.05 SECS, INTEGRAL =      0.05 TIME LEFT: 172799.92
 STEP:   2 TIME =     0.05 SECS, INTEGRAL =      0.10 TIME LEFT: 172799.87
 STEP:   3 TIME =     0.04 SECS, INTEGRAL =      0.14 TIME LEFT: 172799.83
 STEP:   4 TIME =     0.05 SECS, INTEGRAL =      0.19 TIME LEFT: 172799.78
 STEP:   5 TIME =     0.04 SECS, INTEGRAL =      0.23 TIME LEFT: 172799.74
 STEP:   6 TIME =     0.05 SECS, INTEGRAL =      0.28 TIME LEFT: 172799.69
 STEP:   7 TIME =     0.05 SECS, INTEGRAL =      0.32 TIME LEFT: 172799.64
 STEP:   8 TIME =     0.04 SECS, INTEGRAL =      0.37 TIME LEFT: 172799.60
 STEP:   9 TIME =     0.05 SECS, INTEGRAL =      0.41 TIME LEFT: 172799.55
 STEP:  10 TIME =     0.05 SECS, INTEGRAL =      0.46 TIME LEFT: 172799.51
 STEP:  11 TIME =     0.04 SECS, INTEGRAL =      0.50 TIME LEFT: 172799.46
 STEP:  12 TIME =     0.05 SECS, INTEGRAL =      0.55 TIME LEFT: 172799.42
 STEP:  13 TIME =     0.05 SECS, INTEGRAL =      0.60 TIME LEFT: 172799.37
 STEP:  14 TIME =     0.04 SECS, INTEGRAL =      0.64 TIME LEFT: 172799.33
 STEP:  15 TIME =     0.05 SECS, INTEGRAL =      0.69 TIME LEFT: 172799.28
 STEP:  16 TIME =     0.05 SECS, INTEGRAL =      0.73 TIME LEFT: 172799.23
 STEP:  17 TIME =     0.04 SECS, INTEGRAL =      0.78 TIME LEFT: 172799.19
 STEP:  18 TIME =     0.05 SECS, INTEGRAL =      0.82 TIME LEFT: 172799.14
 STEP:  19 TIME =     0.05 SECS, INTEGRAL =      0.87 TIME LEFT: 172799.10
 STEP:  20 TIME =     0.04 SECS, INTEGRAL =      0.91 TIME LEFT: 172799.05
 STEP:  21 TIME =     0.05 SECS, INTEGRAL =      0.96 TIME LEFT: 172799.01
 STEP:  22 TIME =     0.05 SECS, INTEGRAL =      1.01 TIME LEFT: 172798.96
 STEP:  23 TIME =     0.04 SECS, INTEGRAL =      1.05 TIME LEFT: 172798.92
 STEP:  24 TIME =     0.05 SECS, INTEGRAL =      1.10 TIME LEFT: 172798.87
 STEP:  25 TIME =     0.04 SECS, INTEGRAL =      1.14 TIME LEFT: 172798.82
 STEP:  26 TIME =     0.04 SECS, INTEGRAL =      1.19 TIME LEFT: 172798.78
 STEP:  27 TIME =     0.05 SECS, INTEGRAL =      1.23 TIME LEFT: 172798.73
 STEP:  28 TIME =     0.04 SECS, INTEGRAL =      1.28 TIME LEFT: 172798.69
 STEP:  29 TIME =     0.04 SECS, INTEGRAL =      1.32 TIME LEFT: 172798.65
 STEP:  30 TIME =     0.05 SECS, INTEGRAL =      1.37 TIME LEFT: 172798.60
 STEP:  31 TIME =     0.04 SECS, INTEGRAL =      1.41 TIME LEFT: 172798.56
 STEP:  32 TIME =     0.05 SECS, INTEGRAL =      1.46 TIME LEFT: 172798.51
 STEP:  33 TIME =     0.05 SECS, INTEGRAL =      1.50 TIME LEFT: 172798.46
 STEP:  34 TIME =     0.04 SECS, INTEGRAL =      1.55 TIME LEFT: 172798.42
 STEP:  35 TIME =     0.05 SECS, INTEGRAL =      1.59 TIME LEFT: 172798.38
 STEP:  36 TIME =     0.04 SECS, INTEGRAL =      1.64 TIME LEFT: 172798.33
 STEP:  37 TIME =     0.05 SECS, INTEGRAL =      1.68 TIME LEFT: 172798.29
 STEP:  38 TIME =     0.05 SECS, INTEGRAL =      1.73 TIME LEFT: 172798.24
 STEP:  39 TIME =     0.05 SECS, INTEGRAL =      1.78 TIME LEFT: 172798.19
 STEP:  40 TIME =     0.06 SECS, INTEGRAL =      1.84 TIME LEFT: 172798.13
 STEP:  41 TIME =     0.05 SECS, INTEGRAL =      1.88 TIME LEFT: 172798.09
 STEP:  42 TIME =     0.04 SECS, INTEGRAL =      1.93 TIME LEFT: 172798.04
 STEP:  43 TIME =     0.05 SECS, INTEGRAL =      1.97 TIME LEFT: 172798.00
 STEP:  44 TIME =     0.04 SECS, INTEGRAL =      2.02 TIME LEFT: 172797.95
 STEP:  45 TIME =     0.05 SECS, INTEGRAL =      2.06 TIME LEFT: 172797.91
 STEP:  46 TIME =     0.04 SECS, INTEGRAL =      2.11 TIME LEFT: 172797.86
 STEP:  47 TIME =     0.04 SECS, INTEGRAL =      2.15 TIME LEFT: 172797.82
 STEP:  48 TIME =     0.05 SECS, INTEGRAL =      2.20 TIME LEFT: 172797.77
 STEP:  49 TIME =     0.05 SECS, INTEGRAL =      2.25 TIME LEFT: 172797.72
 STEP:  50 TIME =     0.05 SECS, INTEGRAL =      2.29 TIME LEFT: 172797.68
 STEP:  51 TIME =     0.05 SECS, INTEGRAL =      2.34 TIME LEFT: 172797.63
 STEP:  52 TIME =     0.04 SECS, INTEGRAL =      2.38 TIME LEFT: 172797.59
 STEP:  53 TIME =     0.04 SECS, INTEGRAL =      2.43 TIME LEFT: 172797.54
 STEP:  54 TIME =     0.05 SECS, INTEGRAL =      2.47 TIME LEFT: 172797.50
 STEP:  55 TIME =     0.05 SECS, INTEGRAL =      2.52 TIME LEFT: 172797.45
 STEP:  56 TIME =     0.04 SECS, INTEGRAL =      2.56 TIME LEFT: 172797.41
 STEP:  57 TIME =     0.04 SECS, INTEGRAL =      2.61 TIME LEFT: 172797.36
 STEP:  58 TIME =     0.05 SECS, INTEGRAL =      2.65 TIME LEFT: 172797.32
 STEP:  59 TIME =     0.04 SECS, INTEGRAL =      2.70 TIME LEFT: 172797.27
 STEP:  60 TIME =     0.05 SECS, INTEGRAL =      2.74 TIME LEFT: 172797.23

(To convert to Hartree/Bohr^2, multiply by (10^(-21) x N x a0^2)/(4.184 x 627.51) =  0.0642)


           FORCE MATRIX IN MILLIDYNES/ANGSTROM


                  C  1       C  2       C  3       C  4       C  5       C  6
 ------------------------------------------------------------------------------
     C    1  15.105736
     C    2   0.007970  15.105076
     C    3   0.837873   0.185875  19.312015
     C    4   0.185888   0.837975   5.227987  19.312416
     C    5   5.050349   0.026740   9.814256   1.017283  18.012565
     C    6   0.027260   5.050774   1.017012   9.814822   0.114675  18.015438
     C    7   5.035707   0.016917   0.060207   1.076005   0.729912   0.115454
     C    8   0.017133   5.035540   1.076107   0.060430   0.115439   0.729645
     C    9   0.846797   0.135720   0.706979   5.427026   0.061784   1.040138
     C   10   0.135702   0.847414   5.425469   0.706686   1.040747   0.061630
     H   11   4.362515   0.001190   0.036674   0.014745   0.416304   0.004952
     H   12   4.362266   0.001256   0.036724   0.014743   0.416330   0.004951
     H   13   0.001219   4.362057   0.014754   0.036723   0.004867   0.416372
     H   14   0.001278   4.361816   0.014754   0.036682   0.004875   0.416356
     H   15   0.422580   0.003020   0.453544   0.113431   4.800272   0.009198
     H   16   0.423983   0.010696   0.005616   0.124145   0.047097   0.007957
     H   17   0.010702   0.424015   0.124148   0.005648   0.007941   0.047146
     H   18   0.003046   0.422552   0.113521   0.453582   0.009203   4.800889
     H   19   0.003168   0.125215   0.442202   0.041288   0.041732   0.004061
     H   20   0.125224   0.003191   0.041259   0.442190   0.004046   0.041888


                  C  7       C  8       C  9       C 10       H 11       H 12
 ------------------------------------------------------------------------------
     C    7  18.121251
     C    8   0.005425  18.121168
     C    9  10.407057   0.006677  18.567806
     C   10   0.006627  10.406963   0.048355  18.564649
     H   11   0.418672   0.002565   0.038845   0.019186   4.951749
     H   12   0.418669   0.002545   0.038902   0.019200   0.567878   4.951507
     H   13   0.002503   0.418761   0.019160   0.038950   0.000507   0.000179
     H   14   0.002526   0.418708   0.019192   0.038920   0.000179   0.000509
     H   15   0.046426   0.006718   0.005201   0.079439   0.027841   0.027779
     H   16   4.829300   0.001251   0.441622   0.002145   0.027703   0.027744
     H   17   0.001265   4.829304   0.002140   0.441445   0.001603   0.001599
     H   18   0.006798   0.046451   0.079612   0.005226   0.001202   0.001192
     H   19   0.000946   0.442279   0.007459   4.803471   0.000794   0.000794
     H   20   0.442244   0.000990   4.803417   0.007497   0.016239   0.016217


                  H 13       H 14       H 15       H 16       H 17       H 18
 ------------------------------------------------------------------------------
     H   13   4.951269
     H   14   0.567799   4.951011
     H   15   0.001187   0.001187   5.186577
     H   16   0.001591   0.001582   0.006700   5.204951
     H   17   0.027726   0.027698   0.004972   0.000337   5.204975
     H   18   0.027797   0.027827   0.008394   0.005002   0.006687   5.187100
     H   19   0.016224   0.016209   0.028186   0.000364   0.068184   0.001091
     H   20   0.000783   0.000788   0.001086   0.068194   0.000360   0.028178


                  H 19       H 20
 ------------------------------
     H   19   5.178740
     H   20   0.001338   5.178640


          HEAT OF FORMATION =      47.865843 KCALS/MOLE

          ZERO POINT ENERGY     105.221 KCAL/MOL


           NORMAL COORDINATE ANALYSIS (Total motion = 1 Angstrom)


   Root No.       1         2         3         4         5         6         7         8

                 1 A       2 A       3 A       4 A       5 A       6 A       7 A       8 A   

                  57.8     174.1     204.4     298.5     363.9     379.2     455.2     480.6
  
           1   -0.0000   -0.0000    0.0000    0.0000    0.0000    0.0006    0.0000   -0.0627
           2    0.0000   -0.0000   -0.0000    0.0000    0.0001   -0.0358   -0.0000    0.0113
           3    0.0504    0.0190   -0.0282   -0.0096    0.0030   -0.0000   -0.0035   -0.0000
           4    0.0000    0.0000   -0.0000   -0.0000   -0.0000    0.0006   -0.0000    0.0627
           5    0.0000   -0.0000   -0.0000    0.0000    0.0001   -0.0358    0.0000   -0.0113
           6    0.0504    0.0190    0.0282   -0.0096   -0.0030   -0.0000   -0.0035    0.0000
           7   -0.0000   -0.0000    0.0000    0.0000    0.0000   -0.0166    0.0000   -0.0409
           8   -0.0000    0.0000    0.0000   -0.0000   -0.0001    0.0518   -0.0000   -0.0143
           9   -0.0150   -0.0469    0.0156   -0.0330   -0.0149   -0.0000    0.0441    0.0000
          10    0.0000   -0.0000   -0.0000   -0.0000    0.0000   -0.0166   -0.0000    0.0409
          11    0.0000    0.0000    0.0000   -0.0000   -0.0001    0.0518   -0.0000    0.0143
          12   -0.0150   -0.0470   -0.0156   -0.0330    0.0147    0.0000    0.0441    0.0000
          13   -0.0000   -0.0000    0.0000    0.0000    0.0000   -0.0294    0.0000   -0.0462
          14    0.0000    0.0000   -0.0000   -0.0000   -0.0000    0.0089    0.0000   -0.0053
          15    0.0162   -0.0462    0.0365    0.0404    0.0274    0.0001   -0.0058    0.0000
          16    0.0000   -0.0000   -0.0000    0.0000    0.0000   -0.0294   -0.0000    0.0462
          17    0.0000    0.0000    0.0000   -0.0000   -0.0000    0.0089    0.0000    0.0053
          18    0.0162   -0.0462   -0.0364    0.0404   -0.0273   -0.0000   -0.0059   -0.0000
          19    0.0000    0.0000   -0.0000   -0.0000   -0.0000    0.0182   -0.0000    0.0126
          20    0.0000   -0.0000   -0.0000    0.0000    0.0000   -0.0292   -0.0000    0.0386
          21   -0.0136    0.0606    0.0187    0.0192   -0.0404   -0.0001    0.0233    0.0000
          22   -0.0000    0.0000    0.0000   -0.0000   -0.0000    0.0183    0.0000   -0.0126
          23   -0.0000   -0.0000    0.0000    0.0000    0.0000   -0.0292    0.0000   -0.0386
          24   -0.0136    0.0605   -0.0187    0.0191    0.0405    0.0001    0.0234    0.0000
          25    0.0000    0.0000   -0.0000   -0.0000   -0.0000    0.0250   -0.0000    0.0181
          26   -0.0000    0.0000    0.0000   -0.0000   -0.0000    0.0156   -0.0000    0.0474
          27   -0.0446    0.0018    0.0083   -0.0198    0.0491    0.0001   -0.0357   -0.0000
          28    0.0000    0.0000    0.0000   -0.0000   -0.0000    0.0250    0.0000   -0.0181
          29   -0.0000    0.0000    0.0000    0.0000   -0.0000    0.0156    0.0000   -0.0474
          30   -0.0446    0.0018   -0.0083   -0.0197   -0.0490   -0.0001   -0.0358   -0.0000
          31   -0.0513   -0.0265    0.0755    0.0647   -0.0111   -0.0038    0.0423   -0.0697
          32    0.0236   -0.0383   -0.0101   -0.0062    0.0413   -0.0547   -0.0305   -0.0047
          33    0.0924    0.0317   -0.0863   -0.0594    0.0191   -0.0001   -0.0415    0.0018
          34    0.0512    0.0265   -0.0754   -0.0647    0.0111   -0.0038   -0.0423   -0.0697
          35   -0.0236    0.0382    0.0101    0.0063   -0.0412   -0.0549    0.0305   -0.0047
          36    0.0924    0.0317   -0.0863   -0.0594    0.0191    0.0001   -0.0415   -0.0019
          37    0.0512    0.0266    0.0754   -0.0647   -0.0112   -0.0039   -0.0424    0.0697
          38   -0.0236    0.0382   -0.0102    0.0062    0.0413   -0.0547    0.0306    0.0047
          39    0.0924    0.0319    0.0863   -0.0594   -0.0191    0.0000   -0.0416    0.0019
          40   -0.0512   -0.0267   -0.0754    0.0647    0.0112   -0.0037    0.0424    0.0697
          41    0.0236   -0.0382    0.0102   -0.0061   -0.0411   -0.0549   -0.0306    0.0047
          42    0.0924    0.0319    0.0862   -0.0593   -0.0191   -0.0002   -0.0416   -0.0019
          43    0.0000   -0.0000    0.0000    0.0000    0.0001   -0.0710    0.0000   -0.0284
          44    0.0000    0.0000   -0.0000   -0.0000    0.0000   -0.0045    0.0000    0.0003
          45    0.0191   -0.0675    0.0773    0.1194    0.0553    0.0001   -0.0845    0.0000
          46    0.0000    0.0000   -0.0000   -0.0000   -0.0000    0.0389   -0.0000    0.0451
          47   -0.0000   -0.0000   -0.0000    0.0000    0.0001   -0.0491    0.0000    0.0057
          48   -0.0334    0.1325    0.0542    0.0583   -0.1067   -0.0002    0.0355    0.0001
          49    0.0000    0.0000    0.0000   -0.0000   -0.0001    0.0389    0.0000   -0.0451
          50   -0.0000   -0.0000   -0.0000    0.0000    0.0001   -0.0490    0.0000   -0.0057
          51   -0.0334    0.1323   -0.0543    0.0581    0.1069    0.0002    0.0358   -0.0000
          52    0.0000   -0.0000   -0.0000    0.0000    0.0001   -0.0710   -0.0000    0.0284
          53    0.0000    0.0000    0.0000   -0.0000    0.0000   -0.0044    0.0000   -0.0003
          54    0.0191   -0.0677   -0.0772    0.1196   -0.0549   -0.0001   -0.0847   -0.0000
          55    0.0000    0.0000   -0.0000   -0.0000   -0.0001    0.0659   -0.0000    0.0001
          56   -0.0000    0.0000   -0.0000   -0.0000   -0.0001    0.0279   -0.0000   -0.0414
          57   -0.0911    0.0127   -0.0312   -0.0242   -0.1099   -0.0002   -0.1339   -0.0001
          58    0.0000    0.0000    0.0000   -0.0000   -0.0001    0.0659   -0.0000   -0.0002
          59   -0.0000    0.0000    0.0000   -0.0000   -0.0000    0.0279   -0.0000    0.0414
          60   -0.0911    0.0127    0.0311   -0.0244    0.1100    0.0002   -0.1336   -0.0000


   Root No.       9        10        11        12        13        14        15        16

                 9 A      10 A      11 A      12 A      13 A      14 A      15 A      16 A   

                 508.1     604.0     653.7     761.7     766.3     767.9     813.6     853.4
  
           1   -0.0434   -0.0341   -0.0000    0.0595    0.0000    0.0001    0.0000   -0.0338
           2   -0.0254   -0.0158    0.0000   -0.0102   -0.0000   -0.0000   -0.0000    0.0067
           3   -0.0000    0.0000    0.0137    0.0001    0.0198   -0.0191   -0.0235   -0.0000
           4    0.0434   -0.0341    0.0000    0.0595    0.0000    0.0001    0.0000    0.0338
           5    0.0254   -0.0159    0.0000   -0.0102   -0.0000   -0.0000   -0.0000   -0.0067
           6   -0.0000   -0.0000   -0.0137    0.0001   -0.0190   -0.0199   -0.0234   -0.0000
           7    0.0155    0.0440   -0.0000    0.0047   -0.0000    0.0000    0.0000   -0.0067
           8    0.0015    0.0141   -0.0000    0.0124    0.0000    0.0000    0.0000    0.0307
           9   -0.0000    0.0000   -0.0497   -0.0001    0.0356    0.0175    0.0086    0.0000
          10   -0.0155    0.0440    0.0000    0.0047    0.0000    0.0000    0.0000    0.0067
          11   -0.0015    0.0141   -0.0000    0.0124    0.0000    0.0000    0.0000   -0.0307
          12   -0.0000    0.0000    0.0497   -0.0000   -0.0363    0.0162    0.0088   -0.0000
          13   -0.0014    0.0226   -0.0000    0.0186    0.0000    0.0000    0.0000   -0.0246
          14   -0.0490   -0.0687    0.0000    0.0199    0.0000    0.0000    0.0000    0.0205
          15    0.0000   -0.0000    0.0042   -0.0000    0.0063    0.0079   -0.0141    0.0000
          16    0.0014    0.0226    0.0000    0.0186    0.0000    0.0000    0.0000    0.0246
          17    0.0489   -0.0686    0.0000    0.0199    0.0000    0.0000    0.0000   -0.0205
          18    0.0000   -0.0000   -0.0043   -0.0000   -0.0068    0.0077   -0.0142   -0.0000
          19   -0.0685   -0.0234    0.0000   -0.0532   -0.0000   -0.0001   -0.0000    0.0021
          20   -0.0311    0.0011    0.0000   -0.0469   -0.0000   -0.0001   -0.0000    0.0054
          21   -0.0000    0.0000    0.0103    0.0000    0.0009   -0.0114    0.0129    0.0000
          22    0.0685   -0.0234    0.0000   -0.0532   -0.0000   -0.0001   -0.0000   -0.0021
          23    0.0312    0.0011   -0.0000   -0.0469   -0.0000   -0.0001   -0.0000   -0.0055
          24    0.0000   -0.0000   -0.0103    0.0000   -0.0003   -0.0114    0.0129   -0.0000
          25   -0.0530   -0.0064   -0.0000   -0.0347   -0.0000   -0.0001   -0.0000   -0.0085
          26    0.0129    0.0714   -0.0000    0.0192    0.0000    0.0000    0.0000   -0.0722
          27    0.0000   -0.0000    0.0034    0.0001    0.0116   -0.0219    0.0094    0.0000
          28    0.0530   -0.0064   -0.0000   -0.0347   -0.0000   -0.0001   -0.0000    0.0085
          29   -0.0129    0.0714   -0.0000    0.0192   -0.0000    0.0000   -0.0000    0.0722
          30   -0.0000   -0.0000   -0.0034    0.0001   -0.0106   -0.0223    0.0094   -0.0000
          31   -0.0404   -0.0309    0.0638    0.0775    0.0638   -0.0569   -0.0716   -0.0494
          32   -0.0040    0.0063   -0.0207    0.0225   -0.0131    0.0313   -0.0130   -0.0174
          33    0.0013    0.0014   -0.0392   -0.0058   -0.0315    0.0305    0.0289    0.0054
          34   -0.0404   -0.0309   -0.0637    0.0771   -0.0637    0.0571    0.0716   -0.0494
          35   -0.0040    0.0064    0.0207    0.0227    0.0131   -0.0312    0.0130   -0.0174
          36   -0.0013   -0.0014   -0.0392    0.0057   -0.0315    0.0306    0.0289   -0.0054
          37    0.0404   -0.0309    0.0637    0.0770    0.0615    0.0596    0.0714    0.0494
          38    0.0040    0.0063   -0.0207    0.0227   -0.0117   -0.0317    0.0131    0.0175
          39    0.0013   -0.0014    0.0392    0.0056    0.0303    0.0318    0.0288    0.0054
          40    0.0404   -0.0310   -0.0637    0.0777   -0.0615   -0.0594   -0.0714    0.0493
          41    0.0040    0.0063    0.0207    0.0224    0.0117    0.0317   -0.0131    0.0175
          42   -0.0013    0.0014    0.0392   -0.0059    0.0303    0.0317    0.0288   -0.0054
          43   -0.0115    0.0181   -0.0000   -0.0034   -0.0000   -0.0000    0.0000   -0.0506
          44   -0.0518   -0.0694    0.0000    0.0135    0.0000    0.0000   -0.0000    0.0137
          45    0.0000   -0.0000    0.0283   -0.0000   -0.1728    0.0071    0.1482    0.0000
          46   -0.0598    0.0179   -0.0000   -0.0819   -0.0000   -0.0001   -0.0000   -0.0354
          47   -0.0402   -0.0390    0.0000   -0.0188   -0.0000   -0.0000   -0.0000    0.0397
          48    0.0000   -0.0000   -0.0982   -0.0005   -0.1088    0.1777   -0.0171   -0.0000
          49    0.0598    0.0179   -0.0000   -0.0819   -0.0000   -0.0001   -0.0000    0.0354
          50    0.0402   -0.0391    0.0000   -0.0188    0.0000   -0.0000    0.0000   -0.0397
          51    0.0000    0.0001    0.0982   -0.0008    0.1010    0.1819   -0.0177    0.0000
          52    0.0115    0.0180    0.0000   -0.0034    0.0000   -0.0000   -0.0000    0.0507
          53    0.0518   -0.0693    0.0000    0.0135   -0.0000    0.0000   -0.0000   -0.0136
          54   -0.0000   -0.0000   -0.0283   -0.0003    0.1731    0.0140    0.1478    0.0000
          55    0.0466   -0.0059    0.0000   -0.0098   -0.0000   -0.0000   -0.0000    0.0660
          56   -0.0147    0.0708    0.0000    0.0274   -0.0000    0.0001   -0.0000    0.0912
          57   -0.0000    0.0000    0.1370   -0.0002    0.0046    0.0857   -0.1097   -0.0000
          58   -0.0467   -0.0059   -0.0000   -0.0099   -0.0000   -0.0000    0.0000   -0.0659
          59    0.0147    0.0707   -0.0000    0.0273    0.0000    0.0001   -0.0000   -0.0912
          60    0.0000   -0.0001   -0.1370   -0.0002   -0.0089    0.0855   -0.1096   -0.0000


   Root No.      17        18        19        20        21        22        23        24

                17 A      18 A      19 A      20 A      21 A      22 A      23 A      24 A   

                 869.4     873.2     929.2     955.3     995.5    1015.0    1016.7    1028.5
  
           1   -0.0000   -0.0199    0.0000    0.0000   -0.0000    0.0253   -0.0000    0.0234
           2    0.0000    0.0151   -0.0000   -0.0000    0.0000   -0.0138    0.0000   -0.0157
           3   -0.0207    0.0001   -0.0199    0.0227    0.0218   -0.0000   -0.0220    0.0000
           4    0.0000    0.0199   -0.0000   -0.0000   -0.0000    0.0254   -0.0001   -0.0234
           5   -0.0000   -0.0151    0.0000   -0.0000    0.0000   -0.0139    0.0000    0.0157
           6    0.0207   -0.0001    0.0200    0.0227    0.0217    0.0000    0.0221   -0.0000
           7    0.0000    0.0287   -0.0000    0.0000   -0.0000   -0.0030    0.0000   -0.0027
           8   -0.0000   -0.0094   -0.0000   -0.0000    0.0000    0.0022    0.0000    0.0054
           9    0.0276   -0.0001   -0.0081    0.0174   -0.0007   -0.0000   -0.0210    0.0000
          10   -0.0000   -0.0288    0.0000    0.0000    0.0000   -0.0030    0.0000    0.0027
          11    0.0000    0.0094   -0.0000   -0.0000   -0.0000    0.0022   -0.0000   -0.0054
          12   -0.0276    0.0001    0.0081    0.0174   -0.0008    0.0000    0.0210   -0.0000
          13    0.0001    0.0316   -0.0000   -0.0000   -0.0000   -0.0080    0.0000   -0.0066
          14   -0.0001   -0.0726    0.0000    0.0000    0.0000   -0.0161    0.0000   -0.0151
          15   -0.0081    0.0000    0.0251   -0.0305   -0.0176    0.0000    0.0254    0.0000
          16   -0.0000   -0.0317    0.0000   -0.0000    0.0000   -0.0080    0.0000    0.0066
          17    0.0001    0.0726   -0.0000   -0.0000    0.0000   -0.0162    0.0000    0.0150
          18    0.0082   -0.0000   -0.0252   -0.0305   -0.0175   -0.0000   -0.0255    0.0000
          19    0.0000    0.0300   -0.0000    0.0000   -0.0000    0.0079   -0.0000    0.0035
          20    0.0001    0.0362   -0.0000    0.0000   -0.0000    0.0307   -0.0000    0.0293
          21    0.0198   -0.0001   -0.0053   -0.0036   -0.0315    0.0000    0.0287   -0.0000
          22   -0.0000   -0.0299    0.0000    0.0000   -0.0000    0.0079   -0.0000   -0.0035
          23   -0.0001   -0.0362    0.0000    0.0000   -0.0000    0.0308   -0.0001   -0.0292
          24   -0.0198    0.0001    0.0053   -0.0037   -0.0314   -0.0001   -0.0289    0.0000
          25    0.0000    0.0151   -0.0000   -0.0000    0.0000   -0.0080    0.0000   -0.0096
          26   -0.0000   -0.0277    0.0000    0.0000   -0.0000    0.0054   -0.0000    0.0090
          27    0.0202   -0.0001    0.0170   -0.0220    0.0251   -0.0000   -0.0266    0.0000
          28   -0.0000   -0.0151    0.0000   -0.0000    0.0000   -0.0080    0.0000    0.0096
          29    0.0000    0.0277   -0.0000   -0.0000    0.0000    0.0054   -0.0000   -0.0090
          30   -0.0202    0.0001   -0.0170   -0.0219    0.0250    0.0000    0.0268   -0.0000
          31   -0.0589   -0.0162   -0.0358    0.0395    0.0567    0.0263   -0.0510    0.0230
          32   -0.0188    0.0506    0.0488   -0.0553    0.0277   -0.0575   -0.0066   -0.0664
          33    0.0207    0.0026    0.0164   -0.0175   -0.0159   -0.0086    0.0152   -0.0086
          34    0.0588   -0.0167    0.0358   -0.0394   -0.0567    0.0265    0.0509    0.0230
          35    0.0190    0.0504   -0.0488    0.0552   -0.0276   -0.0573    0.0066   -0.0661
          36    0.0207   -0.0027    0.0164   -0.0175   -0.0159    0.0086    0.0152    0.0086
          37   -0.0587    0.0167   -0.0360   -0.0395   -0.0565    0.0264   -0.0512   -0.0229
          38   -0.0190   -0.0504    0.0490    0.0551   -0.0278   -0.0575   -0.0068    0.0662
          39   -0.0206    0.0027   -0.0165   -0.0175   -0.0158    0.0086   -0.0152   -0.0086
          40    0.0587    0.0162    0.0360    0.0395    0.0565    0.0265    0.0512   -0.0230
          41    0.0189   -0.0506   -0.0490   -0.0552    0.0279   -0.0575    0.0071    0.0662
          42   -0.0206   -0.0026   -0.0165   -0.0175   -0.0158   -0.0086   -0.0152    0.0086
          43    0.0001    0.0805   -0.0000   -0.0000    0.0000   -0.0934    0.0001   -0.0812
          44   -0.0001   -0.0590    0.0000   -0.0000    0.0000   -0.0428    0.0000   -0.0391
          45    0.0745   -0.0004   -0.1047    0.1324    0.0399   -0.0001   -0.0733    0.0000
          46    0.0000    0.0237   -0.0000    0.0000    0.0000   -0.0385   -0.0000   -0.0428
          47    0.0001    0.0440   -0.0000    0.0000   -0.0000    0.0762   -0.0000    0.0743
          48   -0.1072    0.0004    0.0790   -0.0197    0.1306   -0.0000   -0.1004    0.0001
          49   -0.0000   -0.0238   -0.0000   -0.0000    0.0000   -0.0385    0.0001    0.0427
          50   -0.0001   -0.0439    0.0000    0.0000   -0.0001    0.0763   -0.0002   -0.0741
          51    0.1072   -0.0004   -0.0789   -0.0192    0.1301    0.0002    0.1010   -0.0001
          52   -0.0001   -0.0806    0.0000   -0.0000    0.0000   -0.0936    0.0002    0.0809
          53    0.0001    0.0590   -0.0000   -0.0000    0.0000   -0.0429    0.0001    0.0390
          54   -0.0744    0.0004    0.1048    0.1320    0.0395    0.0000    0.0732   -0.0000
          55   -0.0000   -0.0083   -0.0000   -0.0000    0.0000   -0.0903    0.0002    0.0888
          56    0.0000    0.0298    0.0000    0.0000   -0.0000   -0.0185    0.0000    0.0134
          57    0.0916   -0.0003    0.1153    0.1117   -0.1033   -0.0002   -0.0949    0.0001
          58    0.0000    0.0084   -0.0000   -0.0000    0.0000   -0.0900    0.0000   -0.0889
          59   -0.0000   -0.0298   -0.0000    0.0000   -0.0000   -0.0185    0.0000   -0.0134
          60   -0.0918    0.0003   -0.1150    0.1122   -0.1036    0.0000    0.0944   -0.0001


   Root No.      25        26        27        28        29        30        31        32

                25 A      26 A      27 A      28 A      29 A      30 A      31 A      32 A   

                1057.2    1058.2    1078.4    1086.5    1151.2    1154.1    1179.8    1221.8
  
           1    0.0000    0.0000    0.0036    0.0092    0.0044   -0.0026   -0.0041    0.0171
           2   -0.0000   -0.0000    0.0078    0.0060    0.0004    0.0023    0.0084    0.0013
           3   -0.0012   -0.0017   -0.0000   -0.0000   -0.0000    0.0000    0.0000    0.0000
           4   -0.0000    0.0000    0.0036   -0.0092    0.0044    0.0025    0.0041    0.0171
           5    0.0000    0.0000    0.0078   -0.0060    0.0004   -0.0023   -0.0084    0.0013
           6    0.0012   -0.0017    0.0000   -0.0000   -0.0000   -0.0000    0.0000   -0.0000
           7   -0.0000   -0.0000   -0.0059   -0.0140   -0.0033   -0.0010    0.0200   -0.0215
           8    0.0000    0.0000    0.0148    0.0016   -0.0083   -0.0102    0.0097   -0.0233
           9    0.0036    0.0055   -0.0000   -0.0000   -0.0000    0.0000   -0.0000    0.0000
          10    0.0000   -0.0000   -0.0059    0.0140   -0.0033    0.0011   -0.0200   -0.0215
          11    0.0000    0.0000    0.0148   -0.0016   -0.0082    0.0104   -0.0096   -0.0233
          12   -0.0036    0.0055    0.0000   -0.0000   -0.0000    0.0000    0.0000    0.0000
          13   -0.0000   -0.0000   -0.0092   -0.0170   -0.0022   -0.0012    0.0132   -0.0147
          14   -0.0000   -0.0000   -0.0255   -0.0121    0.0052    0.0009    0.0055   -0.0126
          15   -0.0181   -0.0182    0.0000    0.0000    0.0000   -0.0000   -0.0000   -0.0000
          16    0.0000   -0.0000   -0.0092    0.0170   -0.0022    0.0013   -0.0132   -0.0147
          17    0.0000   -0.0000   -0.0255    0.0120    0.0052   -0.0009   -0.0055   -0.0126
          18    0.0180   -0.0183    0.0000   -0.0000    0.0000    0.0000   -0.0000   -0.0000
          19    0.0000    0.0000    0.0037   -0.0047    0.0033   -0.0043   -0.0012    0.0004
          20    0.0000    0.0000   -0.0028   -0.0074    0.0012   -0.0033    0.0122    0.0212
          21    0.0220    0.0221   -0.0000   -0.0000    0.0000   -0.0000    0.0000   -0.0000
          22    0.0000    0.0000    0.0037    0.0047    0.0034    0.0042    0.0012    0.0004
          23   -0.0000    0.0000   -0.0028    0.0074    0.0012    0.0032   -0.0123    0.0212
          24   -0.0219    0.0223   -0.0000    0.0000    0.0000    0.0000   -0.0000   -0.0000
          25   -0.0000   -0.0000    0.0074    0.0050   -0.0024    0.0033   -0.0069   -0.0111
          26   -0.0000   -0.0000   -0.0140   -0.0037    0.0067   -0.0038   -0.0017    0.0136
          27   -0.0063   -0.0087    0.0000    0.0000   -0.0000   -0.0000   -0.0000   -0.0000
          28    0.0000    0.0000    0.0074   -0.0050   -0.0024   -0.0033    0.0069   -0.0111
          29   -0.0000   -0.0000   -0.0140    0.0037    0.0067    0.0037    0.0017    0.0136
          30    0.0063   -0.0087    0.0000   -0.0000   -0.0000   -0.0000    0.0000   -0.0000
          31    0.0425    0.0383    0.0306    0.0381    0.0230   -0.0216   -0.0236    0.0524
          32    0.1836    0.1707    0.1196    0.1117    0.0497   -0.0495   -0.0302   -0.0143
          33    0.0008    0.0010   -0.0006   -0.0027   -0.0035    0.0033    0.0058   -0.0243
          34   -0.0423   -0.0381    0.0307    0.0382    0.0231   -0.0216   -0.0236    0.0524
          35   -0.1833   -0.1704    0.1200    0.1120    0.0498   -0.0496   -0.0303   -0.0143
          36    0.0008    0.0011    0.0006    0.0027    0.0035   -0.0033   -0.0058    0.0244
          37    0.0422   -0.0383    0.0307   -0.0381    0.0235    0.0211    0.0236    0.0526
          38    0.1826   -0.1712    0.1199   -0.1119    0.0506    0.0487    0.0303   -0.0142
          39   -0.0008    0.0011    0.0006   -0.0027    0.0036    0.0032    0.0057    0.0244
          40   -0.0423    0.0384    0.0307   -0.0381    0.0234    0.0211    0.0235    0.0526
          41   -0.1827    0.1713    0.1198   -0.1117    0.0506    0.0487    0.0303   -0.0142
          42   -0.0008    0.0011   -0.0006    0.0027   -0.0036   -0.0032   -0.0057   -0.0244
          43   -0.0002   -0.0002   -0.0659   -0.0987   -0.0669    0.0421   -0.1520    0.0347
          44   -0.0001   -0.0001   -0.0423   -0.0356   -0.0134    0.0140   -0.0443    0.0012
          45    0.0230    0.0321   -0.0000   -0.0000   -0.0000    0.0000   -0.0000   -0.0000
          46   -0.0001   -0.0001   -0.0379   -0.0504    0.1301   -0.1357    0.0569    0.0660
          47    0.0001    0.0001    0.0395    0.0383   -0.1220    0.1246   -0.0435   -0.0400
          48   -0.0394   -0.0414    0.0000    0.0000    0.0000    0.0000    0.0000   -0.0000
          49    0.0000    0.0000   -0.0379    0.0504    0.1321    0.1333   -0.0573    0.0661
          50   -0.0000    0.0000    0.0396   -0.0383   -0.1239   -0.1225    0.0439   -0.0401
          51    0.0394   -0.0417    0.0000   -0.0000   -0.0000   -0.0000    0.0000    0.0000
          52    0.0001   -0.0001   -0.0661    0.0987   -0.0672   -0.0409    0.1523    0.0350
          53    0.0000   -0.0000   -0.0424    0.0355   -0.0136   -0.0137    0.0444    0.0013
          54   -0.0228    0.0321   -0.0000    0.0000   -0.0000    0.0000   -0.0000    0.0000
          55    0.0001   -0.0000    0.0473   -0.0342   -0.1095   -0.1347   -0.1212    0.1484
          56    0.0000   -0.0000   -0.0026   -0.0052   -0.0265   -0.0369   -0.0377    0.0636
          57   -0.0108    0.0198    0.0000   -0.0000    0.0000    0.0000   -0.0000   -0.0000
          58   -0.0001   -0.0001    0.0474    0.0343   -0.1071    0.1364    0.1210    0.1489
          59   -0.0000   -0.0000   -0.0026    0.0052   -0.0259    0.0373    0.0376    0.0638
          60    0.0107    0.0197   -0.0000   -0.0000   -0.0000    0.0000    0.0000   -0.0000


   Root No.      33        34        35        36        37        38        39        40

                33 A      34 A      35 A      36 A      37 A      38 A      39 A      40 A   

                1240.4    1325.4    1354.2    1368.4    1394.1    1415.8    1464.3    1571.4
  
           1    0.0041    0.0058   -0.0129    0.0334    0.0344   -0.0196    0.0174   -0.0024
           2   -0.0143   -0.0060    0.0294    0.0091   -0.0050   -0.0710    0.0757   -0.0341
           3   -0.0000    0.0000   -0.0000    0.0000    0.0000   -0.0000    0.0000   -0.0000
           4    0.0041   -0.0058   -0.0128    0.0334   -0.0344    0.0196    0.0174    0.0024
           5   -0.0143    0.0060    0.0294    0.0090    0.0050    0.0710    0.0757    0.0341
           6    0.0000   -0.0000   -0.0000    0.0000   -0.0000   -0.0000    0.0000   -0.0000
           7   -0.0152    0.0100    0.0105   -0.0043   -0.0154    0.0184   -0.0223   -0.0193
           8    0.0154   -0.0049    0.0368    0.0212    0.0079    0.0241   -0.0196   -0.1322
           9    0.0000    0.0000   -0.0000    0.0000    0.0000   -0.0000    0.0000    0.0000
          10   -0.0151   -0.0099    0.0105   -0.0043    0.0154   -0.0184   -0.0223    0.0193
          11    0.0155    0.0049    0.0368    0.0212   -0.0079   -0.0241   -0.0196    0.1322
          12   -0.0000   -0.0000   -0.0000   -0.0000   -0.0000    0.0000    0.0000   -0.0000
          13   -0.0161    0.0156    0.0102   -0.0006   -0.0220    0.0064   -0.0235    0.0167
          14   -0.0150    0.0082   -0.0160   -0.0185   -0.0127    0.0238   -0.0269    0.0266
          15    0.0000   -0.0000    0.0000   -0.0000   -0.0000    0.0000   -0.0000   -0.0000
          16   -0.0161   -0.0156    0.0102   -0.0006    0.0220   -0.0064   -0.0235   -0.0167
          17   -0.0150   -0.0082   -0.0160   -0.0185    0.0127   -0.0239   -0.0269   -0.0266
          18   -0.0000   -0.0000   -0.0000   -0.0000    0.0000   -0.0000   -0.0000   -0.0000
          19    0.0095    0.0091   -0.0134   -0.0064   -0.0107    0.0124    0.0113   -0.0197
          20    0.0018   -0.0133    0.0036    0.0102    0.0185    0.0283   -0.0471    0.0299
          21   -0.0000   -0.0000    0.0000    0.0000   -0.0000   -0.0000    0.0000    0.0000
          22    0.0095   -0.0092   -0.0133   -0.0064    0.0107   -0.0124    0.0113    0.0197
          23    0.0018    0.0133    0.0036    0.0102   -0.0185   -0.0282   -0.0470   -0.0299
          24   -0.0000   -0.0000    0.0000   -0.0000    0.0000    0.0000    0.0000    0.0000
          25    0.0029    0.0128   -0.0113   -0.0133   -0.0174   -0.0104    0.0296   -0.0207
          26    0.0038    0.0121   -0.0334   -0.0161   -0.0103    0.0069    0.0301   -0.0453
          27    0.0000    0.0000    0.0000    0.0000    0.0000   -0.0000   -0.0000    0.0000
          28    0.0029   -0.0128   -0.0113   -0.0134    0.0174    0.0104    0.0295    0.0207
          29    0.0039   -0.0121   -0.0334   -0.0161    0.0103   -0.0069    0.0301    0.0453
          30   -0.0000    0.0000    0.0000    0.0000   -0.0000    0.0000   -0.0000   -0.0000
          31    0.0424   -0.1012    0.0704   -0.1037   -0.0663    0.0213   -0.0136    0.0055
          32    0.0302    0.0301   -0.0710   -0.0048    0.0147    0.0826   -0.0635    0.0227
          33   -0.0165    0.0728   -0.0681    0.0843    0.0667   -0.0020   -0.0019    0.0041
          34    0.0425   -0.1012    0.0704   -0.1036   -0.0663    0.0213   -0.0136    0.0055
          35    0.0303    0.0301   -0.0710   -0.0048    0.0147    0.0827   -0.0635    0.0227
          36    0.0166   -0.0729    0.0681   -0.0844   -0.0668    0.0020    0.0019   -0.0041
          37    0.0424    0.1013    0.0702   -0.1037    0.0663   -0.0214   -0.0136   -0.0055
          38    0.0303   -0.0302   -0.0708   -0.0047   -0.0148   -0.0827   -0.0636   -0.0227
          39    0.0165    0.0729    0.0680   -0.0844    0.0668   -0.0021    0.0019    0.0041
          40    0.0424    0.1013    0.0702   -0.1037    0.0663   -0.0214   -0.0136   -0.0055
          41    0.0302   -0.0302   -0.0708   -0.0047   -0.0148   -0.0827   -0.0636   -0.0227
          42   -0.0165   -0.0729   -0.0680    0.0844   -0.0667    0.0020   -0.0019   -0.0041
          43    0.1940   -0.0493    0.0066    0.0402    0.0653    0.0398   -0.0079   -0.0781
          44    0.0487   -0.0121   -0.0179   -0.0078    0.0136    0.0356   -0.0228   -0.0038
          45   -0.0000    0.0000   -0.0000   -0.0000   -0.0000   -0.0000    0.0000    0.0000
          46   -0.0032   -0.0405    0.0438    0.0504    0.0483   -0.0006   -0.0412    0.0373
          47    0.0149    0.0355   -0.0545   -0.0447   -0.0383    0.0442    0.0040   -0.0284
          48    0.0000    0.0000    0.0000    0.0000    0.0000   -0.0000    0.0000   -0.0000
          49   -0.0032    0.0406    0.0437    0.0504   -0.0483    0.0006   -0.0411   -0.0373
          50    0.0149   -0.0355   -0.0545   -0.0447    0.0383   -0.0443    0.0039    0.0283
          51    0.0000    0.0000    0.0000   -0.0000   -0.0000   -0.0000   -0.0000    0.0000
          52    0.1937    0.0494    0.0066    0.0402   -0.0653   -0.0397   -0.0078    0.0781
          53    0.0487    0.0121   -0.0179   -0.0078   -0.0136   -0.0357   -0.0228    0.0038
          54   -0.0000   -0.0000   -0.0000   -0.0000   -0.0000   -0.0000   -0.0000   -0.0000
          55   -0.0991    0.0667    0.0094    0.0143   -0.0605   -0.0527   -0.0708    0.0065
          56   -0.0260    0.0113   -0.0296   -0.0081   -0.0131   -0.0277    0.0001    0.0422
          57    0.0000   -0.0000    0.0000    0.0000   -0.0000   -0.0000   -0.0000   -0.0000
          58   -0.0993   -0.0668    0.0094    0.0142    0.0605    0.0528   -0.0709   -0.0065
          59   -0.0261   -0.0114   -0.0296   -0.0081    0.0131    0.0277    0.0001   -0.0422
          60    0.0000   -0.0000    0.0000    0.0000   -0.0000   -0.0000   -0.0000    0.0000


   Root No.      41        42        43        44        45        46        47        48

                41 A      42 A      43 A      44 A      45 A      46 A      47 A      48 A   

                1855.5    1858.5    1869.7    1900.5    2924.3    2924.4    3003.9    3004.1
  
           1    0.0012   -0.0183   -0.0001   -0.0138   -0.0000    0.0000   -0.0100   -0.0276
           2    0.0195    0.0010   -0.0153    0.0005    0.0000   -0.0000    0.0025    0.0068
           3   -0.0000   -0.0000   -0.0000   -0.0000    0.0057   -0.0552   -0.0000   -0.0000
           4   -0.0010   -0.0183   -0.0001    0.0138   -0.0000   -0.0000    0.0275   -0.0101
           5   -0.0196    0.0009   -0.0152   -0.0005    0.0000    0.0000   -0.0068    0.0025
           6   -0.0000   -0.0000   -0.0000    0.0000   -0.0552   -0.0057   -0.0000    0.0000
           7    0.0545   -0.0816   -0.0774   -0.1139    0.0000   -0.0000    0.0003    0.0003
           8   -0.0333    0.0158    0.0006    0.0241   -0.0000   -0.0000   -0.0000    0.0001
           9   -0.0000    0.0000    0.0000    0.0000    0.0002   -0.0002   -0.0000   -0.0000
          10   -0.0543   -0.0820   -0.0768    0.1141    0.0000   -0.0000   -0.0004   -0.0001
          11    0.0332    0.0161    0.0003   -0.0241    0.0000   -0.0000   -0.0001    0.0001
          12    0.0000    0.0000    0.0000   -0.0000   -0.0003    0.0001    0.0000    0.0000
          13   -0.0617    0.0940    0.0625    0.0877   -0.0000    0.0000    0.0002    0.0006
          14   -0.0005   -0.0072   -0.0065   -0.0066    0.0000   -0.0000   -0.0013   -0.0033
          15    0.0000   -0.0000   -0.0000   -0.0000   -0.0000   -0.0000    0.0000   -0.0000
          16    0.0613    0.0944    0.0619   -0.0879    0.0000    0.0000   -0.0006    0.0003
          17    0.0005   -0.0072   -0.0065    0.0066   -0.0000   -0.0000    0.0034   -0.0011
          18   -0.0000   -0.0000   -0.0000    0.0000   -0.0000   -0.0000    0.0000    0.0000
          19    0.0905    0.0688   -0.0783    0.0529    0.0000   -0.0000    0.0007    0.0018
          20   -0.0379   -0.0258    0.0345   -0.0221    0.0000   -0.0000    0.0009    0.0024
          21    0.0000    0.0000   -0.0000    0.0000    0.0000   -0.0000   -0.0000   -0.0000
          22   -0.0913    0.0682   -0.0781   -0.0525    0.0000    0.0000   -0.0018    0.0007
          23    0.0383   -0.0256    0.0344    0.0219    0.0000    0.0000   -0.0023    0.0008
          24   -0.0000    0.0000   -0.0000   -0.0000   -0.0000   -0.0000   -0.0000   -0.0000
          25   -0.0915   -0.0603    0.0968   -0.0718    0.0000   -0.0000    0.0001    0.0002
          26    0.0098    0.0130   -0.0002   -0.0002   -0.0000    0.0000    0.0001    0.0000
          27   -0.0000   -0.0000    0.0000    0.0000   -0.0000   -0.0003    0.0000   -0.0000
          28    0.0924   -0.0598    0.0966    0.0714    0.0000    0.0000   -0.0002    0.0000
          29   -0.0099    0.0129   -0.0001    0.0002   -0.0000   -0.0000   -0.0001   -0.0000
          30    0.0000   -0.0000   -0.0000   -0.0000   -0.0002   -0.0001    0.0000    0.0000
          31    0.0016   -0.0093   -0.0016   -0.0095   -0.0260    0.2526    0.0600    0.1659
          32    0.0143    0.0012   -0.0141   -0.0004    0.0064   -0.0620   -0.0148   -0.0408
          33   -0.0006   -0.0026    0.0007    0.0015   -0.0344    0.3340    0.0952    0.2631
          34    0.0016   -0.0093   -0.0016   -0.0095    0.0260   -0.2530    0.0600    0.1658
          35    0.0144    0.0012   -0.0141   -0.0004   -0.0064    0.0621   -0.0147   -0.0407
          36    0.0006    0.0026   -0.0007   -0.0015   -0.0344    0.3342   -0.0951   -0.2628
          37   -0.0016   -0.0093   -0.0016    0.0095   -0.2527   -0.0260   -0.1651    0.0605
          38   -0.0145    0.0011   -0.0140    0.0004    0.0621    0.0064    0.0406   -0.0149
          39   -0.0007    0.0025   -0.0007    0.0015    0.3338    0.0344    0.2617   -0.0959
          40   -0.0016   -0.0093   -0.0016    0.0095    0.2528    0.0260   -0.1648    0.0604
          41   -0.0145    0.0011   -0.0140    0.0004   -0.0621   -0.0064    0.0405   -0.0148
          42    0.0007   -0.0026    0.0007   -0.0015    0.3343    0.0344   -0.2615    0.0958
          43   -0.0018   -0.0144   -0.0021   -0.0122    0.0000   -0.0000   -0.0051   -0.0128
          44    0.0255   -0.0555   -0.0390   -0.0512   -0.0000    0.0000    0.0141    0.0343
          45    0.0000   -0.0000    0.0000    0.0000    0.0001   -0.0014    0.0000    0.0000
          46    0.0242    0.0121   -0.0202    0.0091   -0.0000    0.0000   -0.0090   -0.0240
          47    0.0504    0.0475   -0.0411    0.0330   -0.0000    0.0000   -0.0080   -0.0213
          48   -0.0000   -0.0000   -0.0000   -0.0000    0.0002   -0.0015    0.0000    0.0000
          49   -0.0244    0.0119   -0.0201   -0.0090   -0.0000   -0.0000    0.0240   -0.0085
          50   -0.0509    0.0472   -0.0410   -0.0328   -0.0000   -0.0000    0.0213   -0.0075
          51    0.0000   -0.0000    0.0000    0.0000   -0.0015   -0.0001    0.0000    0.0000
          52    0.0019   -0.0144   -0.0020    0.0122   -0.0000   -0.0000    0.0130   -0.0043
          53   -0.0253   -0.0557   -0.0387    0.0514    0.0000    0.0000   -0.0350    0.0111
          54   -0.0000    0.0000   -0.0000    0.0000   -0.0014   -0.0002   -0.0000    0.0000
          55    0.0098   -0.0095   -0.0162   -0.0267   -0.0000   -0.0000   -0.0012    0.0006
          56   -0.0529    0.0423   -0.0473   -0.0384    0.0000    0.0000    0.0030   -0.0011
          57    0.0000   -0.0000    0.0000    0.0000   -0.0007   -0.0001   -0.0000    0.0000
          58   -0.0098   -0.0096   -0.0161    0.0268   -0.0000    0.0000    0.0003    0.0013
          59    0.0524    0.0427   -0.0474    0.0386    0.0000   -0.0000   -0.0010   -0.0029
          60   -0.0000   -0.0000    0.0000   -0.0000    0.0001   -0.0007   -0.0000   -0.0000


   Root No.      49        50        51        52        53        54

                49 A      50 A      51 A      52 A      53 A      54 A   

                3042.7    3042.8    3050.7    3051.0    3064.3    3064.4
  
           1    0.0004    0.0007    0.0025   -0.0015   -0.0017   -0.0014
           2   -0.0000   -0.0001   -0.0007    0.0004    0.0004    0.0004
           3   -0.0000   -0.0000    0.0000   -0.0000   -0.0000   -0.0000
           4   -0.0003    0.0007    0.0009    0.0027    0.0014   -0.0017
           5    0.0000   -0.0001   -0.0003   -0.0007   -0.0003    0.0004
           6    0.0000    0.0000   -0.0000    0.0000   -0.0000    0.0000
           7    0.0002    0.0001   -0.0033    0.0010   -0.0002    0.0009
           8    0.0002    0.0002    0.0006    0.0000    0.0001    0.0001
           9   -0.0000   -0.0000    0.0000   -0.0000   -0.0000    0.0000
          10   -0.0002    0.0001   -0.0019   -0.0029    0.0004    0.0008
          11   -0.0001    0.0002    0.0005    0.0003   -0.0001    0.0001
          12    0.0000    0.0000    0.0000    0.0000   -0.0000   -0.0000
          13   -0.0012    0.0004    0.0147   -0.0066   -0.0004   -0.0013
          14    0.0034   -0.0018   -0.0393    0.0180    0.0018    0.0029
          15    0.0000   -0.0000   -0.0000    0.0000    0.0000    0.0000
          16    0.0012    0.0002    0.0071    0.0143    0.0001   -0.0013
          17   -0.0036   -0.0012   -0.0186   -0.0384   -0.0012    0.0032
          18   -0.0000   -0.0000   -0.0000   -0.0000   -0.0000    0.0000
          19    0.0097    0.0085   -0.0029   -0.0015   -0.0192   -0.0150
          20    0.0107    0.0094   -0.0022   -0.0018   -0.0157   -0.0123
          21   -0.0000   -0.0000    0.0000    0.0000    0.0000    0.0000
          22   -0.0083    0.0101   -0.0032   -0.0007    0.0158   -0.0182
          23   -0.0091    0.0111   -0.0029    0.0000    0.0129   -0.0149
          24    0.0000   -0.0000    0.0000   -0.0000   -0.0000    0.0000
          25    0.0071    0.0064    0.0012   -0.0011    0.0074    0.0058
          26   -0.0216   -0.0195   -0.0023    0.0040   -0.0153   -0.0120
          27    0.0000    0.0000    0.0000   -0.0000    0.0000    0.0000
          28   -0.0060    0.0075    0.0002    0.0016   -0.0061    0.0070
          29    0.0183   -0.0228    0.0009   -0.0045    0.0126   -0.0146
          30   -0.0000    0.0000   -0.0000    0.0000   -0.0000    0.0000
          31   -0.0028   -0.0043   -0.0150    0.0089    0.0088    0.0073
          32    0.0018    0.0018    0.0011   -0.0012   -0.0034   -0.0026
          33   -0.0046   -0.0068   -0.0221    0.0133    0.0139    0.0115
          34   -0.0028   -0.0043   -0.0149    0.0088    0.0088    0.0073
          35    0.0018    0.0018    0.0011   -0.0012   -0.0034   -0.0026
          36    0.0046    0.0069    0.0220   -0.0133   -0.0139   -0.0115
          37    0.0021   -0.0047   -0.0057   -0.0161   -0.0071    0.0088
          38   -0.0015    0.0020    0.0001    0.0016    0.0028   -0.0032
          39   -0.0035    0.0074    0.0083    0.0238    0.0113   -0.0138
          40    0.0021   -0.0047   -0.0057   -0.0161   -0.0071    0.0088
          41   -0.0015    0.0020    0.0001    0.0016    0.0028   -0.0032
          42    0.0035   -0.0074   -0.0083   -0.0238   -0.0113    0.0138
          43    0.0127   -0.0064   -0.1397    0.0640    0.0059    0.0091
          44   -0.0395    0.0185    0.4602   -0.2114   -0.0178   -0.0317
          45   -0.0000    0.0000    0.0000   -0.0000   -0.0000   -0.0000
          46   -0.1223   -0.1072    0.0314    0.0190    0.1922    0.1499
          47   -0.1273   -0.1117    0.0319    0.0198    0.1953    0.1524
          48    0.0000    0.0000   -0.0000   -0.0000   -0.0000   -0.0000
          49    0.1042   -0.1265    0.0368    0.0051   -0.1583    0.1825
          50    0.1085   -0.1318    0.0378    0.0047   -0.1608    0.1855
          51   -0.0000    0.0000   -0.0000   -0.0000    0.0000   -0.0000
          52   -0.0133   -0.0042   -0.0660   -0.1366   -0.0039    0.0101
          53    0.0412    0.0115    0.2172    0.4504    0.0110   -0.0346
          54    0.0000    0.0000    0.0000    0.0000    0.0000   -0.0000
          55    0.0650   -0.0810    0.0042   -0.0167    0.0443   -0.0516
          56   -0.2155    0.2682   -0.0105    0.0526   -0.1405    0.1634
          57    0.0000   -0.0000    0.0000   -0.0000    0.0000   -0.0000
          58   -0.0767   -0.0690   -0.0078    0.0154   -0.0538   -0.0424
          59    0.2544    0.2287    0.0266   -0.0465    0.1706    0.1341
          60   -0.0000   -0.0000   -0.0000    0.0000   -0.0000   -0.0000


           MASS-WEIGHTED COORDINATE ANALYSIS (NORMAL COORDINATES)


   Root No.       1         2         3         4         5         6         7         8

                 1 A       2 A       3 A       4 A       5 A       6 A       7 A       8 A   

                  57.8     174.1     204.4     298.5     363.9     379.2     455.2     480.6
  
           1   -0.0001   -0.0000    0.0001    0.0001    0.0000    0.0042    0.0002   -0.3814
           2    0.0000   -0.0001   -0.0000    0.0001    0.0005   -0.2681   -0.0000    0.0687
           3    0.3986    0.1291   -0.2613   -0.0852    0.0244   -0.0000   -0.0301   -0.0001
           4    0.0000    0.0000   -0.0001   -0.0000   -0.0000    0.0044   -0.0001    0.3814
           5    0.0000   -0.0001   -0.0000    0.0001    0.0004   -0.2681    0.0001   -0.0687
           6    0.3985    0.1296    0.2613   -0.0852   -0.0241   -0.0001   -0.0302    0.0000
           7   -0.0000   -0.0000    0.0000    0.0000    0.0002   -0.1242    0.0001   -0.2485
           8   -0.0000    0.0001    0.0000   -0.0001   -0.0006    0.3876   -0.0000   -0.0871
           9   -0.1190   -0.3198    0.1448   -0.2916   -0.1211   -0.0002    0.3787    0.0002
          10    0.0000   -0.0000   -0.0000   -0.0000    0.0002   -0.1242   -0.0001    0.2485
          11    0.0000    0.0001    0.0000   -0.0001   -0.0006    0.3876   -0.0001    0.0870
          12   -0.1190   -0.3201   -0.1442   -0.2918    0.1192    0.0003    0.3791    0.0001
          13   -0.0000   -0.0001    0.0000    0.0001    0.0004   -0.2201    0.0001   -0.2806
          14    0.0000    0.0000   -0.0000   -0.0000   -0.0001    0.0668    0.0001   -0.0321
          15    0.1282   -0.3147    0.3377    0.3568    0.2217    0.0005   -0.0502    0.0001
          16    0.0000   -0.0000   -0.0000    0.0001    0.0003   -0.2200   -0.0001    0.2807
          17    0.0000    0.0000    0.0000   -0.0001   -0.0001    0.0669    0.0001    0.0320
          18    0.1284   -0.3150   -0.3371    0.3572   -0.2210   -0.0002   -0.0504   -0.0000
          19    0.0000    0.0000   -0.0000   -0.0001   -0.0002    0.1365   -0.0001    0.0765
          20    0.0000   -0.0000   -0.0000    0.0000    0.0004   -0.2184   -0.0001    0.2346
          21   -0.1078    0.4128    0.1727    0.1693   -0.3277   -0.0006    0.2003    0.0001
          22   -0.0000    0.0000    0.0000   -0.0001   -0.0003    0.1366    0.0000   -0.0766
          23   -0.0000   -0.0000    0.0000    0.0001    0.0004   -0.2184    0.0001   -0.2346
          24   -0.1080    0.4121   -0.1733    0.1686    0.3280    0.0005    0.2010    0.0001
          25    0.0000    0.0001   -0.0000   -0.0001   -0.0003    0.1869   -0.0001    0.1100
          26   -0.0000    0.0001    0.0000   -0.0000   -0.0002    0.1169   -0.0002    0.2883
          27   -0.3529    0.0122    0.0764   -0.1753    0.3976    0.0005   -0.3071   -0.0001
          28    0.0000    0.0001    0.0000   -0.0001   -0.0003    0.1870    0.0000   -0.1101
          29   -0.0000    0.0000    0.0000    0.0000   -0.0002    0.1168    0.0000   -0.2883
          30   -0.3526    0.0126   -0.0768   -0.1743   -0.3975   -0.0008   -0.3078   -0.0001
          31   -0.1175   -0.0523    0.2023    0.1657   -0.0261   -0.0082    0.1054   -0.1227
          32    0.0540   -0.0755   -0.0272   -0.0160    0.0971   -0.1186   -0.0759   -0.0082
          33    0.2118    0.0625   -0.2313   -0.1520    0.0448   -0.0002   -0.1032    0.0032
          34    0.1174    0.0522   -0.2022   -0.1656    0.0261   -0.0083   -0.1052   -0.1228
          35   -0.0540    0.0754    0.0272    0.0160   -0.0966   -0.1189    0.0759   -0.0082
          36    0.2118    0.0625   -0.2314   -0.1521    0.0448    0.0003   -0.1033   -0.0034
          37    0.1174    0.0526    0.2020   -0.1655   -0.0262   -0.0083   -0.1056    0.1227
          38   -0.0540    0.0753   -0.0273    0.0158    0.0970   -0.1186    0.0761    0.0083
          39    0.2117    0.0629    0.2312   -0.1519   -0.0448    0.0001   -0.1035    0.0033
          40   -0.1174   -0.0526   -0.2021    0.1656    0.0262   -0.0081    0.1055    0.1228
          41    0.0541   -0.0754    0.0273   -0.0157   -0.0966   -0.1189   -0.0761    0.0082
          42    0.2117    0.0629    0.2312   -0.1519   -0.0448   -0.0004   -0.1035   -0.0034
          43    0.0000   -0.0000    0.0000    0.0000    0.0003   -0.1538    0.0000   -0.0501
          44    0.0000    0.0000   -0.0000   -0.0000    0.0000   -0.0097    0.0000    0.0005
          45    0.0437   -0.1333    0.2071    0.3055    0.1299    0.0003   -0.2103    0.0000
          46    0.0000    0.0000   -0.0000   -0.0000   -0.0001    0.0844   -0.0001    0.0795
          47   -0.0000   -0.0000   -0.0000    0.0000    0.0002   -0.1063    0.0000    0.0101
          48   -0.0764    0.2616    0.1453    0.1493   -0.2506   -0.0004    0.0884    0.0001
          49    0.0000    0.0000    0.0000   -0.0000   -0.0002    0.0844    0.0000   -0.0795
          50   -0.0000   -0.0000   -0.0000    0.0000    0.0002   -0.1063    0.0000   -0.0101
          51   -0.0766    0.2611   -0.1456    0.1488    0.2510    0.0004    0.0890   -0.0000
          52    0.0000   -0.0000   -0.0000    0.0001    0.0002   -0.1538   -0.0000    0.0501
          53    0.0000    0.0000    0.0000   -0.0000    0.0000   -0.0096    0.0000   -0.0005
          54    0.0438   -0.1336   -0.2071    0.3061   -0.1289   -0.0001   -0.2108   -0.0001
          55    0.0000    0.0001   -0.0000   -0.0000   -0.0002    0.1428   -0.0000    0.0002
          56   -0.0000    0.0000   -0.0000   -0.0000   -0.0001    0.0605   -0.0000   -0.0730
          57   -0.2087    0.0251   -0.0836   -0.0619   -0.2580   -0.0005   -0.3332   -0.0002
          58    0.0000    0.0001    0.0000   -0.0000   -0.0002    0.1428   -0.0000   -0.0003
          59   -0.0000    0.0000    0.0000   -0.0000   -0.0001    0.0605   -0.0001    0.0730
          60   -0.2089    0.0251    0.0833   -0.0625    0.2583    0.0003   -0.3326   -0.0001


   Root No.       9        10        11        12        13        14        15        16

                 9 A      10 A      11 A      12 A      13 A      14 A      15 A      16 A   

                 508.1     604.0     653.7     761.7     766.3     767.9     813.6     853.4
  
           1   -0.2511   -0.1928   -0.0000    0.3699    0.0003    0.0009    0.0003   -0.2332
           2   -0.1469   -0.0895    0.0000   -0.0633   -0.0001   -0.0001   -0.0000    0.0464
           3   -0.0000    0.0000    0.1229    0.0005    0.1788   -0.1808   -0.2353   -0.0001
           4    0.2510   -0.1930    0.0001    0.3699    0.0002    0.0009    0.0002    0.2331
           5    0.1470   -0.0897    0.0000   -0.0632   -0.0000   -0.0001   -0.0000   -0.0464
           6   -0.0000   -0.0001   -0.1228    0.0008   -0.1718   -0.1882   -0.2344   -0.0000
           7    0.0898    0.2488   -0.0001    0.0294   -0.0000    0.0001    0.0000   -0.0460
           8    0.0085    0.0796   -0.0000    0.0770    0.0000    0.0002    0.0000    0.2114
           9   -0.0000    0.0000   -0.4441   -0.0007    0.3220    0.1661    0.0865    0.0001
          10   -0.0898    0.2487    0.0000    0.0293    0.0000    0.0001    0.0000    0.0459
          11   -0.0086    0.0796   -0.0000    0.0769    0.0001    0.0002    0.0001   -0.2115
          12   -0.0000    0.0002    0.4441   -0.0002   -0.3279    0.1529    0.0884   -0.0001
          13   -0.0082    0.1277   -0.0001    0.1159    0.0000    0.0003    0.0001   -0.1696
          14   -0.2830   -0.3884    0.0001    0.1235    0.0001    0.0003    0.0001    0.1415
          15    0.0000   -0.0001    0.0380   -0.0002    0.0572    0.0750   -0.1415    0.0000
          16    0.0083    0.1276    0.0000    0.1159    0.0001    0.0003    0.0000    0.1696
          17    0.2827   -0.3881    0.0001    0.1235    0.0000    0.0003    0.0001   -0.1414
          18    0.0000   -0.0000   -0.0381   -0.0001   -0.0613    0.0725   -0.1418   -0.0001
          19   -0.3962   -0.1322    0.0000   -0.3306   -0.0003   -0.0008   -0.0002    0.0147
          20   -0.1800    0.0062    0.0000   -0.2916   -0.0002   -0.0007   -0.0002    0.0375
          21   -0.0000    0.0000    0.0922    0.0002    0.0077   -0.1080    0.1289    0.0001
          22    0.3962   -0.1324    0.0000   -0.3305   -0.0002   -0.0008   -0.0002   -0.0147
          23    0.1802    0.0061   -0.0000   -0.2916   -0.0001   -0.0007   -0.0001   -0.0376
          24    0.0000   -0.0000   -0.0922    0.0002   -0.0027   -0.1081    0.1291   -0.0000
          25   -0.3063   -0.0359   -0.0000   -0.2157   -0.0002   -0.0005   -0.0001   -0.0584
          26    0.0745    0.4038   -0.0000    0.1194    0.0002    0.0002    0.0001   -0.4979
          27    0.0000   -0.0001    0.0300    0.0004    0.1045   -0.2073    0.0938    0.0001
          28    0.3063   -0.0360   -0.0000   -0.2157   -0.0001   -0.0005   -0.0001    0.0585
          29   -0.0745    0.4040   -0.0001    0.1194   -0.0000    0.0003   -0.0000    0.4979
          30   -0.0000   -0.0001   -0.0300    0.0005   -0.0957   -0.2114    0.0943   -0.0001
          31   -0.0677   -0.0506    0.1652    0.1396    0.1670   -0.1560   -0.2078   -0.0987
          32   -0.0067    0.0104   -0.0536    0.0405   -0.0344    0.0857   -0.0377   -0.0348
          33    0.0022    0.0022   -0.1014   -0.0105   -0.0825    0.0836    0.0838    0.0108
          34   -0.0676   -0.0507   -0.1651    0.1389   -0.1668    0.1566    0.2080   -0.0986
          35   -0.0067    0.0104    0.0536    0.0408    0.0344   -0.0855    0.0377   -0.0348
[...]
 T-DIPOLE    0.0347         C  6 -- H 18         +22.8% ( 56.0%)      0.7%
 TRAVEL      0.1386         C  3 -- C  4          +5.2% ( 26.8%)      0.6%
 RED. MASS   0.2514         C  9 -- H 20          +5.0% ( 26.2%)      0.2%
 EFF. MASS   2.8317

 VIBRATION   34   34A         ATOM PAIR      ENERGY CONTRIBUTION    RADIAL
 FREQ.      1325.45         C  2 -- H 13          +8.5% ( 31.8%)      1.8%
 T-DIPOLE    0.0002         C  2 -- H 14          +8.5% ( 31.8%)      1.8%
 TRAVEL      0.1278         C  1 -- H 12          +8.5% ( 31.7%)      1.8%
 RED. MASS   0.1707         C  1 -- H 11          +8.5% ( 31.7%)      1.8%
 EFF. MASS   3.1135

 VIBRATION   35   35A         ATOM PAIR      ENERGY CONTRIBUTION    RADIAL
 FREQ.      1354.16         C  4 -- C  9         +11.6% ( 46.6%)     77.6%
 T-DIPOLE    0.2243         C  3 -- C 10         +11.6% ( 46.6%)     77.6%
 TRAVEL      0.0813         C  1 -- H 12          +6.2% ( 34.1%)      3.0%
 RED. MASS   0.5904         C  1 -- H 11          +6.2% ( 34.1%)      3.0%
 EFF. MASS   7.5305

 VIBRATION   36   36A         ATOM PAIR      ENERGY CONTRIBUTION    RADIAL
 FREQ.      1368.41         C  1 -- H 12          +9.8% ( 39.3%)      5.5%
 T-DIPOLE    0.0771         C  1 -- H 11          +9.8% ( 39.3%)      5.5%
 TRAVEL      0.0951         C  2 -- H 14          +9.8% ( 39.3%)      5.5%
 RED. MASS   0.3781         C  2 -- H 13          +9.8% ( 39.3%)      5.5%
 EFF. MASS   5.4537

 VIBRATION   37   37A         ATOM PAIR      ENERGY CONTRIBUTION    RADIAL
 FREQ.      1394.12         C  1 -- C  5          +8.5% ( 39.8%)     66.2%
 T-DIPOLE    0.0003         C  2 -- C  6          +8.5% ( 39.8%)     66.1%
 TRAVEL      0.0851         C  2 -- C  8          +6.9% ( 35.9%)     53.0%
 RED. MASS   0.4806         C  1 -- C  7          +6.9% ( 35.9%)     52.8%
 EFF. MASS   6.6787

 VIBRATION   38   38A         ATOM PAIR      ENERGY CONTRIBUTION    RADIAL
 FREQ.      1415.78         C  2 -- C  8         +11.0% ( 51.9%)     63.8%
 T-DIPOLE    0.0001         C  1 -- C  7         +11.0% ( 51.9%)     63.8%
 TRAVEL      0.0700         C  2 -- C  6         +10.4% ( 50.3%)     73.0%
 RED. MASS   1.9065         C  1 -- C  5         +10.3% ( 50.2%)     73.0%
 EFF. MASS   9.7210

 VIBRATION   39   39A         ATOM PAIR      ENERGY CONTRIBUTION    RADIAL
 FREQ.      1464.28         C  1 -- C  7         +11.0% ( 52.3%)     86.0%
 T-DIPOLE    0.0405         C  2 -- C  8         +11.0% ( 52.3%)     86.0%
 TRAVEL      0.0651         C  2 -- C  6          +9.1% ( 47.6%)     82.3%
 RED. MASS   1.5328         C  1 -- C  5          +9.1% ( 47.6%)     82.3%
 EFF. MASS  10.8823

 VIBRATION   40   40A         ATOM PAIR      ENERGY CONTRIBUTION    RADIAL
 FREQ.      1571.40         C  3 -- C  4         +28.8% ( 79.7%)     81.1%
 T-DIPOLE    0.0002         C  4 -- C  9         +14.7% ( 56.9%)     70.7%
 TRAVEL      0.0608         C  3 -- C 10         +14.7% ( 56.8%)     70.7%
 RED. MASS   3.2341         C  4 -- C  6         +11.3% ( 49.8%)      0.0%
 EFF. MASS  11.6006         C  3 -- C  5         +11.3% ( 49.8%)      0.0%

 VIBRATION   41   41A         ATOM PAIR      ENERGY CONTRIBUTION    RADIAL
 FREQ.      1855.52         C  8 -- C 10         +16.0% ( 59.1%)    100.0%
 T-DIPOLE    0.0038         C  7 -- C  9         +15.7% ( 58.6%)    100.0%
 TRAVEL      0.0552         C  3 -- C  5          +6.4% ( 37.6%)     99.9%
 RED. MASS   1.6245         C  4 -- C  6          +6.4% ( 37.4%)     99.9%
 EFF. MASS  11.9370

 VIBRATION   42   42A         ATOM PAIR      ENERGY CONTRIBUTION    RADIAL
 FREQ.      1858.50         C  4 -- C  6         +14.3% ( 55.6%)     98.8%
 T-DIPOLE    0.9177         C  3 -- C  5         +14.2% ( 55.3%)     98.8%
 TRAVEL      0.0552         C  7 -- C  9          +8.5% ( 42.7%)     99.7%
 RED. MASS   1.5202         C  8 -- C 10          +8.3% ( 42.3%)     99.7%
 EFF. MASS  11.8969

 VIBRATION   43   43A         ATOM PAIR      ENERGY CONTRIBUTION    RADIAL
 FREQ.      1869.75         C  7 -- C  9         +13.7% ( 55.2%)     99.8%
 T-DIPOLE    0.1439         C  8 -- C 10         +13.6% ( 55.0%)     99.8%
 TRAVEL      0.0550         C  3 -- C 10          +9.2% ( 45.3%)     50.4%
 RED. MASS   1.5438         C  4 -- C  9          +9.2% ( 45.2%)     50.5%
 EFF. MASS  11.9042

 VIBRATION   44   44A         ATOM PAIR      ENERGY CONTRIBUTION    RADIAL
 FREQ.      1900.53         C  4 -- C  6         +15.2% ( 58.0%)     99.2%
 T-DIPOLE    0.0005         C  3 -- C  5         +15.2% ( 57.9%)     99.2%
 TRAVEL      0.0546         C  3 -- C  4         +13.9% ( 55.4%)     24.1%
 RED. MASS   1.8241         C  4 -- C  9          +9.6% ( 46.2%)     38.1%
 EFF. MASS  11.8815

 VIBRATION   45   45A         ATOM PAIR      ENERGY CONTRIBUTION    RADIAL
 FREQ.      2924.26         C  2 -- H 14         +48.5% ( 72.2%)     96.6%
 T-DIPOLE    0.0436         C  2 -- H 13         +48.4% ( 72.1%)     96.6%
 TRAVEL      0.1227         C  2 -- C  8          +1.1% ( 10.7%)      0.0%
 RED. MASS   0.5064         C  2 -- C  6          +1.1% ( 10.7%)      0.0%
 EFF. MASS   1.5327

 VIBRATION   46   46A         ATOM PAIR      ENERGY CONTRIBUTION    RADIAL
 FREQ.      2924.40         C  1 -- H 12         +48.5% ( 72.2%)     96.6%
 T-DIPOLE    0.0535         C  1 -- H 11         +48.4% ( 72.1%)     96.6%
 TRAVEL      0.1227         C  1 -- C  7          +1.1% ( 10.7%)      0.0%
 RED. MASS   0.5064         C  1 -- C  5          +1.1% ( 10.7%)      0.0%
 EFF. MASS   1.5328

 VIBRATION   47   47A         ATOM PAIR      ENERGY CONTRIBUTION    RADIAL
 FREQ.      3003.91         C  2 -- H 13         +43.0% ( 64.7%)     97.8%
 T-DIPOLE    0.0798         C  2 -- H 14         +42.9% ( 64.6%)     97.8%
 TRAVEL      0.1323         C  1 -- H 11          +5.7% ( 23.5%)     97.8%
 RED. MASS   0.3742         C  1 -- H 12          +5.7% ( 23.5%)     97.8%
 EFF. MASS   1.2817

 VIBRATION   48   48A         ATOM PAIR      ENERGY CONTRIBUTION    RADIAL
 FREQ.      3004.11         C  1 -- H 11         +43.0% ( 64.7%)     97.8%
 T-DIPOLE    0.1708         C  1 -- H 12         +42.9% ( 64.6%)     97.8%
 TRAVEL      0.1323         C  2 -- H 13          +5.7% ( 23.6%)     97.8%
 RED. MASS   0.3746         C  2 -- H 14          +5.7% ( 23.5%)     97.8%
 EFF. MASS   1.2819

 VIBRATION   49   49A         ATOM PAIR      ENERGY CONTRIBUTION    RADIAL
 FREQ.      3042.71         C  9 -- H 20         +38.5% ( 63.0%)    100.0%
 T-DIPOLE    0.0323         C 10 -- H 19         +27.7% ( 53.4%)    100.0%
 TRAVEL      0.1228         C  7 -- H 16         +17.0% ( 41.8%)    100.0%
 RED. MASS   0.2636         C  8 -- H 17         +12.3% ( 35.6%)    100.0%
 EFF. MASS   1.4686

 VIBRATION   50   50A         ATOM PAIR      ENERGY CONTRIBUTION    RADIAL
 FREQ.      3042.85         C 10 -- H 19         +39.5% ( 63.8%)    100.0%
 T-DIPOLE    0.3996         C  9 -- H 20         +28.7% ( 54.4%)    100.0%
 TRAVEL      0.1228         C  8 -- H 17         +16.8% ( 41.6%)    100.0%
 RED. MASS   0.2757         C  7 -- H 16         +12.0% ( 35.2%)    100.0%
 EFF. MASS   1.4701

 VIBRATION   51   51A         ATOM PAIR      ENERGY CONTRIBUTION    RADIAL
 FREQ.      3050.69         C  5 -- H 15         +77.4% ( 89.2%)    100.0%
 T-DIPOLE    0.4685         C  6 -- H 18         +17.3% ( 42.1%)    100.0%
 TRAVEL      0.1208         C  3 -- C  5          +1.2% ( 11.2%)     38.1%
 RED. MASS   0.6204         C  1 -- C  5          +1.1% ( 10.8%)     18.9%
 EFF. MASS   1.5155

 VIBRATION   52   52A         ATOM PAIR      ENERGY CONTRIBUTION    RADIAL
 FREQ.      3050.98         C  6 -- H 18         +77.2% ( 89.1%)    100.0%
 T-DIPOLE    0.1688         C  5 -- H 15         +17.0% ( 41.8%)    100.0%
 TRAVEL      0.1210         C  4 -- C  6          +1.2% ( 11.1%)     37.3%
 RED. MASS   0.6163         C  2 -- C  6          +1.1% ( 10.7%)     19.6%
 EFF. MASS   1.5101

 VIBRATION   53   53A         ATOM PAIR      ENERGY CONTRIBUTION    RADIAL
 FREQ.      3064.28         C  7 -- H 16         +40.0% ( 64.1%)     99.9%
 T-DIPOLE    0.0422         C  8 -- H 17         +27.1% ( 52.8%)     99.9%
 TRAVEL      0.1179         C  9 -- H 20         +17.1% ( 41.9%)     99.9%
 RED. MASS   0.2757         C 10 -- H 19         +11.6% ( 34.5%)     99.8%
 EFF. MASS   1.5836

 VIBRATION   54   54A         ATOM PAIR      ENERGY CONTRIBUTION    RADIAL
 FREQ.      3064.39         C  8 -- H 17         +39.3% ( 63.6%)     99.9%
 T-DIPOLE    0.4313         C  7 -- H 16         +26.6% ( 52.3%)     99.9%
 TRAVEL      0.1178         C 10 -- H 19         +17.1% ( 42.0%)     99.9%
 RED. MASS   0.2680         C  9 -- H 20         +11.5% ( 34.4%)     99.9%
 EFF. MASS   1.5859

      SYMMETRY NUMBER FOR POINT-GROUP C1  =  1


          SYSTEM IS A GROUND STATE



 InChI=1S/C10H10/c1-2-6-10-8-4-3-7-9(10)5-1/h1,4-8H,2-3H2


          MOLECULE IS NOT LINEAR

          THERE ARE 54 GENUINE VIBRATIONS IN THIS SYSTEM
          THIS THERMODYNAMICS CALCULATION IS LIMITED TO
          MOLECULES WHICH HAVE NO INTERNAL ROTATIONS




                    CALCULATED THERMODYNAMIC PROPERTIES
                                          *
   TEMP. (K)   PARTITION FUNCTION   H.O.F.    ENTHALPY  HEAT CAPACITY ENTROPY
                                   KCAL/MOL   CAL/MOLE    CAL/K/MOL  CAL/K/MOL


 298.00  VIB.     0.4166D+02                  3193.0122    26.0654    18.1263
         ROT.     0.5109D+06                   888.2813     2.9808    29.1004
         INT.     0.2128D+08                  4081.2935    29.0462    47.2267
         TRA.     0.1436D+28                  1480.4688     4.9680    40.5022
         TOT.                       47.866    5561.7624    34.0143    87.7289

 200.00  VIB.     0.8103D+01                  1211.3938    14.6146    10.2146
         ROT.     0.2809D+06                   596.1620     2.9808    27.9117
         INT.     0.2276D+07                  1807.5558    17.5954    38.1263
         TRA.     0.7896D+27                   993.6033     4.9680    38.5210
         TOT.                       45.105    2801.1590    22.5634    76.6474

 210.00  VIB.     0.9452D+01                  1362.9332    15.6981    10.9538
         ROT.     0.3022D+06                   625.9700     2.9808    28.0571
         INT.     0.2856D+07                  1988.9033    18.6790    39.0109
         TRA.     0.8496D+27                  1043.2834     4.9680    38.7634
         TOT.                       45.336    3032.1867    23.6470    77.7743

 220.00  VIB.     0.1106D+02                  1525.4491    16.8094    11.7096
         ROT.     0.3241D+06                   655.7781     2.9808    28.1958
         INT.     0.3584D+07                  2181.2273    19.7902    39.9054
         TRA.     0.9110D+27                  1092.9636     4.9680    38.9945
         TOT.                       45.578    3274.1909    24.7582    78.8999

 230.00  VIB.     0.1298D+02                  1699.2044    17.9455    12.4818
         ROT.     0.3464D+06                   685.5862     2.9808    28.3283
         INT.     0.4496D+07                  2384.7907    20.9263    40.8101
         TRA.     0.9738D+27                  1142.6437     4.9680    39.2154
         TOT.                       45.832    3527.4344    25.8943    80.0255

 240.00  VIB.     0.1528D+02                  1884.4315    19.1032    13.2699
         ROT.     0.3692D+06                   715.3943     2.9808    28.4552
         INT.     0.5642D+07                  2599.8258    22.0840    41.7251
         TRA.     0.1038D+28                  1192.3239     4.9680    39.4268
         TOT.                       46.096    3792.1497    27.0520    81.1519

 250.00  VIB.     0.1804D+02                  2081.3292    20.2791    14.0736
         ROT.     0.3925D+06                   745.2024     2.9808    28.5768
         INT.     0.7082D+07                  2826.5317    23.2599    42.6504
         TRA.     0.1103D+28                  1242.0041     4.9680    39.6296
         TOT.                       46.373    4068.5357    28.2279    82.2800

 260.00  VIB.     0.2136D+02                  2290.0615    21.4695    14.8921
         ROT.     0.4163D+06                   775.0105     2.9808    28.6938
         INT.     0.8894D+07                  3065.0720    24.4503    43.5858
         TRA.     0.1170D+28                  1291.6842     4.9680    39.8245
         TOT.                       46.661    4356.7563    29.4184    83.4103

 270.00  VIB.     0.2537D+02                  2510.7568    22.6711    15.7248
         ROT.     0.4406D+06                   804.8186     2.9808    28.8063
         INT.     0.1118D+08                  3315.5754    25.6519    44.5311
         TRA.     0.1239D+28                  1341.3644     4.9680    40.0120
         TOT.                       46.961    4656.9398    30.6199    84.5430

 280.00  VIB.     0.3021D+02                  2743.5084    23.8802    16.5712
         ROT.     0.4653D+06                   834.6267     2.9808    28.9147
         INT.     0.1406D+08                  3578.1351    26.8610    45.4858
         TRA.     0.1308D+28                  1391.0445     4.9680    40.1926
         TOT.                       47.273    4969.1797    31.8291    85.6785

 290.00  VIB.     0.3608D+02                  2988.3757    25.0937    17.4303
         ROT.     0.4904D+06                   864.4348     2.9808    29.0193
         INT.     0.1769D+08                  3852.8106    28.0745    46.4496
         TRA.     0.1379D+28                  1440.7247     4.9680    40.3670
         TOT.                       47.598    5293.5353    33.0425    86.8165

 300.00  VIB.     0.4320D+02                  3245.3860    26.3083    18.3015
         ROT.     0.5160D+06                   894.2429     2.9808    29.1203
         INT.     0.2229D+08                  4139.6289    29.2891    47.4218
         TRA.     0.1451D+28                  1490.4049     4.9680    40.5354
         TOT.                       47.934    5630.0338    34.2571    87.9572

 310.00  VIB.     0.5186D+02                  3514.5361    27.5212    19.1839
         ROT.     0.5420D+06                   924.0510     2.9808    29.2181
         INT.     0.2811D+08                  4438.5872    30.5020    48.4020
         TRA.     0.1524D+28                  1540.0850     4.9680    40.6983
         TOT.                       48.283    5978.6722    35.4700    89.1003

 320.00  VIB.     0.6242D+02                  3795.7953    28.7297    20.0768
         ROT.     0.5685D+06                   953.8591     2.9808    29.3127
         INT.     0.3548D+08                  4749.6544    31.7105    49.3895
         TRA.     0.1598D+28                  1589.7652     4.9680    40.8560
         TOT.                       48.644    6339.4196    36.6785    90.2455

 330.00  VIB.     0.7531D+02                  4089.1074    29.9314    20.9793
         ROT.     0.5953D+06                   983.6672     2.9808    29.4044
         INT.     0.4484D+08                  5072.7746    32.9122    50.3837
         TRA.     0.1674D+28                  1639.4454     4.9680    41.0089
         TOT.                       49.016    6712.2200    37.8802    91.3926

 340.00  VIB.     0.9108D+02                  4394.3934    31.1241    21.8905
         ROT.     0.6226D+06                  1013.4753     2.9808    29.4934
         INT.     0.5671D+08                  5407.8687    34.1050    51.3839
         TRA.     0.1750D+28                  1689.1255     4.9680    41.1572
         TOT.                       49.401    7096.9942    39.0730    92.5412

 350.00  VIB.     0.1104D+03                  4711.5540    32.3060    22.8098
         ROT.     0.6503D+06                  1043.2834     2.9808    29.5798
         INT.     0.7180D+08                  5754.8374    35.2868    52.3896
         TRA.     0.1828D+28                  1738.8057     4.9680    41.3012
         TOT.                       49.798    7493.6431    40.2549    93.6909

 360.00  VIB.     0.1341D+03                  5040.4724    33.4754    23.7363
         ROT.     0.6783D+06                  1073.0915     2.9808    29.6638
         INT.     0.9099D+08                  6113.5639    36.4562    53.4001
         TRA.     0.1907D+28                  1788.4859     4.9680    41.4412
         TOT.                       50.206    7902.0498    41.4243    94.8413

 370.00  VIB.     0.1633D+03                  5381.0161    34.6309    24.6693
         ROT.     0.7068D+06                  1102.8996     2.9808    29.7454
         INT.     0.1154D+09                  6483.9157    37.6117    54.4148
         TRA.     0.1987D+28                  1838.1660     4.9680    41.5773
         TOT.                       50.626    8322.0817    42.5797    95.9921

 380.00  VIB.     0.1992D+03                  5733.0395    35.7712    25.6080
         ROT.     0.7356D+06                  1132.7077     2.9808    29.8249
         INT.     0.1466D+09                  6865.7472    38.7520    55.4330
         TRA.     0.2068D+28                  1887.8462     4.9680    41.7098
         TOT.                       51.058    8753.5934    43.7200    97.1428

 390.00  VIB.     0.2435D+03                  6096.3862    36.8954    26.5518
         ROT.     0.7649D+06                  1162.5158     2.9808    29.9024
         INT.     0.1863D+09                  7258.9020    39.8762    56.4542
         TRA.     0.2150D+28                  1937.5263     4.9680    41.8388
         TOT.                       51.501    9196.4283    44.8442    98.2930

 400.00  VIB.     0.2982D+03                  6470.8903    38.0026    27.4999
         ROT.     0.7945D+06                  1192.3239     2.9808    29.9778
         INT.     0.2369D+09                  7663.2142    40.9834    57.4777
         TRA.     0.2233D+28                  1987.2065     4.9680    41.9646
         TOT.                       51.955    9650.4207    45.9514    99.4423

   *: NOTE: HEATS OF FORMATION ARE RELATIVE TO THE
            ELEMENTS IN THEIR STANDARD STATE AT 298K
              (=  Standard Enthalpy of Formation).

            Hvib:  Zero-point energy is not included.
                   frequencies of less than zero cm-1 are not included.
            Hrot = (3/2)RT
            Htra = (3/2)RT + pV = (5/2)RT

            Heat capacity is Cp, not Cv

          For more information, see: HTTP://OpenMOPAC.net/Manual/thermochemistry.html


           FORCE CONSTANT IN CARTESIAN COORDINATES (Millidynes/A)

    ATOM   CHEMICAL       X               Y               Z
   NUMBER   SYMBOL  FORCE CONSTANT  FORCE CONSTANT  FORCE CONSTANT

      1       C        9.018198        9.448884        7.586050
      2       C        9.017670        9.448841        7.585423
      3       C       15.574523       11.098169        2.425483
      4       C       15.575268       11.097791        2.425510
      5       C       14.639717       10.092787        2.318699
      6       C       14.639617       10.097893        2.318970
      7       C       14.958506        9.838224        2.357096
      8       C       14.958384        9.837882        2.358415
      9       C       15.074512       10.471375        2.193762
     10       C       15.070492       10.470630        2.196721
     11       H        1.972628        0.741738        3.431346
     12       H        1.974220        0.741923        3.429487
     13       H        1.974179        0.741835        3.429301
     14       H        1.972424        0.741702        3.430849
     15       H        1.153403        4.749820        0.340223
     16       H        2.900646        3.002472        0.347838
     17       H        2.900697        3.002449        0.347882
     18       H        1.153382        4.750332        0.339816
     19       H        1.157462        4.737317        0.345685
     20       H        1.157541        4.737384        0.345699

 **********************
 *                    *
 * JOB ENDED NORMALLY *
 *                    *
 **********************



 TOTAL JOB TIME:             5.02 SECONDS

 == MOPAC DONE ==
