 *******************************************************************************
 ** Site#: 14399        For non-commercial use only    Version 18.184L 64BITS **
 *******************************************************************************
 ** Cite this program as: MOPAC2016, Version: 18.184L, James J. P. Stewart,   **
 ** Stewart Computational Chemistry, web: HTTP://OpenMOPAC.net. Days left:  20**
 *******************************************************************************
 **                                                                           **
 **                                MOPAC2016                                  **
 **                                                                           **
 *******************************************************************************

                              PM3 CALCULATION RESULTS

 *******************************************************************************
 *  CALCULATION DONE:                                Thu Jun 13 16:01:50 2019  *
 *  PM3        - The PM3 Hamiltonian to be used
 *  PRECISE    - CRITERIA TO BE INCREASED BY 100 TIMES
 *  NOSYM      - POINT-GROUP SYMMETRY SET TO C1
 *  THREADS=1  - MULTI-THREADING NOT USED
 *  T=         - A TIME OF 172800.0 SECONDS REQUESTED
 *  DUMP=N     - RESTART FILE WRITTEN EVERY  7200.000 SECONDS
 *******************************************************************************
pm3  precise nosym THREADS=1
 InChI=1S/C10H12/c1-2-3-4-7-10-8-5-6-9-10/h2-6,8-10H,1,7H2

   ATOM   CHEMICAL          X               Y               Z
  NUMBER   SYMBOL      (ANGSTROMS)     (ANGSTROMS)     (ANGSTROMS)
 
     1       C         -1.42840000  *   0.83320000  *  -0.13390000  *
     2       C         -0.36300000  *   0.32360000  *  -1.11430000  *
     3       C         -1.45300000  *   0.03460000  *   1.13490000  *
     4       C         -2.80850000  *   0.57950000  *  -0.65630000  *
     5       C          1.01920000  *   0.62540000  *  -0.60590000  *
     6       C         -2.62670000  *  -0.55510000  *   1.28880000  *
     7       C         -3.47750000  *  -0.21300000  *   0.16470000  *
     8       C          1.89610000  *  -0.34350000  *  -0.33100000  *
     9       C          3.24200000  *  -0.02480000  *   0.17130000  *
    10       C          4.11730000  *  -0.98590000  *   0.45160000  *
    11       H         -1.29460000  *   1.91530000  *   0.08410000  *
    12       H         -0.48860000  *   0.83930000  *  -2.09070000  *
    13       H         -0.50030000  *  -0.76740000  *  -1.29190000  *
    14       H         -0.63410000  *  -0.04920000  *   1.83770000  *
    15       H         -3.21470000  *   0.98780000  *  -1.57260000  *
    16       H          1.29560000  *   1.66370000  *  -0.46070000  *
    17       H          1.61610000  *  -1.38140000  *  -0.47320000  *
    18       H         -2.90090000  *  -1.18580000  *   2.12380000  *
    19       H         -4.49640000  *  -0.54460000  *   0.01590000  *
    20       H          3.53320000  *   1.00880000  *   0.31890000  *
    21       H          3.86530000  *  -2.03080000  *   0.31830000  *
    22       H          5.10200000  *  -0.72970000  *   0.82040000  *
 


          CARTESIAN COORDINATES 

    NO.       ATOM           X           Y           Z

     1         C         -1.4284      0.8332     -0.1339
     2         C         -0.3630      0.3236     -1.1143
     3         C         -1.4530      0.0346      1.1349
     4         C         -2.8085      0.5795     -0.6563
     5         C          1.0192      0.6254     -0.6059
     6         C         -2.6267     -0.5551      1.2888
     7         C         -3.4775     -0.2130      0.1647
     8         C          1.8961     -0.3435     -0.3310
     9         C          3.2420     -0.0248      0.1713
    10         C          4.1173     -0.9859      0.4516
    11         H         -1.2946      1.9153      0.0841
    12         H         -0.4886      0.8393     -2.0907
    13         H         -0.5003     -0.7674     -1.2919
    14         H         -0.6341     -0.0492      1.8377
    15         H         -3.2147      0.9878     -1.5726
    16         H          1.2956      1.6637     -0.4607
    17         H          1.6161     -1.3814     -0.4732
    18         H         -2.9009     -1.1858      2.1238
    19         H         -4.4964     -0.5446      0.0159
    20         H          3.5332      1.0088      0.3189
    21         H          3.8653     -2.0308      0.3183
    22         H          5.1020     -0.7297      0.8204

  H: (PM3): J. J. P. STEWART, J. COMP. CHEM. 10, 209 (1989).
  C: (PM3): J. J. P. STEWART, J. COMP. CHEM. 10, 209 (1989).

           Empirical Formula: C10 H12  =    22 atoms



      MOLECULAR POINT GROUP   :   C1  


      RHF CALCULATION, NO. OF DOUBLY OCCUPIED LEVELS = 26


          Geometry optimization using EF

          DIAGONAL MATRIX USED AS START HESSIAN

 CYCLE:     1 TIME:   0.031 TIME LEFT:  2.00D  GRAD.:   106.833 HEAT:  65.63255
 CYCLE:     2 TIME:   0.051 TIME LEFT:  2.00D  GRAD.:    71.954 HEAT:  64.14191
 CYCLE:     3 TIME:   0.020 TIME LEFT:  2.00D  GRAD.:    54.824 HEAT:  63.29981
 CYCLE:     4 TIME:   0.023 TIME LEFT:  2.00D  GRAD.:    71.802 HEAT:  63.19859
 CYCLE:     5 TIME:   0.031 TIME LEFT:  2.00D  GRAD.:    30.566 HEAT:  62.44985
 CYCLE:     6 TIME:   0.035 TIME LEFT:  2.00D  GRAD.:    17.064 HEAT:  62.21066
 CYCLE:     7 TIME:   0.027 TIME LEFT:  2.00D  GRAD.:    19.270 HEAT:  62.02148
 CYCLE:     8 TIME:   0.023 TIME LEFT:  2.00D  GRAD.:    18.089 HEAT:  61.79121
 CYCLE:     9 TIME:   0.031 TIME LEFT:  2.00D  GRAD.:    22.689 HEAT:  61.73841
 CYCLE:    10 TIME:   0.023 TIME LEFT:  2.00D  GRAD.:    18.847 HEAT:  61.67190
 CYCLE:    11 TIME:   0.031 TIME LEFT:  2.00D  GRAD.:     8.491 HEAT:  61.61325
 CYCLE:    12 TIME:   0.035 TIME LEFT:  2.00D  GRAD.:     8.882 HEAT:  61.60621
 CYCLE:    13 TIME:   0.023 TIME LEFT:  2.00D  GRAD.:     7.889 HEAT:  61.59919
 CYCLE:    14 TIME:   0.023 TIME LEFT:  2.00D  GRAD.:     6.691 HEAT:  61.59162
 CYCLE:    15 TIME:   0.031 TIME LEFT:  2.00D  GRAD.:     3.861 HEAT:  61.58400
 CYCLE:    16 TIME:   0.027 TIME LEFT:  2.00D  GRAD.:     3.992 HEAT:  61.58095
 CYCLE:    17 TIME:   0.023 TIME LEFT:  2.00D  GRAD.:     2.807 HEAT:  61.57416
 CYCLE:    18 TIME:   0.031 TIME LEFT:  2.00D  GRAD.:     4.942 HEAT:  61.57207
 CYCLE:    19 TIME:   0.023 TIME LEFT:  2.00D  GRAD.:     5.442 HEAT:  61.56861
 CYCLE:    20 TIME:   0.023 TIME LEFT:  2.00D  GRAD.:     7.130 HEAT:  61.56764
 CYCLE:    21 TIME:   0.023 TIME LEFT:  2.00D  GRAD.:     4.297 HEAT:  61.55672
 CYCLE:    22 TIME:   0.023 TIME LEFT:  2.00D  GRAD.:     5.085 HEAT:  61.55533
 CYCLE:    23 TIME:   0.023 TIME LEFT:  2.00D  GRAD.:     2.002 HEAT:  61.54739
 CYCLE:    24 TIME:   0.023 TIME LEFT:  2.00D  GRAD.:     3.561 HEAT:  61.54559
 CYCLE:    25 TIME:   0.020 TIME LEFT:  2.00D  GRAD.:     2.081 HEAT:  61.53998
 CYCLE:    26 TIME:   0.023 TIME LEFT:  2.00D  GRAD.:     3.382 HEAT:  61.53556
 CYCLE:    27 TIME:   0.023 TIME LEFT:  2.00D  GRAD.:     2.228 HEAT:  61.52984
 CYCLE:    28 TIME:   0.023 TIME LEFT:  2.00D  GRAD.:     1.933 HEAT:  61.52618
 CYCLE:    29 TIME:   0.023 TIME LEFT:  2.00D  GRAD.:     2.378 HEAT:  61.52204
 CYCLE:    30 TIME:   0.023 TIME LEFT:  2.00D  GRAD.:     2.415 HEAT:  61.51839
 CYCLE:    31 TIME:   0.023 TIME LEFT:  2.00D  GRAD.:     2.234 HEAT:  61.51414
 CYCLE:    32 TIME:   0.020 TIME LEFT:  2.00D  GRAD.:     2.379 HEAT:  61.51071
 CYCLE:    33 TIME:   0.023 TIME LEFT:  2.00D  GRAD.:     1.558 HEAT:  61.50732
 CYCLE:    34 TIME:   0.023 TIME LEFT:  2.00D  GRAD.:     1.456 HEAT:  61.50418
 CYCLE:    35 TIME:   0.023 TIME LEFT:  2.00D  GRAD.:     1.203 HEAT:  61.50166
 CYCLE:    36 TIME:   0.023 TIME LEFT:  2.00D  GRAD.:     1.094 HEAT:  61.49832
 CYCLE:    37 TIME:   0.023 TIME LEFT:  2.00D  GRAD.:     1.255 HEAT:  61.49596
 CYCLE:    38 TIME:   0.023 TIME LEFT:  2.00D  GRAD.:     1.106 HEAT:  61.49382
 CYCLE:    39 TIME:   0.020 TIME LEFT:  2.00D  GRAD.:     1.066 HEAT:  61.49142
 CYCLE:    40 TIME:   0.023 TIME LEFT:  2.00D  GRAD.:     1.498 HEAT:  61.48873
 CYCLE:    41 TIME:   0.023 TIME LEFT:  2.00D  GRAD.:     1.523 HEAT:  61.48548
 CYCLE:    42 TIME:   0.023 TIME LEFT:  2.00D  GRAD.:     1.354 HEAT:  61.48097
 CYCLE:    43 TIME:   0.023 TIME LEFT:  2.00D  GRAD.:     1.265 HEAT:  61.47642
 CYCLE:    44 TIME:   0.023 TIME LEFT:  2.00D  GRAD.:     1.368 HEAT:  61.47224
 CYCLE:    45 TIME:   0.023 TIME LEFT:  2.00D  GRAD.:     1.425 HEAT:  61.46730
 CYCLE:    46 TIME:   0.023 TIME LEFT:  2.00D  GRAD.:     1.268 HEAT:  61.46310
 CYCLE:    47 TIME:   0.023 TIME LEFT:  2.00D  GRAD.:     1.146 HEAT:  61.45905
 CYCLE:    48 TIME:   0.020 TIME LEFT:  2.00D  GRAD.:     1.187 HEAT:  61.45515
 CYCLE:    49 TIME:   0.023 TIME LEFT:  2.00D  GRAD.:     1.324 HEAT:  61.45141
 CYCLE:    50 TIME:   0.023 TIME LEFT:  2.00D  GRAD.:     1.225 HEAT:  61.44836
 CYCLE:    51 TIME:   0.023 TIME LEFT:  2.00D  GRAD.:     1.197 HEAT:  61.44560
 CYCLE:    52 TIME:   0.023 TIME LEFT:  2.00D  GRAD.:     1.298 HEAT:  61.44223
 CYCLE:    53 TIME:   0.023 TIME LEFT:  2.00D  GRAD.:     1.366 HEAT:  61.43802
 CYCLE:    54 TIME:   0.020 TIME LEFT:  2.00D  GRAD.:     1.211 HEAT:  61.43386
 CYCLE:    55 TIME:   0.023 TIME LEFT:  2.00D  GRAD.:     1.015 HEAT:  61.43094
 CYCLE:    56 TIME:   0.023 TIME LEFT:  2.00D  GRAD.:     1.079 HEAT:  61.42849
 CYCLE:    57 TIME:   0.023 TIME LEFT:  2.00D  GRAD.:     1.288 HEAT:  61.42543
 CYCLE:    58 TIME:   0.027 TIME LEFT:  2.00D  GRAD.:     1.542 HEAT:  61.42107
 CYCLE:    59 TIME:   0.023 TIME LEFT:  2.00D  GRAD.:     1.413 HEAT:  61.41586
 CYCLE:    60 TIME:   0.023 TIME LEFT:  2.00D  GRAD.:     1.212 HEAT:  61.41115
 CYCLE:    61 TIME:   0.023 TIME LEFT:  2.00D  GRAD.:     1.151 HEAT:  61.40757
 CYCLE:    62 TIME:   0.023 TIME LEFT:  2.00D  GRAD.:     1.201 HEAT:  61.40436
 CYCLE:    63 TIME:   0.020 TIME LEFT:  2.00D  GRAD.:     1.315 HEAT:  61.40060
 CYCLE:    64 TIME:   0.023 TIME LEFT:  2.00D  GRAD.:     1.420 HEAT:  61.39583
 CYCLE:    65 TIME:   0.023 TIME LEFT:  2.00D  GRAD.:     1.561 HEAT:  61.38993
 CYCLE:    66 TIME:   0.023 TIME LEFT:  2.00D  GRAD.:     1.645 HEAT:  61.38403
 CYCLE:    67 TIME:   0.023 TIME LEFT:  2.00D  GRAD.:     1.551 HEAT:  61.37853
 CYCLE:    68 TIME:   0.023 TIME LEFT:  2.00D  GRAD.:     1.475 HEAT:  61.37414
 CYCLE:    69 TIME:   0.023 TIME LEFT:  2.00D  GRAD.:     1.394 HEAT:  61.37029
 CYCLE:    70 TIME:   0.020 TIME LEFT:  2.00D  GRAD.:     1.252 HEAT:  61.36672
 CYCLE:    71 TIME:   0.023 TIME LEFT:  2.00D  GRAD.:     1.015 HEAT:  61.36352
 CYCLE:    72 TIME:   0.023 TIME LEFT:  2.00D  GRAD.:     0.705 HEAT:  61.36145
 CYCLE:    73 TIME:   0.023 TIME LEFT:  2.00D  GRAD.:     0.529 HEAT:  61.36033
 CYCLE:    74 TIME:   0.023 TIME LEFT:  2.00D  GRAD.:     0.456 HEAT:  61.35957
 CYCLE:    75 TIME:   0.023 TIME LEFT:  2.00D  GRAD.:     0.471 HEAT:  61.35890
 CYCLE:    76 TIME:   0.023 TIME LEFT:  2.00D  GRAD.:     0.531 HEAT:  61.35810
 CYCLE:    77 TIME:   0.020 TIME LEFT:  2.00D  GRAD.:     0.634 HEAT:  61.35710
 CYCLE:    78 TIME:   0.023 TIME LEFT:  2.00D  GRAD.:     0.708 HEAT:  61.35603
 CYCLE:    79 TIME:   0.023 TIME LEFT:  2.00D  GRAD.:     0.787 HEAT:  61.35489
 CYCLE:    80 TIME:   0.023 TIME LEFT:  2.00D  GRAD.:     0.863 HEAT:  61.35358
 CYCLE:    81 TIME:   0.023 TIME LEFT:  2.00D  GRAD.:     1.024 HEAT:  61.35204
 CYCLE:    82 TIME:   0.023 TIME LEFT:  2.00D  GRAD.:     0.941 HEAT:  61.35032
 CYCLE:    83 TIME:   0.020 TIME LEFT:  2.00D  GRAD.:     0.798 HEAT:  61.34877
 CYCLE:    84 TIME:   0.023 TIME LEFT:  2.00D  GRAD.:     0.516 HEAT:  61.34771
 CYCLE:    85 TIME:   0.023 TIME LEFT:  2.00D  GRAD.:     0.481 HEAT:  61.34708
 CYCLE:    86 TIME:   0.023 TIME LEFT:  2.00D  GRAD.:     0.482 HEAT:  61.34654
 CYCLE:    87 TIME:   0.023 TIME LEFT:  2.00D  GRAD.:     0.448 HEAT:  61.34598
 CYCLE:    88 TIME:   0.023 TIME LEFT:  2.00D  GRAD.:     0.410 HEAT:  61.34549
 CYCLE:    89 TIME:   0.023 TIME LEFT:  2.00D  GRAD.:     0.384 HEAT:  61.34508
 CYCLE:    90 TIME:   0.020 TIME LEFT:  2.00D  GRAD.:     0.425 HEAT:  61.34474
 CYCLE:    91 TIME:   0.023 TIME LEFT:  2.00D  GRAD.:     0.395 HEAT:  61.34443
 CYCLE:    92 TIME:   0.023 TIME LEFT:  2.00D  GRAD.:     0.364 HEAT:  61.34416
 CYCLE:    93 TIME:   0.023 TIME LEFT:  2.00D  GRAD.:     0.389 HEAT:  61.34381
 CYCLE:    94 TIME:   0.023 TIME LEFT:  2.00D  GRAD.:     0.433 HEAT:  61.34350
 CYCLE:    95 TIME:   0.023 TIME LEFT:  2.00D  GRAD.:     0.497 HEAT:  61.34309
 CYCLE:    96 TIME:   0.023 TIME LEFT:  2.00D  GRAD.:     0.328 HEAT:  61.34281
 CYCLE:    97 TIME:   0.020 TIME LEFT:  2.00D  GRAD.:     0.235 HEAT:  61.34265
 CYCLE:    98 TIME:   0.023 TIME LEFT:  2.00D  GRAD.:     0.183 HEAT:  61.34254
 CYCLE:    99 TIME:   0.023 TIME LEFT:  2.00D  GRAD.:     0.204 HEAT:  61.34246
 CYCLE:   100 TIME:   0.023 TIME LEFT:  2.00D  GRAD.:     0.281 HEAT:  61.34236
 CYCLE:   101 TIME:   0.023 TIME LEFT:  2.00D  GRAD.:     0.240 HEAT:  61.34222
 CYCLE:   102 TIME:   0.023 TIME LEFT:  2.00D  GRAD.:     0.231 HEAT:  61.34210
 CYCLE:   103 TIME:   0.020 TIME LEFT:  2.00D  GRAD.:     0.356 HEAT:  61.34193
 CYCLE:   104 TIME:   0.023 TIME LEFT:  2.00D  GRAD.:     0.322 HEAT:  61.34179
 CYCLE:   105 TIME:   0.023 TIME LEFT:  2.00D  GRAD.:     0.480 HEAT:  61.34122
 CYCLE:   106 TIME:   0.023 TIME LEFT:  2.00D  GRAD.:     0.632 HEAT:  61.34053
 CYCLE:   107 TIME:   0.023 TIME LEFT:  2.00D  GRAD.:     0.891 HEAT:  61.33923
 CYCLE:   108 TIME:   0.023 TIME LEFT:  2.00D  GRAD.:     0.866 HEAT:  61.33784
 CYCLE:   109 TIME:   0.023 TIME LEFT:  2.00D  GRAD.:     0.444 HEAT:  61.33731
 CYCLE:   110 TIME:   0.020 TIME LEFT:  2.00D  GRAD.:     0.589 HEAT:  61.33663
 CYCLE:   111 TIME:   0.023 TIME LEFT:  2.00D  GRAD.:     0.400 HEAT:  61.33615
 CYCLE:   112 TIME:   0.023 TIME LEFT:  2.00D  GRAD.:     0.526 HEAT:  61.33546
 CYCLE:   113 TIME:   0.023 TIME LEFT:  2.00D  GRAD.:     0.311 HEAT:  61.33527
 CYCLE:   114 TIME:   0.023 TIME LEFT:  2.00D  GRAD.:     0.217 HEAT:  61.33513
 CYCLE:   115 TIME:   0.023 TIME LEFT:  2.00D  GRAD.:     0.139 HEAT:  61.33507
 CYCLE:   116 TIME:   0.023 TIME LEFT:  2.00D  GRAD.:     0.151 HEAT:  61.33504
 CYCLE:   117 TIME:   0.020 TIME LEFT:  2.00D  GRAD.:     0.049 HEAT:  61.33501

     GRADIENT =  0.04943  IS LESS THAN CUTOFF =  0.05000



 -------------------------------------------------------------------------------
 pm3  precise nosym THREADS=1
 InChI=1S/C10H12/c1-2-3-4-7-10-8-5-6-9-10/h2-6,8-10H,1,7H2



     GEOMETRY OPTIMISED USING EIGENVECTOR FOLLOWING (EF).     
     SCF FIELD WAS ACHIEVED                                   


                              PM3 CALCULATION
                                                       MOPAC2016 (Version: 18.184L)
                                                       Thu Jun 13 16:01:53 2019
                                                       No. of days remaining =  20




          FINAL HEAT OF FORMATION =         61.33501 KCAL/MOL =     256.62566 KJ/MOL


          TOTAL ENERGY            =      -1367.73656 EV
          ELECTRONIC ENERGY       =      -7033.70538 EV  POINT GROUP:     C1  
          CORE-CORE REPULSION     =       5665.96882 EV
          COSMO AREA              =        196.34 SQUARE ANGSTROMS
          COSMO VOLUME            =        193.79 CUBIC ANGSTROMS

          GRADIENT NORM           =          0.04943 = 0.01054 PER ATOM
          IONIZATION POTENTIAL    =          9.236498 EV
          HOMO LUMO ENERGIES (EV) =         -9.236  0.132
          NO. OF FILLED LEVELS    =         26
          MOLECULAR WEIGHT        =        132.2048

          MOLECULAR DIMENSIONS (Angstroms)

            Atom       Atom       Distance
            H    22    H    19     9.98426
            H    18    H    12     4.63247
            H    11    H    21     3.54709


          SCF CALCULATIONS        =        127
 
          WALL-CLOCK TIME         =          2.844 SECONDS
          COMPUTATION TIME        =          1.242 SECONDS




   ATOM   CHEMICAL          X               Y               Z
  NUMBER   SYMBOL      (ANGSTROMS)     (ANGSTROMS)     (ANGSTROMS)
 
     1       C         -1.43339639  *   0.75071581  *  -0.09847719  *
     2       C         -0.32645064  *   0.18283061  *  -0.97706396  *
     3       C         -1.60022031  *   0.00389666  *   1.20430693  *
     4       C         -2.79688836  *   0.60072927  *  -0.73293703  *
     5       C          1.02283916  *   0.53463785  *  -0.45964538  *
     6       C         -2.86416129  *  -0.46166044  *   1.30217742  *
     7       C         -3.60950216  *  -0.08977492  *   0.09566084  *
     8       C          2.00763416  *  -0.36270175  *  -0.34051231  *
     9       C          3.33028193  *   0.00393419  *   0.14265602  *
    10       C          4.31521783  *  -0.88460404  *   0.25947161  *
    11       H         -1.24634443  *   1.82977032  *   0.11827326  *
    12       H         -0.42487567  *   0.59589488  *  -2.00191568  *
    13       H         -0.44924935  *  -0.91394897  *  -1.07823858  *
    14       H         -0.78507720  *  -0.10911585  *   1.91583065  *
    15       H         -3.03030158  *   1.01190452  *  -1.71262160  *
    16       H          1.17903285  *   1.58644735  *  -0.18639416  *
    17       H          1.84933844  *  -1.41613673  *  -0.60758138  *
    18       H         -3.30097376  *  -1.02618751  *   2.12349056  *
    19       H         -4.65352396  *  -0.35092722  *  -0.06543082  *
    20       H          3.48721741  *   1.05633242  *   0.41120755  *
    21       H          4.20274598  *  -1.93506074  *   0.00502677  *
    22       H          5.30366524  *  -0.61679198  *   0.61950734  *

                             CARTESIAN COORDINATES

   1    C       -1.433396387     0.750715814    -0.098477189
   2    C       -0.326450635     0.182830606    -0.977063960
   3    C       -1.600220312     0.003896658     1.204306935
   4    C       -2.796888356     0.600729270    -0.732937031
   5    C        1.022839162     0.534637852    -0.459645378
   6    C       -2.864161288    -0.461660445     1.302177421
   7    C       -3.609502163    -0.089774915     0.095660843
   8    C        2.007634164    -0.362701751    -0.340512308
   9    C        3.330281925     0.003934188     0.142656023
  10    C        4.315217833    -0.884604037     0.259471612
  11    H       -1.246344433     1.829770319     0.118273261
  12    H       -0.424875669     0.595894885    -2.001915683
  13    H       -0.449249348    -0.913948967    -1.078238576
  14    H       -0.785077203    -0.109115853     1.915830653
  15    H       -3.030301582     1.011904518    -1.712621596
  16    H        1.179032846     1.586447347    -0.186394156
  17    H        1.849338444    -1.416136734    -0.607581380
  18    H       -3.300973757    -1.026187508     2.123490557
  19    H       -4.653523957    -0.350927219    -0.065430825
  20    H        3.487217410     1.056332423     0.411207553
  21    H        4.202745983    -1.935060736     0.005026772
  22    H        5.303665243    -0.616791975     0.619507338


           Empirical Formula: C10 H12  =    22 atoms



      MOLECULAR POINT GROUP   :   C1  


                  EIGENVALUES  
 -40.63670 -36.38791 -32.26295 -27.73307 -27.20855 -23.61310 -20.26889 -19.95929
 -18.91320 -18.63547 -17.92639 -16.46842 -16.00365 -14.96422 -14.27161 -13.95336
 -13.76029 -13.48292 -12.86793 -12.62582 -12.45757 -12.08267 -11.66209 -11.07074
  -9.28591  -9.23650   0.13179   0.33931   1.99250   2.07735   3.09267   3.33108
   3.36461   3.57236   3.63240   3.67409   3.75075   3.91039   4.02238   4.05289
   4.31229   4.32390   4.43254   4.63000   4.69543   5.08730   5.32941   5.73930
   5.76645   5.94942   6.03155   6.13116


              NET ATOMIC CHARGES AND DIPOLE CONTRIBUTIONS

  ATOM NO.   TYPE          CHARGE      No. of ELECS.   s-Pop       p-Pop       
    1          C          -0.032998        4.0330     1.16565     2.86735
    2          C          -0.041218        4.0412     1.14401     2.89721
    3          C          -0.153306        4.1533     1.20979     2.94352
    4          C          -0.164238        4.1642     1.21018     2.95406
    5          C          -0.137485        4.1375     1.19861     2.93888
    6          C          -0.122363        4.1224     1.19273     2.92964
    7          C          -0.114843        4.1148     1.19248     2.92236
    8          C          -0.118892        4.1189     1.18341     2.93548
    9          C          -0.106108        4.1061     1.18096     2.92515
   10          C          -0.150441        4.1504     1.18375     2.96669
   11          H           0.091513        0.9085     0.90849
   12          H           0.058711        0.9413     0.94129
   13          H           0.063223        0.9368     0.93678
   14          H           0.120186        0.8798     0.87981
   15          H           0.117018        0.8830     0.88298
   16          H           0.101279        0.8987     0.89872
   17          H           0.104454        0.8955     0.89555
   18          H           0.114265        0.8857     0.88574
   19          H           0.113689        0.8863     0.88631
   20          H           0.097309        0.9027     0.90269
   21          H           0.081345        0.9187     0.91866
   22          H           0.078901        0.9211     0.92110
 DIPOLE           X         Y         Z       TOTAL
 POINT-CHG.     0.184     0.191    -0.213     0.340
 HYBRID        -0.012     0.059     0.024     0.064
 SUM            0.172     0.250    -0.190     0.358


          ATOMIC ORBITAL ELECTRON POPULATIONS

     Atom    s        px        py        pz   
    1  C   1.16565   0.93929   0.99159   0.93646
    2  C   1.14401   0.91430   1.01032   0.97259
    3  C   1.20979   0.97529   0.98952   0.97871
    4  C   1.21018   0.96142   1.00502   0.98762
    5  C   1.19861   0.95499   0.98797   0.99592
    6  C   1.19273   0.95334   1.00207   0.97422
    7  C   1.19248   0.98028   0.98929   0.95280
    8  C   1.18341   0.94270   0.98632   1.00645
    9  C   1.18096   0.94269   0.98602   0.99644
   10  C   1.18375   0.97850   0.98752   1.00067
   11  H   0.90849
   12  H   0.94129
   13  H   0.93678
   14  H   0.87981
   15  H   0.88298
   16  H   0.89872
   17  H   0.89555
   18  H   0.88574
   19  H   0.88631
   20  H   0.90269
   21  H   0.91866
   22  H   0.92110
 *******************************************************************************
 ** Site#: 14399        For non-commercial use only    Version 18.184L 64BITS **
 *******************************************************************************
 ** Cite this program as: MOPAC2016, Version: 18.184L, James J. P. Stewart,   **
 ** Stewart Computational Chemistry, web: HTTP://OpenMOPAC.net. Days left:  20**
 *******************************************************************************
 **                                                                           **
 **                                MOPAC2016                                  **
 **                                                                           **
 *******************************************************************************

                              PM3 CALCULATION RESULTS

 *******************************************************************************
 *  CALCULATION DONE:                                Thu Jun 13 16:01:53 2019  *
 *  PM3        - The PM3 Hamiltonian to be used
 *  OLDGEO     - PREVIOUS GEOMETRY TO BE USED
 *  PRECISE    - CRITERIA TO BE INCREASED BY 100 TIMES
 *  NOSYM      - POINT-GROUP SYMMETRY SET TO C1
 *  THREADS=1  - MULTI-THREADING NOT USED
 *  T=         - A TIME OF 172800.0 SECONDS REQUESTED
 *  DUMP=N     - RESTART FILE WRITTEN EVERY  7200.000 SECONDS
 *  THERMO     - THERMODYNAMIC QUANTITIES TO BE CALCULATED
 *******************************************************************************
oldgeo thermo nosym precise THREADS=1  pm3
 InChI=1S/C10H12/c1-2-3-4-7-10-8-5-6-9-10/h2-6,8-10H,1,7H2

   ATOM   CHEMICAL          X               Y               Z
  NUMBER   SYMBOL      (ANGSTROMS)     (ANGSTROMS)     (ANGSTROMS)
 
     1       C         -1.43339639  *   0.75071581  *  -0.09847719  *
     2       C         -0.32645064  *   0.18283061  *  -0.97706396  *
     3       C         -1.60022031  *   0.00389666  *   1.20430693  *
     4       C         -2.79688836  *   0.60072927  *  -0.73293703  *
     5       C          1.02283916  *   0.53463785  *  -0.45964538  *
     6       C         -2.86416129  *  -0.46166044  *   1.30217742  *
     7       C         -3.60950216  *  -0.08977492  *   0.09566084  *
     8       C          2.00763416  *  -0.36270175  *  -0.34051231  *
     9       C          3.33028193  *   0.00393419  *   0.14265602  *
    10       C          4.31521783  *  -0.88460404  *   0.25947161  *
    11       H         -1.24634443  *   1.82977032  *   0.11827326  *
    12       H         -0.42487567  *   0.59589488  *  -2.00191568  *
    13       H         -0.44924935  *  -0.91394897  *  -1.07823858  *
    14       H         -0.78507720  *  -0.10911585  *   1.91583065  *
    15       H         -3.03030158  *   1.01190452  *  -1.71262160  *
    16       H          1.17903285  *   1.58644735  *  -0.18639416  *
    17       H          1.84933844  *  -1.41613673  *  -0.60758138  *
    18       H         -3.30097376  *  -1.02618751  *   2.12349056  *
    19       H         -4.65352396  *  -0.35092722  *  -0.06543082  *
    20       H          3.48721741  *   1.05633242  *   0.41120755  *
    21       H          4.20274598  *  -1.93506074  *   0.00502677  *
    22       H          5.30366524  *  -0.61679198  *   0.61950734  *
 


          CARTESIAN COORDINATES 

    NO.       ATOM           X           Y           Z

     1         C         -1.4334      0.7507     -0.0985
     2         C         -0.3265      0.1828     -0.9771
     3         C         -1.6002      0.0039      1.2043
     4         C         -2.7969      0.6007     -0.7329
     5         C          1.0228      0.5346     -0.4596
     6         C         -2.8642     -0.4617      1.3022
     7         C         -3.6095     -0.0898      0.0957
     8         C          2.0076     -0.3627     -0.3405
     9         C          3.3303      0.0039      0.1427
    10         C          4.3152     -0.8846      0.2595
    11         H         -1.2463      1.8298      0.1183
    12         H         -0.4249      0.5959     -2.0019
    13         H         -0.4492     -0.9139     -1.0782
    14         H         -0.7851     -0.1091      1.9158
    15         H         -3.0303      1.0119     -1.7126
    16         H          1.1790      1.5864     -0.1864
    17         H          1.8493     -1.4161     -0.6076
    18         H         -3.3010     -1.0262      2.1235
    19         H         -4.6535     -0.3509     -0.0654
    20         H          3.4872      1.0563      0.4112
    21         H          4.2027     -1.9351      0.0050
    22         H          5.3037     -0.6168      0.6195

  H: (PM3): J. J. P. STEWART, J. COMP. CHEM. 10, 209 (1989).
  C: (PM3): J. J. P. STEWART, J. COMP. CHEM. 10, 209 (1989).

           Empirical Formula: C10 H12  =    22 atoms



      MOLECULAR POINT GROUP   :   C1  


      RHF CALCULATION, NO. OF DOUBLY OCCUPIED LEVELS = 26



          HEAT OF FORMATION =      61.335006 KCALS/MOLE


          CARTESIAN COORDINATE DERIVATIVES

   NUMBER  ATOM         X            Y            Z

     1       C     -0.004093    -0.002234     0.001270
     2       C      0.005061     0.000101    -0.001514
     3       C     -0.003222    -0.003131    -0.002602
     4       C      0.009403    -0.000435    -0.004120
     5       C     -0.010558    -0.008055    -0.000620
     6       C     -0.002521    -0.010287     0.002181
     7       C      0.003257     0.013448    -0.008783
     8       C      0.007403     0.003524     0.003472
     9       C     -0.014378    -0.003770     0.007554
    10       C      0.008221     0.005832    -0.009267
    11       H     -0.004351     0.003185     0.003357
    12       H      0.008915     0.002755    -0.007259
    13       H      0.003689     0.001388    -0.006695
    14       H      0.009136     0.005216     0.003883
    15       H     -0.012153    -0.008501    -0.001967
    16       H      0.006290     0.009859     0.012265
    17       H     -0.002982    -0.007358    -0.004078
    18       H     -0.010554    -0.009328    -0.000800
    19       H      0.003534     0.010787     0.007678
    20       H      0.000017    -0.003019    -0.003108
    21       H      0.002822     0.007089     0.005863
    22       H     -0.002938    -0.007067     0.003289
 


          GRADIENT NORM =   0.05306


          TIME FOR SCF CALCULATION =    0.03

          TIME FOR DERIVATIVES     =    0.01

          MOLECULAR WEIGHT =  132.20



          ROTATIONAL CONSTANTS IN CM(-1)

          A =    0.14463236   B =    0.01754176   C =    0.01644550



           PRINCIPAL MOMENTS OF INERTIA IN UNITS OF 10**(-40)*GRAM-CM**2

          A =      193.5443   B =     1595.7787   C =     1702.1541


          ORIENTATION OF MOLECULE IN FORCE CALCULATION

    NO.       ATOM         X         Y         Z

     1          C      -1.1203   -0.8405    0.4508
     2          C       0.4028   -0.8405    0.4508
     3          C      -1.7146    0.5486    0.4508
     4          C      -1.6894   -1.4346    1.7186
     5          C       0.9538   -0.4707   -0.8803
     6          C      -2.5161    0.6996    1.5272
     7          C      -2.5005   -0.5357    2.3167
     8          C       1.9354    0.4251   -1.0325
     9          C       2.4812    0.7559   -2.3401
    10          C       3.4610    1.6440   -2.4968
    11          H      -1.5117   -1.4073   -0.4278
    12          H       0.7684   -1.8555    0.7091
    13          H       0.7808   -0.1693    1.2475
    14          H      -1.4905    1.2746   -0.3277
    15          H      -1.4472   -2.4429    2.0475
    16          H       0.5175   -0.9853   -1.7464
    17          H       2.3671    0.9448   -0.1666
    18          H      -3.0969    1.5773    1.8034
    19          H      -3.0690   -0.6642    3.2357
    20          H       2.0480    0.2377   -3.2050
    21          H       3.9177    2.1790   -1.6685
    22          H       3.8718    1.8948   -3.4698


    FIRST DERIVATIVES WILL BE USED IN THE CALCULATION OF SECOND DERIVATIVES

          ESTIMATED TIME TO COMPLETE CALCULATION =       10.31 SECONDS

    FOR POINT-GROUP C1   THERE ARE   1 UNIQUE SYMMETRY FUNCTIONS.

 STEP:   1 TIME =     0.06 SECS, INTEGRAL =      0.06 TIME LEFT: 172799.90
 STEP:   2 TIME =     0.05 SECS, INTEGRAL =      0.11 TIME LEFT: 172799.85
 STEP:   3 TIME =     0.05 SECS, INTEGRAL =      0.16 TIME LEFT: 172799.80
 STEP:   4 TIME =     0.05 SECS, INTEGRAL =      0.21 TIME LEFT: 172799.75
 STEP:   5 TIME =     0.05 SECS, INTEGRAL =      0.26 TIME LEFT: 172799.70
 STEP:   6 TIME =     0.05 SECS, INTEGRAL =      0.31 TIME LEFT: 172799.65
 STEP:   7 TIME =     0.05 SECS, INTEGRAL =      0.36 TIME LEFT: 172799.60
 STEP:   8 TIME =     0.05 SECS, INTEGRAL =      0.41 TIME LEFT: 172799.55
 STEP:   9 TIME =     0.05 SECS, INTEGRAL =      0.46 TIME LEFT: 172799.50
 STEP:  10 TIME =     0.05 SECS, INTEGRAL =      0.52 TIME LEFT: 172799.44
 STEP:  11 TIME =     0.05 SECS, INTEGRAL =      0.57 TIME LEFT: 172799.39
 STEP:  12 TIME =     0.05 SECS, INTEGRAL =      0.62 TIME LEFT: 172799.34
 STEP:  13 TIME =     0.05 SECS, INTEGRAL =      0.68 TIME LEFT: 172799.28
 STEP:  14 TIME =     0.05 SECS, INTEGRAL =      0.73 TIME LEFT: 172799.23
 STEP:  15 TIME =     0.05 SECS, INTEGRAL =      0.79 TIME LEFT: 172799.18
 STEP:  16 TIME =     0.05 SECS, INTEGRAL =      0.84 TIME LEFT: 172799.12
 STEP:  17 TIME =     0.05 SECS, INTEGRAL =      0.89 TIME LEFT: 172799.07
 STEP:  18 TIME =     0.05 SECS, INTEGRAL =      0.94 TIME LEFT: 172799.02
 STEP:  19 TIME =     0.05 SECS, INTEGRAL =      0.99 TIME LEFT: 172798.97
 STEP:  20 TIME =     0.05 SECS, INTEGRAL =      1.04 TIME LEFT: 172798.92
 STEP:  21 TIME =     0.05 SECS, INTEGRAL =      1.09 TIME LEFT: 172798.87
 STEP:  22 TIME =     0.05 SECS, INTEGRAL =      1.14 TIME LEFT: 172798.82
 STEP:  23 TIME =     0.05 SECS, INTEGRAL =      1.20 TIME LEFT: 172798.77
 STEP:  24 TIME =     0.05 SECS, INTEGRAL =      1.25 TIME LEFT: 172798.71
 STEP:  25 TIME =     0.05 SECS, INTEGRAL =      1.30 TIME LEFT: 172798.66
 STEP:  26 TIME =     0.05 SECS, INTEGRAL =      1.35 TIME LEFT: 172798.61
 STEP:  27 TIME =     0.05 SECS, INTEGRAL =      1.40 TIME LEFT: 172798.56
 STEP:  28 TIME =     0.05 SECS, INTEGRAL =      1.45 TIME LEFT: 172798.51
 STEP:  29 TIME =     0.05 SECS, INTEGRAL =      1.50 TIME LEFT: 172798.46
 STEP:  30 TIME =     0.05 SECS, INTEGRAL =      1.55 TIME LEFT: 172798.41
 STEP:  31 TIME =     0.05 SECS, INTEGRAL =      1.61 TIME LEFT: 172798.36
 STEP:  32 TIME =     0.05 SECS, INTEGRAL =      1.66 TIME LEFT: 172798.30
 STEP:  33 TIME =     0.05 SECS, INTEGRAL =      1.71 TIME LEFT: 172798.25
 STEP:  34 TIME =     0.05 SECS, INTEGRAL =      1.76 TIME LEFT: 172798.20
 STEP:  35 TIME =     0.05 SECS, INTEGRAL =      1.81 TIME LEFT: 172798.15
 STEP:  36 TIME =     0.05 SECS, INTEGRAL =      1.86 TIME LEFT: 172798.10
 STEP:  37 TIME =     0.05 SECS, INTEGRAL =      1.91 TIME LEFT: 172798.05
 STEP:  38 TIME =     0.05 SECS, INTEGRAL =      1.96 TIME LEFT: 172798.00
 STEP:  39 TIME =     0.05 SECS, INTEGRAL =      2.02 TIME LEFT: 172797.95
 STEP:  40 TIME =     0.05 SECS, INTEGRAL =      2.07 TIME LEFT: 172797.89
 STEP:  41 TIME =     0.05 SECS, INTEGRAL =      2.12 TIME LEFT: 172797.84
 STEP:  42 TIME =     0.05 SECS, INTEGRAL =      2.18 TIME LEFT: 172797.79
 STEP:  43 TIME =     0.05 SECS, INTEGRAL =      2.23 TIME LEFT: 172797.73
 STEP:  44 TIME =     0.05 SECS, INTEGRAL =      2.28 TIME LEFT: 172797.68
 STEP:  45 TIME =     0.05 SECS, INTEGRAL =      2.33 TIME LEFT: 172797.63
 STEP:  46 TIME =     0.05 SECS, INTEGRAL =      2.39 TIME LEFT: 172797.57
 STEP:  47 TIME =     0.05 SECS, INTEGRAL =      2.44 TIME LEFT: 172797.52
 STEP:  48 TIME =     0.05 SECS, INTEGRAL =      2.49 TIME LEFT: 172797.47
 STEP:  49 TIME =     0.05 SECS, INTEGRAL =      2.54 TIME LEFT: 172797.42
 STEP:  50 TIME =     0.05 SECS, INTEGRAL =      2.59 TIME LEFT: 172797.37
 STEP:  51 TIME =     0.05 SECS, INTEGRAL =      2.64 TIME LEFT: 172797.32
 STEP:  52 TIME =     0.05 SECS, INTEGRAL =      2.70 TIME LEFT: 172797.27
 STEP:  53 TIME =     0.05 SECS, INTEGRAL =      2.75 TIME LEFT: 172797.21
 STEP:  54 TIME =     0.05 SECS, INTEGRAL =      2.80 TIME LEFT: 172797.16
 STEP:  55 TIME =     0.05 SECS, INTEGRAL =      2.85 TIME LEFT: 172797.11
 STEP:  56 TIME =     0.05 SECS, INTEGRAL =      2.90 TIME LEFT: 172797.06
 STEP:  57 TIME =     0.05 SECS, INTEGRAL =      2.95 TIME LEFT: 172797.01
 STEP:  58 TIME =     0.05 SECS, INTEGRAL =      3.00 TIME LEFT: 172796.96
 STEP:  59 TIME =     0.05 SECS, INTEGRAL =      3.05 TIME LEFT: 172796.91
 STEP:  60 TIME =     0.05 SECS, INTEGRAL =      3.10 TIME LEFT: 172796.86
 STEP:  61 TIME =     0.05 SECS, INTEGRAL =      3.16 TIME LEFT: 172796.80
 STEP:  62 TIME =     0.05 SECS, INTEGRAL =      3.21 TIME LEFT: 172796.75
 STEP:  63 TIME =     0.05 SECS, INTEGRAL =      3.26 TIME LEFT: 172796.70
 STEP:  64 TIME =     0.05 SECS, INTEGRAL =      3.31 TIME LEFT: 172796.65
 STEP:  65 TIME =     0.05 SECS, INTEGRAL =      3.37 TIME LEFT: 172796.59
 STEP:  66 TIME =     0.05 SECS, INTEGRAL =      3.42 TIME LEFT: 172796.54

(To convert to Hartree/Bohr^2, multiply by (10^(-21) x N x a0^2)/(4.184 x 627.51) =  0.0642)


           FORCE MATRIX IN MILLIDYNES/ANGSTROM


                  C  1       C  2       C  3       C  4       C  5       C  6
 ------------------------------------------------------------------------------
     C    1  14.846718
     C    2   3.983002  14.646149
     C    3   4.138458   0.596234  17.913707
     C    4   4.122856   0.606674   1.093138  17.908995
     C    5   0.686172   4.960499   0.035732   0.048950  18.031922
     C    6   1.206536   0.052104   9.789663   1.570385   0.009055  18.320690
     C    7   1.206291   0.048971   1.571893   9.795734   0.010084   5.146841
     C    8   0.040361   0.833287   0.005413   0.009213  10.394602   0.001256
     C    9   0.020601   0.143348   0.002619   0.003990   1.075874   0.001241
     C   10   0.002848   0.015952   0.001841   0.001890   0.103886   0.001012
     H   11   4.222558   0.447719   0.387004   0.386396   0.039004   0.051362
     H   12   0.445064   4.403961   0.045426   0.033486   0.407516   0.007546
     H   13   0.439024   4.460763   0.020354   0.013055   0.458866   0.005519
     H   14   0.406207   0.009437   5.078883   0.042299   0.008331   0.442636
     H   15   0.403512   0.013174   0.042343   5.076510   0.002586   0.099157
     H   16   0.027661   0.430399   0.004260   0.002579   4.757311   0.002017
     H   17   0.008018   0.080773   0.001810   0.001884   0.465770   0.001279
     H   18   0.112826   0.016330   0.446633   0.049063   0.001339   5.071399
     H   19   0.111782   0.016011   0.049563   0.446614   0.002678   0.418884
     H   20   0.000821   0.002536   0.000685   0.001060   0.041350   0.000452
     H   21   0.001148   0.005311   0.000542   0.000557   0.005550   0.000800
     H   22   0.001599   0.010142   0.000805   0.000411   0.008345   0.000651


                  C  7       C  8       C  9       C 10       H 11       H 12
 ------------------------------------------------------------------------------
     C    7  18.324434
     C    8   0.002159  18.476382
     C    9   0.001567   5.594752  18.461343
     C   10   0.001127   1.076510  10.783896  17.892885
     H   11   0.051212   0.002813   0.001330   0.000736   4.708506
     H   12   0.006076   0.032934   0.020274   0.002081   0.019361   4.994699
     H   13   0.004508   0.049036   0.003532   0.001353   0.042207   0.555561
     H   14   0.100031   0.003308   0.001011   0.000964   0.011055   0.001671
     H   15   0.443517   0.000604   0.000510   0.000415   0.011171   0.010900
     H   16   0.001002   0.467798   0.088018   0.006452   0.028021   0.017059
     H   17   0.001268   4.750906   0.443890   0.038387   0.000697   0.009495
     H   18   0.419565   0.000582   0.000463   0.000516   0.014381   0.002641
     H   19   5.070665   0.000805   0.000410   0.000436   0.013958   0.000601
     H   20   0.000474   0.445565   4.772383   0.451793   0.000341   0.000716
     H   21   0.000625   0.099972   0.488281   5.076005   0.000265   0.000840
     H   22   0.000450   0.135650   0.459946   5.114172   0.000281   0.001595


                  H 13       H 14       H 15       H 16       H 17       H 18
 ------------------------------------------------------------------------------
     H   13   5.058892
     H   14   0.002724   5.474126
     H   15   0.002073   0.010151   5.476962
     H   16   0.037850   0.001570   0.000945   5.140893
     H   17   0.029962   0.001331   0.000310   0.101139   5.125217
     H   18   0.000903   0.041348   0.005306   0.000470   0.000331   5.461819
     H   19   0.000502   0.005428   0.040831   0.000254   0.000299   0.009603
     H   20   0.000635   0.000725   0.000146   0.028599   0.035672   0.000145
     H   21   0.000281   0.000451   0.000170   0.002823   0.025620   0.000195
     H   22   0.000293   0.000359   0.000117   0.004328   0.002336   0.000170


                  H 19       H 20       H 21       H 22
 ------------------------------------------------------
     H   19   5.460444
     H   20   0.000094   5.141274
     H   21   0.000143   0.114481   5.469411
     H   22   0.000161   0.077047   0.419874   5.498355


          HEAT OF FORMATION =      61.335006 KCALS/MOLE

          ZERO POINT ENERGY     117.083 KCAL/MOL


           NORMAL COORDINATE ANALYSIS (Total motion = 1 Angstrom)


   Root No.       1         2         3         4         5         6         7         8

                 1 A       2 A       3 A       4 A       5 A       6 A       7 A       8 A   

                  42.5      79.8     113.0     150.3     186.2     235.4     272.3     334.9
  
           1   -0.0031   -0.0109    0.0135    0.0125   -0.0187   -0.0001    0.0070    0.0209
           2    0.0194   -0.0217   -0.0038   -0.0031   -0.0187   -0.0150   -0.0228    0.0236
           3    0.0017    0.0013    0.0030    0.0162   -0.0265    0.0142    0.0129   -0.0136
           4   -0.0030   -0.0113    0.0135    0.0124   -0.0166   -0.0012    0.0063    0.0103
           5    0.0494   -0.0055   -0.0111   -0.0111    0.0119   -0.0257    0.0372    0.0056
           6    0.0041   -0.0215    0.0156    0.0069    0.0157   -0.0155    0.0185    0.0089
           7   -0.0309   -0.0244    0.0251    0.0159   -0.0117    0.0191    0.0245    0.0174
           8    0.0074   -0.0275    0.0012   -0.0019   -0.0155   -0.0077   -0.0164    0.0219
           9    0.0224   -0.0257    0.0025    0.0042   -0.0257    0.0102   -0.0011   -0.0077
          10    0.0072    0.0202   -0.0073   -0.0045   -0.0178   -0.0103   -0.0221    0.0448
          11   -0.0114    0.0084   -0.0061    0.0021   -0.0172   -0.0040   -0.0164    0.0059
          12   -0.0079    0.0297   -0.0080    0.0103   -0.0257    0.0156    0.0023   -0.0202
          13   -0.0035   -0.0263    0.0123   -0.0073    0.0022   -0.0170   -0.0281   -0.0406
          14    0.0333    0.0208   -0.0103    0.0248    0.0278    0.0388    0.0143    0.0249
          15   -0.0004   -0.0204    0.0154    0.0084    0.0305   -0.0048   -0.0054    0.0044
          16   -0.0345   -0.0012    0.0113   -0.0117    0.0353    0.0042    0.0310   -0.0029
          17   -0.0248   -0.0036    0.0014   -0.0027    0.0067    0.0004    0.0057   -0.0096
          18    0.0243   -0.0118   -0.0079   -0.0162    0.0056   -0.0023   -0.0006   -0.0189
          19   -0.0108    0.0270   -0.0099   -0.0260    0.0302   -0.0186   -0.0138    0.0279
          20   -0.0366    0.0190   -0.0036   -0.0011    0.0055    0.0006   -0.0006   -0.0113
          21    0.0054    0.0229   -0.0152   -0.0135    0.0044   -0.0016   -0.0091   -0.0203
          22    0.0130   -0.0101   -0.0422    0.0359    0.0172   -0.0131   -0.0120   -0.0236
          23    0.0137    0.0058    0.0470   -0.0220    0.0121    0.0377   -0.0083    0.0014
          24   -0.0102   -0.0053    0.0022    0.0110    0.0338    0.0061   -0.0266    0.0179
          25    0.0191   -0.0029   -0.0429   -0.0207   -0.0079    0.0271    0.0024   -0.0251
          26   -0.0115    0.0229    0.0321    0.0189   -0.0035   -0.0165   -0.0066   -0.0316
          27   -0.0141    0.0023   -0.0020   -0.0028    0.0186    0.0076   -0.0195    0.0152
          28    0.0426    0.0362    0.0231   -0.0039   -0.0106    0.0070    0.0005   -0.0300
          29   -0.0391   -0.0158   -0.0415   -0.0029   -0.0098    0.0000    0.0040   -0.0263
          30   -0.0239    0.0266   -0.0052   -0.0198   -0.0278   -0.0219    0.0220    0.0302
          31    0.0086   -0.0186    0.0189    0.0087    0.0059   -0.0166    0.0276    0.0194
          32    0.0243   -0.0497    0.0034   -0.0043   -0.0230   -0.0130   -0.0352    0.0343
          33   -0.0067    0.0231   -0.0041    0.0178   -0.0331    0.0197    0.0121   -0.0206
          34    0.0155    0.0019    0.0093    0.0096   -0.0009   -0.0044    0.0578    0.0087
          35    0.0607   -0.0061   -0.0121   -0.0201    0.0192   -0.0442    0.0674   -0.0016
          36    0.0228   -0.0420    0.0168   -0.0251    0.0216   -0.0828    0.0606   -0.0161
          37   -0.0173   -0.0083    0.0122    0.0248   -0.0510    0.0212   -0.0223    0.0231
          38    0.0705   -0.0147   -0.0122   -0.0344    0.0185   -0.0755    0.0908   -0.0121
          39   -0.0070   -0.0149    0.0170    0.0202    0.0263    0.0153   -0.0124    0.0178
          40   -0.0453   -0.0481    0.0428    0.0364   -0.0310    0.0426    0.0474    0.0204
          41    0.0238   -0.0478    0.0038   -0.0015   -0.0264   -0.0090   -0.0242    0.0333
          42    0.0336   -0.0514    0.0100    0.0104   -0.0414    0.0156   -0.0019    0.0038
          43    0.0268    0.0344   -0.0189   -0.0043   -0.0437   -0.0176   -0.0537    0.0794
          44   -0.0117    0.0189   -0.0095    0.0058   -0.0288   -0.0026   -0.0245    0.0137
          45   -0.0232    0.0517   -0.0097    0.0214   -0.0423    0.0249    0.0002   -0.0211
          46   -0.0145   -0.0452    0.0552   -0.0684   -0.0044   -0.0152   -0.0599   -0.0789
          47    0.0347    0.0505   -0.0600    0.0939    0.0473    0.0561    0.0190    0.0629
          48    0.0042   -0.0283    0.0231   -0.0024    0.0213   -0.0166    0.0085    0.0010
          49    0.0243    0.0039   -0.0819    0.1075    0.0391   -0.0235    0.0050    0.0025
          50    0.0135   -0.0236    0.0971   -0.0906    0.0022    0.0479   -0.0210   -0.0240
          51   -0.0158    0.0055   -0.0083    0.0160    0.0277    0.0044   -0.0263    0.0199
          52   -0.0516   -0.0021    0.0148   -0.0207    0.0668    0.0100    0.0616   -0.0341
          53   -0.0403   -0.0004    0.0045   -0.0038    0.0212    0.0068    0.0245   -0.0297
          54    0.0376   -0.0236   -0.0108   -0.0318    0.0261   -0.0109    0.0035   -0.0209
          55   -0.0090    0.0480   -0.0242   -0.0482    0.0560   -0.0362   -0.0375    0.0372
          56   -0.0620    0.0402   -0.0045   -0.0015    0.0193    0.0055    0.0071   -0.0236
          57    0.0030    0.0389   -0.0241   -0.0272    0.0223   -0.0117   -0.0226   -0.0166
          58    0.0042   -0.0276   -0.0937   -0.0824   -0.0314    0.0794    0.0248   -0.0034
          59   -0.0079    0.0666    0.0755    0.0694   -0.0147   -0.0892   -0.0045   -0.0596
          60   -0.0088   -0.0115   -0.0026   -0.0023    0.0364    0.0243   -0.0310    0.0216
          61    0.0580    0.0607    0.0762    0.0571    0.0169   -0.0393   -0.0313   -0.0670
          62   -0.0435   -0.0597   -0.0868   -0.0504    0.0050    0.0772   -0.0046   -0.0074
          63   -0.0296    0.0414   -0.0052   -0.0229   -0.0529   -0.0466    0.0457    0.0387
          64    0.0481    0.0466    0.0299   -0.0501   -0.0409    0.0346    0.0311    0.0024
          65   -0.0595   -0.0063   -0.0628    0.0253   -0.0308   -0.0629    0.0236   -0.0396
          66   -0.0268    0.0334   -0.0078   -0.0321   -0.0461   -0.0267    0.0402    0.0411


   Root No.       9        10        11        12        13        14        15        16

                 9 A      10 A      11 A      12 A      13 A      14 A      15 A      16 A   

                 448.6     503.1     532.1     564.5     625.4     748.2     800.4     813.8
  
           1   -0.0070    0.0024   -0.0261   -0.0279    0.0053   -0.0095    0.0010   -0.0004
           2   -0.0079   -0.0023   -0.0192   -0.0045    0.0058    0.0232    0.0231    0.0151
           3   -0.0036    0.0043   -0.0146   -0.0179    0.0082    0.0321    0.0175    0.0021
           4   -0.0154    0.0014   -0.0282   -0.0322   -0.0004   -0.0316   -0.0008   -0.0005
           5    0.0239    0.0014    0.0096   -0.0159    0.0016    0.0152    0.0257    0.0059
           6   -0.0250    0.0119   -0.0195    0.0370    0.0072   -0.0061    0.0011   -0.0004
           7    0.0167    0.0254    0.0312    0.0091   -0.0002    0.0161   -0.0123    0.0308
           8    0.0010    0.0068    0.0028    0.0113    0.0017    0.0231    0.0036    0.0128
           9    0.0042    0.0141    0.0171   -0.0041   -0.0048   -0.0185   -0.0319   -0.0024
          10    0.0218   -0.0242    0.0012    0.0302    0.0016    0.0099   -0.0111   -0.0384
          11    0.0043   -0.0134   -0.0030    0.0041   -0.0039   -0.0259   -0.0107   -0.0096
          12    0.0154   -0.0138    0.0112    0.0065   -0.0014    0.0241    0.0096   -0.0075
          13   -0.0104   -0.0205    0.0251   -0.0183   -0.0209    0.0015   -0.0017   -0.0001
          14   -0.0184   -0.0110    0.0157   -0.0048    0.0129    0.0001   -0.0001    0.0010
          15   -0.0307   -0.0064    0.0080    0.0405    0.0025    0.0051   -0.0051   -0.0048
          16    0.0120   -0.0272   -0.0126    0.0071    0.0036    0.0253   -0.0005    0.0323
          17    0.0004   -0.0134   -0.0104   -0.0020   -0.0004   -0.0087   -0.0254   -0.0184
          18   -0.0002   -0.0230   -0.0149   -0.0046   -0.0023   -0.0129   -0.0207    0.0017
          19   -0.0131    0.0307    0.0050   -0.0011    0.0038    0.0181   -0.0084   -0.0335
          20   -0.0086    0.0143    0.0037   -0.0119   -0.0019   -0.0094   -0.0116   -0.0167
          21   -0.0129    0.0197    0.0071   -0.0166   -0.0029    0.0014    0.0091    0.0086
          22   -0.0072   -0.0156    0.0231   -0.0150   -0.0153    0.0074    0.0045    0.0021
          23   -0.0096   -0.0123    0.0154   -0.0151    0.0048   -0.0060   -0.0085   -0.0003
          24    0.0269   -0.0028    0.0029   -0.0235   -0.0044    0.0009   -0.0004    0.0008
          25    0.0025    0.0129   -0.0093    0.0175    0.0372   -0.0035   -0.0029   -0.0007
          26    0.0080    0.0153   -0.0175    0.0179   -0.0345    0.0046    0.0023    0.0001
          27    0.0415    0.0156   -0.0208   -0.0127    0.0073   -0.0037    0.0034    0.0006
          28   -0.0004    0.0141   -0.0135    0.0230   -0.0010    0.0008   -0.0016   -0.0007
          29   -0.0009    0.0105   -0.0086    0.0186    0.0068    0.0010   -0.0004   -0.0005
          30   -0.0144   -0.0153    0.0137   -0.0150   -0.0031   -0.0011    0.0018    0.0004
          31   -0.0250    0.0066   -0.0511   -0.0394    0.0102   -0.0577    0.0309    0.0019
          32   -0.0192    0.0275   -0.0048   -0.0024    0.0052    0.0280   -0.0059    0.0628
          33    0.0125   -0.0168   -0.0108   -0.0127    0.0056    0.0494    0.0223   -0.0298
          34    0.0201    0.0167   -0.0086   -0.0513   -0.0073   -0.0703   -0.0596   -0.0111
          35    0.0531    0.0143    0.0201   -0.0236   -0.0139   -0.0070   -0.0188    0.0006
          36    0.0368    0.0379   -0.0072    0.0363   -0.0400   -0.0354   -0.0827   -0.0068
          37   -0.0396   -0.0050   -0.0666   -0.0567    0.0225   -0.0059    0.0739    0.0148
          38    0.0845    0.0276    0.0239   -0.0309   -0.0349   -0.0181   -0.0546    0.0002
          39   -0.0620   -0.0065   -0.0125    0.0606    0.0262    0.0094    0.0306   -0.0031
          40    0.0489    0.0645    0.1147    0.0507   -0.0141   -0.0567    0.1219   -0.1575
          41    0.0093    0.0186    0.0302    0.0280   -0.0071   -0.0254    0.0637   -0.0518
          42    0.0211    0.0362    0.0664    0.0234   -0.0170   -0.0853    0.0619   -0.1174
          43    0.0558   -0.0659    0.0279    0.1144   -0.0074   -0.0867    0.0107    0.1949
          44    0.0204   -0.0313    0.0118    0.0376   -0.0095   -0.0780   -0.0094    0.0891
          45    0.0401   -0.0383    0.0367    0.0482   -0.0120   -0.0643   -0.0026    0.1233
          46    0.0131   -0.0374    0.0650   -0.0468    0.0122    0.0344    0.0294    0.0082
          47   -0.0259   -0.0073   -0.0023   -0.0113   -0.0353   -0.0324   -0.0473   -0.0044
          48   -0.0367    0.0005   -0.0021    0.0579    0.0143    0.0078    0.0072   -0.0057
          49   -0.0374   -0.0205    0.0200   -0.0001   -0.0893    0.0013   -0.0114   -0.0018
          50   -0.0192   -0.0312    0.0502   -0.0199    0.0798    0.0054    0.0004    0.0014
          51    0.0471    0.0112   -0.0167   -0.0274   -0.0124   -0.0030    0.0022    0.0017
          52    0.0350   -0.1022   -0.0315    0.0342   -0.0031   -0.0779    0.1468   -0.0362
          53    0.0114   -0.0458   -0.0163    0.0064   -0.0045   -0.0615    0.0380   -0.0450
          54    0.0130   -0.0778   -0.0363    0.0253   -0.0037   -0.0636    0.0858   -0.0597
          55   -0.0435    0.1041    0.0405   -0.0042   -0.0038   -0.0938    0.0700    0.1001
          56   -0.0174    0.0520    0.0298   -0.0166   -0.0038   -0.0198    0.0558    0.0766
          57   -0.0330    0.0703    0.0328   -0.0195   -0.0079   -0.0694    0.0672    0.1048
          58   -0.0171    0.0204   -0.0286    0.0372   -0.0215   -0.0069   -0.0114   -0.0037
          59    0.0102    0.0131   -0.0044    0.0237    0.0329    0.0091    0.0115    0.0016
          60    0.0481    0.0121   -0.0178   -0.0260   -0.0038   -0.0045    0.0020    0.0011
          61    0.0492    0.0347   -0.0235    0.0231    0.1437   -0.0169   -0.0067   -0.0030
          62    0.0167    0.0375   -0.0565    0.0345   -0.1389    0.0139    0.0158    0.0013
          63   -0.0546   -0.0451    0.0515   -0.0254    0.0110    0.0005   -0.0062    0.0005
          64   -0.0550   -0.0059   -0.0075    0.0299   -0.2056    0.0286    0.0083    0.0021
          65   -0.0310   -0.0252    0.0544    0.0015    0.2169   -0.0201   -0.0263   -0.0037
          66   -0.0459   -0.0340    0.0337   -0.0176   -0.0355    0.0052   -0.0008    0.0009


   Root No.      17        18        19        20        21        22        23        24

                17 A      18 A      19 A      20 A      21 A      22 A      23 A      24 A   

                 824.0     862.4     920.3     933.8     946.8     958.3     968.3     981.0
  
           1    0.0035   -0.0045    0.0008   -0.0032    0.0033    0.0063   -0.0001    0.0009
           2    0.0159    0.0124    0.0002   -0.0004    0.0029    0.0013   -0.0085    0.0064
           3   -0.0455    0.0160    0.0011   -0.0024    0.0029    0.0030   -0.0049   -0.0007
           4    0.0047    0.0037    0.0020   -0.0033   -0.0072   -0.0092    0.0127    0.0012
           5   -0.0065   -0.0311   -0.0093    0.0211    0.0092   -0.0057   -0.0182   -0.0030
           6    0.0026   -0.0022    0.0004   -0.0009    0.0058   -0.0043    0.0012    0.0019
           7    0.0197   -0.0073    0.0001   -0.0008    0.0012    0.0233   -0.0079    0.0100
           8   -0.0103    0.0246    0.0052   -0.0102   -0.0129   -0.0041    0.0257   -0.0117
           9   -0.0261   -0.0193   -0.0024    0.0038    0.0043    0.0182   -0.0135    0.0119
          10   -0.0046   -0.0029    0.0004   -0.0017    0.0011    0.0218   -0.0078   -0.0163
          11    0.0698   -0.0159    0.0016   -0.0034    0.0051    0.0205   -0.0047   -0.0177
          12    0.0024    0.0129    0.0002   -0.0017   -0.0073    0.0018    0.0042   -0.0013
          13    0.0003    0.0153   -0.0000    0.0194   -0.0095   -0.0075   -0.0193   -0.0048
          14   -0.0022   -0.0126   -0.0011   -0.0165   -0.0097    0.0085    0.0202    0.0056
          15    0.0039   -0.0026    0.0009    0.0026   -0.0072    0.0061   -0.0013   -0.0031
          16    0.0304   -0.0000   -0.0011    0.0033    0.0000   -0.0193    0.0054   -0.0278
          17   -0.0629   -0.0087   -0.0026    0.0056    0.0033   -0.0074   -0.0060   -0.0125
          18   -0.0024   -0.0111   -0.0017    0.0038    0.0019   -0.0116    0.0014   -0.0219
          19   -0.0299    0.0005   -0.0011    0.0023    0.0000   -0.0177    0.0039    0.0323
          20   -0.0054   -0.0076   -0.0010    0.0016    0.0004   -0.0069    0.0021    0.0166
          21    0.0783   -0.0024    0.0005   -0.0010    0.0009   -0.0081    0.0023    0.0244
          22   -0.0077   -0.0082    0.0225    0.0104    0.0025    0.0083    0.0186    0.0046
          23    0.0044    0.0218   -0.0236   -0.0124   -0.0075   -0.0109   -0.0213   -0.0037
          24   -0.0022    0.0047    0.0049   -0.0067    0.0272   -0.0003    0.0032    0.0004
          25    0.0018    0.0010    0.0142   -0.0177    0.0004   -0.0063   -0.0090   -0.0013
          26   -0.0013   -0.0008   -0.0146    0.0153    0.0137    0.0065    0.0103    0.0009
          27    0.0006   -0.0051    0.0011   -0.0002   -0.0005   -0.0021   -0.0012   -0.0006
          28    0.0008    0.0020    0.0020   -0.0082    0.0063   -0.0041   -0.0089   -0.0026
          29    0.0000   -0.0009   -0.0010    0.0047    0.0053    0.0052    0.0102    0.0021
          30    0.0002   -0.0048   -0.0022    0.0120   -0.0479    0.0017   -0.0028    0.0010
          31    0.0101   -0.0444   -0.0123    0.0107    0.0259   -0.0445    0.0029   -0.0071
          32   -0.0177    0.0196   -0.0024   -0.0077   -0.0028    0.0189   -0.0315    0.1895
          33   -0.0269    0.0298    0.0087   -0.0045   -0.0045    0.0136    0.0104   -0.1155
          34   -0.0086    0.0182    0.0257   -0.0543   -0.0448    0.0166    0.1186   -0.0011
          35   -0.0004    0.0103    0.0055   -0.0092   -0.0079    0.0064    0.0181    0.0014
          36    0.0426    0.1304    0.0226   -0.0440   -0.0048    0.0046   -0.0092    0.0195
          37   -0.0206   -0.0281   -0.0128    0.0331    0.0220   -0.0445   -0.0377    0.0011
          38    0.0127    0.0694    0.0152   -0.0274   -0.0147    0.0124    0.0123    0.0108
          39   -0.0008   -0.0684   -0.0122    0.0210    0.0120   -0.0018    0.0003   -0.0092
          40    0.0061    0.0010   -0.0103    0.0252    0.0227   -0.0883   -0.0226   -0.0265
          41    0.0610    0.0393    0.0092   -0.0134   -0.0255   -0.0701    0.0769   -0.0481
          42    0.0357   -0.0036   -0.0014    0.0084   -0.0011   -0.0752    0.0300   -0.0330
          43   -0.0650   -0.0086   -0.0055    0.0154    0.0173   -0.0813   -0.0041    0.0659
          44    0.0178   -0.0216   -0.0023    0.0051    0.0068   -0.0356    0.0090    0.0235
          45   -0.1167    0.0010   -0.0074    0.0119   -0.0141   -0.0954    0.0431    0.0641
          46   -0.0377   -0.0736   -0.0935   -0.1127   -0.0227    0.0219    0.0618    0.0188
          47    0.0354    0.1195    0.1076    0.1157    0.0027   -0.0238   -0.0725   -0.0065
          48    0.0006   -0.0357   -0.0165   -0.0096   -0.0079    0.0104    0.0128   -0.0080
          49    0.0061    0.0296   -0.1765   -0.0791   -0.0772   -0.0232   -0.0577   -0.0108
          50   -0.0100   -0.0080    0.1914    0.0964   -0.0015    0.0328    0.0568    0.0159
          51   -0.0004    0.0040   -0.0248   -0.0276    0.0636   -0.0108   -0.0057   -0.0036
          52    0.0147    0.0478    0.0107   -0.0257   -0.0003    0.1073   -0.0323    0.1360
          53   -0.0526    0.0009    0.0002   -0.0023    0.0113    0.0592   -0.0432    0.0746
          54   -0.0723    0.0597    0.0142   -0.0325   -0.0255    0.0413    0.0431    0.0440
          55   -0.1425    0.0224    0.0053   -0.0092    0.0052    0.0968   -0.0305   -0.1574
          56   -0.0574    0.0345    0.0023   -0.0055   -0.0200    0.0077    0.0185   -0.0291
          57    0.0027    0.0172    0.0050   -0.0093    0.0009    0.0643   -0.0161   -0.0989
          58    0.0134    0.0381   -0.1486    0.1128   -0.0021    0.0390    0.0468    0.0065
          59   -0.0109   -0.0508    0.1576   -0.1035   -0.0732   -0.0329   -0.0524   -0.0043
          60    0.0005    0.0064   -0.0204    0.0053    0.0535   -0.0012    0.0084   -0.0015
          61    0.0128    0.0118   -0.0931    0.1063   -0.0957    0.0407    0.0534    0.0133
          62   -0.0085   -0.0445    0.0892   -0.0517   -0.1338   -0.0280   -0.0643   -0.0087
          63   -0.0010    0.0189   -0.0077   -0.0164    0.1043   -0.0018    0.0111   -0.0009
          64   -0.0157   -0.0093    0.0379   -0.0296    0.1723    0.0125    0.0499    0.0061
          65    0.0130    0.0542   -0.0235   -0.0589    0.1423   -0.0293   -0.0439   -0.0153
          66   -0.0035    0.0051    0.0073   -0.0141    0.0602   -0.0005    0.0081    0.0001


   Root No.      25        26        27        28        29        30        31        32

                25 A      26 A      27 A      28 A      29 A      30 A      31 A      32 A   

                 999.6    1025.1    1034.9    1045.7    1082.6    1089.7    1113.1    1122.8
  
           1    0.0028    0.0043   -0.0006   -0.0097   -0.0028   -0.0063    0.0031   -0.0525
           2    0.0163    0.0063    0.0037    0.0011   -0.0052   -0.0015    0.0001   -0.0186
           3    0.0280   -0.0128    0.0026    0.0040   -0.0014   -0.0052    0.0087   -0.0308
           4   -0.0077    0.0015    0.0054    0.0164    0.0020    0.0030   -0.0217    0.0393
           5   -0.0200   -0.0063   -0.0046    0.0085    0.0029   -0.0009   -0.0078    0.0029
           6   -0.0019    0.0031   -0.0011   -0.0038    0.0028    0.0025    0.0014    0.0214
           7   -0.0119   -0.0174   -0.0103   -0.0088    0.0032    0.0024   -0.0020    0.0044
           8   -0.0185   -0.0214   -0.0075   -0.0028    0.0108   -0.0070    0.0190    0.0332
           9   -0.0097   -0.0031   -0.0062   -0.0073   -0.0158    0.0104   -0.0043   -0.0008
          10   -0.0065    0.0197    0.0045    0.0002   -0.0013    0.0037    0.0025    0.0061
          11    0.0071   -0.0059   -0.0006   -0.0013    0.0212    0.0036   -0.0063   -0.0161
          12   -0.0217    0.0262    0.0049    0.0010   -0.0003   -0.0020    0.0155    0.0303
          13   -0.0115   -0.0075   -0.0054    0.0146    0.0013   -0.0009    0.0055   -0.0041
          14    0.0144    0.0074    0.0058   -0.0137   -0.0010    0.0008   -0.0091    0.0071
          15   -0.0002   -0.0034    0.0020    0.0074   -0.0032   -0.0021   -0.0026   -0.0176
          16    0.0069    0.0186    0.0074    0.0038    0.0020   -0.0045   -0.0033   -0.0100
          17    0.0133    0.0041    0.0041    0.0060   -0.0033   -0.0029    0.0149    0.0240
          18    0.0046    0.0123    0.0039    0.0008    0.0023    0.0057   -0.0037   -0.0078
          19   -0.0002   -0.0175   -0.0069   -0.0056   -0.0041   -0.0030   -0.0065   -0.0091
          20   -0.0058   -0.0045   -0.0035   -0.0046   -0.0012    0.0065   -0.0098   -0.0179
          21    0.0092   -0.0161   -0.0009    0.0048    0.0015   -0.0009    0.0124    0.0180
          22    0.0098    0.0017    0.0110   -0.0115    0.0001    0.0009   -0.0056    0.0088
          23   -0.0042   -0.0008   -0.0140    0.0068    0.0008   -0.0000    0.0005    0.0020
          24    0.0017    0.0009    0.0010   -0.0049   -0.0004    0.0003    0.0023   -0.0017
          25   -0.0007    0.0056   -0.0237    0.0098    0.0003   -0.0002    0.0004   -0.0006
          26   -0.0013   -0.0065    0.0261   -0.0086   -0.0003    0.0001   -0.0021    0.0013
          27   -0.0044   -0.0003   -0.0025    0.0063    0.0002   -0.0002   -0.0045    0.0034
          28   -0.0061   -0.0100    0.0314   -0.0094   -0.0005   -0.0001   -0.0011   -0.0007
          29    0.0068    0.0106   -0.0336    0.0101   -0.0001   -0.0002   -0.0001   -0.0012
          30    0.0048   -0.0007    0.0037   -0.0045    0.0002    0.0002   -0.0002    0.0016
          31   -0.0326    0.0261   -0.0462   -0.1380    0.0062    0.0290    0.2351   -0.0060
          32    0.0112    0.1694    0.0900    0.0875    0.0727   -0.0284   -0.0079   -0.0314
          33    0.0453   -0.1277   -0.0326    0.0061   -0.0557   -0.0044   -0.0889   -0.0411
          34   -0.0162   -0.0489    0.0699    0.1576   -0.0057   -0.0038    0.0849   -0.0053
          35   -0.0023   -0.0102    0.0135    0.0319   -0.0007   -0.0023    0.0156   -0.0076
          36    0.0775    0.0582   -0.0249   -0.1179   -0.0021    0.0085   -0.0596    0.0494
          37    0.0012    0.0156   -0.0303   -0.0586    0.0069    0.0156   -0.1159    0.1819
          38    0.0373    0.0108    0.0046   -0.0146   -0.0044   -0.0016   -0.0091   -0.0166
          39   -0.0523   -0.0174    0.0085    0.0508    0.0065   -0.0029    0.0459   -0.0295
          40    0.1210    0.0256    0.0374    0.0461    0.1463    0.0693    0.0287    0.0247
          41   -0.0586    0.0248   -0.0039   -0.0215   -0.1460   -0.1041   -0.0196   -0.0481
          42   -0.0096    0.0524    0.0105   -0.0098   -0.1234   -0.0603   -0.0334   -0.0741
          43    0.1011   -0.0815    0.0016    0.0325   -0.1179    0.1239    0.0370    0.0305
          44    0.0164   -0.0327   -0.0100   -0.0102    0.0369   -0.0271   -0.0241   -0.0491
          45   -0.0704    0.0168   -0.0219   -0.0494    0.1280   -0.1835   -0.0602   -0.0807
          46    0.0576    0.0268    0.0086   -0.0709   -0.0010    0.0059    0.0397    0.0036
          47   -0.0228   -0.0032   -0.0243   -0.0024    0.0063    0.0011    0.0635   -0.0288
          48   -0.0124   -0.0145    0.0127    0.0435   -0.0066   -0.0057   -0.0639    0.0004
          49    0.0051   -0.0010   -0.0374    0.0042   -0.0030   -0.0006   -0.0084   -0.0010
          50    0.0364    0.0089    0.0322   -0.0454   -0.0025    0.0022   -0.0197    0.0160
          51   -0.0200   -0.0036   -0.0026    0.0183    0.0031   -0.0002    0.0147   -0.0044
          52   -0.0170   -0.0394   -0.0118   -0.0018   -0.0844   -0.0717    0.0069    0.0123
          53    0.0198   -0.0094    0.0030    0.0125   -0.1213   -0.0985    0.0321    0.0582
          54   -0.0684   -0.0679   -0.0335   -0.0318    0.1958    0.1720   -0.0332   -0.0638
          55    0.0201    0.0296    0.0106    0.0050    0.0529   -0.1075    0.0092    0.0097
          56   -0.0810    0.1029    0.0173   -0.0020   -0.1313    0.2780   -0.0408   -0.0685
          57    0.0105    0.0285    0.0130    0.0118    0.0190   -0.0266    0.0188    0.0243
          58    0.0103   -0.0141    0.0667   -0.0370   -0.0019    0.0006    0.0228   -0.0202
          59    0.0048    0.0202   -0.0739    0.0185    0.0004   -0.0001    0.0218   -0.0189
          60   -0.0136   -0.0064    0.0121    0.0136    0.0008   -0.0004   -0.0303    0.0252
          61    0.0396    0.0358   -0.1047    0.0208   -0.0002   -0.0002    0.0043   -0.0051
          62   -0.0119   -0.0345    0.1095   -0.0416   -0.0009    0.0002    0.0005   -0.0015
          63   -0.0088    0.0032   -0.0136    0.0124    0.0005   -0.0000   -0.0040    0.0042
          64    0.0101    0.0377   -0.1167    0.0429   -0.0006   -0.0006   -0.0018   -0.0051
          65   -0.0445   -0.0453    0.1304   -0.0286   -0.0015   -0.0004   -0.0038   -0.0030
          66   -0.0020    0.0050   -0.0165    0.0080   -0.0002   -0.0001   -0.0019   -0.0000


   Root No.      33        34        35        36        37        38        39        40

                33 A      34 A      35 A      36 A      37 A      38 A      39 A      40 A   

                1162.5    1175.2    1205.1    1219.9    1237.4    1275.2    1295.0    1336.7
  
           1    0.0013    0.0118    0.0054    0.0029    0.0117   -0.0184    0.0318   -0.0381
           2    0.0026    0.0089    0.0239   -0.0085   -0.0032   -0.0028    0.0044    0.1076
           3   -0.0021   -0.0015   -0.0202    0.0034   -0.0059    0.0161   -0.0295   -0.0419
           4    0.0167   -0.0049    0.0082   -0.0006    0.0130   -0.0145    0.0178   -0.0005
           5    0.0010   -0.0118   -0.0043   -0.0018    0.0025   -0.0035    0.0099   -0.0164
           6    0.0312   -0.0231   -0.0130   -0.0204   -0.0089    0.0181   -0.0177    0.0065
           7   -0.0008   -0.0028   -0.0099    0.0041    0.0011   -0.0009    0.0007    0.0234
           8   -0.0011    0.0057    0.0142   -0.0040    0.0006    0.0012   -0.0007   -0.0674
           9    0.0002    0.0007    0.0086   -0.0043   -0.0035    0.0025   -0.0034    0.0165
          10   -0.0013   -0.0014    0.0057   -0.0054   -0.0062    0.0082   -0.0107   -0.0157
          11   -0.0026   -0.0070   -0.0098   -0.0017   -0.0076    0.0122   -0.0184   -0.0265
          12    0.0002    0.0047   -0.0081    0.0099    0.0121   -0.0142    0.0204    0.0421
          13    0.0094    0.0062   -0.0003    0.0083   -0.0031   -0.0074   -0.0125   -0.0014
          14    0.0122    0.0104    0.0049    0.0114   -0.0011   -0.0158   -0.0047   -0.0002
          15   -0.0517    0.0014    0.0114    0.0175   -0.0199   -0.0333    0.0221   -0.0068
          16   -0.0010   -0.0029   -0.0072    0.0013   -0.0016    0.0032   -0.0055    0.0053
          17    0.0010    0.0046   -0.0056    0.0081    0.0111   -0.0139    0.0218   -0.0029
          18    0.0006    0.0013    0.0125   -0.0068   -0.0046    0.0045   -0.0062   -0.0077
          19    0.0010   -0.0007    0.0040   -0.0034   -0.0036    0.0038   -0.0060    0.0048
          20   -0.0003   -0.0051   -0.0182    0.0063    0.0013    0.0005   -0.0037    0.0289
          21   -0.0006    0.0055    0.0081    0.0005    0.0048   -0.0072    0.0127   -0.0256
          22    0.0173    0.0103   -0.0016    0.0057    0.0033    0.0110   -0.0150    0.0025
          23    0.0119    0.0049   -0.0017    0.0060    0.0035    0.0179   -0.0123    0.0021
          24   -0.0062   -0.0258    0.0072    0.0074    0.0112    0.0493    0.0181    0.0031
          25    0.0004    0.0041   -0.0015   -0.0008   -0.0026   -0.0084   -0.0098    0.0013
          26   -0.0012    0.0046   -0.0014   -0.0027    0.0004   -0.0135   -0.0118    0.0008
          27   -0.0144    0.0045   -0.0007   -0.0153    0.0222   -0.0429   -0.0206   -0.0023
          28   -0.0037    0.0062   -0.0033   -0.0030   -0.0078    0.0061    0.0052    0.0009
          29   -0.0023    0.0070   -0.0037   -0.0026   -0.0085    0.0073    0.0056    0.0009
          30    0.0103    0.0098   -0.0040    0.0015   -0.0100    0.0118    0.0053    0.0004
          31   -0.0719    0.0927    0.0035    0.0278    0.0000    0.0367   -0.0598    0.0591
          32   -0.0091   -0.0227   -0.0707    0.0220    0.0060    0.0088   -0.0130   -0.1013
          33    0.0400   -0.0182    0.0417   -0.0284   -0.0066   -0.0161    0.0225    0.0509
          34   -0.0841   -0.0420    0.0066   -0.0284   -0.0687    0.0610   -0.0620    0.1518
          35   -0.0193   -0.0120    0.0004   -0.0046   -0.0166    0.0150   -0.0150    0.0397
          36    0.1020    0.0280    0.0056    0.0066    0.0339   -0.0090   -0.0096    0.0167
          37   -0.1629   -0.0762   -0.0230    0.0397   -0.0988    0.0390   -0.0544    0.0156
          38   -0.0796    0.0173    0.0112    0.0314   -0.0215   -0.0234    0.0161   -0.0279
          39    0.1873   -0.0166   -0.0113   -0.0681    0.0620    0.0106    0.0098    0.0139
          40    0.0033    0.0282    0.0854   -0.0284   -0.0058   -0.0023    0.0075   -0.0216
          41   -0.0029   -0.0265   -0.0960    0.0341    0.0120   -0.0022   -0.0012   -0.0322
          42   -0.0003   -0.0215   -0.0685    0.0219    0.0043    0.0002   -0.0042    0.0391
          43    0.0068   -0.0012   -0.0700    0.0372    0.0303   -0.0241    0.0273    0.0021
          44   -0.0013   -0.0049    0.0096   -0.0112   -0.0138    0.0156   -0.0224   -0.0297
          45   -0.0006    0.0127    0.1064   -0.0485   -0.0303    0.0157   -0.0135    0.0136
          46    0.0268   -0.1340   -0.0202   -0.0746   -0.0955   -0.1061    0.0541   -0.0097
          47    0.0026   -0.1056   -0.0194   -0.0555   -0.0816   -0.0831    0.0397   -0.0114
          48   -0.0543    0.1380    0.0368    0.1009    0.0724    0.0536   -0.0371    0.0035
          49   -0.1276   -0.0028   -0.0360   -0.1278    0.1075    0.0476   -0.0052    0.0069
          50   -0.0902    0.0010   -0.0240   -0.0985    0.0923    0.0435   -0.0015    0.0082
          51    0.1248   -0.0175    0.0383    0.1377   -0.0917    0.0192    0.0053   -0.0023
          52    0.0014    0.0052    0.0398   -0.0209   -0.0154    0.0158   -0.0221   -0.0259
          53    0.0041    0.0161    0.0595   -0.0222   -0.0070    0.0027    0.0007   -0.0502
          54   -0.0037   -0.0165   -0.0955    0.0445    0.0277   -0.0267    0.0346    0.0684
          55    0.0006   -0.0070   -0.0435    0.0187    0.0097   -0.0059    0.0030    0.0520
          56    0.0004    0.0096    0.1007   -0.0512   -0.0341    0.0270   -0.0288   -0.0960
          57   -0.0008    0.0045   -0.0035    0.0063    0.0090   -0.0109    0.0173   -0.0167
          58   -0.0215   -0.1671    0.0719    0.0666    0.0992   -0.0167   -0.0443    0.0008
          59   -0.0199   -0.1327    0.0572    0.0511    0.0825   -0.0204   -0.0401    0.0004
          60    0.0059    0.1710   -0.0715   -0.0811   -0.0740   -0.0370    0.0103   -0.0018
          61    0.0033    0.0092   -0.0082   -0.0005   -0.0293    0.1084    0.1145   -0.0095
          62    0.0039    0.0101   -0.0074   -0.0009   -0.0255    0.0882    0.0925   -0.0076
          63   -0.0003    0.0072    0.0001   -0.0035    0.0131   -0.0920   -0.1042    0.0108
          64   -0.0432   -0.0143    0.0012   -0.0201    0.0174    0.0505    0.0889   -0.0122
          65   -0.0413   -0.0134    0.0011   -0.0199    0.0170    0.0515    0.0894   -0.0124
          66   -0.0154   -0.0024   -0.0013   -0.0107    0.0077    0.0355    0.0547   -0.0078


   Root No.      41        42        43        44        45        46        47        48

                41 A      42 A      43 A      44 A      45 A      46 A      47 A      48 A   

                1361.4    1386.0    1407.0    1427.7    1732.1    1789.2    1838.8    1883.6
  
           1   -0.0358   -0.0325    0.0048    0.0584    0.0113   -0.0002    0.0006    0.0018
           2    0.0013    0.0064    0.0117   -0.0088   -0.0064   -0.0005    0.0004    0.0009
           3    0.0231    0.0072   -0.0040   -0.0354   -0.0103    0.0004   -0.0011   -0.0021
           4    0.0160    0.0495   -0.0222   -0.0504    0.0023    0.0005    0.0104    0.0129
           5   -0.0026   -0.0102   -0.0139   -0.0112   -0.0003    0.0024    0.0069    0.0090
           6   -0.0113    0.0302    0.0397    0.0437   -0.0011   -0.0025   -0.0149   -0.0184
           7   -0.0001   -0.0008    0.0133   -0.0149   -0.0861    0.0770    0.0004    0.0000
           8   -0.0002    0.0010   -0.0232    0.0227    0.0198   -0.0272   -0.0002   -0.0001
           9    0.0038    0.0046   -0.0057    0.0023    0.1117   -0.0946   -0.0004   -0.0001
          10    0.0028   -0.0010    0.0117   -0.0156   -0.0863   -0.0784   -0.0013   -0.0011
          11    0.0096    0.0031   -0.0000   -0.0118    0.0907    0.0738    0.0006    0.0001
          12   -0.0067    0.0039   -0.0163    0.0283    0.0652    0.0658    0.0011    0.0011
          13    0.0185   -0.0066    0.0107    0.0105    0.0005    0.0011   -0.0715   -0.1227
          14    0.0187   -0.0024    0.0060    0.0045    0.0006    0.0009   -0.0617   -0.1071
          15    0.0028   -0.0043   -0.0215   -0.0238    0.0001    0.0003    0.0343    0.0489
          16    0.0051    0.0036   -0.0037   -0.0031    0.0752   -0.0783   -0.0004   -0.0002
          17   -0.0223   -0.0235    0.0510   -0.0285   -0.0016    0.0117    0.0001    0.0001
          18    0.0066    0.0095   -0.0278    0.0243   -0.1092    0.1070    0.0005    0.0002
          19    0.0045    0.0035   -0.0017   -0.0030    0.0757    0.0800    0.0008    0.0004
          20    0.0130    0.0184   -0.0460    0.0344   -0.0961   -0.0917   -0.0009   -0.0004
          21   -0.0158   -0.0180    0.0326   -0.0176   -0.0476   -0.0568   -0.0005   -0.0003
          22    0.0029   -0.0004    0.0135    0.0150   -0.0009   -0.0013    0.0511    0.1339
          23   -0.0036   -0.0004    0.0102    0.0123   -0.0008   -0.0011    0.0470    0.1158
          24   -0.0430    0.0104   -0.0195   -0.0185    0.0005    0.0005   -0.0045   -0.0670
          25   -0.0150    0.0018   -0.0036   -0.0024   -0.0002   -0.0008    0.1233   -0.0769
          26   -0.0079    0.0002   -0.0008    0.0001   -0.0002   -0.0007    0.1084   -0.0647
          27    0.0463   -0.0091    0.0187    0.0165   -0.0001    0.0001   -0.0449    0.0491
          28   -0.0235    0.0040   -0.0117   -0.0110    0.0004    0.0009   -0.1135    0.0516
          29   -0.0223    0.0038   -0.0109   -0.0102    0.0003    0.0008   -0.1023    0.0468
          30   -0.0048    0.0010   -0.0005   -0.0001   -0.0001   -0.0002    0.0224   -0.0080
          31    0.0548    0.0261   -0.0196   -0.0679   -0.0058    0.0002    0.0020    0.0024
          32    0.0032   -0.0108   -0.0059   -0.0050    0.0003    0.0281   -0.0000   -0.0004
          33   -0.0170   -0.0056    0.0168    0.0169    0.0011   -0.0182   -0.0020   -0.0025
          34   -0.0054   -0.1513    0.0051    0.0275    0.0008   -0.0018   -0.0020   -0.0014
          35    0.0026   -0.1216   -0.0295   -0.0081   -0.0010    0.0035    0.0022    0.0005
          36    0.0448   -0.2259   -0.0943   -0.0663   -0.0007   -0.0006   -0.0049   -0.0089
          37   -0.0153   -0.1558    0.0081    0.0647   -0.0012    0.0003   -0.0138   -0.0220
          38   -0.0182    0.2367    0.0855    0.0462   -0.0002   -0.0007   -0.0106   -0.0161
          39    0.0180   -0.1126   -0.0676   -0.0623   -0.0002    0.0009    0.0112    0.0180
          40   -0.0028    0.0067   -0.0406    0.0505    0.0022   -0.0016    0.0001    0.0003
          41   -0.0049   -0.0145    0.0400   -0.0412   -0.0978    0.0787    0.0003   -0.0000
          42    0.0007   -0.0061    0.0366   -0.0399    0.0619   -0.0491   -0.0004   -0.0003
          43   -0.0027    0.0066   -0.0444    0.0484    0.0007    0.0003    0.0001    0.0002
          44    0.0092   -0.0005    0.0102   -0.0231    0.0961    0.0782    0.0007    0.0002
          45   -0.0087   -0.0165    0.0592   -0.0503   -0.0628   -0.0516   -0.0004   -0.0001
          46    0.0136    0.0105   -0.0174   -0.0238    0.0007   -0.0005    0.0025    0.0011
          47    0.0114   -0.0002   -0.0142   -0.0166    0.0000    0.0004   -0.0052   -0.0146
          48    0.0115   -0.0143    0.0042    0.0050    0.0005    0.0017   -0.0525   -0.1051
          49   -0.0469    0.0037   -0.0150   -0.0113   -0.0002   -0.0001    0.0208   -0.0126
          50   -0.0415    0.0097   -0.0139   -0.0123    0.0000   -0.0003    0.0253    0.0026
          51    0.0007    0.0035    0.0089    0.0095   -0.0006   -0.0009    0.0448    0.1063
          52    0.0176    0.0171   -0.0423    0.0249    0.0515   -0.0285   -0.0001   -0.0001
          53   -0.0073   -0.0064    0.0009    0.0097   -0.0746    0.1130    0.0007    0.0003
          54   -0.0241   -0.0249    0.0628   -0.0387   -0.0272   -0.0303   -0.0002    0.0000
          55    0.0119    0.0179   -0.0394    0.0284    0.0503    0.0267    0.0004    0.0003
          56   -0.0060   -0.0202    0.0495   -0.0439    0.0067    0.0753    0.0004    0.0000
          57   -0.0166   -0.0172    0.0262   -0.0094   -0.0789   -0.0908   -0.0008   -0.0003
          58    0.0337   -0.0061    0.0176    0.0157   -0.0002   -0.0003    0.0097    0.0203
          59    0.0314   -0.0057    0.0162    0.0147   -0.0003   -0.0003    0.0221    0.0112
          60    0.0008   -0.0023   -0.0003    0.0005   -0.0002   -0.0006    0.0984   -0.0574
          61    0.0940   -0.0089    0.0205    0.0143    0.0001   -0.0000   -0.0055    0.0045
          62    0.0711   -0.0064    0.0146    0.0100   -0.0000    0.0002   -0.0208    0.0118
          63   -0.1219    0.0138   -0.0332   -0.0260    0.0003    0.0009   -0.1177    0.0571
          64    0.1392   -0.0175    0.0352    0.0263   -0.0001    0.0001   -0.0112    0.0076
          65    0.1420   -0.0176    0.0365    0.0277   -0.0001   -0.0001    0.0052    0.0006
          66    0.1001   -0.0131    0.0307    0.0252   -0.0004   -0.0010    0.1180   -0.0483


   Root No.      49        50        51        52        53        54        55        56

                49 A      50 A      51 A      52 A      53 A      54 A      55 A      56 A   

                2889.4    2944.9    3021.5    3029.0    3034.9    3038.5    3131.7    3133.8
  
           1   -0.0222   -0.0011    0.0009    0.0001    0.0001   -0.0000   -0.0000   -0.0002
           2   -0.0340   -0.0022    0.0002    0.0000    0.0001   -0.0000   -0.0002    0.0001
           3   -0.0527   -0.0028    0.0005    0.0001   -0.0000    0.0001    0.0001    0.0002
           4   -0.0006    0.0019    0.0196    0.0019   -0.0026    0.0012   -0.0000   -0.0000
           5    0.0050   -0.0547   -0.0042   -0.0002   -0.0014    0.0006   -0.0000    0.0001
           6    0.0017   -0.0141    0.0297    0.0036   -0.0042    0.0022    0.0000   -0.0000
           7    0.0004   -0.0004   -0.0001   -0.0000   -0.0000    0.0000   -0.0027    0.0038
           8   -0.0009    0.0002    0.0001    0.0000    0.0000    0.0000   -0.0097    0.0132
           9   -0.0003   -0.0000    0.0000    0.0000   -0.0000    0.0000    0.0100   -0.0138
          10    0.0003    0.0002    0.0002    0.0000   -0.0000    0.0000    0.0033    0.0037
          11    0.0002   -0.0001   -0.0001   -0.0000    0.0000   -0.0000   -0.0146   -0.0161
          12   -0.0009   -0.0001   -0.0000    0.0000    0.0000   -0.0000    0.0051    0.0055
          13   -0.0006    0.0006   -0.0034    0.0019   -0.0194    0.0083    0.0000   -0.0000
          14   -0.0004    0.0008   -0.0037    0.0016   -0.0223    0.0091   -0.0000    0.0000
[...]
 TRAVEL      0.0882         C  1 -- H 11          +7.7% ( 39.2%)      1.3%
 RED. MASS   0.5458         C  8 -- C  9          +6.6% ( 36.3%)     89.0%
 EFF. MASS   6.6880

 VIBRATION   40   40A         ATOM PAIR      ENERGY CONTRIBUTION    RADIAL
 FREQ.      1336.69         C  1 -- C  3         +23.3% ( 77.8%)     90.6%
 T-DIPOLE    0.1689         C  1 -- C  4         +17.1% ( 66.6%)     51.5%
 TRAVEL      0.0711         C  1 -- H 11         +14.5% ( 61.3%)      0.1%
 RED. MASS   3.3191         C  1 -- C  2         +12.4% ( 56.8%)      7.4%
 EFF. MASS   9.9747

 VIBRATION   41   41A         ATOM PAIR      ENERGY CONTRIBUTION    RADIAL
 FREQ.      1361.45         C  8 -- C  9         +15.5% ( 54.6%)     93.1%
 T-DIPOLE    0.1615         C 10 -- H 22         +13.4% ( 50.8%)      0.8%
 TRAVEL      0.0831         C 10 -- H 21          +8.6% ( 40.6%)      6.9%
 RED. MASS   0.6879         C  9 -- C 10          +6.9% ( 36.5%)      3.4%
 EFF. MASS   7.1772

 VIBRATION   42   42A         ATOM PAIR      ENERGY CONTRIBUTION    RADIAL
 FREQ.      1386.04         C  2 -- H 13         +26.7% ( 59.4%)      4.6%
 T-DIPOLE    0.1733         C  2 -- H 12         +25.6% ( 58.1%)      4.9%
 TRAVEL      0.1101         C  1 -- C  2         +12.8% ( 41.1%)     89.3%
 RED. MASS   0.5985         C  2 -- C  5          +7.6% ( 31.6%)      3.3%
 EFF. MASS   4.0105

 VIBRATION   43   43A         ATOM PAIR      ENERGY CONTRIBUTION    RADIAL
 FREQ.      1407.05         C  6 -- C  7         +17.8% ( 65.8%)    100.0%
 T-DIPOLE    0.3889         C  3 -- C  6          +7.6% ( 43.0%)      0.0%
 TRAVEL      0.0721         C  3 -- C  7          +7.2% ( 42.0%)     99.9%
 RED. MASS   1.3071         C  4 -- C  6          +7.2% ( 41.9%)     97.8%
 EFF. MASS   9.2159

 VIBRATION   44   44A         ATOM PAIR      ENERGY CONTRIBUTION    RADIAL
 FREQ.      1427.75         C  1 -- C  2         +15.2% ( 62.5%)     65.4%
 T-DIPOLE    0.1220         C  1 -- C  4          +9.6% ( 49.6%)     71.3%
 TRAVEL      0.0693         C  2 -- C  5          +8.7% ( 47.3%)     88.7%
 RED. MASS   1.5994         C  1 -- C  3          +8.2% ( 45.9%)     42.8%
 EFF. MASS   9.8396

 VIBRATION   45   45A         ATOM PAIR      ENERGY CONTRIBUTION    RADIAL
 FREQ.      1732.10         C  3 -- C  6         +18.4% ( 73.0%)     99.9%
 T-DIPOLE    0.4228         C  4 -- C  7         +18.0% ( 72.3%)     99.9%
 TRAVEL      0.0569         C  3 -- C  7         +10.7% ( 55.7%)     26.0%
 RED. MASS   2.7208         C  4 -- C  6         +10.7% ( 55.7%)     25.7%
 EFF. MASS  12.0246

 VIBRATION   46   46A         ATOM PAIR      ENERGY CONTRIBUTION    RADIAL
 FREQ.      1789.20         C  4 -- C  7         +18.1% ( 70.5%)     99.8%
 T-DIPOLE    0.3171         C  3 -- C  6         +17.7% ( 69.8%)     99.8%
 TRAVEL      0.0565         C  6 -- C  7         +12.1% ( 57.8%)      0.0%
 RED. MASS   2.6851         C  3 -- C  7         +10.9% ( 54.7%)     64.6%
 EFF. MASS  11.7990         C  4 -- C  6         +10.9% ( 54.7%)     67.4%

 VIBRATION   47   47A         ATOM PAIR      ENERGY CONTRIBUTION    RADIAL
 FREQ.      1838.80         C  9 -- C 10         +36.4% ( 89.0%)     99.2%
 T-DIPOLE    0.0702         C  8 -- C  9         +12.6% ( 52.4%)     56.4%
 TRAVEL      0.0557         C  9 -- H 20         +11.9% ( 50.8%)      4.7%
 RED. MASS   3.5615         C  5 -- C  8          +9.7% ( 46.0%)     98.6%
 EFF. MASS  11.8407

 VIBRATION   48   48A         ATOM PAIR      ENERGY CONTRIBUTION    RADIAL
 FREQ.      1883.56         C  5 -- C  8         +34.1% ( 86.6%)     95.4%
 T-DIPOLE    0.3280         C  8 -- C  9         +18.4% ( 63.5%)     55.7%
 TRAVEL      0.0551         C  8 -- H 17         +11.8% ( 51.0%)      2.4%
 RED. MASS   3.7723         C  2 -- C  5          +9.9% ( 46.7%)     53.4%
 EFF. MASS  11.7805

 VIBRATION   49   49A         ATOM PAIR      ENERGY CONTRIBUTION    RADIAL
 FREQ.      2889.41         C  1 -- H 11         +96.4% ( 99.7%)    100.0%
 T-DIPOLE    0.1996         C  1 -- C  2          +1.0% ( 10.3%)      9.4%
 TRAVEL      0.1275         C  1 -- C  4          +1.0% ( 10.2%)     10.7%
 RED. MASS   0.9195         C  1 -- C  3          +1.0% ( 10.2%)     10.6%
 EFF. MASS   1.4361

 VIBRATION   50   50A         ATOM PAIR      ENERGY CONTRIBUTION    RADIAL
 FREQ.      2944.90         C  2 -- H 12         +58.3% ( 79.2%)     97.4%
 T-DIPOLE    0.0690         C  2 -- H 13         +38.8% ( 64.6%)     95.2%
 TRAVEL      0.1219         C  2 -- C  5          +1.2% ( 11.1%)      0.0%
 RED. MASS   0.5308         C  1 -- C  2          +1.1% ( 11.0%)      0.3%
 EFF. MASS   1.5414

 VIBRATION   51   51A         ATOM PAIR      ENERGY CONTRIBUTION    RADIAL
 FREQ.      3021.52         C  2 -- H 13         +57.5% ( 74.9%)     98.6%
 T-DIPOLE    0.0838         C  2 -- H 12         +38.0% ( 60.8%)     96.2%
 TRAVEL      0.1316         C  5 -- H 16          +1.9% ( 13.7%)     99.7%
 RED. MASS   0.4716         C  8 -- H 17          +1.1% ( 10.3%)     99.8%
 EFF. MASS   1.2886

 VIBRATION   52   52A         ATOM PAIR      ENERGY CONTRIBUTION    RADIAL
 FREQ.      3028.97         C  8 -- H 17         +73.4% ( 87.1%)    100.0%
 T-DIPOLE    0.1162         C  9 -- H 20         +22.3% ( 48.0%)    100.0%
 TRAVEL      0.1208         C  8 -- C  9          +1.6% ( 12.9%)     17.4%
 RED. MASS   0.5831         C  5 -- C  8          +1.1% ( 10.8%)     36.9%
 EFF. MASS   1.5262

 VIBRATION   53   53A         ATOM PAIR      ENERGY CONTRIBUTION    RADIAL
 FREQ.      3034.86         C  5 -- H 16         +83.1% ( 92.3%)    100.0%
 T-DIPOLE    0.3708         C  9 -- H 20         +10.1% ( 32.2%)    100.0%
 TRAVEL      0.1225         C  8 -- H 17          +2.7% ( 16.6%)     99.6%
 RED. MASS   0.6852         C  2 -- H 13          +1.3% ( 11.5%)     99.6%
 EFF. MASS   1.4801

 VIBRATION   54   54A         ATOM PAIR      ENERGY CONTRIBUTION    RADIAL
 FREQ.      3038.48         C  9 -- H 20         +64.0% ( 81.1%)    100.0%
 T-DIPOLE    0.1939         C  8 -- H 17         +19.7% ( 45.0%)    100.0%
 TRAVEL      0.1208         C  5 -- H 16         +12.3% ( 35.6%)     99.9%
 RED. MASS   0.4569         C  8 -- C  9          +1.1% ( 10.4%)     24.4%
 EFF. MASS   1.5219

 VIBRATION   55   55A         ATOM PAIR      ENERGY CONTRIBUTION    RADIAL
 FREQ.      3131.71         C  7 -- H 19         +37.0% ( 62.4%)    100.0%
 T-DIPOLE    0.1194         C  6 -- H 18         +30.4% ( 56.6%)    100.0%
 TRAVEL      0.1204         C  4 -- H 15         +15.6% ( 40.5%)    100.0%
 RED. MASS   0.2746         C  3 -- H 14         +12.6% ( 36.4%)    100.0%
 EFF. MASS   1.4852

 VIBRATION   56   56A         ATOM PAIR      ENERGY CONTRIBUTION    RADIAL
 FREQ.      3133.78         C  6 -- H 18         +28.3% ( 54.4%)    100.0%
 T-DIPOLE    0.5129         C  3 -- H 14         +24.6% ( 50.7%)    100.0%
 TRAVEL      0.1209         C  7 -- H 19         +23.4% ( 49.5%)    100.0%
 RED. MASS   0.2364         C  4 -- H 15         +19.6% ( 45.3%)    100.0%
 EFF. MASS   1.4713

 VIBRATION   57   57A         ATOM PAIR      ENERGY CONTRIBUTION    RADIAL
 FREQ.      3136.21         C 10 -- H 21         +94.7% ( 98.9%)    100.0%
 T-DIPOLE    0.2277         C 10 -- H 22          +4.0% ( 20.3%)     58.5%
 TRAVEL      0.1188         C  9 -- C 10          +1.3% ( 11.7%)     27.8%
 RED. MASS   0.8937
 EFF. MASS   1.5227

 VIBRATION   58   58A         ATOM PAIR      ENERGY CONTRIBUTION    RADIAL
 FREQ.      3145.76         C  4 -- H 15         +33.9% ( 59.9%)    100.0%
 T-DIPOLE    0.5723         C  3 -- H 14         +32.6% ( 58.7%)    100.0%
 TRAVEL      0.1159         C  6 -- H 18         +14.4% ( 39.0%)     99.8%
 RED. MASS   0.2724         C  7 -- H 19         +13.3% ( 37.6%)     99.8%
 EFF. MASS   1.5964

 VIBRATION   59   59A         ATOM PAIR      ENERGY CONTRIBUTION    RADIAL
 FREQ.      3147.64         C 10 -- H 22         +94.5% ( 98.0%)     99.8%
 T-DIPOLE    0.2955         C 10 -- H 21          +3.2% ( 18.1%)     17.1%
 TRAVEL      0.1205         C  9 -- C 10          +1.5% ( 12.5%)     65.2%
 RED. MASS   0.8661         C  9 -- H 20          +0.7% (  8.2%)     94.8%
 EFF. MASS   1.4751

 VIBRATION   60   60A         ATOM PAIR      ENERGY CONTRIBUTION    RADIAL
 FREQ.      3155.64         C  4 -- H 15         +25.6% ( 52.1%)     99.9%
 T-DIPOLE    0.2011         C  3 -- H 14         +25.0% ( 51.4%)     99.9%
 TRAVEL      0.1121         C  6 -- H 18         +21.7% ( 48.0%)    100.0%
 RED. MASS   0.2362         C  7 -- H 19         +21.1% ( 47.3%)    100.0%
 EFF. MASS   1.7010

      SYMMETRY NUMBER FOR POINT-GROUP C1  =  1


          SYSTEM IS A GROUND STATE



 InChI=1S/C10H12/c1-2-3-4-7-10-8-5-6-9-10/h2-6,8-10H,1,7H2


          MOLECULE IS NOT LINEAR

          THERE ARE 60 GENUINE VIBRATIONS IN THIS SYSTEM
          THIS THERMODYNAMICS CALCULATION IS LIMITED TO
          MOLECULES WHICH HAVE NO INTERNAL ROTATIONS




                    CALCULATED THERMODYNAMIC PROPERTIES
                                          *
   TEMP. (K)   PARTITION FUNCTION   H.O.F.    ENTHALPY  HEAT CAPACITY ENTROPY
                                   KCAL/MOL   CAL/MOLE    CAL/K/MOL  CAL/K/MOL


 298.00  VIB.     0.6303D+03                  4357.6758    30.9161    27.4331
         ROT.     0.8179D+06                   888.2813     2.9808    30.0357
         INT.     0.5156D+09                  5245.9571    33.8969    57.4688
         TRA.     0.1470D+28                  1480.4688     4.9680    40.5480
         TOT.                       61.335    6726.4259    38.8650    98.0168

 200.00  VIB.     0.5802D+02                  1919.2277    19.2020    17.6659
         ROT.     0.4497D+06                   596.1620     2.9808    28.8470
         INT.     0.2609D+08                  2515.3897    22.1828    46.5129
         TRA.     0.8080D+27                   993.6033     4.9680    38.5668
         TOT.                       58.118    3508.9929    27.1509    85.0798

 210.00  VIB.     0.7387D+02                  2116.6065    20.2797    18.6287
         ROT.     0.4839D+06                   625.9700     2.9808    28.9925
         INT.     0.3574D+08                  2742.5766    23.2605    47.6212
         TRA.     0.8694D+27                  1043.2834     4.9680    38.8092
         TOT.                       58.394    3785.8600    28.2285    86.4304

 220.00  VIB.     0.9406D+02                  2324.9390    21.3924    19.5977
         ROT.     0.5188D+06                   655.7781     2.9808    29.1311
         INT.     0.4880D+08                  2980.7171    24.3732    48.7288
         TRA.     0.9322D+27                  1092.9636     4.9680    39.0403
         TOT.                       58.682    4073.6807    29.3413    87.7691

 230.00  VIB.     0.1198D+03                  2544.5642    22.5378    20.5738
         ROT.     0.5546D+06                   685.5862     2.9808    29.2636
         INT.     0.6644D+08                  3230.1505    25.5186    49.8374
         TRA.     0.9965D+27                  1142.6437     4.9680    39.2612
         TOT.                       58.981    4372.7942    30.4867    89.0986

 240.00  VIB.     0.1526D+03                  2775.7943    23.7128    21.5577
         ROT.     0.5912D+06                   715.3943     2.9808    29.3905
         INT.     0.9024D+08                  3491.1886    26.6936    50.9482
         TRA.     0.1062D+28                  1192.3239     4.9680    39.4726
         TOT.                       59.292    4683.5125    31.6617    90.4208

 250.00  VIB.     0.1946D+03                  3018.9076    24.9139    22.5500
         ROT.     0.6285D+06                   745.2024     2.9808    29.5122
         INT.     0.1223D+09                  3764.1100    27.8947    52.0621
         TRA.     0.1129D+28                  1242.0041     4.9680    39.6754
         TOT.                       59.615    5006.1141    32.8627    91.7376

 260.00  VIB.     0.2482D+03                  3274.1454    26.1371    23.5509
         ROT.     0.6666D+06                   775.0105     2.9808    29.6291
         INT.     0.1655D+09                  4049.1559    29.1179    53.1800
         TRA.     0.1198D+28                  1291.6842     4.9680    39.8703
         TOT.                       59.949    5340.8402    34.0859    93.0502

 270.00  VIB.     0.3168D+03                  3541.7090    27.3784    24.5605
         ROT.     0.7054D+06                   804.8186     2.9808    29.7416
         INT.     0.2235D+09                  4346.5277    30.3592    54.3021
         TRA.     0.1267D+28                  1341.3644     4.9680    40.0578
         TOT.                       60.296    5687.8921    35.3272    94.3599

 280.00  VIB.     0.4047D+03                  3821.7594    28.6337    25.5789
         ROT.     0.7450D+06                   834.6267     2.9808    29.8500
         INT.     0.3015D+09                  4656.3861    31.6145    55.4288
         TRA.     0.1338D+28                  1391.0445     4.9680    40.2384
         TOT.                       60.656    6047.4306    36.5825    95.6673

 290.00  VIB.     0.5175D+03                  4114.4168    29.8991    26.6057
         ROT.     0.7852D+06                   864.4348     2.9808    29.9546
         INT.     0.4063D+09                  4978.8516    32.8799    56.5603
         TRA.     0.1411D+28                  1440.7247     4.9680    40.4128
         TOT.                       61.028    6419.5763    37.8480    96.9731

 300.00  VIB.     0.6623D+03                  4419.7627    31.1708    27.6408
         ROT.     0.8262D+06                   894.2429     2.9808    30.0556
         INT.     0.5471D+09                  5314.0056    34.1516    57.6964
         TRA.     0.1484D+28                  1490.4049     4.9680    40.5812
         TOT.                       61.413    6804.4105    39.1196    98.2776

 310.00  VIB.     0.8483D+03                  4737.8411    32.4451    28.6836
         ROT.     0.8678D+06                   924.0510     2.9808    30.1534
         INT.     0.7362D+09                  5661.8921    35.4259    58.8370
         TRA.     0.1559D+28                  1540.0850     4.9680    40.7441
         TOT.                       61.811    7201.9772    40.3939    99.5811

 320.00  VIB.     0.1088D+04                  5068.6615    33.7186    29.7338
         ROT.     0.9102D+06                   953.8591     2.9808    30.2480
         INT.     0.9900D+09                  6022.5206    36.6994    59.9818
         TRA.     0.1635D+28                  1589.7652     4.9680    40.9018
         TOT.                       62.221    7612.2858    41.6674   100.8837

 330.00  VIB.     0.1396D+04                  5412.2009    34.9884    30.7908
         ROT.     0.9532D+06                   983.6672     2.9808    30.3397
         INT.     0.1331D+10                  6395.8681    37.9692    61.1306
         TRA.     0.1713D+28                  1639.4454     4.9680    41.0547
         TOT.                       62.644    8035.3135    42.9372   102.1853

 340.00  VIB.     0.1794D+04                  5768.4075    36.2516    31.8541
         ROT.     0.9968D+06                  1013.4753     2.9808    30.4287
         INT.     0.1788D+10                  6781.8828    39.2324    62.2829
         TRA.     0.1791D+28                  1689.1255     4.9680    41.2030
         TOT.                       63.080    8471.0083    44.2004   103.4859

 350.00  VIB.     0.2307D+04                  6137.2029    37.5058    32.9231
         ROT.     0.1041D+07                  1043.2834     2.9808    30.5151
         INT.     0.2402D+10                  7180.4864    40.4866    63.4382
         TRA.     0.1871D+28                  1738.8057     4.9680    41.3470
         TOT.                       63.528    8919.2920    45.4546   104.7852

 360.00  VIB.     0.2970D+04                  6518.4859    38.7488    33.9971
         ROT.     0.1086D+07                  1073.0915     2.9808    30.5991
         INT.     0.3225D+10                  7591.5774    41.7296    64.5962
         TRA.     0.1951D+28                  1788.4859     4.9680    41.4870
         TOT.                       63.989    9380.0633    46.6976   106.0832

 370.00  VIB.     0.3827D+04                  6912.1346    39.9786    35.0756
         ROT.     0.1132D+07                  1102.8996     2.9808    30.6808
         INT.     0.4331D+10                  8015.0342    42.9595    65.7564
         TRA.     0.2033D+28                  1838.1660     4.9680    41.6231
         TOT.                       64.462    9853.2002    47.9275   107.3795

 380.00  VIB.     0.4936D+04                  7318.0096    41.1938    36.1579
         ROT.     0.1178D+07                  1132.7077     2.9808    30.7603
         INT.     0.5814D+10                  8450.7173    44.1746    66.9182
         TRA.     0.2116D+28                  1887.8462     4.9680    41.7556
         TOT.                       64.947   10338.5635    49.1426   108.6738

 390.00  VIB.     0.6373D+04                  7735.9568    42.3929    37.2435
         ROT.     0.1225D+07                  1162.5158     2.9808    30.8377
         INT.     0.7805D+10                  8898.4726    45.3737    68.0812
         TRA.     0.2200D+28                  1937.5263     4.9680    41.8846
         TOT.                       65.445   10835.9989    50.3417   109.9658

 400.00  VIB.     0.8236D+04                  8165.8093    43.5747    38.3317
         ROT.     0.1272D+07                  1192.3239     2.9808    30.9132
         INT.     0.1048D+11                  9358.1332    46.5555    69.2449
         TRA.     0.2285D+28                  1987.2065     4.9680    42.0104
         TOT.                       65.954   11345.3397    51.5235   111.2553

   *: NOTE: HEATS OF FORMATION ARE RELATIVE TO THE
            ELEMENTS IN THEIR STANDARD STATE AT 298K
              (=  Standard Enthalpy of Formation).

            Hvib:  Zero-point energy is not included.
                   frequencies of less than zero cm-1 are not included.
            Hrot = (3/2)RT
            Htra = (3/2)RT + pV = (5/2)RT

            Heat capacity is Cp, not Cv

          For more information, see: HTTP://OpenMOPAC.net/Manual/thermochemistry.html


           FORCE CONSTANT IN CARTESIAN COORDINATES (Millidynes/A)

    ATOM   CHEMICAL       X               Y               Z
   NUMBER   SYMBOL  FORCE CONSTANT  FORCE CONSTANT  FORCE CONSTANT

      1       C        8.734050        8.070322        8.735305
      2       C        8.207043        8.171221        8.948847
      3       C        6.655159        8.588986       11.544782
      4       C        6.728737       12.664218        7.381396
      5       C        9.460444        8.171106        9.379178
      6       C        7.375109       10.269005        9.805567
      7       C        7.378670        9.738435       10.342908
      8       C        9.311970        8.205058       10.057379
      9       C        9.403658        8.242024        9.861154
     10       C        9.185379        8.024033        9.125831
     11       H        1.173623        1.636337        3.095220
     12       H        1.126709        4.277048        0.841395
     13       H        1.186892        2.347323        2.857008
     14       H        0.668895        2.776052        3.003726
     15       H        0.708964        4.710565        1.042234
     16       H        1.268246        1.491478        3.463894
     17       H        1.248629        1.510757        3.450889
     18       H        1.829456        3.729050        0.902750
     19       H        1.774237        0.725269        3.963221
     20       H        1.245405        1.501219        3.471369
     21       H        1.366328        1.648691        3.452607
     22       H        1.198596        0.748641        4.531335

 **********************
 *                    *
 * JOB ENDED NORMALLY *
 *                    *
 **********************



 TOTAL JOB TIME:             9.93 SECONDS

 == MOPAC DONE ==
