 *******************************************************************************
 ** Site#: 14399        For non-commercial use only    Version 18.184L 64BITS **
 *******************************************************************************
 ** Cite this program as: MOPAC2016, Version: 18.184L, James J. P. Stewart,   **
 ** Stewart Computational Chemistry, web: HTTP://OpenMOPAC.net. Days left:  20**
 *******************************************************************************
 **                                                                           **
 **                                MOPAC2016                                  **
 **                                                                           **
 *******************************************************************************

                              PM3 CALCULATION RESULTS

 *******************************************************************************
 *  CALCULATION DONE:                                Thu Jun 13 16:06:56 2019  *
 *  PM3        - The PM3 Hamiltonian to be used
 *  PRECISE    - CRITERIA TO BE INCREASED BY 100 TIMES
 *  NOSYM      - POINT-GROUP SYMMETRY SET TO C1
 *  THREADS=1  - MULTI-THREADING NOT USED
 *  T=         - A TIME OF 172800.0 SECONDS REQUESTED
 *  DUMP=N     - RESTART FILE WRITTEN EVERY  7200.000 SECONDS
 *******************************************************************************
pm3  precise nosym THREADS=1
 InChI=1S/C10H12/c1-8-6-9-4-2-3-5-10(9)7-8/h2,4-6,9H,3,7H2,1H3

   ATOM   CHEMICAL          X               Y               Z
  NUMBER   SYMBOL      (ANGSTROMS)     (ANGSTROMS)     (ANGSTROMS)
 
     1       C          0.31350000  *   0.71500000  *  -0.71180000  *
     2       C         -0.98900000  *  -1.26960000  *  -0.01520000  *
     3       C          2.78910000  *  -0.50130000  *   0.07020000  *
     4       C         -3.27270000  *   0.02510000  *   0.27410000  *
     5       C          0.36870000  *  -0.73280000  *  -0.32430000  *
     6       C         -1.81050000  *  -0.01940000  *  -0.04680000  *
     7       C         -1.10050000  *   1.05980000  *  -0.38600000  *
     8       C          1.51760000  *  -1.31830000  *   0.05190000  *
     9       C          1.32540000  *   1.51250000  *   0.07590000  *
    10       C          2.49640000  *   0.94460000  *   0.42270000  *
    11       H          0.49810000  *   0.83560000  *  -1.80060000  *
    12       H         -1.02120000  *  -1.72360000  *   0.99870000  *
    13       H         -1.32110000  *  -1.98800000  *  -0.79390000  *
    14       H          3.26020000  *  -0.53960000  *  -0.93450000  *
    15       H          3.49630000  *  -0.93010000  *   0.81100000  *
    16       H         -3.44620000  *   0.69710000  *   1.14070000  *
    17       H         -3.64220000  *  -0.99060000  *   0.52800000  *
    18       H         -3.83790000  *   0.40350000  *  -0.60330000  *
    19       H          1.14070000  *   2.55780000  *   0.30540000  *
    20       H         -1.52180000  *   2.05650000  *  -0.47750000  *
    21       H          1.51380000  *  -2.32300000  *   0.46400000  *
    22       H          3.24320000  *   1.52890000  *   0.95120000  *
 


          CARTESIAN COORDINATES 

    NO.       ATOM           X           Y           Z

     1         C          0.3135      0.7150     -0.7118
     2         C         -0.9890     -1.2696     -0.0152
     3         C          2.7891     -0.5013      0.0702
     4         C         -3.2727      0.0251      0.2741
     5         C          0.3687     -0.7328     -0.3243
     6         C         -1.8105     -0.0194     -0.0468
     7         C         -1.1005      1.0598     -0.3860
     8         C          1.5176     -1.3183      0.0519
     9         C          1.3254      1.5125      0.0759
    10         C          2.4964      0.9446      0.4227
    11         H          0.4981      0.8356     -1.8006
    12         H         -1.0212     -1.7236      0.9987
    13         H         -1.3211     -1.9880     -0.7939
    14         H          3.2602     -0.5396     -0.9345
    15         H          3.4963     -0.9301      0.8110
    16         H         -3.4462      0.6971      1.1407
    17         H         -3.6422     -0.9906      0.5280
    18         H         -3.8379      0.4035     -0.6033
    19         H          1.1407      2.5578      0.3054
    20         H         -1.5218      2.0565     -0.4775
    21         H          1.5138     -2.3230      0.4640
    22         H          3.2432      1.5289      0.9512

  H: (PM3): J. J. P. STEWART, J. COMP. CHEM. 10, 209 (1989).
  C: (PM3): J. J. P. STEWART, J. COMP. CHEM. 10, 209 (1989).

           Empirical Formula: C10 H12  =    22 atoms



      MOLECULAR POINT GROUP   :   C1  


      RHF CALCULATION, NO. OF DOUBLY OCCUPIED LEVELS = 26


          Geometry optimization using EF

          DIAGONAL MATRIX USED AS START HESSIAN

 CYCLE:     1 TIME:   0.035 TIME LEFT:  2.00D  GRAD.:    86.757 HEAT:  35.47297
 CYCLE:     2 TIME:   0.051 TIME LEFT:  2.00D  GRAD.:    66.352 HEAT:  33.88321
 CYCLE:     3 TIME:   0.020 TIME LEFT:  2.00D  GRAD.:    46.091 HEAT:  32.95221
 CYCLE:     4 TIME:   0.031 TIME LEFT:  2.00D  GRAD.:    30.153 HEAT:  32.45040
 CYCLE:     5 TIME:   0.027 TIME LEFT:  2.00D  GRAD.:    50.289 HEAT:  32.35515
 CYCLE:     6 TIME:   0.023 TIME LEFT:  2.00D  GRAD.:    40.962 HEAT:  32.14667
 CYCLE:     7 TIME:   0.031 TIME LEFT:  2.00D  GRAD.:    21.629 HEAT:  31.75267
 CYCLE:     8 TIME:   0.035 TIME LEFT:  2.00D  GRAD.:    16.683 HEAT:  31.63165
 CYCLE:     9 TIME:   0.027 TIME LEFT:  2.00D  GRAD.:    16.400 HEAT:  31.53619
 CYCLE:    10 TIME:   0.020 TIME LEFT:  2.00D  GRAD.:    12.893 HEAT:  31.39429
 CYCLE:    11 TIME:   0.035 TIME LEFT:  2.00D  GRAD.:    18.307 HEAT:  31.32742
 CYCLE:    12 TIME:   0.023 TIME LEFT:  2.00D  GRAD.:     9.877 HEAT:  31.18418
 CYCLE:    13 TIME:   0.023 TIME LEFT:  2.00D  GRAD.:    14.081 HEAT:  31.11165
 CYCLE:    14 TIME:   0.023 TIME LEFT:  2.00D  GRAD.:    21.558 HEAT:  31.10413
 CYCLE:    15 TIME:   0.020 TIME LEFT:  2.00D  GRAD.:    16.520 HEAT:  31.00646
 CYCLE:    16 TIME:   0.023 TIME LEFT:  2.00D  GRAD.:    17.239 HEAT:  30.99367
 CYCLE:    17 TIME:   0.023 TIME LEFT:  2.00D  GRAD.:    15.149 HEAT:  30.94115
 CYCLE:    18 TIME:   0.031 TIME LEFT:  2.00D  GRAD.:    10.874 HEAT:  30.90497
 CYCLE:    19 TIME:   0.027 TIME LEFT:  2.00D  GRAD.:    11.690 HEAT:  30.89738
 CYCLE:    20 TIME:   0.023 TIME LEFT:  2.00D  GRAD.:    10.065 HEAT:  30.87225
 CYCLE:    21 TIME:   0.031 TIME LEFT:  2.00D  GRAD.:     5.606 HEAT:  30.84841
 CYCLE:    22 TIME:   0.031 TIME LEFT:  2.00D  GRAD.:     4.396 HEAT:  30.84044
 CYCLE:    23 TIME:   0.027 TIME LEFT:  2.00D  GRAD.:     3.394 HEAT:  30.83259
 CYCLE:    24 TIME:   0.023 TIME LEFT:  2.00D  GRAD.:     3.302 HEAT:  30.82230
 CYCLE:    25 TIME:   0.023 TIME LEFT:  2.00D  GRAD.:     2.948 HEAT:  30.80519
 CYCLE:    26 TIME:   0.023 TIME LEFT:  2.00D  GRAD.:     4.617 HEAT:  30.78063
 CYCLE:    27 TIME:   0.023 TIME LEFT:  2.00D  GRAD.:     4.101 HEAT:  30.75791
 CYCLE:    28 TIME:   0.020 TIME LEFT:  2.00D  GRAD.:     3.838 HEAT:  30.74340
 CYCLE:    29 TIME:   0.023 TIME LEFT:  2.00D  GRAD.:     3.854 HEAT:  30.72626
 CYCLE:    30 TIME:   0.023 TIME LEFT:  2.00D  GRAD.:     4.447 HEAT:  30.70126
 CYCLE:    31 TIME:   0.023 TIME LEFT:  2.00D  GRAD.:     3.040 HEAT:  30.68091
 CYCLE:    32 TIME:   0.023 TIME LEFT:  2.00D  GRAD.:     2.803 HEAT:  30.67408
 CYCLE:    33 TIME:   0.023 TIME LEFT:  2.00D  GRAD.:     3.865 HEAT:  30.66463
 CYCLE:    34 TIME:   0.020 TIME LEFT:  2.00D  GRAD.:     2.657 HEAT:  30.65492
 CYCLE:    35 TIME:   0.023 TIME LEFT:  2.00D  GRAD.:     2.805 HEAT:  30.65007
 CYCLE:    36 TIME:   0.023 TIME LEFT:  2.00D  GRAD.:     1.420 HEAT:  30.64644
 CYCLE:    37 TIME:   0.023 TIME LEFT:  2.00D  GRAD.:     1.035 HEAT:  30.64474
 CYCLE:    38 TIME:   0.023 TIME LEFT:  2.00D  GRAD.:     1.061 HEAT:  30.64236
 CYCLE:    39 TIME:   0.023 TIME LEFT:  2.00D  GRAD.:     1.227 HEAT:  30.64020
 CYCLE:    40 TIME:   0.023 TIME LEFT:  2.00D  GRAD.:     1.169 HEAT:  30.63808
 CYCLE:    41 TIME:   0.020 TIME LEFT:  2.00D  GRAD.:     0.950 HEAT:  30.63550
 CYCLE:    42 TIME:   0.023 TIME LEFT:  2.00D  GRAD.:     1.025 HEAT:  30.63252
 CYCLE:    43 TIME:   0.023 TIME LEFT:  2.00D  GRAD.:     0.934 HEAT:  30.63093
 CYCLE:    44 TIME:   0.023 TIME LEFT:  2.00D  GRAD.:     0.730 HEAT:  30.62940
 CYCLE:    45 TIME:   0.023 TIME LEFT:  2.00D  GRAD.:     0.622 HEAT:  30.62823
 CYCLE:    46 TIME:   0.023 TIME LEFT:  2.00D  GRAD.:     0.592 HEAT:  30.62735
 CYCLE:    47 TIME:   0.020 TIME LEFT:  2.00D  GRAD.:     0.565 HEAT:  30.62659
 CYCLE:    48 TIME:   0.023 TIME LEFT:  2.00D  GRAD.:     0.476 HEAT:  30.62594
 CYCLE:    49 TIME:   0.023 TIME LEFT:  2.00D  GRAD.:     0.410 HEAT:  30.62544
 CYCLE:    50 TIME:   0.023 TIME LEFT:  2.00D  GRAD.:     0.378 HEAT:  30.62508
 CYCLE:    51 TIME:   0.023 TIME LEFT:  2.00D  GRAD.:     0.363 HEAT:  30.62475
 CYCLE:    52 TIME:   0.023 TIME LEFT:  2.00D  GRAD.:     0.411 HEAT:  30.62432
 CYCLE:    53 TIME:   0.023 TIME LEFT:  2.00D  GRAD.:     0.434 HEAT:  30.62381
 CYCLE:    54 TIME:   0.020 TIME LEFT:  2.00D  GRAD.:     0.418 HEAT:  30.62331
 CYCLE:    55 TIME:   0.023 TIME LEFT:  2.00D  GRAD.:     0.453 HEAT:  30.62282
 CYCLE:    56 TIME:   0.023 TIME LEFT:  2.00D  GRAD.:     0.545 HEAT:  30.62221
 CYCLE:    57 TIME:   0.023 TIME LEFT:  2.00D  GRAD.:     0.689 HEAT:  30.62133
 CYCLE:    58 TIME:   0.023 TIME LEFT:  2.00D  GRAD.:     0.673 HEAT:  30.62019
 CYCLE:    59 TIME:   0.023 TIME LEFT:  2.00D  GRAD.:     0.480 HEAT:  30.61951
 CYCLE:    60 TIME:   0.023 TIME LEFT:  2.00D  GRAD.:     0.473 HEAT:  30.61888
 CYCLE:    61 TIME:   0.020 TIME LEFT:  2.00D  GRAD.:     0.383 HEAT:  30.61866
 CYCLE:    62 TIME:   0.023 TIME LEFT:  2.00D  GRAD.:     0.460 HEAT:  30.61794
 CYCLE:    63 TIME:   0.023 TIME LEFT:  2.00D  GRAD.:     0.354 HEAT:  30.61768
 CYCLE:    64 TIME:   0.023 TIME LEFT:  2.00D  GRAD.:     0.444 HEAT:  30.61695
 CYCLE:    65 TIME:   0.023 TIME LEFT:  2.00D  GRAD.:     0.420 HEAT:  30.61663
 CYCLE:    66 TIME:   0.023 TIME LEFT:  2.00D  GRAD.:     0.739 HEAT:  30.61516
 CYCLE:    67 TIME:   0.020 TIME LEFT:  2.00D  GRAD.:     0.606 HEAT:  30.61444
 CYCLE:    68 TIME:   0.031 TIME LEFT:  2.00D  GRAD.:     1.359 HEAT:  30.60932
 CYCLE:    69 TIME:   0.023 TIME LEFT:  2.00D  GRAD.:     1.694 HEAT:  30.60377
 CYCLE:    70 TIME:   0.031 TIME LEFT:  2.00D  GRAD.:     2.969 HEAT:  30.58430
 CYCLE:    71 TIME:   0.035 TIME LEFT:  2.00D  GRAD.:     4.876 HEAT:  30.57745
 CYCLE:    72 TIME:   0.047 TIME LEFT:  2.00D  GRAD.:     3.463 HEAT:  30.56218
 CYCLE:    73 TIME:   0.027 TIME LEFT:  2.00D  GRAD.:     1.684 HEAT:  30.55135
 CYCLE:    74 TIME:   0.023 TIME LEFT:  2.00D  GRAD.:     1.152 HEAT:  30.53919
 CYCLE:    75 TIME:   0.023 TIME LEFT:  2.00D  GRAD.:     1.667 HEAT:  30.52712
 CYCLE:    76 TIME:   0.023 TIME LEFT:  2.00D  GRAD.:     2.881 HEAT:  30.50705
 CYCLE:    77 TIME:   0.023 TIME LEFT:  2.00D  GRAD.:     7.275 HEAT:  30.50028
 CYCLE:    78 TIME:   0.031 TIME LEFT:  2.00D  GRAD.:     3.501 HEAT:  30.48715
 CYCLE:    79 TIME:   0.023 TIME LEFT:  2.00D  GRAD.:     1.669 HEAT:  30.46716
 CYCLE:    80 TIME:   0.023 TIME LEFT:  2.00D  GRAD.:     1.971 HEAT:  30.45366
 CYCLE:    81 TIME:   0.023 TIME LEFT:  2.00D  GRAD.:     1.892 HEAT:  30.43863
 CYCLE:    82 TIME:   0.023 TIME LEFT:  2.00D  GRAD.:     2.717 HEAT:  30.42347
 CYCLE:    83 TIME:   0.023 TIME LEFT:  2.00D  GRAD.:     3.053 HEAT:  30.39682
 CYCLE:    84 TIME:   0.031 TIME LEFT:  2.00D  GRAD.:     3.494 HEAT:  30.36948
 CYCLE:    85 TIME:   0.066 TIME LEFT:  2.00D  GRAD.:     3.124 HEAT:  30.36331
 CYCLE:    86 TIME:   0.027 TIME LEFT:  2.00D  GRAD.:     2.799 HEAT:  30.33438
 CYCLE:    87 TIME:   0.031 TIME LEFT:  2.00D  GRAD.:     4.341 HEAT:  30.31715
 CYCLE:    88 TIME:   0.023 TIME LEFT:  2.00D  GRAD.:     4.681 HEAT:  30.27992
 CYCLE:    89 TIME:   0.023 TIME LEFT:  2.00D  GRAD.:     3.245 HEAT:  30.26246
 CYCLE:    90 TIME:   0.023 TIME LEFT:  2.00D  GRAD.:     2.633 HEAT:  30.25297
 CYCLE:    91 TIME:   0.023 TIME LEFT:  2.00D  GRAD.:     4.773 HEAT:  30.24398
 CYCLE:    92 TIME:   0.023 TIME LEFT:  2.00D  GRAD.:     3.069 HEAT:  30.23214
 CYCLE:    93 TIME:   0.023 TIME LEFT:  2.00D  GRAD.:     2.193 HEAT:  30.22052
 CYCLE:    94 TIME:   0.023 TIME LEFT:  2.00D  GRAD.:     3.426 HEAT:  30.20737
 CYCLE:    95 TIME:   0.020 TIME LEFT:  2.00D  GRAD.:     4.342 HEAT:  30.20198
 CYCLE:    96 TIME:   0.023 TIME LEFT:  2.00D  GRAD.:     2.693 HEAT:  30.19755
 CYCLE:    97 TIME:   0.023 TIME LEFT:  2.00D  GRAD.:     1.144 HEAT:  30.18953
 CYCLE:    98 TIME:   0.023 TIME LEFT:  2.00D  GRAD.:     1.831 HEAT:  30.18662
 CYCLE:    99 TIME:   0.023 TIME LEFT:  2.00D  GRAD.:     1.777 HEAT:  30.18369
 CYCLE:   100 TIME:   0.023 TIME LEFT:  2.00D  GRAD.:     1.212 HEAT:  30.17978
 CYCLE:   101 TIME:   0.023 TIME LEFT:  2.00D  GRAD.:     1.244 HEAT:  30.17844
 CYCLE:   102 TIME:   0.020 TIME LEFT:  2.00D  GRAD.:     0.901 HEAT:  30.17684
 CYCLE:   103 TIME:   0.023 TIME LEFT:  2.00D  GRAD.:     0.660 HEAT:  30.17495
 CYCLE:   104 TIME:   0.023 TIME LEFT:  2.00D  GRAD.:     0.635 HEAT:  30.17417
 CYCLE:   105 TIME:   0.023 TIME LEFT:  2.00D  GRAD.:     0.544 HEAT:  30.17307
 CYCLE:   106 TIME:   0.023 TIME LEFT:  2.00D  GRAD.:     0.817 HEAT:  30.17256
 CYCLE:   107 TIME:   0.023 TIME LEFT:  2.00D  GRAD.:     0.559 HEAT:  30.17217
 CYCLE:   108 TIME:   0.023 TIME LEFT:  2.00D  GRAD.:     0.320 HEAT:  30.17192
 CYCLE:   109 TIME:   0.031 TIME LEFT:  2.00D  GRAD.:     0.257 HEAT:  30.17175
 CYCLE:   110 TIME:   0.023 TIME LEFT:  2.00D  GRAD.:     0.204 HEAT:  30.17155
 CYCLE:   111 TIME:   0.023 TIME LEFT:  2.00D  GRAD.:     0.167 HEAT:  30.17149
 CYCLE:   112 TIME:   0.023 TIME LEFT:  2.00D  GRAD.:     0.129 HEAT:  30.17142
 CYCLE:   113 TIME:   0.023 TIME LEFT:  2.00D  GRAD.:     0.112 HEAT:  30.17139
 CYCLE:   114 TIME:   0.023 TIME LEFT:  2.00D  GRAD.:     0.131 HEAT:  30.17135
 CYCLE:   115 TIME:   0.020 TIME LEFT:  2.00D  GRAD.:     0.073 HEAT:  30.17132
 CYCLE:   116 TIME:   0.023 TIME LEFT:  2.00D  GRAD.:     0.057 HEAT:  30.17131
 CYCLE:   117 TIME:   0.023 TIME LEFT:  2.00D  GRAD.:     0.051 HEAT:  30.17130
 CYCLE:   118 TIME:   0.023 TIME LEFT:  2.00D  GRAD.:     0.037 HEAT:  30.17129

     GRADIENT =  0.03734  IS LESS THAN CUTOFF =  0.05000



 -------------------------------------------------------------------------------
 pm3  precise nosym THREADS=1
 InChI=1S/C10H12/c1-8-6-9-4-2-3-5-10(9)7-8/h2,4-6,9H,3,7H2,1H3



     GEOMETRY OPTIMISED USING EIGENVECTOR FOLLOWING (EF).     
     SCF FIELD WAS ACHIEVED                                   


                              PM3 CALCULATION
                                                       MOPAC2016 (Version: 18.184L)
                                                       Thu Jun 13 16:06:59 2019
                                                       No. of days remaining =  20




          FINAL HEAT OF FORMATION =         30.17129 KCAL/MOL =     126.23669 KJ/MOL


          TOTAL ENERGY            =      -1369.08795 EV
          ELECTRONIC ENERGY       =      -7489.58446 EV  POINT GROUP:     C1  
          CORE-CORE REPULSION     =       6120.49651 EV
          COSMO AREA              =        178.94 SQUARE ANGSTROMS
          COSMO VOLUME            =        180.58 CUBIC ANGSTROMS

          GRADIENT NORM           =          0.03734 = 0.00796 PER ATOM
          IONIZATION POTENTIAL    =          9.111585 EV
          HOMO LUMO ENERGIES (EV) =         -9.112  0.967
          NO. OF FILLED LEVELS    =         26
          MOLECULAR WEIGHT        =        132.2048

          MOLECULAR DIMENSIONS (Angstroms)

            Atom       Atom       Distance
            H    22    H    18     7.60506
            H    21    H    20     5.19780
            H    17    H    11     3.61468


          SCF CALCULATIONS        =        141
 
          WALL-CLOCK TIME         =          3.020 SECONDS
          COMPUTATION TIME        =          1.359 SECONDS




   ATOM   CHEMICAL          X               Y               Z
  NUMBER   SYMBOL      (ANGSTROMS)     (ANGSTROMS)     (ANGSTROMS)
 
     1       C          0.30611855  *   0.75147724  *  -0.61510167  *
     2       C         -1.02509456  *  -1.23957329  *  -0.12848725  *
     3       C          2.78557202  *  -0.52051682  *   0.08156736  *
     4       C         -3.29074217  *  -0.03517511  *   0.26455753  *
     5       C          0.37220842  *  -0.71376626  *  -0.25396631  *
     6       C         -1.85215270  *   0.02009801  *  -0.04652971  *
     7       C         -1.11316846  *   1.11855651  *  -0.28122566  *
     8       C          1.52271322  *  -1.31374200  *   0.05283901  *
     9       C          1.38115417  *   1.52029174  *   0.07017375  *
    10       C          2.53971592  *   0.92452888  *   0.36737319  *
    11       H          0.45533050  *   0.87585103  *  -1.71778484  *
    12       H         -1.15551038  *  -1.87505988  *   0.76661292  *
    13       H         -1.31446939  *  -1.85406906  *  -1.00174180  *
    14       H          3.31010212  *  -0.61575539  *  -0.89157240  *
    15       H          3.47136268  *  -0.94157950  *   0.84227158  *
    16       H         -3.73969370  *   0.96527619  *   0.30772162  *
    17       H         -3.45963828  *  -0.52283861  *   1.23417156  *
    18       H         -3.83007273  *  -0.61430748  *  -0.49712754  *
    19       H          1.18447101  *   2.57276277  *   0.29494095  *
    20       H         -1.45128021  *   2.15394582  *  -0.26422311  *
    21       H          1.57297055  *  -2.37056321  *   0.33046829  *
    22       H          3.35863291  *   1.47743922  *   0.83852791  *

                             CARTESIAN COORDINATES

   1    C        0.306118555     0.751477236    -0.615101668
   2    C       -1.025094562    -1.239573291    -0.128487245
   3    C        2.785572018    -0.520516818     0.081567358
   4    C       -3.290742173    -0.035175115     0.264557531
   5    C        0.372208423    -0.713766257    -0.253966310
   6    C       -1.852152701     0.020098008    -0.046529711
   7    C       -1.113168459     1.118556514    -0.281225662
   8    C        1.522713216    -1.313741997     0.052839007
   9    C        1.381154168     1.520291743     0.070173750
  10    C        2.539715919     0.924528881     0.367373186
  11    H        0.455330497     0.875851026    -1.717784840
  12    H       -1.155510383    -1.875059881     0.766612924
  13    H       -1.314469390    -1.854069064    -1.001741803
  14    H        3.310102115    -0.615755390    -0.891572396
  15    H        3.471362682    -0.941579505     0.842271584
  16    H       -3.739693696     0.965276194     0.307721616
  17    H       -3.459638278    -0.522838609     1.234171557
  18    H       -3.830072726    -0.614307485    -0.497127538
  19    H        1.184471014     2.572762770     0.294940946
  20    H       -1.451280205     2.153945818    -0.264223110
  21    H        1.572970547    -2.370563206     0.330468292
  22    H        3.358632915     1.477439217     0.838527910


           Empirical Formula: C10 H12  =    22 atoms



      MOLECULAR POINT GROUP   :   C1  


                  EIGENVALUES  
 -41.63516 -35.99961 -30.83534 -30.30058 -26.11901 -25.09834 -21.47307 -19.99650
 -18.54715 -17.06425 -16.39725 -15.92296 -15.86273 -14.93992 -14.66455 -14.36159
 -14.01226 -13.42553 -13.26813 -13.09297 -12.68438 -12.47369 -11.64829 -10.04050
  -9.74083  -9.11159   0.96664   1.00100   1.20896   3.20149   3.31790   3.45274
   3.56888   3.61387   3.80165   3.92723   3.98937   4.19114   4.25811   4.33422
   4.38043   4.43243   4.53066   4.61562   4.66478   4.80372   5.33986   5.45061
   5.58036   5.98815   6.13011   6.19907


              NET ATOMIC CHARGES AND DIPOLE CONTRIBUTIONS

  ATOM NO.   TYPE          CHARGE      No. of ELECS.   s-Pop       p-Pop       
    1          C           0.026214        3.9738     1.14330     2.83048
    2          C          -0.004228        4.0042     1.13638     2.86785
    3          C          -0.017792        4.0178     1.13300     2.88479
    4          C          -0.051491        4.0515     1.11760     2.93389
    5          C          -0.129902        4.1299     1.20681     2.92309
    6          C          -0.133537        4.1335     1.20570     2.92784
    7          C          -0.149052        4.1491     1.20091     2.94814
    8          C          -0.144617        4.1446     1.18846     2.95616
    9          C          -0.133231        4.1332     1.19283     2.94040
   10          C          -0.151366        4.1514     1.19584     2.95553
   11          H           0.082699        0.9173     0.91730
   12          H           0.062713        0.9373     0.93729
   13          H           0.063918        0.9361     0.93608
   14          H           0.062929        0.9371     0.93707
   15          H           0.055347        0.9447     0.94465
   16          H           0.042867        0.9571     0.95713
   17          H           0.045895        0.9541     0.95410
   18          H           0.044702        0.9553     0.95530
   19          H           0.105381        0.8946     0.89462
   20          H           0.116918        0.8831     0.88308
   21          H           0.105611        0.8944     0.89439
   22          H           0.100021        0.9000     0.89998
 DIPOLE           X         Y         Z       TOTAL
 POINT-CHG.    -0.207    -0.180    -0.111     0.295
 HYBRID         0.010     0.003     0.021     0.023
 SUM           -0.197    -0.177    -0.090     0.279


          ATOMIC ORBITAL ELECTRON POPULATIONS

     Atom    s        px        py        pz   
    1  C   1.14330   0.92273   0.92029   0.98746
    2  C   1.13638   0.91070   0.94867   1.00848
    3  C   1.13300   0.95291   0.92727   1.00461
    4  C   1.11760   0.92253   1.01009   1.00127
    5  C   1.20681   0.95328   0.96190   1.00791
    6  C   1.20570   0.96040   0.95926   1.00817
    7  C   1.20091   0.95272   0.97306   1.02236
    8  C   1.18846   0.94861   0.98664   1.02091
    9  C   1.19283   0.95335   0.98556   1.00148
   10  C   1.19584   0.97790   0.96510   1.01253
   11  H   0.91730
   12  H   0.93729
   13  H   0.93608
   14  H   0.93707
   15  H   0.94465
   16  H   0.95713
   17  H   0.95410
   18  H   0.95530
   19  H   0.89462
   20  H   0.88308
   21  H   0.89439
   22  H   0.89998
 *******************************************************************************
 ** Site#: 14399        For non-commercial use only    Version 18.184L 64BITS **
 *******************************************************************************
 ** Cite this program as: MOPAC2016, Version: 18.184L, James J. P. Stewart,   **
 ** Stewart Computational Chemistry, web: HTTP://OpenMOPAC.net. Days left:  20**
 *******************************************************************************
 **                                                                           **
 **                                MOPAC2016                                  **
 **                                                                           **
 *******************************************************************************

                              PM3 CALCULATION RESULTS

 *******************************************************************************
 *  CALCULATION DONE:                                Thu Jun 13 16:06:59 2019  *
 *  PM3        - The PM3 Hamiltonian to be used
 *  OLDGEO     - PREVIOUS GEOMETRY TO BE USED
 *  PRECISE    - CRITERIA TO BE INCREASED BY 100 TIMES
 *  NOSYM      - POINT-GROUP SYMMETRY SET TO C1
 *  THREADS=1  - MULTI-THREADING NOT USED
 *  T=         - A TIME OF 172800.0 SECONDS REQUESTED
 *  DUMP=N     - RESTART FILE WRITTEN EVERY  7200.000 SECONDS
 *  THERMO     - THERMODYNAMIC QUANTITIES TO BE CALCULATED
 *******************************************************************************
oldgeo thermo nosym precise THREADS=1  pm3
 InChI=1S/C10H12/c1-8-6-9-4-2-3-5-10(9)7-8/h2,4-6,9H,3,7H2,1H3

   ATOM   CHEMICAL          X               Y               Z
  NUMBER   SYMBOL      (ANGSTROMS)     (ANGSTROMS)     (ANGSTROMS)
 
     1       C          0.30611855  *   0.75147724  *  -0.61510167  *
     2       C         -1.02509456  *  -1.23957329  *  -0.12848725  *
     3       C          2.78557202  *  -0.52051682  *   0.08156736  *
     4       C         -3.29074217  *  -0.03517511  *   0.26455753  *
     5       C          0.37220842  *  -0.71376626  *  -0.25396631  *
     6       C         -1.85215270  *   0.02009801  *  -0.04652971  *
     7       C         -1.11316846  *   1.11855651  *  -0.28122566  *
     8       C          1.52271322  *  -1.31374200  *   0.05283901  *
     9       C          1.38115417  *   1.52029174  *   0.07017375  *
    10       C          2.53971592  *   0.92452888  *   0.36737319  *
    11       H          0.45533050  *   0.87585103  *  -1.71778484  *
    12       H         -1.15551038  *  -1.87505988  *   0.76661292  *
    13       H         -1.31446939  *  -1.85406906  *  -1.00174180  *
    14       H          3.31010212  *  -0.61575539  *  -0.89157240  *
    15       H          3.47136268  *  -0.94157950  *   0.84227158  *
    16       H         -3.73969370  *   0.96527619  *   0.30772162  *
    17       H         -3.45963828  *  -0.52283861  *   1.23417156  *
    18       H         -3.83007273  *  -0.61430748  *  -0.49712754  *
    19       H          1.18447101  *   2.57276277  *   0.29494095  *
    20       H         -1.45128021  *   2.15394582  *  -0.26422311  *
    21       H          1.57297055  *  -2.37056321  *   0.33046829  *
    22       H          3.35863291  *   1.47743922  *   0.83852791  *
 


          CARTESIAN COORDINATES 

    NO.       ATOM           X           Y           Z

     1         C          0.3061      0.7515     -0.6151
     2         C         -1.0251     -1.2396     -0.1285
     3         C          2.7856     -0.5205      0.0816
     4         C         -3.2907     -0.0352      0.2646
     5         C          0.3722     -0.7138     -0.2540
     6         C         -1.8522      0.0201     -0.0465
     7         C         -1.1132      1.1186     -0.2812
     8         C          1.5227     -1.3137      0.0528
     9         C          1.3812      1.5203      0.0702
    10         C          2.5397      0.9245      0.3674
    11         H          0.4553      0.8759     -1.7178
    12         H         -1.1555     -1.8751      0.7666
    13         H         -1.3145     -1.8541     -1.0017
    14         H          3.3101     -0.6158     -0.8916
    15         H          3.4714     -0.9416      0.8423
    16         H         -3.7397      0.9653      0.3077
    17         H         -3.4596     -0.5228      1.2342
    18         H         -3.8301     -0.6143     -0.4971
    19         H          1.1845      2.5728      0.2949
    20         H         -1.4513      2.1539     -0.2642
    21         H          1.5730     -2.3706      0.3305
    22         H          3.3586      1.4774      0.8385

  H: (PM3): J. J. P. STEWART, J. COMP. CHEM. 10, 209 (1989).
  C: (PM3): J. J. P. STEWART, J. COMP. CHEM. 10, 209 (1989).

           Empirical Formula: C10 H12  =    22 atoms



      MOLECULAR POINT GROUP   :   C1  


      RHF CALCULATION, NO. OF DOUBLY OCCUPIED LEVELS = 26



          HEAT OF FORMATION =      30.171294 KCALS/MOLE


          CARTESIAN COORDINATE DERIVATIVES

   NUMBER  ATOM         X            Y            Z

     1       C     -0.004774     0.004282    -0.004441
     2       C      0.000035     0.001217    -0.003656
     3       C     -0.001631    -0.008022    -0.000060
     4       C      0.002845    -0.003585    -0.011640
     5       C     -0.000812     0.004923    -0.008562
     6       C     -0.006256    -0.004641     0.001136
     7       C      0.002814     0.001670    -0.007453
     8       C      0.000608     0.001495     0.004364
     9       C     -0.006261    -0.003318    -0.001162
    10       C      0.002050    -0.003566     0.003018
    11       H     -0.005377    -0.005174     0.002444
    12       H      0.002542    -0.003621     0.004023
    13       H      0.003833    -0.003070    -0.000846
    14       H     -0.005160     0.001826    -0.000067
    15       H     -0.000194    -0.000778     0.000974
    16       H      0.002261    -0.004232     0.013033
    17       H     -0.002973    -0.002654     0.003171
    18       H      0.006798     0.001998     0.002013
    19       H     -0.008523     0.003271     0.005244
    20       H      0.007968     0.008045    -0.002296
    21       H      0.004791     0.008303     0.003783
    22       H      0.005415     0.005633    -0.003019
 


          GRADIENT NORM =   0.03837


          TIME FOR SCF CALCULATION =    0.03

          TIME FOR DERIVATIVES     =    0.01

          MOLECULAR WEIGHT =  132.20



          ROTATIONAL CONSTANTS IN CM(-1)

          A =    0.10860386   B =    0.03219009   C =    0.02618944



           PRINCIPAL MOMENTS OF INERTIA IN UNITS OF 10**(-40)*GRAM-CM**2

          A =      257.7512   B =      869.6084   C =     1068.8572


          ORIENTATION OF MOLECULE IN FORCE CALCULATION

    NO.       ATOM         X         Y         Z

     1          C      -0.7858   -0.3550   -0.3440
     2          C       1.6582   -0.3550   -0.3440
     3          C      -0.9614    2.5121   -0.3440
     4          C       1.9893   -2.7329    0.6430
     5          C       0.4438    0.5152   -0.4558
     6          C       1.0988   -1.6435    0.2078
     7          C      -0.2453   -1.6311    0.2393
     8          C       0.3670    1.8462   -0.4743
     9          C      -1.8613    0.3342    0.4207
    10          C      -1.9478    1.6674    0.3934
    11          H      -1.1880   -0.5737   -1.3658
    12          H       2.4251    0.0786    0.3237
    13          H       2.1425   -0.5152   -1.3257
    14          H      -1.3633    2.7468   -1.3513
    15          H      -0.8404    3.4842    0.1724
    16          H       1.4274   -3.5889    1.0378
    17          H       2.6716   -2.3852    1.4305
    18          H       2.6032   -3.0899   -0.1949
    19          H      -2.5668   -0.2914    0.9754
    20          H      -0.9013   -2.4189    0.6077
    21          H       1.2558    2.4804   -0.5390
    22          H      -2.7505    2.1956    0.9179


    FIRST DERIVATIVES WILL BE USED IN THE CALCULATION OF SECOND DERIVATIVES

          ESTIMATED TIME TO COMPLETE CALCULATION =       10.31 SECONDS

    FOR POINT-GROUP C1   THERE ARE   1 UNIQUE SYMMETRY FUNCTIONS.

 STEP:   1 TIME =     0.05 SECS, INTEGRAL =      0.05 TIME LEFT: 172799.91
 STEP:   2 TIME =     0.05 SECS, INTEGRAL =      0.11 TIME LEFT: 172799.86
 STEP:   3 TIME =     0.05 SECS, INTEGRAL =      0.16 TIME LEFT: 172799.80
 STEP:   4 TIME =     0.05 SECS, INTEGRAL =      0.21 TIME LEFT: 172799.75
 STEP:   5 TIME =     0.05 SECS, INTEGRAL =      0.26 TIME LEFT: 172799.70
 STEP:   6 TIME =     0.05 SECS, INTEGRAL =      0.31 TIME LEFT: 172799.65
 STEP:   7 TIME =     0.05 SECS, INTEGRAL =      0.36 TIME LEFT: 172799.60
 STEP:   8 TIME =     0.05 SECS, INTEGRAL =      0.41 TIME LEFT: 172799.55
 STEP:   9 TIME =     0.05 SECS, INTEGRAL =      0.46 TIME LEFT: 172799.50
 STEP:  10 TIME =     0.05 SECS, INTEGRAL =      0.51 TIME LEFT: 172799.45
 STEP:  11 TIME =     0.05 SECS, INTEGRAL =      0.56 TIME LEFT: 172799.40
 STEP:  12 TIME =     0.05 SECS, INTEGRAL =      0.61 TIME LEFT: 172799.35
 STEP:  13 TIME =     0.05 SECS, INTEGRAL =      0.66 TIME LEFT: 172799.30
 STEP:  14 TIME =     0.05 SECS, INTEGRAL =      0.71 TIME LEFT: 172799.25
 STEP:  15 TIME =     0.05 SECS, INTEGRAL =      0.77 TIME LEFT: 172799.20
 STEP:  16 TIME =     0.05 SECS, INTEGRAL =      0.82 TIME LEFT: 172799.14
 STEP:  17 TIME =     0.05 SECS, INTEGRAL =      0.87 TIME LEFT: 172799.09
 STEP:  18 TIME =     0.05 SECS, INTEGRAL =      0.92 TIME LEFT: 172799.04
 STEP:  19 TIME =     0.05 SECS, INTEGRAL =      0.97 TIME LEFT: 172798.99
 STEP:  20 TIME =     0.05 SECS, INTEGRAL =      1.03 TIME LEFT: 172798.93
 STEP:  21 TIME =     0.05 SECS, INTEGRAL =      1.08 TIME LEFT: 172798.88
 STEP:  22 TIME =     0.05 SECS, INTEGRAL =      1.13 TIME LEFT: 172798.83
 STEP:  23 TIME =     0.05 SECS, INTEGRAL =      1.18 TIME LEFT: 172798.78
 STEP:  24 TIME =     0.05 SECS, INTEGRAL =      1.24 TIME LEFT: 172798.72
 STEP:  25 TIME =     0.05 SECS, INTEGRAL =      1.29 TIME LEFT: 172798.67
 STEP:  26 TIME =     0.05 SECS, INTEGRAL =      1.34 TIME LEFT: 172798.62
 STEP:  27 TIME =     0.05 SECS, INTEGRAL =      1.39 TIME LEFT: 172798.57
 STEP:  28 TIME =     0.05 SECS, INTEGRAL =      1.44 TIME LEFT: 172798.52
 STEP:  29 TIME =     0.05 SECS, INTEGRAL =      1.49 TIME LEFT: 172798.47
 STEP:  30 TIME =     0.05 SECS, INTEGRAL =      1.54 TIME LEFT: 172798.42
 STEP:  31 TIME =     0.05 SECS, INTEGRAL =      1.59 TIME LEFT: 172798.37
 STEP:  32 TIME =     0.05 SECS, INTEGRAL =      1.65 TIME LEFT: 172798.31
 STEP:  33 TIME =     0.05 SECS, INTEGRAL =      1.70 TIME LEFT: 172798.26
 STEP:  34 TIME =     0.05 SECS, INTEGRAL =      1.75 TIME LEFT: 172798.21
 STEP:  35 TIME =     0.05 SECS, INTEGRAL =      1.80 TIME LEFT: 172798.16
 STEP:  36 TIME =     0.05 SECS, INTEGRAL =      1.86 TIME LEFT: 172798.11
 STEP:  37 TIME =     0.05 SECS, INTEGRAL =      1.91 TIME LEFT: 172798.05
 STEP:  38 TIME =     0.05 SECS, INTEGRAL =      1.96 TIME LEFT: 172798.00
 STEP:  39 TIME =     0.05 SECS, INTEGRAL =      2.01 TIME LEFT: 172797.95
 STEP:  40 TIME =     0.05 SECS, INTEGRAL =      2.06 TIME LEFT: 172797.90
 STEP:  41 TIME =     0.05 SECS, INTEGRAL =      2.11 TIME LEFT: 172797.85
 STEP:  42 TIME =     0.05 SECS, INTEGRAL =      2.16 TIME LEFT: 172797.80
 STEP:  43 TIME =     0.05 SECS, INTEGRAL =      2.22 TIME LEFT: 172797.74
 STEP:  44 TIME =     0.05 SECS, INTEGRAL =      2.27 TIME LEFT: 172797.69
 STEP:  45 TIME =     0.05 SECS, INTEGRAL =      2.32 TIME LEFT: 172797.64
 STEP:  46 TIME =     0.05 SECS, INTEGRAL =      2.38 TIME LEFT: 172797.59
 STEP:  47 TIME =     0.05 SECS, INTEGRAL =      2.43 TIME LEFT: 172797.54
 STEP:  48 TIME =     0.05 SECS, INTEGRAL =      2.48 TIME LEFT: 172797.48
 STEP:  49 TIME =     0.05 SECS, INTEGRAL =      2.53 TIME LEFT: 172797.43
 STEP:  50 TIME =     0.05 SECS, INTEGRAL =      2.58 TIME LEFT: 172797.38
 STEP:  51 TIME =     0.05 SECS, INTEGRAL =      2.63 TIME LEFT: 172797.33
 STEP:  52 TIME =     0.05 SECS, INTEGRAL =      2.69 TIME LEFT: 172797.27
 STEP:  53 TIME =     0.05 SECS, INTEGRAL =      2.74 TIME LEFT: 172797.22
 STEP:  54 TIME =     0.05 SECS, INTEGRAL =      2.79 TIME LEFT: 172797.17
 STEP:  55 TIME =     0.05 SECS, INTEGRAL =      2.84 TIME LEFT: 172797.12
 STEP:  56 TIME =     0.05 SECS, INTEGRAL =      2.89 TIME LEFT: 172797.07
 STEP:  57 TIME =     0.05 SECS, INTEGRAL =      2.95 TIME LEFT: 172797.02
 STEP:  58 TIME =     0.05 SECS, INTEGRAL =      3.00 TIME LEFT: 172796.96
 STEP:  59 TIME =     0.05 SECS, INTEGRAL =      3.05 TIME LEFT: 172796.91
 STEP:  60 TIME =     0.05 SECS, INTEGRAL =      3.10 TIME LEFT: 172796.86
 STEP:  61 TIME =     0.05 SECS, INTEGRAL =      3.15 TIME LEFT: 172796.81
 STEP:  62 TIME =     0.05 SECS, INTEGRAL =      3.21 TIME LEFT: 172796.75
 STEP:  63 TIME =     0.05 SECS, INTEGRAL =      3.26 TIME LEFT: 172796.70
 STEP:  64 TIME =     0.05 SECS, INTEGRAL =      3.31 TIME LEFT: 172796.65
 STEP:  65 TIME =     0.05 SECS, INTEGRAL =      3.36 TIME LEFT: 172796.60
 STEP:  66 TIME =     0.05 SECS, INTEGRAL =      3.41 TIME LEFT: 172796.55

(To convert to Hartree/Bohr^2, multiply by (10^(-21) x N x a0^2)/(4.184 x 627.51) =  0.0642)


           FORCE MATRIX IN MILLIDYNES/ANGSTROM


                  C  1       C  2       C  3       C  4       C  5       C  6
 ------------------------------------------------------------------------------
     C    1  15.550611
     C    2   0.757568  14.884411
     C    3   0.196025   0.122104  14.911986
     C    4   0.124053   0.506088   0.002632  14.858720
     C    5   4.152387   4.579131   0.930811   0.050404  19.222370
     C    6   1.181767   4.256233   0.010371   5.454745   1.051708  18.755283
     C    7   4.430313   1.112889   0.010652   0.717151   1.014828  10.133801
     C    8   0.787952   0.651241   4.797950   0.008912  10.576862   0.051539
     C    9   4.861726   0.046939   0.855848   0.017706   0.735778   0.041807
     C   10   0.920211   0.005914   4.744364   0.003650   0.102492   0.009228
     H   11   4.103213   0.018537   0.018497   0.017194   0.414382   0.032673
     H   12   0.038663   4.515603   0.009083   0.013168   0.442098   0.441338
     H   13   0.021635   4.478368   0.015528   0.009759   0.428224   0.437163
     H   14   0.020147   0.016614   4.366621   0.000488   0.026692   0.001800
     H   15   0.012320   0.012350   4.472087   0.000630   0.047419   0.001893
     H   16   0.003052   0.042022   0.000500   4.751353   0.007735   0.471319
     H   17   0.016077   0.015183   0.000418   4.703746   0.002224   0.449650
     H   18   0.017047   0.012903   0.000296   4.702938   0.002374   0.449594
     H   19   0.436349   0.005662   0.116445   0.000717   0.038822   0.002737
     H   20   0.411311   0.104245   0.001159   0.054711   0.040692   0.458569
     H   21   0.110473   0.066198   0.429291   0.001203   0.462682   0.003752
     H   22   0.114950   0.002066   0.427782   0.000857   0.005890   0.001868


                  C  7       C  8       C  9       C 10       H 11       H 12
 ------------------------------------------------------------------------------
     C    7  18.208408
     C    8   0.050176  18.202207
     C    9   0.592640   0.083672  18.177567
     C   10   0.049174   0.747944  10.558170  18.048208
     H   11   0.401374   0.024579   0.399019   0.030668   4.560188
     H   12   0.037242   0.016557   0.004079   0.001178   0.001545   5.113763
     H   13   0.033190   0.022513   0.003226   0.001195   0.001736   0.550960
     H   14   0.002803   0.420571   0.027656   0.420088   0.007626   0.001444
     H   15   0.001451   0.425656   0.046646   0.427928   0.002120   0.000841
     H   16   0.027026   0.001872   0.000782   0.000396   0.000498   0.001468
     H   17   0.032981   0.000761   0.003076   0.001026   0.002078   0.007617
     H   18   0.030763   0.001084   0.001912   0.000291   0.002902   0.001021
     H   19   0.016605   0.005873   4.877802   0.447855   0.012749   0.000836
     H   20   5.027594   0.006447   0.011347   0.002691   0.010186   0.013132
     H   21   0.010316   4.882249   0.008487   0.040242   0.014070   0.008545
     H   22   0.012096   0.040438   0.445820   4.858475   0.014766   0.000216


                  H 13       H 14       H 15       H 16       H 17       H 18
 ------------------------------------------------------------------------------
     H   13   5.079109
     H   14   0.002399   4.961384
     H   15   0.001472   0.563606   5.047070
     H   16   0.001232   0.000147   0.000161   5.455477
     H   17   0.001175   0.000090   0.000100   0.557346   5.412868
     H   18   0.003979   0.000106   0.000079   0.558015   0.570304   5.412261
     H   19   0.000441   0.015882   0.011390   0.000274   0.000222   0.000217
     H   20   0.014524   0.000422   0.000268   0.012475   0.006668   0.006779
     H   21   0.009469   0.012494   0.035817   0.000282   0.000172   0.000214
     H   22   0.000124   0.013272   0.036828   0.000133   0.000226   0.000138


                  H 19       H 20       H 21       H 22
 ------------------------------------------------------
     H   19   5.256660
     H   20   0.007617   5.428430
     H   21   0.001966   0.001569   5.260120
     H   22   0.064710   0.000523   0.005268   5.232367


          HEAT OF FORMATION =      30.171294 KCALS/MOLE

          ZERO POINT ENERGY     118.929 KCAL/MOL


           NORMAL COORDINATE ANALYSIS (Total motion = 1 Angstrom)


   Root No.       1         2         3         4         5         6         7         8

                 1 A       2 A       3 A       4 A       5 A       6 A       7 A       8 A   

                 105.1     133.0     152.7     238.1     269.2     327.1     415.2     440.9
  
           1    0.0052    0.0030    0.0004    0.0054   -0.0226    0.0064    0.0182    0.0119
           2    0.0066   -0.0007   -0.0050    0.0109   -0.0108    0.0056    0.0220    0.0116
           3    0.0211    0.0045    0.0237    0.0066    0.0038    0.0328    0.0081   -0.0165
           4    0.0070    0.0018   -0.0027    0.0013   -0.0210    0.0047    0.0004   -0.0040
           5    0.0124    0.0005   -0.0074   -0.0143   -0.0087   -0.0028   -0.0240   -0.0164
           6    0.0476    0.0027   -0.0138   -0.0408    0.0168   -0.0062    0.0019    0.0022
           7   -0.0169    0.0016    0.0106   -0.0119    0.0216   -0.0019   -0.0096   -0.0029
           8   -0.0083    0.0029    0.0094   -0.0140    0.0055    0.0136   -0.0092   -0.0058
           9   -0.0464    0.0043    0.0098   -0.0286   -0.0097    0.0094    0.0018    0.0058
          10   -0.0024    0.0034    0.0166   -0.0045    0.0486   -0.0011    0.0135    0.0001
          11   -0.0275   -0.0072   -0.0091    0.0025    0.0397   -0.0089    0.0073    0.0145
          12   -0.0452   -0.0144   -0.0320    0.0113   -0.0083    0.0184   -0.0020   -0.0112
          13    0.0055    0.0016   -0.0026    0.0109   -0.0184    0.0043    0.0262    0.0165
          14    0.0068    0.0013   -0.0039    0.0074   -0.0159    0.0042    0.0167    0.0059
          15    0.0253    0.0083    0.0107    0.0234    0.0117    0.0228    0.0411   -0.0169
          16    0.0020    0.0033    0.0060    0.0009   -0.0190    0.0100   -0.0190   -0.0262
          17   -0.0045    0.0007   -0.0014   -0.0052   -0.0158   -0.0176   -0.0182    0.0102
          18    0.0027    0.0050    0.0090   -0.0184   -0.0067   -0.0313    0.0018    0.0440
          19    0.0020    0.0034    0.0066    0.0012   -0.0203    0.0096   -0.0184   -0.0249
          20   -0.0028    0.0038    0.0084    0.0044   -0.0276   -0.0193    0.0025    0.0062
          21    0.0010    0.0143    0.0499   -0.0045   -0.0199   -0.0290   -0.0007   -0.0043
          22   -0.0052    0.0014    0.0034    0.0092    0.0105   -0.0080    0.0036    0.0064
          23    0.0059    0.0013   -0.0039    0.0077   -0.0151    0.0033    0.0150    0.0062
          24   -0.0076    0.0114    0.0112    0.0587    0.0165   -0.0189   -0.0315    0.0011
          25    0.0082   -0.0093   -0.0218    0.0031   -0.0082    0.0061   -0.0174    0.0359
          26    0.0086   -0.0002    0.0073    0.0031    0.0159    0.0088   -0.0067   -0.0119
          27    0.0238   -0.0140   -0.0209    0.0114    0.0050    0.0301   -0.0231    0.0280
          28   -0.0033   -0.0106   -0.0202   -0.0107    0.0110   -0.0267    0.0016   -0.0150
          29    0.0076   -0.0004    0.0071    0.0020    0.0184    0.0062   -0.0056   -0.0185
          30   -0.0088   -0.0163   -0.0354   -0.0083   -0.0081   -0.0326    0.0222   -0.0249
          31    0.0030    0.0141    0.0164    0.0078   -0.0314   -0.0077    0.0672   -0.0058
          32    0.0175   -0.0097   -0.0364    0.0261    0.0035    0.0348    0.0489    0.0316
          33    0.0192    0.0018    0.0234    0.0024    0.0043    0.0309   -0.0181   -0.0132
          34   -0.0202    0.0055    0.0173    0.0546   -0.0331    0.0117    0.0463    0.0239
          35    0.0039   -0.0008   -0.0072   -0.0347   -0.0129   -0.0200   -0.0634   -0.0122
          36    0.0846   -0.0006   -0.0372   -0.0901    0.0343   -0.0033   -0.0265   -0.0339
          37    0.0431   -0.0033   -0.0301   -0.0670   -0.0043   -0.0055   -0.0482   -0.0296
          38    0.0391    0.0017   -0.0154   -0.0226    0.0060    0.0213   -0.0356   -0.0789
          39    0.0611    0.0000   -0.0261   -0.0738    0.0225   -0.0151   -0.0210   -0.0012
          40   -0.0169    0.0146    0.0351    0.0209    0.0364    0.0110   -0.0429    0.0164
          41   -0.0673    0.0157    0.0510   -0.1068   -0.0054    0.0901   -0.0261    0.0431
          42   -0.0602    0.0021    0.0098   -0.0640   -0.0182    0.0228    0.0107    0.0104
          43   -0.0373   -0.0012    0.0175   -0.0657    0.0248    0.0204   -0.0064   -0.0085
          44    0.0200   -0.0033   -0.0100    0.0299    0.0117   -0.0225   -0.0019   -0.0306
          45   -0.0955    0.0167    0.0454   -0.1008   -0.0226    0.0746   -0.0131    0.0554
          46   -0.0058    0.0126    0.0239   -0.0100    0.1147   -0.0147    0.0514    0.0354
          47   -0.0382    0.0826   -0.0478    0.0094    0.0112    0.0089   -0.0112   -0.0142
          48   -0.0732    0.1937   -0.1058    0.0186    0.0211    0.0385    0.0094   -0.0258
          49    0.0082    0.1733   -0.0164   -0.0189    0.0460   -0.0213    0.0104    0.0263
          50   -0.0641    0.0402   -0.0449    0.0190    0.1007    0.0195    0.0393   -0.0022
          51   -0.0385   -0.1828    0.0123    0.0168   -0.0321    0.0238   -0.0127   -0.0269
          52   -0.0137   -0.1763    0.0516    0.0106    0.0533    0.0200    0.0187   -0.0268
          53   -0.0001   -0.1575    0.0603   -0.0127    0.0664   -0.0454    0.0277    0.0661
          54   -0.0652   -0.0823   -0.0361    0.0292   -0.0166    0.0501   -0.0072   -0.0540
          55    0.0230   -0.0185   -0.0459    0.0164   -0.0177    0.0140   -0.0405    0.0889
          56    0.0143   -0.0003    0.0144    0.0011    0.0351    0.0166   -0.0243   -0.0232
          57    0.0486   -0.0258   -0.0434    0.0258    0.0141    0.0486   -0.0725    0.0828
          58    0.0002    0.0041    0.0117   -0.0009   -0.0195    0.0125   -0.0413   -0.0485
          59   -0.0114    0.0076    0.0189    0.0124   -0.0388   -0.0331    0.0182    0.0099
          60   -0.0207    0.0236    0.0810    0.0089   -0.0435   -0.0531   -0.0086   -0.0384
          61   -0.0116    0.0020    0.0077    0.0057    0.0267   -0.0138   -0.0189   -0.0010
          62    0.0142    0.0010   -0.0103    0.0174   -0.0357    0.0062    0.0372    0.0185
          63   -0.0101    0.0157    0.0050    0.1124    0.0364   -0.0742   -0.1197    0.0179
          64    0.0008   -0.0214   -0.0444   -0.0110    0.0176   -0.0668    0.0148   -0.0453
          65    0.0162   -0.0020    0.0089    0.0069    0.0327    0.0056   -0.0070   -0.0304
          66   -0.0117   -0.0310   -0.0737   -0.0146   -0.0122   -0.0924    0.0433   -0.0595


   Root No.       9        10        11        12        13        14        15        16

                 9 A      10 A      11 A      12 A      13 A      14 A      15 A      16 A   

                 472.3     492.8     533.1     639.3     683.1     760.3     799.5     839.5
  
           1   -0.0029   -0.0168    0.0096   -0.0058    0.0286   -0.0014    0.0073    0.0143
           2   -0.0152   -0.0001   -0.0308    0.0204   -0.0147    0.0082   -0.0074    0.0025
           3   -0.0032    0.0233   -0.0051    0.0111    0.0408    0.0285    0.0073   -0.0004
           4   -0.0135    0.0052   -0.0357   -0.0452    0.0036    0.0205   -0.0105   -0.0202
           5    0.0029    0.0270    0.0193    0.0014   -0.0009   -0.0123    0.0040    0.0177
           6   -0.0062   -0.0054    0.0012   -0.0008   -0.0082   -0.0015   -0.0081    0.0201
           7   -0.0073    0.0340    0.0061    0.0140   -0.0052   -0.0116    0.0040    0.0002
           8    0.0279   -0.0367    0.0294   -0.0050    0.0119    0.0134   -0.0177   -0.0356
           9   -0.0066   -0.0013   -0.0142    0.0044    0.0102   -0.0289    0.0128   -0.0105
          10    0.0105   -0.0270   -0.0175    0.0287   -0.0199   -0.0029   -0.0023   -0.0009
          11   -0.0237    0.0257    0.0093   -0.0368    0.0187    0.0029    0.0012   -0.0016
          12    0.0066   -0.0098   -0.0041    0.0145   -0.0068   -0.0021   -0.0013   -0.0073
          13   -0.0173   -0.0057   -0.0231   -0.0187    0.0131    0.0158    0.0029   -0.0025
          14    0.0036   -0.0042    0.0254    0.0367    0.0064    0.0040    0.0100    0.0032
          15    0.0190    0.0243    0.0385   -0.0410   -0.0336   -0.0161   -0.0110    0.0003
          16    0.0196    0.0014   -0.0143    0.0081   -0.0144   -0.0029   -0.0012   -0.0001
          17    0.0106    0.0439   -0.0037   -0.0269    0.0076   -0.0002    0.0009   -0.0039
          18    0.0531    0.0096   -0.0235    0.0098    0.0003   -0.0013   -0.0001   -0.0091
          19    0.0157    0.0004   -0.0100    0.0079   -0.0099   -0.0016   -0.0001    0.0007
          20   -0.0264    0.0011   -0.0205    0.0081   -0.0402    0.0031   -0.0206   -0.0047
          21   -0.0259   -0.0153    0.0268   -0.0057    0.0102    0.0019    0.0142    0.0121
          22   -0.0182    0.0361    0.0021    0.0383   -0.0027   -0.0077    0.0243    0.0113
          23    0.0053   -0.0090    0.0293    0.0467    0.0117    0.0061    0.0133   -0.0032
          24   -0.0001   -0.0113    0.0002   -0.0074    0.0036   -0.0010    0.0072   -0.0266
          25    0.0024   -0.0334    0.0333   -0.0249    0.0175   -0.0363   -0.0093    0.0174
          26    0.0115   -0.0240   -0.0321   -0.0196    0.0041   -0.0163    0.0121    0.0159
          27   -0.0135    0.0171   -0.0059    0.0181   -0.0070    0.0043   -0.0267   -0.0088
          28    0.0131    0.0100    0.0483    0.0070    0.0072    0.0168   -0.0372   -0.0180
          29    0.0153   -0.0222   -0.0315   -0.0185    0.0036   -0.0136    0.0112    0.0118
          30    0.0045   -0.0069   -0.0244   -0.0029    0.0088   -0.0135   -0.0077    0.0175
          31    0.0055   -0.0139    0.0461   -0.0366    0.0140   -0.0061    0.0531    0.0263
          32   -0.0083    0.0238   -0.0453    0.0145   -0.0452   -0.0037   -0.0527   -0.0272
          33   -0.0079    0.0163   -0.0157    0.0239    0.0515    0.0328   -0.0009    0.0013
          34    0.0550    0.0324   -0.0192   -0.0764   -0.0188    0.0229   -0.0369    0.0322
          35    0.0323    0.0422   -0.0098    0.0263    0.0043   -0.0237    0.0156    0.0160
          36   -0.1081   -0.0472    0.0005    0.0187    0.0153    0.0037    0.0158   -0.0425
          37   -0.1133   -0.0359   -0.0651   -0.0170    0.0460    0.0373    0.0230   -0.1106
          38   -0.0559    0.0145    0.0634   -0.0015   -0.0320   -0.0418    0.0021    0.0273
          39   -0.0482   -0.0249   -0.0205    0.0148    0.0181    0.0112    0.0095   -0.0280
          40   -0.0164    0.0390    0.0070    0.0099   -0.0238   -0.0093    0.0585   -0.0429
          41    0.0258   -0.0436    0.0621   -0.0511   -0.0579    0.1324   -0.0366    0.0344
          42   -0.0035   -0.0052   -0.0061   -0.0059   -0.0006    0.0004   -0.0131    0.0256
          43    0.0004    0.0288   -0.0161   -0.0413   -0.0341    0.0089   -0.0207    0.0665
          44    0.0307   -0.0361    0.0129    0.0129    0.0454   -0.0380   -0.0120   -0.0744
          45   -0.0134   -0.0022    0.0237   -0.0185   -0.0485    0.0696    0.0059    0.0477
          46   -0.0051   -0.0550   -0.0232    0.0383   -0.0188    0.0060   -0.0106   -0.0110
          47   -0.0272    0.0361    0.0168   -0.0419    0.0193    0.0009    0.0075    0.0133
          48   -0.0215   -0.0259    0.0050    0.0182   -0.0040    0.0052    0.0015    0.0114
          49    0.0416   -0.0142   -0.0327    0.0296   -0.0238   -0.0089   -0.0080   -0.0272
          50   -0.0851   -0.0110    0.0283   -0.0365    0.0284    0.0200    0.0037    0.0323
          51    0.0055   -0.0057    0.0007    0.0141   -0.0082   -0.0040    0.0025    0.0013
          52   -0.0218   -0.0445   -0.0044    0.0345   -0.0214    0.0033    0.0020    0.0255
          53   -0.0049    0.0239   -0.0062   -0.0406    0.0219    0.0038   -0.0092   -0.0334
          54   -0.0259   -0.0217    0.0129    0.0199   -0.0087    0.0022    0.0067    0.0268
          55   -0.0085   -0.0602    0.0532   -0.0570   -0.0660   -0.0302    0.1186    0.0199
          56    0.0242   -0.0146   -0.0144   -0.0233   -0.0002    0.0048    0.0152   -0.0119
          57   -0.0131   -0.0076    0.0396   -0.0273   -0.1174    0.0361    0.1393   -0.0377
          58    0.0215    0.0237   -0.0025   -0.0163   -0.0005   -0.0010    0.0126   -0.0060
          59   -0.0746   -0.0410    0.0009    0.0171   -0.0855   -0.0290   -0.0662   -0.0208
          60   -0.1185   -0.0639    0.0856   -0.0288   -0.0697   -0.0650   -0.0601   -0.0347
          61   -0.0111    0.0409    0.0118    0.0386   -0.0092   -0.0075    0.0054    0.0257
          62   -0.0052   -0.0215    0.0141    0.0494    0.0231    0.0216    0.0299   -0.0016
          63   -0.0085   -0.0603   -0.0144    0.0262    0.0207    0.1422   -0.0938    0.1830
          64    0.0274    0.0083    0.0586   -0.0178   -0.0569    0.1178    0.0686   -0.0259
          65    0.0082    0.0099   -0.0535   -0.0028   -0.0191    0.0089    0.0186    0.0210
          66    0.0339   -0.0418    0.0139   -0.0565   -0.0668    0.1193    0.1474   -0.0040


   Root No.      17        18        19        20        21        22        23        24

                17 A      18 A      19 A      20 A      21 A      22 A      23 A      24 A   

                 879.2     890.6     935.0     945.5     954.0     980.8    1000.0    1006.5
  
           1   -0.0066   -0.0214   -0.0077    0.0174   -0.0093   -0.0012    0.0002    0.0140
           2   -0.0178   -0.0153   -0.0038    0.0117   -0.0127    0.0012    0.0005    0.0088
           3   -0.0034   -0.0157   -0.0094    0.0234   -0.0091    0.0039   -0.0051    0.0216
           4    0.0079    0.0216    0.0023    0.0051    0.0292   -0.0020   -0.0137   -0.0221
           5   -0.0042   -0.0061   -0.0142    0.0185    0.0299   -0.0064   -0.0199   -0.0110
           6    0.0013    0.0337   -0.0228    0.0037   -0.0143    0.0079   -0.0059    0.0195
           7   -0.0034    0.0020    0.0015    0.0119   -0.0024    0.0029   -0.0014   -0.0010
           8   -0.0053    0.0171    0.0080    0.0215   -0.0124    0.0110    0.0110   -0.0196
           9   -0.0020    0.0163    0.0057    0.0212   -0.0042    0.0079   -0.0113    0.0019
          10   -0.0024   -0.0037    0.0018   -0.0053   -0.0165   -0.0066   -0.0275   -0.0167
          11    0.0118   -0.0005    0.0056   -0.0084   -0.0298    0.0066   -0.0044    0.0110
          12    0.0129   -0.0144    0.0098    0.0033    0.0152    0.0142   -0.0081    0.0124
          13    0.0119    0.0057   -0.0005   -0.0033    0.0060   -0.0042   -0.0105   -0.0043
          14    0.0133    0.0052    0.0018   -0.0098    0.0054   -0.0024    0.0010    0.0002
          15   -0.0022   -0.0074    0.0190   -0.0079    0.0011    0.0019    0.0134   -0.0129
          16    0.0008    0.0017    0.0012   -0.0038   -0.0105    0.0030    0.0131    0.0103
          17    0.0052   -0.0005    0.0020   -0.0045   -0.0080   -0.0046    0.0041   -0.0085
          18    0.0034   -0.0097    0.0005    0.0011    0.0032   -0.0102    0.0083   -0.0154
          19    0.0003    0.0043    0.0016   -0.0061   -0.0118    0.0082    0.0263    0.0226
          20   -0.0488    0.0045    0.0065   -0.0057   -0.0046    0.0156    0.0057    0.0205
          21   -0.0313    0.0066    0.0136   -0.0122    0.0057   -0.0002   -0.0064   -0.0209
          22    0.0200    0.0092    0.0052   -0.0121    0.0031    0.0070    0.0132   -0.0162
          23    0.0214    0.0138    0.0037   -0.0155    0.0083   -0.0018    0.0033   -0.0054
          24   -0.0148   -0.0116   -0.0201   -0.0199    0.0057   -0.0125   -0.0045    0.0172
          25   -0.0123   -0.0153   -0.0129   -0.0127   -0.0007    0.0178    0.0022   -0.0063
          26    0.0072   -0.0042   -0.0027   -0.0101    0.0047   -0.0009   -0.0025    0.0036
          27    0.0038    0.0007   -0.0066   -0.0099    0.0017    0.0035    0.0072   -0.0215
          28   -0.0152    0.0002    0.0050   -0.0043    0.0057   -0.0210   -0.0163    0.0265
          29    0.0098   -0.0014    0.0005   -0.0066    0.0036   -0.0041    0.0015    0.0008
          30    0.0063   -0.0002    0.0093   -0.0104    0.0040   -0.0120    0.0107   -0.0002
          31   -0.0233   -0.0572    0.0397    0.0663   -0.0330   -0.1010    0.0421    0.0204
          32    0.0156   -0.0782   -0.0178    0.0694   -0.0561   -0.0485    0.0175   -0.0920
          33   -0.0024    0.0130   -0.0247   -0.0095    0.0101    0.0537   -0.0252    0.0398
          34    0.0240    0.1090   -0.0344    0.0129    0.0356    0.0304   -0.0621   -0.0060
          35   -0.0422   -0.0414   -0.0674    0.0708    0.0442   -0.0848    0.0290   -0.0215
          36    0.0082   -0.0467    0.0571   -0.0404   -0.0295    0.0206    0.0184    0.0041
          37    0.0086   -0.0622    0.0610   -0.0256    0.0197   -0.0443    0.0415   -0.0632
          38   -0.0087   -0.0837    0.0633    0.0187    0.1022    0.0660   -0.0892   -0.0457
          39    0.0019    0.0017   -0.0046   -0.0123   -0.0314   -0.0249    0.0343    0.0050
          40   -0.0249   -0.0233   -0.0728    0.0002   -0.0075    0.0407    0.0053   -0.0452
          41    0.0144   -0.0499   -0.0215   -0.0696    0.0137   -0.0223    0.0322   -0.0125
          42    0.0119    0.0093    0.0280    0.0026    0.0046   -0.0154   -0.0087    0.0215
          43   -0.0037   -0.0382    0.0123    0.0065   -0.0019   -0.0238    0.0148    0.0222
          44   -0.0152    0.0501    0.0223    0.0686   -0.0279    0.0287    0.0074   -0.0314
          45    0.0180   -0.0379   -0.0245   -0.0696    0.0262   -0.0214   -0.0081    0.0188
          46   -0.0185   -0.0021   -0.0077    0.0442    0.1591    0.0175    0.0665    0.0216
          47   -0.0004    0.0143   -0.0006   -0.0353   -0.1274   -0.0210   -0.0444   -0.0231
          48   -0.0356    0.0193   -0.0167    0.0132    0.0464   -0.0140    0.0316   -0.0126
          49    0.0513   -0.0465    0.0339   -0.0050   -0.0061    0.0340   -0.0604    0.0181
          50   -0.0824    0.0689   -0.0503    0.0247    0.0710   -0.0343    0.1230   -0.0026
          51    0.0052   -0.0064    0.0057   -0.0112   -0.0363   -0.0044   -0.0352   -0.0139
          52   -0.0624    0.0399   -0.0322   -0.0027   -0.0146   -0.0525   -0.0048   -0.0657
          53    0.0566   -0.0376    0.0301    0.0227    0.0847    0.0691    0.0532    0.0945
          54   -0.0520    0.0348   -0.0264   -0.0086   -0.0342   -0.0473   -0.0147   -0.0599
          55   -0.0201    0.0170    0.0464    0.0570   -0.0198   -0.0126    0.0069    0.0385
          56    0.0265    0.0205    0.0086   -0.0222    0.0302   -0.0393   -0.0448    0.0402
          57    0.0161    0.0707    0.0817    0.0660    0.0057   -0.0771   -0.0333    0.0744
          58    0.0517    0.0364    0.0122   -0.0393   -0.0168    0.0087    0.1021    0.0195
          59    0.0402   -0.0277   -0.0466    0.0520   -0.0129   -0.0028   -0.0371    0.0384
          60    0.2519   -0.0043   -0.0812    0.0524   -0.0184   -0.0402    0.0316    0.0067
          61    0.0061    0.0066    0.0213    0.0342   -0.0223    0.0317    0.0439   -0.0419
          62    0.0517    0.0203   -0.0070   -0.0709    0.0423   -0.0338   -0.0377    0.0236
          63    0.0707    0.0062    0.0925    0.0830   -0.0215    0.0166    0.0119   -0.0381
          64    0.0013   -0.0297   -0.0519    0.0080   -0.0048    0.0265   -0.0227    0.0001
          65    0.0287   -0.0067   -0.0007   -0.0226    0.0211   -0.0462   -0.0145    0.0261
          66    0.0149   -0.0396   -0.0760    0.0233   -0.0288    0.1019    0.0174   -0.0668


   Root No.      25        26        27        28        29        30        31        32

                25 A      26 A      27 A      28 A      29 A      30 A      31 A      32 A   

                1024.9    1035.9    1051.1    1058.3    1064.1    1091.5    1143.7    1164.2
  
           1    0.0060   -0.0022   -0.0017   -0.0012   -0.0103    0.0014    0.0103   -0.0165
           2   -0.0004   -0.0000    0.0106    0.0047   -0.0009    0.0002    0.0077    0.0223
           3   -0.0094   -0.0115    0.0032    0.0135   -0.0049   -0.0094   -0.0072    0.0164
           4    0.0042   -0.0089   -0.0019   -0.0018    0.0080   -0.0030    0.0041    0.0028
           5    0.0065   -0.0046    0.0046   -0.0043    0.0066    0.0022   -0.0016    0.0090
           6    0.0139    0.0065    0.0104   -0.0075    0.0073   -0.0053   -0.0009   -0.0027
           7    0.0029    0.0042   -0.0032   -0.0006   -0.0041    0.0212   -0.0031    0.0035
           8    0.0174   -0.0126    0.0057   -0.0059   -0.0030   -0.0013    0.0008   -0.0063
           9   -0.0209    0.0212   -0.0154   -0.0013    0.0026    0.0070    0.0065    0.0019
          10    0.0009   -0.0072   -0.0015   -0.0004    0.0040    0.0010   -0.0016    0.0139
          11    0.0051   -0.0004   -0.0008   -0.0027    0.0056   -0.0003    0.0022   -0.0117
          12    0.0101    0.0004    0.0045   -0.0064    0.0197    0.0025   -0.0011    0.0042
          13    0.0009    0.0024    0.0041    0.0002   -0.0041    0.0072   -0.0054   -0.0017
          14    0.0008    0.0003   -0.0029   -0.0004   -0.0018    0.0114   -0.0030    0.0001
          15   -0.0212   -0.0105   -0.0188    0.0110    0.0140    0.0130    0.0049   -0.0014
          16   -0.0020    0.0047   -0.0003    0.0010   -0.0032   -0.0024    0.0008   -0.0227
          17   -0.0069    0.0012   -0.0009    0.0056   -0.0143   -0.0020   -0.0024    0.0153
          18   -0.0144   -0.0013   -0.0075    0.0123   -0.0382   -0.0052    0.0014   -0.0023
          19   -0.0017    0.0091   -0.0001    0.0008   -0.0061   -0.0012    0.0013   -0.0287
          20   -0.0058   -0.0016   -0.0118   -0.0001    0.0044   -0.0033   -0.0100    0.0166
          21    0.0083    0.0145    0.0209   -0.0081    0.0199    0.0058    0.0043   -0.0178
          22   -0.0034   -0.0207    0.0081   -0.0108    0.0063   -0.0282   -0.0031   -0.0068
          23   -0.0007   -0.0026   -0.0019   -0.0017    0.0019    0.0060   -0.0002   -0.0051
          24    0.0073   -0.0101    0.0209   -0.0190   -0.0105   -0.0029   -0.0026    0.0014
          25   -0.0205    0.0026   -0.0058   -0.0015    0.0082   -0.0032   -0.0070    0.0093
          26   -0.0110    0.0044   -0.0036    0.0030    0.0051   -0.0112    0.0002    0.0078
          27    0.0187    0.0126   -0.0213   -0.0310   -0.0033    0.0040    0.0032   -0.0013
          28   -0.0107    0.0102    0.0038    0.0168    0.0038   -0.0088    0.0052    0.0116
          29    0.0021    0.0016   -0.0025    0.0009    0.0004   -0.0020    0.0065    0.0005
          30    0.0329   -0.0180    0.0086    0.0261    0.0003   -0.0041   -0.0040   -0.0102
          31    0.1388    0.0687   -0.1173   -0.1141   -0.0085   -0.0817   -0.0453    0.0804
          32   -0.0444    0.1271    0.1976    0.0256    0.0523   -0.0221   -0.0176   -0.0960
          33   -0.0523   -0.0665    0.0094    0.0536   -0.0171    0.0289    0.0205    0.0024
          34    0.0492    0.0116    0.0277   -0.0160   -0.0135   -0.0208    0.0025    0.0202
          35   -0.0359   -0.0648   -0.0275   -0.0152    0.1568    0.0311    0.0075   -0.0307
          36   -0.0120    0.0211   -0.0035    0.0167   -0.0662   -0.0036   -0.0045    0.0036
          37   -0.0480   -0.0384   -0.0444    0.0160    0.0354    0.0276    0.0078    0.0138
          38    0.0243    0.0352    0.0384    0.0166   -0.1561   -0.0594    0.0046   -0.0160
          39   -0.0162   -0.0143   -0.0168   -0.0013    0.0458    0.0201   -0.0003    0.0062
          40    0.1491    0.0695   -0.0797    0.2037    0.0261    0.0530   -0.0461   -0.0178
          41    0.0695   -0.0529    0.0361    0.0156   -0.0038   -0.0251   -0.0081   -0.0211
          42   -0.0671   -0.0149    0.0224   -0.0774   -0.0093   -0.0119    0.0209    0.0075
          43    0.0215   -0.0521    0.0572   -0.0999   -0.0744    0.2006   -0.1761   -0.0125
          44    0.0112   -0.0029   -0.0036   -0.0202   -0.0099    0.0259   -0.0049   -0.0128
          45   -0.0105    0.0155   -0.0113    0.0484    0.0310   -0.0843    0.0610    0.0154
          46   -0.0047    0.0160    0.0102    0.0008    0.0018    0.0017   -0.0075    0.0411
          47   -0.0027   -0.0127   -0.0110    0.0033   -0.0130   -0.0031    0.0059   -0.0300
          48   -0.0145    0.0055   -0.0005    0.0081   -0.0227   -0.0018   -0.0020    0.0117
          49    0.0306   -0.0095    0.0083   -0.0184    0.0588    0.0074   -0.0047    0.0354
          50   -0.0443    0.0218   -0.0099    0.0256   -0.0816   -0.0117    0.0057   -0.0600
          51    0.0051   -0.0075   -0.0002   -0.0025    0.0088    0.0018   -0.0004    0.0108
          52   -0.0306   -0.0088   -0.0112    0.0187   -0.0497   -0.0043   -0.0040    0.0383
          53    0.0287    0.0202    0.0135   -0.0185    0.0476    0.0024    0.0035   -0.0516
          54   -0.0241   -0.0092   -0.0090    0.0149   -0.0398   -0.0029   -0.0029    0.0355
          55    0.0114   -0.0616    0.0693    0.0679   -0.0086    0.0494    0.0990    0.0519
          56   -0.0690    0.0620   -0.0519   -0.0150    0.0207   -0.1008   -0.1738   -0.0741
          57   -0.0030   -0.0069    0.0204    0.0370   -0.0080   -0.0282   -0.0583   -0.0396
          58   -0.0047    0.0806    0.0779    0.0060    0.0101    0.0137   -0.0069    0.1817
          59   -0.0158   -0.0693   -0.0832    0.0093   -0.0362   -0.0195   -0.0045   -0.1172
          60   -0.0177   -0.0057    0.0067    0.0210   -0.0371   -0.0014    0.0026    0.0700
          61    0.0150   -0.0603    0.0181   -0.0324    0.0068   -0.0981    0.0464   -0.0026
          62   -0.0310    0.0564   -0.0241    0.0350    0.0049    0.1105   -0.0730   -0.0121
          63   -0.0410    0.0338   -0.0621    0.0501    0.0268    0.0333   -0.0076    0.0042
          64   -0.0494    0.0555   -0.0338   -0.0637   -0.0124    0.0392    0.1158   -0.0079
          65    0.0231    0.0505   -0.0337   -0.0528   -0.0296    0.0766    0.2555   -0.0548
          66   -0.0461    0.0030   -0.0195   -0.0443    0.0058   -0.0122   -0.0816    0.0123


   Root No.      33        34        35        36        37        38        39        40

                33 A      34 A      35 A      36 A      37 A      38 A      39 A      40 A   

                1171.5    1202.5    1276.7    1285.3    1343.6    1361.6    1377.2    1390.5
  
           1   -0.0030   -0.0238    0.0158   -0.0050    0.0151    0.0222   -0.0292    0.0003
           2    0.0085   -0.0141    0.0000   -0.0341    0.0236    0.0348    0.0231    0.0003
           3   -0.0061    0.0186   -0.0108    0.0296   -0.0059   -0.0138    0.0001   -0.0002
           4   -0.0062    0.0086   -0.0296    0.0053   -0.0084   -0.0039    0.0098    0.0015
           5   -0.0221    0.0032    0.0358   -0.0120    0.0230   -0.0308   -0.0076    0.0010
           6    0.0083    0.0015   -0.0089    0.0053   -0.0059    0.0122    0.0014   -0.0003
           7    0.0011    0.0114    0.0067   -0.0161    0.0117    0.0095   -0.0327    0.0007
           8    0.0162    0.0006    0.0128    0.0069   -0.0042   -0.0025   -0.0433    0.0001
           9   -0.0016   -0.0045   -0.0034    0.0029   -0.0010   -0.0021    0.0309   -0.0003
          10   -0.0013   -0.0026   -0.0045    0.0015    0.0144   -0.0270   -0.0009   -0.0052
          11    0.0090   -0.0018   -0.0060    0.0009   -0.0087    0.0192   -0.0020   -0.0205
          12   -0.0039    0.0007    0.0030   -0.0003    0.0031   -0.0071    0.0007   -0.0377
          13    0.0265   -0.0298    0.0342   -0.0132   -0.0206   -0.0346    0.0051   -0.0008
          14   -0.0197   -0.0126   -0.0169   -0.0095   -0.0081   -0.0040    0.0049   -0.0000
          15    0.0001   -0.0058    0.0068   -0.0038    0.0032    0.0018   -0.0007   -0.0000
          16    0.0003    0.0101    0.0005   -0.0103   -0.0046    0.0056    0.0103   -0.0001
          17   -0.0141    0.0064    0.0267    0.0083   -0.0213    0.0190    0.0097   -0.0015
          18    0.0069   -0.0023   -0.0127   -0.0028    0.0090   -0.0075   -0.0037   -0.0004
          19    0.0006    0.0074    0.0001   -0.0126   -0.0029    0.0077    0.0054   -0.0005
          20    0.0030   -0.0006   -0.0044    0.0367   -0.0008   -0.0226   -0.0221   -0.0001
          21   -0.0028   -0.0007    0.0036   -0.0159   -0.0002    0.0091    0.0076   -0.0002
          22    0.0169    0.0163    0.0127    0.0243    0.0061    0.0004    0.0039   -0.0001
          23   -0.0148   -0.0028   -0.0306    0.0012   -0.0117   -0.0009    0.0064    0.0001
          24   -0.0013    0.0013   -0.0015   -0.0018   -0.0002    0.0003   -0.0025    0.0000
          25   -0.0100    0.0034   -0.0094    0.0300    0.0039   -0.0019    0.0033    0.0001
          26   -0.0000    0.0103   -0.0057   -0.0182   -0.0058   -0.0030    0.0135   -0.0002
          27    0.0089    0.0001    0.0055   -0.0231   -0.0027    0.0014   -0.0007   -0.0001
          28    0.0011    0.0038   -0.0075   -0.0208   -0.0074   -0.0027    0.0237   -0.0003
          29    0.0025    0.0108   -0.0005   -0.0162   -0.0072   -0.0044    0.0005   -0.0002
          30   -0.0019   -0.0055    0.0055    0.0174    0.0052    0.0017   -0.0165    0.0002
          31    0.0064    0.0772   -0.0330    0.0225   -0.0110   -0.0176    0.0224   -0.0002
          32   -0.0460    0.0556   -0.0170    0.0591   -0.0220   -0.0267   -0.0219    0.0001
          33    0.0024   -0.0375    0.0134   -0.0033    0.0139    0.0153   -0.0104    0.0000
          34   -0.0700    0.0457   -0.0527    0.0012    0.0828    0.0668   -0.0364   -0.0031
          35    0.1576   -0.0679   -0.0738    0.0201   -0.0516    0.0149    0.0129    0.0013
          36   -0.0369    0.0063    0.0816   -0.0112   -0.0530   -0.0874    0.0365    0.0037
          37   -0.0613    0.0208   -0.0604   -0.0067    0.0922    0.0830   -0.0466   -0.0051
          38    0.1324   -0.0290   -0.1066    0.0268   -0.0056    0.0613   -0.0086   -0.0037
          39   -0.0433    0.0117    0.0039   -0.0071    0.0422    0.0318   -0.0227   -0.0025
          40   -0.0313   -0.0454   -0.0308    0.0251   -0.0141   -0.0072    0.0518   -0.0007
          41    0.0260    0.0017    0.0565    0.0810    0.0784    0.0208    0.2047   -0.0001
          42    0.0120    0.0183    0.0179   -0.0010    0.0221    0.0081    0.0356    0.0003
          43   -0.0584   -0.0391   -0.0815    0.0145   -0.0489   -0.0157   -0.0029   -0.0008
          44    0.0306   -0.0023    0.0418    0.0487    0.0409    0.0096    0.0945   -0.0001
          45   -0.0095    0.0143   -0.0277   -0.0709   -0.0588   -0.0155   -0.2018    0.0004
          46   -0.0397    0.0091    0.0746    0.0299   -0.0758    0.1011    0.0072   -0.0073
          47    0.0312   -0.0072   -0.0539   -0.0172    0.0463   -0.0590   -0.0058    0.1788
          48   -0.0124    0.0034    0.0202    0.0058   -0.0153    0.0193    0.0038    0.3818
          49   -0.0117   -0.0037    0.0269    0.0267   -0.0476    0.0748   -0.0081   -0.0526
          50    0.0138    0.0116   -0.0434   -0.0395    0.0632   -0.0947    0.0079   -0.1856
          51    0.0008   -0.0042   -0.0023   -0.0003    0.0159   -0.0307    0.0020    0.1109
          52   -0.0119   -0.0027    0.0278    0.0274   -0.0504    0.0795   -0.0077    0.1235
          53    0.0085    0.0104   -0.0280   -0.0273    0.0347   -0.0470    0.0054    0.2579
          54   -0.0096   -0.0045    0.0309    0.0269   -0.0540    0.0853   -0.0066   -0.0332
          55    0.0086    0.0777   -0.0246   -0.0171   -0.0243   -0.0239    0.0271   -0.0004
          56   -0.0371   -0.1218    0.0220    0.0678    0.0449    0.0371   -0.0299    0.0008
          57   -0.0075   -0.0523    0.0189    0.0124    0.0169    0.0168   -0.0221    0.0004
          58    0.0488   -0.0887   -0.0227    0.0400    0.0418   -0.0221   -0.0434    0.0014
          59   -0.0293    0.0671    0.0111    0.0014   -0.0310   -0.0000    0.0126   -0.0011
          60    0.0135   -0.0254   -0.0063   -0.0006    0.0144    0.0020   -0.0017    0.0014
          61   -0.0775   -0.0874   -0.0435   -0.0120   -0.0323   -0.0235    0.0388   -0.0005
          62    0.1197    0.1448    0.0478    0.0553    0.0411    0.0314   -0.0434    0.0006
          63    0.0026    0.0074    0.0025    0.0041    0.0014   -0.0019    0.0017    0.0000
          64   -0.0135   -0.0216   -0.0046    0.0484    0.0017   -0.0025    0.0133   -0.0002
          65   -0.0306   -0.0553    0.0098    0.1530    0.0123   -0.0064   -0.0256    0.0001
          66    0.0095    0.0206    0.0022   -0.0438   -0.0005    0.0036   -0.0120    0.0001


   Root No.      41        42        43        44        45        46        47        48

                41 A      42 A      43 A      44 A      45 A      46 A      47 A      48 A   

                1392.0    1393.5    1398.6    1451.1    1487.1    1853.3    1869.5    1932.8
  
           1   -0.0055    0.0164    0.0115    0.0558    0.0733   -0.0194   -0.0009   -0.0064
           2   -0.0210    0.0134   -0.0433   -0.0312   -0.0344    0.0158    0.0094   -0.0221
           3    0.0033   -0.0043    0.0024   -0.0135   -0.0144    0.0063    0.0048    0.0001
           4   -0.0227    0.0488   -0.0057    0.0144   -0.0050    0.0105   -0.0103    0.0197
           5    0.0086   -0.0028   -0.0106    0.0276   -0.0437   -0.0053    0.0043   -0.0227
           6   -0.0003   -0.0062    0.0028   -0.0115    0.0161    0.0011   -0.0009    0.0025
           7    0.0006    0.0331    0.0567   -0.0447   -0.0196   -0.0120   -0.0035   -0.0113
           8   -0.0069   -0.0060   -0.0272   -0.0091   -0.0083   -0.0128   -0.0113    0.0171
           9    0.0031   -0.0099   -0.0086    0.0182    0.0094    0.0073    0.0039    0.0001
          10   -0.0191   -0.0051    0.0011   -0.0177    0.0395    0.0136   -0.0248   -0.0080
          11   -0.0129   -0.0058    0.0133    0.0330   -0.0570   -0.0124    0.0227    0.0082
          12    0.0097    0.0048   -0.0071   -0.0137    0.0228    0.0048   -0.0088   -0.0032
          13    0.0241   -0.0387    0.0133   -0.0294   -0.0286   -0.0050    0.0034   -0.0244
          14    0.0048    0.0028    0.0206   -0.0103   -0.0035    0.0427   -0.0180    0.2345
          15   -0.0007    0.0004   -0.0023    0.0035    0.0026   -0.0017   -0.0015   -0.0109
          16   -0.0001   -0.0050   -0.0068   -0.0173   -0.0037   -0.0908    0.1659    0.0508
          17   -0.0091   -0.0074   -0.0062   -0.0516    0.0867    0.0137   -0.0281   -0.0169
          18    0.0034    0.0037    0.0021    0.0211   -0.0366   -0.0034    0.0074    0.0051
          19    0.0017   -0.0070    0.0004    0.0057   -0.0383    0.0747   -0.1375   -0.0418
          20    0.0104   -0.0035    0.0210    0.0255    0.0124   -0.0106    0.0151   -0.0014
          21   -0.0037    0.0014   -0.0071   -0.0085   -0.0022    0.0039   -0.0019    0.0006
          22   -0.0054   -0.0112   -0.0374    0.0264    0.0112    0.0084   -0.0044    0.0384
          23   -0.0001    0.0086    0.0156   -0.0033    0.0008   -0.0379    0.0207   -0.1947
          24    0.0002    0.0019    0.0042   -0.0037   -0.0016   -0.0004   -0.0002    0.0013
          25   -0.0046    0.0030   -0.0100   -0.0329   -0.0318    0.0280    0.0173   -0.0044
          26    0.0042   -0.0044    0.0048    0.0144    0.0091   -0.1453   -0.0918    0.0314
          27    0.0028   -0.0018    0.0061    0.0199    0.0197   -0.0108   -0.0053    0.0021
          28    0.0034   -0.0119   -0.0098    0.0245    0.0147    0.0081    0.0046   -0.0004
          29    0.0061   -0.0041    0.0124    0.0243    0.0225    0.1486    0.0917   -0.0316
          30   -0.0028    0.0072    0.0038   -0.0168   -0.0106   -0.0148   -0.0092    0.0030
          31    0.0011   -0.0080   -0.0114   -0.0345   -0.0421   -0.0044   -0.0071   -0.0110
          32    0.0148   -0.0054    0.0376    0.0275    0.0170    0.0001   -0.0168    0.0053
          33   -0.0066    0.0086   -0.0054    0.0097    0.0207    0.0027    0.0046    0.0012
          34    0.0422   -0.0953    0.0078    0.0010   -0.0024    0.0010    0.0000   -0.0036
          35   -0.0101    0.0153    0.0234   -0.0216    0.0249    0.0209   -0.0305    0.0192
          36   -0.0539    0.1270   -0.0317    0.0294   -0.0283   -0.0071    0.0146    0.0031
          37    0.0620   -0.1343    0.0235   -0.0107    0.0044   -0.0000    0.0010    0.0082
          38    0.0193   -0.0551    0.0277   -0.0314    0.0300    0.0132   -0.0213    0.0027
          39    0.0337   -0.0738    0.0087   -0.0098    0.0055   -0.0046    0.0055   -0.0030
          40   -0.0000   -0.0278   -0.0457    0.0361    0.0153   -0.0098   -0.0035   -0.0095
          41    0.0268    0.0267    0.1016    0.0115    0.0092    0.0004    0.0007   -0.0018
          42    0.0083    0.0193    0.0512   -0.0104   -0.0017    0.0062    0.0034    0.0022
          43   -0.0143   -0.0451   -0.1095    0.0467    0.0157   -0.0267   -0.0088   -0.0279
          44    0.0110    0.0061    0.0325    0.0032    0.0001   -0.0133   -0.0113    0.0162
          45   -0.0223   -0.0100   -0.0641   -0.0250   -0.0131    0.0140    0.0079   -0.0010
          46   -0.1064   -0.0613    0.0549    0.0387   -0.0642   -0.0192    0.0335    0.0084
          47    0.0401    0.0254   -0.0200   -0.0055    0.0120    0.0063   -0.0104   -0.0010
          48   -0.0452   -0.0291    0.0182    0.0019   -0.0030   -0.0020    0.0034    0.0002
          49    0.1606    0.0686   -0.0406    0.0149   -0.0213    0.0069   -0.0125   -0.0038
          50    0.0389    0.0258   -0.0427   -0.0706    0.0961   -0.0042    0.0079    0.0018
          51   -0.1604   -0.0708    0.0543    0.0108   -0.0039    0.0036   -0.0066   -0.0020
          52    0.1576    0.0649   -0.0384    0.0167   -0.0232    0.0066   -0.0118   -0.0036
          53    0.1056    0.0457   -0.0550   -0.0548    0.0671   -0.0055    0.0102    0.0030
          54    0.0764    0.0292   -0.0058    0.0423   -0.0650   -0.0000    0.0001    0.0002
          55    0.0123   -0.0175    0.0071    0.0100   -0.0026   -0.0706   -0.0464    0.0193
          56   -0.0253    0.0329   -0.0223   -0.0532   -0.0353   -0.0225   -0.0139   -0.0016
          57   -0.0075    0.0132    0.0002   -0.0000    0.0097    0.0491    0.0330   -0.0161
          58    0.0074    0.0175    0.0165    0.0649   -0.0039    0.0145   -0.0322   -0.0165
          59    0.0055   -0.0213    0.0084   -0.0163   -0.0142    0.0472   -0.0919   -0.0347
          60   -0.0043    0.0093   -0.0082    0.0012    0.0032   -0.0206    0.0405    0.0153
          61    0.0126   -0.0191    0.0078    0.0057   -0.0009   -0.0190    0.0159   -0.1243
          62   -0.0256    0.0188   -0.0497    0.0272    0.0179   -0.0118   -0.0022   -0.0337
          63   -0.0000   -0.0009   -0.0028    0.0016   -0.0009    0.0030    0.0006    0.0047
          64   -0.0052   -0.0094   -0.0315   -0.0069   -0.0128   -0.0723   -0.0458    0.0182
          65   -0.0141   -0.0036   -0.0471   -0.0470   -0.0416    0.0125    0.0062    0.0039
          66    0.0045    0.0108    0.0317    0.0080    0.0141    0.0495    0.0317   -0.0157


   Root No.      49        50        51        52        53        54        55        56

                49 A      50 A      51 A      52 A      53 A      54 A      55 A      56 A   

                2844.9    2939.5    2972.6    3020.1    3044.2    3059.9    3067.6    3075.9
  
           1   -0.0269    0.0002    0.0001   -0.0001   -0.0005    0.0002   -0.0000    0.0001
           2   -0.0141    0.0002   -0.0000   -0.0001    0.0001   -0.0002   -0.0000    0.0004
           3   -0.0664    0.0005   -0.0002   -0.0002   -0.0000   -0.0002   -0.0001    0.0000
           4    0.0002    0.0000   -0.0071   -0.0000    0.0409   -0.0000    0.0003    0.0001
           5    0.0001    0.0001   -0.0198   -0.0000    0.0101   -0.0000    0.0001   -0.0003
           6    0.0000    0.0001   -0.0571    0.0000   -0.0061    0.0000    0.0000    0.0002
           7   -0.0002   -0.0187   -0.0000    0.0058    0.0000   -0.0003    0.0000   -0.0001
           8   -0.0001   -0.0195   -0.0001   -0.0392   -0.0001    0.0024   -0.0000   -0.0030
           9   -0.0004   -0.0529   -0.0002    0.0070    0.0000    0.0004    0.0000   -0.0006
          10   -0.0001   -0.0000   -0.0000    0.0000   -0.0000   -0.0000   -0.0020   -0.0001
          11    0.0000   -0.0000   -0.0001    0.0000    0.0001   -0.0000   -0.0226   -0.0001
          12   -0.0001    0.0000   -0.0002    0.0000    0.0004   -0.0001   -0.0527    0.0000
          13   -0.0008   -0.0002    0.0001   -0.0003    0.0005   -0.0002   -0.0000   -0.0007
[...]
 T-DIPOLE    0.0865         C  3 -- H 14         +19.7% ( 57.2%)      4.0%
 TRAVEL      0.0929         C  3 -- C 10         +14.9% ( 49.7%)     99.3%
 RED. MASS   0.9033         C  3 -- C  8          +9.8% ( 40.4%)      3.6%
 EFF. MASS   5.6682

 VIBRATION   40   40A         ATOM PAIR      ENERGY CONTRIBUTION    RADIAL
 FREQ.      1390.50         C  4 -- H 16         +53.8% ( 63.6%)      0.1%
 T-DIPOLE    0.0675         C  4 -- H 18         +25.3% ( 43.6%)      7.5%
 TRAVEL      0.1754         C  4 -- H 17         +15.6% ( 34.2%)     18.2%
 RED. MASS   0.4266         C  4 -- C  6          +5.2% ( 19.7%)      0.0%
 EFF. MASS   1.5757

 VIBRATION   41   41A         ATOM PAIR      ENERGY CONTRIBUTION    RADIAL
 FREQ.      1391.98         C  4 -- H 17         +24.3% ( 50.4%)      0.8%
 T-DIPOLE    0.0795         C  4 -- H 18         +19.3% ( 44.9%)      2.5%
 TRAVEL      0.1242         C  2 -- C  5          +7.7% ( 28.3%)     72.9%
 RED. MASS   0.2958         C  4 -- H 16          +7.0% ( 27.0%)     36.0%
 EFF. MASS   3.1410

 VIBRATION   42   42A         ATOM PAIR      ENERGY CONTRIBUTION    RADIAL
 FREQ.      1393.50         C  2 -- C  5         +16.3% ( 52.5%)     70.3%
 T-DIPOLE    0.0300         C  2 -- H 13         +14.8% ( 50.0%)      6.6%
 TRAVEL      0.0888         C  2 -- H 12         +14.3% ( 49.1%)      7.5%
 RED. MASS   0.7496         C  2 -- C  6          +8.5% ( 37.8%)     25.0%
 EFF. MASS   6.1330

 VIBRATION   43   43A         ATOM PAIR      ENERGY CONTRIBUTION    RADIAL
 FREQ.      1398.64         C  3 -- C  8         +17.7% ( 61.5%)     99.7%
 T-DIPOLE    0.0687         C  3 -- H 15         +12.5% ( 51.6%)      3.5%
 TRAVEL      0.0769         C  3 -- H 14         +11.9% ( 50.4%)      3.0%
 RED. MASS   1.3519         C  3 -- C 10          +9.7% ( 45.6%)     12.4%
 EFF. MASS   8.1456

 VIBRATION   44   44A         ATOM PAIR      ENERGY CONTRIBUTION    RADIAL
 FREQ.      1451.11         C  1 -- C  9         +11.2% ( 52.2%)     94.7%
 T-DIPOLE    0.0408         C  4 -- C  6          +8.2% ( 44.8%)     63.9%
 TRAVEL      0.0662         C  1 -- C  5          +8.1% ( 44.3%)     42.9%
 RED. MASS   1.2636         C  1 -- C  7          +7.8% ( 43.6%)     71.6%
 EFF. MASS  10.5880

 VIBRATION   45   45A         ATOM PAIR      ENERGY CONTRIBUTION    RADIAL
 FREQ.      1487.06         C  4 -- C  6         +16.8% ( 64.1%)     86.4%
 T-DIPOLE    0.0713         C  2 -- C  6         +11.8% ( 53.8%)     86.8%
 TRAVEL      0.0642         C  1 -- C  9          +9.3% ( 47.8%)     91.5%
 RED. MASS   2.0061         C  6 -- C  7          +9.1% ( 47.1%)     15.2%
 EFF. MASS  11.0183

 VIBRATION   46   46A         ATOM PAIR      ENERGY CONTRIBUTION    RADIAL
 FREQ.      1853.30         C  9 -- C 10         +31.6% ( 83.6%)    100.0%
 T-DIPOLE    0.1103         C  1 -- C  9         +10.1% ( 47.4%)     48.6%
 TRAVEL      0.0553         C  3 -- C 10         +10.0% ( 47.2%)     49.5%
 RED. MASS   3.0901         C  6 -- C  7         +10.0% ( 47.0%)     97.7%
 EFF. MASS  11.8878

 VIBRATION   47   47A         ATOM PAIR      ENERGY CONTRIBUTION    RADIAL
 FREQ.      1869.48         C  6 -- C  7         +31.7% ( 83.1%)     98.0%
 T-DIPOLE    0.2178         C  4 -- C  6         +13.5% ( 54.2%)     63.4%
 TRAVEL      0.0551         C  2 -- C  6         +12.1% ( 51.3%)      3.7%
 RED. MASS   3.3353         C  9 -- C 10         +11.6% ( 50.3%)    100.0%
 EFF. MASS  11.8726

 VIBRATION   48   48A         ATOM PAIR      ENERGY CONTRIBUTION    RADIAL
 FREQ.      1932.78         C  5 -- C  8         +41.0% ( 94.7%)     99.2%
 T-DIPOLE    0.1511         C  2 -- C  5         +16.3% ( 59.6%)     50.7%
 TRAVEL      0.0541         C  1 -- C  5         +15.9% ( 59.0%)     27.1%
 RED. MASS   5.0333         C  3 -- C  8         +10.2% ( 47.1%)     40.6%
 EFF. MASS  11.9216

 VIBRATION   49   49A         ATOM PAIR      ENERGY CONTRIBUTION    RADIAL
 FREQ.      2844.87         C  1 -- H 11         +97.1% (100.0%)    100.0%
 T-DIPOLE    0.1060         C  1 -- C  9          +1.0% (  9.9%)      7.6%
 TRAVEL      0.1288         C  1 -- C  5          +1.0% (  9.9%)     10.8%
 RED. MASS   0.9297         C  1 -- C  7          +1.0% (  9.9%)      9.4%
 EFF. MASS   1.4282

 VIBRATION   50   50A         ATOM PAIR      ENERGY CONTRIBUTION    RADIAL
 FREQ.      2939.52         C  3 -- H 14         +62.7% ( 82.1%)     97.7%
 T-DIPOLE    0.0383         C  3 -- H 15         +35.0% ( 61.3%)     94.6%
 TRAVEL      0.1223         C  3 -- C  8          +1.1% ( 10.8%)      0.3%
 RED. MASS   0.5552         C  3 -- C 10          +1.1% ( 10.8%)      0.2%
 EFF. MASS   1.5326

 VIBRATION   51   51A         ATOM PAIR      ENERGY CONTRIBUTION    RADIAL
 FREQ.      2972.61         C  2 -- H 13         +55.3% ( 77.1%)     97.3%
 T-DIPOLE    0.0517         C  2 -- H 12         +42.5% ( 67.6%)     95.9%
 TRAVEL      0.1215         C  2 -- C  6          +1.1% ( 10.8%)      0.0%
 RED. MASS   0.5261         C  2 -- C  5          +1.1% ( 10.8%)      0.0%
 EFF. MASS   1.5362

 VIBRATION   52   52A         ATOM PAIR      ENERGY CONTRIBUTION    RADIAL
 FREQ.      3020.11         C  3 -- H 15         +63.6% ( 78.8%)     99.0%
 T-DIPOLE    0.0878         C  3 -- H 14         +34.0% ( 57.6%)     95.1%
 TRAVEL      0.1316         C  3 -- C 10          +0.7% (  8.2%)     21.7%
 RED. MASS   0.5125         C  3 -- C  8          +0.7% (  8.2%)     23.4%
 EFF. MASS   1.2901

 VIBRATION   53   53A         ATOM PAIR      ENERGY CONTRIBUTION    RADIAL
 FREQ.      3044.19         C  2 -- H 12         +56.3% ( 74.1%)     98.2%
 T-DIPOLE    0.1059         C  2 -- H 13         +42.3% ( 64.2%)     96.4%
 TRAVEL      0.1313         C  2 -- C  5          +0.7% (  8.4%)     38.6%
 RED. MASS   0.4922         C  2 -- C  6          +0.7% (  8.4%)     36.4%
 EFF. MASS   1.2858

 VIBRATION   54   54A         ATOM PAIR      ENERGY CONTRIBUTION    RADIAL
 FREQ.      3059.85         C 10 -- H 22         +66.7% ( 82.9%)    100.0%
 T-DIPOLE    0.2977         C  9 -- H 19         +30.4% ( 55.9%)    100.0%
 TRAVEL      0.1228         C  9 -- C 10          +1.1% ( 10.7%)      2.1%
 RED. MASS   0.5247         C  3 -- C 10          +0.9% (  9.7%)     22.0%
 EFF. MASS   1.4611

 VIBRATION   55   55A         ATOM PAIR      ENERGY CONTRIBUTION    RADIAL
 FREQ.      3067.58         C  4 -- H 18         +49.4% ( 72.5%)     97.1%
 T-DIPOLE    0.0272         C  4 -- H 17         +48.7% ( 72.0%)     97.0%
 TRAVEL      0.1209         C  4 -- C  6          +1.0% ( 10.2%)      0.0%
 RED. MASS   0.5098         C  4 -- H 16          +0.9% (  9.9%)      0.1%
 EFF. MASS   1.5037

 VIBRATION   56   56A         ATOM PAIR      ENERGY CONTRIBUTION    RADIAL
 FREQ.      3075.90         C  8 -- H 21         +93.6% ( 98.2%)    100.0%
 T-DIPOLE    0.3550         C  9 -- H 19          +2.7% ( 16.5%)    100.0%
 TRAVEL      0.1197         C  5 -- C  8          +1.6% ( 12.7%)     41.8%
 RED. MASS   0.8673         C  3 -- C  8          +1.4% ( 12.1%)     19.7%
 EFF. MASS   1.5293

 VIBRATION   57   57A         ATOM PAIR      ENERGY CONTRIBUTION    RADIAL
 FREQ.      3078.03         C  4 -- H 16         +61.0% ( 80.6%)     98.7%
 T-DIPOLE    0.0403         C  4 -- H 17         +19.3% ( 45.3%)     86.1%
 TRAVEL      0.1203         C  4 -- H 18         +18.6% ( 44.6%)     85.5%
 RED. MASS   0.4755         C  4 -- C  6          +1.0% ( 10.5%)      0.0%
 EFF. MASS   1.5132

 VIBRATION   58   58A         ATOM PAIR      ENERGY CONTRIBUTION    RADIAL
 FREQ.      3081.17         C  9 -- H 19         +63.9% ( 81.2%)     99.9%
 T-DIPOLE    0.2754         C 10 -- H 22         +29.4% ( 55.0%)     99.8%
 TRAVEL      0.1172         C  8 -- H 21          +2.7% ( 16.7%)    100.0%
 RED. MASS   0.4970         C  9 -- C 10          +2.0% ( 14.4%)     95.2%
 EFF. MASS   1.5930

 VIBRATION   59   59A         ATOM PAIR      ENERGY CONTRIBUTION    RADIAL
 FREQ.      3128.65         C  7 -- H 20         +96.5% ( 99.9%)    100.0%
 T-DIPOLE    0.3752         C  6 -- C  7          +1.8% ( 13.6%)     49.6%
 TRAVEL      0.1177         C  1 -- C  7          +1.6% ( 13.0%)     23.3%
 RED. MASS   0.9286
 EFF. MASS   1.5556

 VIBRATION   60   60A         ATOM PAIR      ENERGY CONTRIBUTION    RADIAL
 FREQ.      3166.17         C  4 -- H 16         +37.9% ( 59.3%)     97.7%
 T-DIPOLE    0.0610         C  4 -- H 18         +30.9% ( 53.6%)     96.7%
 TRAVEL      0.1367         C  4 -- H 17         +30.9% ( 53.6%)     96.7%
 RED. MASS   0.3296         C  4 -- C  6          +0.3% (  5.5%)     99.4%
 EFF. MASS   1.1396

      SYMMETRY NUMBER FOR POINT-GROUP C1  =  1


          SYSTEM IS A GROUND STATE



 InChI=1S/C10H12/c1-8-6-9-4-2-3-5-10(9)7-8/h2,4-6,9H,3,7H2,1H3


          MOLECULE IS NOT LINEAR

          THERE ARE 60 GENUINE VIBRATIONS IN THIS SYSTEM
          THIS THERMODYNAMICS CALCULATION IS LIMITED TO
          MOLECULES WHICH HAVE NO INTERNAL ROTATIONS




                    CALCULATED THERMODYNAMIC PROPERTIES
                                          *
   TEMP. (K)   PARTITION FUNCTION   H.O.F.    ENTHALPY  HEAT CAPACITY ENTROPY
                                   KCAL/MOL   CAL/MOLE    CAL/K/MOL  CAL/K/MOL


 298.00  VIB.     0.6064D+02                  3660.4139    28.9041    20.4405
         ROT.     0.5522D+06                   888.2813     2.9808    29.2548
         INT.     0.3348D+08                  4548.6952    31.8849    49.6954
         TRA.     0.1470D+28                  1480.4688     4.9680    40.5480
         TOT.                       30.171    6029.1640    36.8529    90.2433

 200.00  VIB.     0.9020D+01                  1433.9873    16.8368    11.5407
         ROT.     0.3036D+06                   596.1620     2.9808    28.0662
         INT.     0.2738D+07                  2030.1492    19.8176    39.6069
         TRA.     0.8080D+27                   993.6033     4.9680    38.5668
         TOT.                       27.166    3023.7525    24.7856    78.1737

 210.00  VIB.     0.1082D+02                  1607.9843    17.9677    12.3894
         ROT.     0.3266D+06                   625.9700     2.9808    28.2116
         INT.     0.3534D+07                  2233.9544    20.9485    40.6010
         TRA.     0.8694D+27                  1043.2834     4.9680    38.8092
         TOT.                       27.419    3277.2378    25.9165    79.4102

 220.00  VIB.     0.1302D+02                  1793.4394    19.1282    13.2519
         ROT.     0.3502D+06                   655.7781     2.9808    28.3503
         INT.     0.4560D+07                  2449.2176    22.1090    41.6022
         TRA.     0.9322D+27                  1092.9636     4.9680    39.0403
         TOT.                       27.684    3542.1811    27.0770    80.6425

 230.00  VIB.     0.1571D+02                  1990.6403    20.3165    14.1283
         ROT.     0.3744D+06                   685.5862     2.9808    28.4828
         INT.     0.5882D+07                  2676.2266    23.2973    42.6111
         TRA.     0.9965D+27                  1142.6437     4.9680    39.2612
         TOT.                       27.961    3818.8703    28.2653    81.8723

 240.00  VIB.     0.1901D+02                  2199.8533    21.5301    15.0185
         ROT.     0.3991D+06                   715.3943     2.9808    28.6096
         INT.     0.7587D+07                  2915.2476    24.5109    43.6282
         TRA.     0.1062D+28                  1192.3239     4.9680    39.4726
         TOT.                       28.250    4107.5715    29.4789    83.1008

 250.00  VIB.     0.2307D+02                  2421.3175    22.7662    15.9224
         ROT.     0.4243D+06                   745.2024     2.9808    28.7313
         INT.     0.9789D+07                  3166.5199    25.7470    44.6537
         TRA.     0.1129D+28                  1242.0041     4.9680    39.6754
         TOT.                       28.551    4408.5240    30.7150    84.3292

 260.00  VIB.     0.2808D+02                  2655.2408    24.0214    16.8397
         ROT.     0.4500D+06                   775.0105     2.9808    28.8482
         INT.     0.1263D+08                  3430.2514    27.0022    45.6880
         TRA.     0.1198D+28                  1291.6842     4.9680    39.8703
         TOT.                       28.864    4721.9356    31.9702    85.5582

 270.00  VIB.     0.3426D+02                  2901.7975    25.2923    17.7701
         ROT.     0.4762D+06                   804.8186     2.9808    28.9607
         INT.     0.1631D+08                  3706.6161    28.2731    46.7308
         TRA.     0.1267D+28                  1341.3644     4.9680    40.0578
         TOT.                       29.190    5047.9805    33.2411    86.7886

 280.00  VIB.     0.4191D+02                  3161.1266    26.5753    18.7131
         ROT.     0.5029D+06                   834.6267     2.9808    29.0691
         INT.     0.2108D+08                  3995.7533    29.5561    47.7822
         TRA.     0.1338D+28                  1391.0445     4.9680    40.2384
         TOT.                       29.529    5386.7979    34.5241    88.0206

 290.00  VIB.     0.5141D+02                  3433.3317    27.8669    19.6682
         ROT.     0.5301D+06                   864.4348     2.9808    29.1737
         INT.     0.2725D+08                  4297.7665    30.8477    48.8419
         TRA.     0.1411D+28                  1440.7247     4.9680    40.4128
         TOT.                       29.881    5738.4912    35.8157    89.2546

 300.00  VIB.     0.6321D+02                  3718.4816    29.1637    20.6347
         ROT.     0.5577D+06                   894.2429     2.9808    29.2748
         INT.     0.3525D+08                  4612.7246    32.1445    49.9095
         TRA.     0.1484D+28                  1490.4049     4.9680    40.5812
         TOT.                       30.245    6103.1294    37.1125    90.4907

 310.00  VIB.     0.7791D+02                  4016.6117    30.4624    21.6122
         ROT.     0.5858D+06                   924.0510     2.9808    29.3725
         INT.     0.4564D+08                  4940.6628    33.4432    50.9847
         TRA.     0.1559D+28                  1540.0850     4.9680    40.7441
         TOT.                       30.623    6480.7478    38.4112    91.7288

 320.00  VIB.     0.9626D+02                  4327.7255    31.7599    22.5998
         ROT.     0.6144D+06                   953.8591     2.9808    29.4671
         INT.     0.5914D+08                  5281.5846    34.7407    52.0670
         TRA.     0.1635D+28                  1589.7652     4.9680    40.9018
         TOT.                       31.013    6871.3498    39.7087    92.9688

 330.00  VIB.     0.1192D+03                  4651.7968    33.0534    23.5969
         ROT.     0.6434D+06                   983.6672     2.9808    29.5589
         INT.     0.7670D+08                  5635.4640    36.0343    53.1558
         TRA.     0.1713D+28                  1639.4454     4.9680    41.0547
         TOT.                       31.417    7274.9093    41.0023    94.2105

 340.00  VIB.     0.1480D+03                  4988.7723    34.3404    24.6028
         ROT.     0.6729D+06                  1013.4753     2.9808    29.6479
         INT.     0.9956D+08                  6002.2476    37.3212    54.2507
         TRA.     0.1791D+28                  1689.1255     4.9680    41.2030
         TOT.                       31.834    7691.3731    42.2892    95.4537

 350.00  VIB.     0.1840D+03                  5338.5741    35.6183    25.6167
         ROT.     0.7028D+06                  1043.2834     2.9808    29.7343
         INT.     0.1293D+09                  6381.8576    38.5991    55.3510
         TRA.     0.1871D+28                  1738.8057     4.9680    41.3470
         TOT.                       32.263    8120.6632    43.5672    96.6980

 360.00  VIB.     0.2294D+03                  5701.1023    36.8853    26.6379
         ROT.     0.7331D+06                  1073.0915     2.9808    29.8182
         INT.     0.1682D+09                  6774.1938    39.8661    56.4561
         TRA.     0.1951D+28                  1788.4859     4.9680    41.4870
         TOT.                       32.705    8562.6796    44.8341    97.9431

 370.00  VIB.     0.2865D+03                  6076.2371    38.1394    27.6657
         ROT.     0.7639D+06                  1102.8996     2.9808    29.8999
         INT.     0.2189D+09                  7179.1367    41.1202    57.5656
         TRA.     0.2033D+28                  1838.1660     4.9680    41.6231
         TOT.                       33.159    9017.3028    46.0882    99.1887

 380.00  VIB.     0.3586D+03                  6463.8422    39.3791    28.6993
         ROT.     0.7951D+06                  1132.7077     2.9808    29.9794
         INT.     0.2851D+09                  7596.5499    42.3599    58.6787
         TRA.     0.2116D+28                  1887.8462     4.9680    41.7556
         TOT.                       33.627    9484.3961    47.3279   100.4342

 390.00  VIB.     0.4496D+03                  6863.7663    40.6030    29.7380
         ROT.     0.8267D+06                  1162.5158     2.9808    30.0568
         INT.     0.3717D+09                  8026.2821    43.5838    59.7948
         TRA.     0.2200D+28                  1937.5263     4.9680    41.8846
         TOT.                       34.106    9963.8085    48.5518   101.6795

 400.00  VIB.     0.5647D+03                  7275.8459    41.8100    30.7812
         ROT.     0.8587D+06                  1192.3239     2.9808    30.1323
         INT.     0.4849D+09                  8468.1698    44.7908    60.9135
         TRA.     0.2285D+28                  1987.2065     4.9680    42.0104
         TOT.                       34.598   10455.3763    49.7588   102.9239

   *: NOTE: HEATS OF FORMATION ARE RELATIVE TO THE
            ELEMENTS IN THEIR STANDARD STATE AT 298K
              (=  Standard Enthalpy of Formation).

            Hvib:  Zero-point energy is not included.
                   frequencies of less than zero cm-1 are not included.
            Hrot = (3/2)RT
            Htra = (3/2)RT + pV = (5/2)RT

            Heat capacity is Cp, not Cv

          For more information, see: HTTP://OpenMOPAC.net/Manual/thermochemistry.html


           FORCE CONSTANT IN CARTESIAN COORDINATES (Millidynes/A)

    ATOM   CHEMICAL       X               Y               Z
   NUMBER   SYMBOL  FORCE CONSTANT  FORCE CONSTANT  FORCE CONSTANT

      1       C        9.841069        9.166118        7.664457
      2       C        9.718679        8.031081        7.892464
      3       C        8.769208        9.156644        7.835176
      4       C        8.665919        8.894319        8.122800
      5       C        8.741159       16.759634        2.926849
      6       C       15.223519        9.239113        3.856268
      7       C       14.873173        8.771383        3.648319
      8       C        9.547355       15.269331        2.461149
      9       C        7.264941       15.152254        4.909781
     10       C        7.375866       15.046800        4.668407
     11       H        1.119849        0.759861        3.815705
     12       H        2.680850        1.343407        2.322827
     13       H        1.416488        0.729457        4.128783
     14       H        1.175128        0.783847        4.174409
     15       H        0.771414        3.874974        1.668497
     16       H        2.022753        3.462642        1.253693
     17       H        2.390038        1.196469        3.056253
     18       H        2.048384        1.106915        3.482562
     19       H        2.472560        2.173957        1.639409
     20       H        2.385472        3.092052        0.943061
     21       H        3.696664        2.218613        0.361884
     22       H        3.010952        1.769801        1.497123

 **********************
 *                    *
 * JOB ENDED NORMALLY *
 *                    *
 **********************



 TOTAL JOB TIME:            10.37 SECONDS

 == MOPAC DONE ==
