 *******************************************************************************
 ** Site#: 14399        For non-commercial use only    Version 18.184L 64BITS **
 *******************************************************************************
 ** Cite this program as: MOPAC2016, Version: 18.184L, James J. P. Stewart,   **
 ** Stewart Computational Chemistry, web: HTTP://OpenMOPAC.net. Days left:  20**
 *******************************************************************************
 **                                                                           **
 **                                MOPAC2016                                  **
 **                                                                           **
 *******************************************************************************

                              PM3 CALCULATION RESULTS

 *******************************************************************************
 *  CALCULATION DONE:                                Thu Jun 13 15:42:34 2019  *
 *  PM3        - The PM3 Hamiltonian to be used
 *  PRECISE    - CRITERIA TO BE INCREASED BY 100 TIMES
 *  NOSYM      - POINT-GROUP SYMMETRY SET TO C1
 *  THREADS=1  - MULTI-THREADING NOT USED
 *  T=         - A TIME OF 172800.0 SECONDS REQUESTED
 *  DUMP=N     - RESTART FILE WRITTEN EVERY  7200.000 SECONDS
 *******************************************************************************
pm3  precise nosym THREADS=1
 InChI=1S/C7H10/c1-2-7-5-3-4-6-7/h2-4,7H,1,5-6H2

   ATOM   CHEMICAL          X               Y               Z
  NUMBER   SYMBOL      (ANGSTROMS)     (ANGSTROMS)     (ANGSTROMS)
 
     1       C          0.27270000  *  -0.36170000  *   0.16410000  *
     2       C         -0.25220000  *   0.55530000  *   1.28370000  *
     3       C         -0.93720000  *  -0.65940000  *  -0.74010000  *
     4       C         -1.71550000  *   0.63570000  *   1.04060000  *
     5       C          1.39280000  *   0.29490000  *  -0.60920000  *
     6       C         -2.08370000  *  -0.01720000  *  -0.04710000  *
     7       C          2.60940000  *  -0.25100000  *  -0.69340000  *
     8       H          0.62010000  *  -1.31740000  *   0.62010000  *
     9       H         -0.06010000  *   0.10930000  *   2.28320000  *
    10       H          0.18320000  *   1.57800000  *   1.24430000  *
    11       H         -1.11100000  *  -1.75400000  *  -0.82110000  *
    12       H         -0.83320000  *  -0.22420000  *  -1.75830000  *
    13       H         -2.40820000  *   1.17990000  *   1.67400000  *
    14       H          1.20410000  *   1.23940000  *  -1.11230000  *
    15       H         -3.10960000  *  -0.06360000  *  -0.39770000  *
    16       H          3.38960000  *   0.24930000  *  -1.25780000  *
    17       H          2.83880000  *  -1.19330000  *  -0.20550000  *
 


          CARTESIAN COORDINATES 

    NO.       ATOM           X           Y           Z

     1         C          0.2727     -0.3617      0.1641
     2         C         -0.2522      0.5553      1.2837
     3         C         -0.9372     -0.6594     -0.7401
     4         C         -1.7155      0.6357      1.0406
     5         C          1.3928      0.2949     -0.6092
     6         C         -2.0837     -0.0172     -0.0471
     7         C          2.6094     -0.2510     -0.6934
     8         H          0.6201     -1.3174      0.6201
     9         H         -0.0601      0.1093      2.2832
    10         H          0.1832      1.5780      1.2443
    11         H         -1.1110     -1.7540     -0.8211
    12         H         -0.8332     -0.2242     -1.7583
    13         H         -2.4082      1.1799      1.6740
    14         H          1.2041      1.2394     -1.1123
    15         H         -3.1096     -0.0636     -0.3977
    16         H          3.3896      0.2493     -1.2578
    17         H          2.8388     -1.1933     -0.2055

  H: (PM3): J. J. P. STEWART, J. COMP. CHEM. 10, 209 (1989).
  C: (PM3): J. J. P. STEWART, J. COMP. CHEM. 10, 209 (1989).

           Empirical Formula: C7 H10  =    17 atoms



      MOLECULAR POINT GROUP   :   C1  


      RHF CALCULATION, NO. OF DOUBLY OCCUPIED LEVELS = 19


          Geometry optimization using EF

          DIAGONAL MATRIX USED AS START HESSIAN

 CYCLE:     1 TIME:   0.020 TIME LEFT:  2.00D  GRAD.:    56.907 HEAT:  24.40588
 CYCLE:     2 TIME:   0.039 TIME LEFT:  2.00D  GRAD.:    75.599 HEAT:  24.35208
 CYCLE:     3 TIME:   0.023 TIME LEFT:  2.00D  GRAD.:    56.873 HEAT:  23.72364
 CYCLE:     4 TIME:   0.023 TIME LEFT:  2.00D  GRAD.:    59.038 HEAT:  23.46843
 CYCLE:     5 TIME:   0.023 TIME LEFT:  2.00D  GRAD.:    48.567 HEAT:  23.14796
 CYCLE:     6 TIME:   0.023 TIME LEFT:  2.00D  GRAD.:    42.874 HEAT:  22.98818
 CYCLE:     7 TIME:   0.023 TIME LEFT:  2.00D  GRAD.:    42.221 HEAT:  22.93820
 CYCLE:     8 TIME:   0.027 TIME LEFT:  2.00D  GRAD.:    18.177 HEAT:  22.54124
 CYCLE:     9 TIME:   0.031 TIME LEFT:  2.00D  GRAD.:    12.233 HEAT:  22.48428
 CYCLE:    10 TIME:   0.020 TIME LEFT:  2.00D  GRAD.:    14.487 HEAT:  22.46372
 CYCLE:    11 TIME:   0.023 TIME LEFT:  2.00D  GRAD.:    13.122 HEAT:  22.44447
 CYCLE:    12 TIME:   0.023 TIME LEFT:  2.00D  GRAD.:    15.757 HEAT:  22.43490
 CYCLE:    13 TIME:   0.023 TIME LEFT:  2.00D  GRAD.:     9.065 HEAT:  22.40344
 CYCLE:    14 TIME:   0.027 TIME LEFT:  2.00D  GRAD.:     5.962 HEAT:  22.38463
 CYCLE:    15 TIME:   0.023 TIME LEFT:  2.00D  GRAD.:     3.700 HEAT:  22.37586
 CYCLE:    16 TIME:   0.023 TIME LEFT:  2.00D  GRAD.:     3.286 HEAT:  22.37092
 CYCLE:    17 TIME:   0.035 TIME LEFT:  2.00D  GRAD.:     3.583 HEAT:  22.36585
 CYCLE:    18 TIME:   0.023 TIME LEFT:  2.00D  GRAD.:     2.726 HEAT:  22.35926
 CYCLE:    19 TIME:   0.023 TIME LEFT:  2.00D  GRAD.:     2.126 HEAT:  22.35468
 CYCLE:    20 TIME:   0.023 TIME LEFT:  2.00D  GRAD.:     2.742 HEAT:  22.35265
 CYCLE:    21 TIME:   0.023 TIME LEFT:  2.00D  GRAD.:     1.009 HEAT:  22.35020
 CYCLE:    22 TIME:   0.023 TIME LEFT:  2.00D  GRAD.:     1.735 HEAT:  22.35004
 CYCLE:    23 TIME:   0.020 TIME LEFT:  2.00D  GRAD.:     0.852 HEAT:  22.34884
 CYCLE:    24 TIME:   0.023 TIME LEFT:  2.00D  GRAD.:     0.593 HEAT:  22.34841
 CYCLE:    25 TIME:   0.023 TIME LEFT:  2.00D  GRAD.:     0.434 HEAT:  22.34802
 CYCLE:    26 TIME:   0.023 TIME LEFT:  2.00D  GRAD.:     0.451 HEAT:  22.34761
 CYCLE:    27 TIME:   0.023 TIME LEFT:  2.00D  GRAD.:     0.469 HEAT:  22.34734
 CYCLE:    28 TIME:   0.023 TIME LEFT:  2.00D  GRAD.:     0.463 HEAT:  22.34691
 CYCLE:    29 TIME:   0.027 TIME LEFT:  2.00D  GRAD.:     0.466 HEAT:  22.34647
 CYCLE:    30 TIME:   0.023 TIME LEFT:  2.00D  GRAD.:     0.397 HEAT:  22.34619
 CYCLE:    31 TIME:   0.020 TIME LEFT:  2.00D  GRAD.:     0.471 HEAT:  22.34574
 CYCLE:    32 TIME:   0.023 TIME LEFT:  2.00D  GRAD.:     0.577 HEAT:  22.34528
 CYCLE:    33 TIME:   0.027 TIME LEFT:  2.00D  GRAD.:     0.510 HEAT:  22.34477
 CYCLE:    34 TIME:   0.027 TIME LEFT:  2.00D  GRAD.:     0.504 HEAT:  22.34407
 CYCLE:    35 TIME:   0.023 TIME LEFT:  2.00D  GRAD.:     0.574 HEAT:  22.34324
 CYCLE:    36 TIME:   0.023 TIME LEFT:  2.00D  GRAD.:     0.564 HEAT:  22.34259
 CYCLE:    37 TIME:   0.020 TIME LEFT:  2.00D  GRAD.:     0.550 HEAT:  22.34196
 CYCLE:    38 TIME:   0.023 TIME LEFT:  2.00D  GRAD.:     0.600 HEAT:  22.34123
 CYCLE:    39 TIME:   0.023 TIME LEFT:  2.00D  GRAD.:     0.721 HEAT:  22.34018
 CYCLE:    40 TIME:   0.023 TIME LEFT:  2.00D  GRAD.:     0.819 HEAT:  22.33864
 CYCLE:    41 TIME:   0.023 TIME LEFT:  2.00D  GRAD.:     0.629 HEAT:  22.33689
 CYCLE:    42 TIME:   0.023 TIME LEFT:  2.00D  GRAD.:     0.408 HEAT:  22.33615
 CYCLE:    43 TIME:   0.023 TIME LEFT:  2.00D  GRAD.:     0.275 HEAT:  22.33562
 CYCLE:    44 TIME:   0.020 TIME LEFT:  2.00D  GRAD.:     0.226 HEAT:  22.33549
 CYCLE:    45 TIME:   0.023 TIME LEFT:  2.00D  GRAD.:     0.148 HEAT:  22.33539
 CYCLE:    46 TIME:   0.023 TIME LEFT:  2.00D  GRAD.:     0.132 HEAT:  22.33534
 CYCLE:    47 TIME:   0.023 TIME LEFT:  2.00D  GRAD.:     0.110 HEAT:  22.33531
 CYCLE:    48 TIME:   0.023 TIME LEFT:  2.00D  GRAD.:     0.076 HEAT:  22.33527
 CYCLE:    49 TIME:   0.023 TIME LEFT:  2.00D  GRAD.:     0.059 HEAT:  22.33526
 CYCLE:    50 TIME:   0.020 TIME LEFT:  2.00D  GRAD.:     0.105 HEAT:  22.33526
 CYCLE:    51 TIME:   0.023 TIME LEFT:  2.00D  GRAD.:     0.056 HEAT:  22.33524
 CYCLE:    52 TIME:   0.023 TIME LEFT:  2.00D  GRAD.:     0.041 HEAT:  22.33524

     GRADIENT =  0.04099  IS LESS THAN CUTOFF =  0.05000



 -------------------------------------------------------------------------------
 pm3  precise nosym THREADS=1
 InChI=1S/C7H10/c1-2-7-5-3-4-6-7/h2-4,7H,1,5-6H2



     GEOMETRY OPTIMISED USING EIGENVECTOR FOLLOWING (EF).     
     SCF FIELD WAS ACHIEVED                                   


                              PM3 CALCULATION
                                                       MOPAC2016 (Version: 18.184L)
                                                       Thu Jun 13 15:42:35 2019
                                                       No. of days remaining =  20




          FINAL HEAT OF FORMATION =         22.33524 KCAL/MOL =      93.45063 KJ/MOL


          TOTAL ENERGY            =       -982.84115 EV
          ELECTRONIC ENERGY       =      -4529.82824 EV  POINT GROUP:     C1  
          CORE-CORE REPULSION     =       3546.98709 EV
          COSMO AREA              =        147.16 SQUARE ANGSTROMS
          COSMO VOLUME            =        139.79 CUBIC ANGSTROMS

          GRADIENT NORM           =          0.04099 = 0.00994 PER ATOM
          IONIZATION POTENTIAL    =          9.579673 EV
          HOMO LUMO ENERGIES (EV) =         -9.580  1.072
          NO. OF FILLED LEVELS    =         19
          MOLECULAR WEIGHT        =         94.1560

          MOLECULAR DIMENSIONS (Angstroms)

            Atom       Atom       Distance
            H    16    H    13     6.54039
            H    11    H    10     4.13670
            H     9    H    12     3.00448


          SCF CALCULATIONS        =         58
 
          WALL-CLOCK TIME         =          1.305 SECONDS
          COMPUTATION TIME        =          0.523 SECONDS




   ATOM   CHEMICAL          X               Y               Z
  NUMBER   SYMBOL      (ANGSTROMS)     (ANGSTROMS)     (ANGSTROMS)
 
     1       C          0.28136051  *  -0.37948854  *   0.17662209  *
     2       C         -0.25366126  *   0.54061476  *   1.29787323  *
     3       C         -0.93466153  *  -0.67873768  *  -0.73002904  *
     4       C         -1.71903377  *   0.66581263  *   1.03179508  *
     5       C          1.37435923  *   0.28536993  *  -0.59169715  *
     6       C         -2.08892261  *   0.00349081  *  -0.06977063  *
     7       C          2.59242297  *  -0.22962395  *  -0.70959876  *
     8       H          0.65723268  *  -1.33007638  *   0.62220256  *
     9       H         -0.06857198  *   0.11441623  *   2.30062281  *
    10       H          0.23085383  *   1.53526207  *   1.29172813  *
    11       H         -1.11771490  *  -1.76454579  *  -0.82436176  *
    12       H         -0.79384067  *  -0.29943841  *  -1.75978744  *
    13       H         -2.36527769  *   1.24429351  *   1.69121316  *
    14       H          1.11354513  *   1.24064626  *  -1.06447349  *
    15       H         -3.09507847  *  -0.06243694  *  -0.48254104  *
    16       H          3.38206017  *   0.26006195  *  -1.27123135  *
    17       H          2.88936931  *  -1.17219600  *  -0.25723743  *

                             CARTESIAN COORDINATES

   1    C        0.281360509    -0.379488545     0.176622090
   2    C       -0.253661258     0.540614762     1.297873229
   3    C       -0.934661527    -0.678737675    -0.730029035
   4    C       -1.719033773     0.665812628     1.031795077
   5    C        1.374359231     0.285369928    -0.591697148
   6    C       -2.088922605     0.003490812    -0.069770631
   7    C        2.592422965    -0.229623952    -0.709598763
   8    H        0.657232677    -1.330076381     0.622202556
   9    H       -0.068571983     0.114416235     2.300622812
  10    H        0.230853834     1.535262071     1.291728135
  11    H       -1.117714895    -1.764545795    -0.824361755
  12    H       -0.793840665    -0.299438408    -1.759787443
  13    H       -2.365277694     1.244293512     1.691213161
  14    H        1.113545131     1.240646260    -1.064473491
  15    H       -3.095078465    -0.062436943    -0.482541041
  16    H        3.382060168     0.260061946    -1.271231349
  17    H        2.889369309    -1.172195995    -0.257237428


           Empirical Formula: C7 H10  =    17 atoms



      MOLECULAR POINT GROUP   :   C1  


                  EIGENVALUES  
 -40.51646 -32.92418 -28.11470 -26.71208 -20.94083 -19.61093 -18.53286 -17.63131
 -16.18194 -15.48189 -13.76502 -13.58739 -13.44948 -13.07689 -12.61568 -12.36139
 -11.94373 -10.24425  -9.57967   1.07218   1.14357   3.30833   3.44485   3.66286
   3.70768   3.83291   3.93605   4.11357   4.18112   4.19123   4.33011   4.53393
   4.83459   5.01292   5.57792   5.64733   5.87372   5.97067


              NET ATOMIC CHARGES AND DIPOLE CONTRIBUTIONS

  ATOM NO.   TYPE          CHARGE      No. of ELECS.   s-Pop       p-Pop       
    1          C          -0.051764        4.0518     1.17473     2.87703
    2          C          -0.063112        4.0631     1.15688     2.90623
    3          C          -0.063082        4.0631     1.15687     2.90621
    4          C          -0.155876        4.1559     1.20225     2.95362
    5          C          -0.134662        4.1347     1.19764     2.93702
    6          C          -0.155832        4.1558     1.20224     2.95359
    7          C          -0.162658        4.1627     1.18304     2.97962
    8          H           0.067607        0.9324     0.93239
    9          H           0.056387        0.9436     0.94361
   10          H           0.061525        0.9385     0.93848
   11          H           0.056390        0.9436     0.94361
   12          H           0.061566        0.9384     0.93843
   13          H           0.110937        0.8891     0.88906
   14          H           0.100943        0.8991     0.89906
   15          H           0.110936        0.8891     0.88906
   16          H           0.079081        0.9209     0.92092
   17          H           0.081616        0.9184     0.91838
 DIPOLE           X         Y         Z       TOTAL
 POINT-CHG.    -0.000    -0.013     0.008     0.016
 HYBRID         0.011     0.018    -0.016     0.027
 SUM            0.011     0.005    -0.008     0.014


          ATOMIC ORBITAL ELECTRON POPULATIONS

     Atom    s        px        py        pz   
    1  C   1.17473   0.94510   0.98033   0.95160
    2  C   1.15688   0.93945   0.99242   0.97437
    3  C   1.15687   0.92969   0.99516   0.98136
    4  C   1.20225   0.96875   1.00263   0.98224
    5  C   1.19764   0.95602   0.99197   0.98903
    6  C   1.20224   0.98174   0.99607   0.97579
    7  C   1.18304   0.96427   1.00404   1.01131
    8  H   0.93239
    9  H   0.94361
   10  H   0.93848
   11  H   0.94361
   12  H   0.93843
   13  H   0.88906
   14  H   0.89906
   15  H   0.88906
   16  H   0.92092
   17  H   0.91838
 *******************************************************************************
 ** Site#: 14399        For non-commercial use only    Version 18.184L 64BITS **
 *******************************************************************************
 ** Cite this program as: MOPAC2016, Version: 18.184L, James J. P. Stewart,   **
 ** Stewart Computational Chemistry, web: HTTP://OpenMOPAC.net. Days left:  20**
 *******************************************************************************
 **                                                                           **
 **                                MOPAC2016                                  **
 **                                                                           **
 *******************************************************************************

                              PM3 CALCULATION RESULTS

 *******************************************************************************
 *  CALCULATION DONE:                                Thu Jun 13 15:42:35 2019  *
 *  PM3        - The PM3 Hamiltonian to be used
 *  OLDGEO     - PREVIOUS GEOMETRY TO BE USED
 *  PRECISE    - CRITERIA TO BE INCREASED BY 100 TIMES
 *  NOSYM      - POINT-GROUP SYMMETRY SET TO C1
 *  THREADS=1  - MULTI-THREADING NOT USED
 *  T=         - A TIME OF 172800.0 SECONDS REQUESTED
 *  DUMP=N     - RESTART FILE WRITTEN EVERY  7200.000 SECONDS
 *  THERMO     - THERMODYNAMIC QUANTITIES TO BE CALCULATED
 *******************************************************************************
oldgeo thermo nosym precise THREADS=1  pm3
 InChI=1S/C7H10/c1-2-7-5-3-4-6-7/h2-4,7H,1,5-6H2

   ATOM   CHEMICAL          X               Y               Z
  NUMBER   SYMBOL      (ANGSTROMS)     (ANGSTROMS)     (ANGSTROMS)
 
     1       C          0.28136051  *  -0.37948854  *   0.17662209  *
     2       C         -0.25366126  *   0.54061476  *   1.29787323  *
     3       C         -0.93466153  *  -0.67873768  *  -0.73002904  *
     4       C         -1.71903377  *   0.66581263  *   1.03179508  *
     5       C          1.37435923  *   0.28536993  *  -0.59169715  *
     6       C         -2.08892261  *   0.00349081  *  -0.06977063  *
     7       C          2.59242297  *  -0.22962395  *  -0.70959876  *
     8       H          0.65723268  *  -1.33007638  *   0.62220256  *
     9       H         -0.06857198  *   0.11441623  *   2.30062281  *
    10       H          0.23085383  *   1.53526207  *   1.29172813  *
    11       H         -1.11771490  *  -1.76454579  *  -0.82436176  *
    12       H         -0.79384067  *  -0.29943841  *  -1.75978744  *
    13       H         -2.36527769  *   1.24429351  *   1.69121316  *
    14       H          1.11354513  *   1.24064626  *  -1.06447349  *
    15       H         -3.09507847  *  -0.06243694  *  -0.48254104  *
    16       H          3.38206017  *   0.26006195  *  -1.27123135  *
    17       H          2.88936931  *  -1.17219600  *  -0.25723743  *
 


          CARTESIAN COORDINATES 

    NO.       ATOM           X           Y           Z

     1         C          0.2814     -0.3795      0.1766
     2         C         -0.2537      0.5406      1.2979
     3         C         -0.9347     -0.6787     -0.7300
     4         C         -1.7190      0.6658      1.0318
     5         C          1.3744      0.2854     -0.5917
     6         C         -2.0889      0.0035     -0.0698
     7         C          2.5924     -0.2296     -0.7096
     8         H          0.6572     -1.3301      0.6222
     9         H         -0.0686      0.1144      2.3006
    10         H          0.2309      1.5353      1.2917
    11         H         -1.1177     -1.7645     -0.8244
    12         H         -0.7938     -0.2994     -1.7598
    13         H         -2.3653      1.2443      1.6912
    14         H          1.1135      1.2406     -1.0645
    15         H         -3.0951     -0.0624     -0.4825
    16         H          3.3821      0.2601     -1.2712
    17         H          2.8894     -1.1722     -0.2572

  H: (PM3): J. J. P. STEWART, J. COMP. CHEM. 10, 209 (1989).
  C: (PM3): J. J. P. STEWART, J. COMP. CHEM. 10, 209 (1989).

           Empirical Formula: C7 H10  =    17 atoms



      MOLECULAR POINT GROUP   :   C1  


      RHF CALCULATION, NO. OF DOUBLY OCCUPIED LEVELS = 19



          HEAT OF FORMATION =      22.335236 KCALS/MOLE


          CARTESIAN COORDINATE DERIVATIVES

   NUMBER  ATOM         X            Y            Z

     1       C      0.000889    -0.007526    -0.004746
     2       C     -0.001760     0.001407     0.003532
     3       C     -0.006857    -0.015642    -0.001928
     4       C     -0.000087     0.002412     0.005237
     5       C      0.004333    -0.004756    -0.006235
     6       C     -0.003897    -0.003409     0.003534
     7       C     -0.000439     0.006068     0.004622
     8       H      0.007991    -0.003883    -0.005130
     9       H      0.004344     0.005596     0.001190
    10       H     -0.002291    -0.000473    -0.002986
    11       H     -0.002475    -0.012769    -0.001838
    12       H      0.001917     0.007556    -0.000752
    13       H      0.001395     0.003598     0.003517
    14       H      0.005508     0.005157    -0.002286
    15       H     -0.001759    -0.008349    -0.010198
    16       H     -0.001046     0.009933     0.005111
    17       H     -0.005765     0.015079     0.009356
 


          GRADIENT NORM =   0.04183


          TIME FOR SCF CALCULATION =    0.02

          TIME FOR DERIVATIVES     =    0.01

          MOLECULAR WEIGHT =   94.16



          ROTATIONAL CONSTANTS IN CM(-1)

          A =    0.20934649   B =    0.06164074   C =    0.05224972



           PRINCIPAL MOMENTS OF INERTIA IN UNITS OF 10**(-40)*GRAM-CM**2

          A =      133.7150   B =      454.1278   C =      535.7497


          ORIENTATION OF MOLECULE IN FORCE CALCULATION

    NO.       ATOM         X         Y         Z

     1          C      -0.2787   -0.3714    0.3122
     2          C       1.2672   -0.3714    0.3122
     3          C      -0.6936    1.1180    0.3122
     4          C       1.6559    1.0701    0.3812
     5          C      -0.8185   -1.0800   -0.8851
     6          C       0.5908    1.8791    0.3812
     7          C      -1.6321   -2.1259   -0.8010
     8          H      -0.6514   -0.8623    1.2414
     9          H       1.6768   -0.9332    1.1712
    10          H       1.6871   -0.8462   -0.5947
    11          H      -1.3449    1.3616    1.1711
    12          H      -1.2634    1.3949   -0.5949
    13          H       2.7021    1.3715    0.4230
    14          H      -0.5026   -0.6832   -1.8582
    15          H       0.6004    2.9678    0.4227
    16          H      -2.0213   -2.6355   -1.6771
    17          H      -1.9677   -2.5478    0.1427


    FIRST DERIVATIVES WILL BE USED IN THE CALCULATION OF SECOND DERIVATIVES

          ESTIMATED TIME TO COMPLETE CALCULATION =        6.38 SECONDS

    FOR POINT-GROUP C1   THERE ARE   1 UNIQUE SYMMETRY FUNCTIONS.

 STEP:   1 TIME =     0.05 SECS, INTEGRAL =      0.05 TIME LEFT: 172799.92
 STEP:   2 TIME =     0.04 SECS, INTEGRAL =      0.08 TIME LEFT: 172799.89
 STEP:   3 TIME =     0.03 SECS, INTEGRAL =      0.11 TIME LEFT: 172799.86
 STEP:   4 TIME =     0.04 SECS, INTEGRAL =      0.15 TIME LEFT: 172799.82
 STEP:   5 TIME =     0.03 SECS, INTEGRAL =      0.18 TIME LEFT: 172799.79
 STEP:   6 TIME =     0.03 SECS, INTEGRAL =      0.20 TIME LEFT: 172799.77
 STEP:   7 TIME =     0.03 SECS, INTEGRAL =      0.23 TIME LEFT: 172799.74
 STEP:   8 TIME =     0.03 SECS, INTEGRAL =      0.26 TIME LEFT: 172799.71
 STEP:   9 TIME =     0.03 SECS, INTEGRAL =      0.29 TIME LEFT: 172799.68
 STEP:  10 TIME =     0.03 SECS, INTEGRAL =      0.31 TIME LEFT: 172799.66
 STEP:  11 TIME =     0.03 SECS, INTEGRAL =      0.34 TIME LEFT: 172799.62
 STEP:  12 TIME =     0.03 SECS, INTEGRAL =      0.38 TIME LEFT: 172799.59
 STEP:  13 TIME =     0.03 SECS, INTEGRAL =      0.40 TIME LEFT: 172799.57
 STEP:  14 TIME =     0.03 SECS, INTEGRAL =      0.43 TIME LEFT: 172799.54
 STEP:  15 TIME =     0.03 SECS, INTEGRAL =      0.46 TIME LEFT: 172799.51
 STEP:  16 TIME =     0.03 SECS, INTEGRAL =      0.49 TIME LEFT: 172799.48
 STEP:  17 TIME =     0.03 SECS, INTEGRAL =      0.52 TIME LEFT: 172799.45
 STEP:  18 TIME =     0.03 SECS, INTEGRAL =      0.54 TIME LEFT: 172799.43
 STEP:  19 TIME =     0.03 SECS, INTEGRAL =      0.57 TIME LEFT: 172799.39
 STEP:  20 TIME =     0.03 SECS, INTEGRAL =      0.60 TIME LEFT: 172799.37
 STEP:  21 TIME =     0.03 SECS, INTEGRAL =      0.63 TIME LEFT: 172799.34
 STEP:  22 TIME =     0.03 SECS, INTEGRAL =      0.66 TIME LEFT: 172799.31
 STEP:  23 TIME =     0.03 SECS, INTEGRAL =      0.68 TIME LEFT: 172799.29
 STEP:  24 TIME =     0.03 SECS, INTEGRAL =      0.71 TIME LEFT: 172799.26
 STEP:  25 TIME =     0.04 SECS, INTEGRAL =      0.75 TIME LEFT: 172799.22
 STEP:  26 TIME =     0.04 SECS, INTEGRAL =      0.79 TIME LEFT: 172799.18
 STEP:  27 TIME =     0.03 SECS, INTEGRAL =      0.82 TIME LEFT: 172799.15
 STEP:  28 TIME =     0.03 SECS, INTEGRAL =      0.85 TIME LEFT: 172799.12
 STEP:  29 TIME =     0.03 SECS, INTEGRAL =      0.88 TIME LEFT: 172799.09
 STEP:  30 TIME =     0.03 SECS, INTEGRAL =      0.90 TIME LEFT: 172799.07
 STEP:  31 TIME =     0.03 SECS, INTEGRAL =      0.93 TIME LEFT: 172799.04
 STEP:  32 TIME =     0.03 SECS, INTEGRAL =      0.96 TIME LEFT: 172799.01
 STEP:  33 TIME =     0.03 SECS, INTEGRAL =      0.98 TIME LEFT: 172798.98
 STEP:  34 TIME =     0.03 SECS, INTEGRAL =      1.01 TIME LEFT: 172798.96
 STEP:  35 TIME =     0.03 SECS, INTEGRAL =      1.04 TIME LEFT: 172798.93
 STEP:  36 TIME =     0.03 SECS, INTEGRAL =      1.07 TIME LEFT: 172798.90
 STEP:  37 TIME =     0.03 SECS, INTEGRAL =      1.09 TIME LEFT: 172798.88
 STEP:  38 TIME =     0.04 SECS, INTEGRAL =      1.13 TIME LEFT: 172798.84
 STEP:  39 TIME =     0.04 SECS, INTEGRAL =      1.17 TIME LEFT: 172798.80
 STEP:  40 TIME =     0.04 SECS, INTEGRAL =      1.21 TIME LEFT: 172798.76
 STEP:  41 TIME =     0.03 SECS, INTEGRAL =      1.24 TIME LEFT: 172798.73
 STEP:  42 TIME =     0.04 SECS, INTEGRAL =      1.28 TIME LEFT: 172798.69
 STEP:  43 TIME =     0.03 SECS, INTEGRAL =      1.30 TIME LEFT: 172798.66
 STEP:  44 TIME =     0.03 SECS, INTEGRAL =      1.33 TIME LEFT: 172798.64
 STEP:  45 TIME =     0.03 SECS, INTEGRAL =      1.36 TIME LEFT: 172798.61
 STEP:  46 TIME =     0.03 SECS, INTEGRAL =      1.39 TIME LEFT: 172798.57
 STEP:  47 TIME =     0.03 SECS, INTEGRAL =      1.42 TIME LEFT: 172798.55
 STEP:  48 TIME =     0.02 SECS, INTEGRAL =      1.45 TIME LEFT: 172798.52
 STEP:  49 TIME =     0.03 SECS, INTEGRAL =      1.47 TIME LEFT: 172798.50
 STEP:  50 TIME =     0.03 SECS, INTEGRAL =      1.50 TIME LEFT: 172798.47
 STEP:  51 TIME =     0.04 SECS, INTEGRAL =      1.54 TIME LEFT: 172798.43

(To convert to Hartree/Bohr^2, multiply by (10^(-21) x N x a0^2)/(4.184 x 627.51) =  0.0642)


           FORCE MATRIX IN MILLIDYNES/ANGSTROM


                  C  1       C  2       C  3       C  4       C  5       C  6
 ------------------------------------------------------------------------------
     C    1  14.598825
     C    2   3.438689  14.584627
     C    3   3.435658   0.722074  14.581260
     C    4   0.862641   4.742687   1.180283  18.380442
     C    5   4.828091   0.640725   0.642395   0.033411  18.219221
     C    6   0.863254   1.180147   4.742772  10.580514   0.033169  18.374892
     C    7   0.820009   0.037566   0.037021   0.005298  11.087473   0.005270
     H    8   4.295997   0.422109   0.422409   0.024620   0.446609   0.025064
     H    9   0.437223   4.534565   0.029884   0.431347   0.025158   0.039136
     H   10   0.448825   4.494483   0.025260   0.428201   0.064260   0.037592
     H   11   0.437520   0.029923   4.534624   0.038665   0.025150   0.431342
     H   12   0.449112   0.025199   4.494931   0.037205   0.064436   0.428200
     H   13   0.042186   0.412104   0.115250   5.020884   0.004853   0.450020
     H   14   0.434477   0.020464   0.019268   0.002536   4.778335   0.002580
     H   15   0.042231   0.114215   0.412210   0.450107   0.004931   5.021156
     H   16   0.134860   0.016990   0.017493   0.001643   0.461147   0.001941
     H   17   0.095420   0.009919   0.010387   0.002077   0.490917   0.001892


                  C  7       H  8       H  9       H 10       H 11       H 12
 ------------------------------------------------------------------------------
     C    7  18.042591
     H    8   0.057733   4.750459
     H    9   0.003430   0.029208   5.136789
     H   10   0.003722   0.026872   0.569487   5.113872
     H   11   0.003601   0.029206   0.001136   0.003792   5.136941
     H   12   0.003873   0.026867   0.003767   0.001343   0.569520   5.114040
     H   13   0.000954   0.002651   0.015007   0.014230   0.015654   0.015763
     H   14   0.452955   0.037865   0.001391   0.023370   0.001344   0.021996
     H   15   0.001106   0.002615   0.015502   0.015682   0.015067   0.014252
     H   16   5.106261   0.002045   0.001337   0.000792   0.001462   0.000862
     H   17   5.067794   0.030059   0.001045   0.000856   0.001070   0.000842


                  H 13       H 14       H 15       H 16       H 17
 ------------------------------------------------------------------
     H   13   5.417046
     H   14   0.000788   5.153780
     H   15   0.048063   0.000778   5.418086
     H   16   0.000425   0.078461   0.000427   5.494635
     H   17   0.000298   0.116640   0.000336   0.422476   5.464078


          HEAT OF FORMATION =      22.335236 KCALS/MOLE

          ZERO POINT ENERGY      92.944 KCAL/MOL


           NORMAL COORDINATE ANALYSIS (Total motion = 1 Angstrom)


   Root No.       1         2         3         4         5         6         7         8

                 1 A       2 A       3 A       4 A       5 A       6 A       7 A       8 A   

                  82.2      90.6     338.3     359.8     381.2     428.2     652.3     688.9
  
           1    0.0069   -0.0291   -0.0214   -0.0011   -0.0121    0.0001    0.0044    0.0270
           2    0.0060    0.0230    0.0163   -0.0027    0.0093    0.0013   -0.0023    0.0355
           3   -0.0258   -0.0016    0.0014    0.0526   -0.0013    0.0311   -0.0005   -0.0254
           4    0.0067   -0.0287   -0.0217    0.0031   -0.0127   -0.0056    0.0242    0.0359
           5    0.0083   -0.0119   -0.0017    0.0055    0.0001   -0.0297    0.0028   -0.0239
           6   -0.0391   -0.0071   -0.0120   -0.0184   -0.0233   -0.0213    0.0031   -0.0106
           7    0.0059    0.0047   -0.0035    0.0047   -0.0031   -0.0275    0.0025   -0.0327
           8    0.0055    0.0319    0.0219    0.0030    0.0125   -0.0120   -0.0233    0.0285
           9   -0.0400    0.0022    0.0109   -0.0179    0.0243   -0.0201   -0.0032   -0.0107
          10    0.0033    0.0040   -0.0016    0.0035   -0.0023   -0.0223    0.0153   -0.0127
          11    0.0056   -0.0213   -0.0074    0.0049   -0.0068   -0.0309    0.0083   -0.0197
          12    0.0408   -0.0002   -0.0433   -0.0012    0.0330   -0.0059    0.0031   -0.0040
          13   -0.0107   -0.0356    0.0302   -0.0075    0.0163    0.0367   -0.0589   -0.0006
          14   -0.0177    0.0260   -0.0242   -0.0077   -0.0132    0.0463    0.0457   -0.0015
          15   -0.0032   -0.0004    0.0022    0.0594   -0.0008    0.0025    0.0001    0.0297
          16    0.0024    0.0221    0.0073    0.0035    0.0063   -0.0234   -0.0046   -0.0156
          17    0.0045    0.0026    0.0043    0.0044    0.0046   -0.0294   -0.0178   -0.0173
          18    0.0403    0.0053    0.0434   -0.0059   -0.0327   -0.0064   -0.0031   -0.0038
          19   -0.0142    0.0586    0.0061   -0.0098    0.0040    0.0402    0.0029   -0.0019
          20   -0.0124   -0.0471   -0.0058   -0.0123   -0.0036    0.0520   -0.0024   -0.0024
          21    0.0320    0.0020   -0.0018   -0.0433    0.0003    0.0283    0.0003    0.0009
          22    0.0203   -0.0379   -0.0308    0.0200   -0.0083    0.0024    0.0332    0.0505
          23    0.0228    0.0312    0.0250    0.0237    0.0058    0.0048   -0.0241    0.0670
          24   -0.0111   -0.0007    0.0022    0.0719   -0.0015    0.0328   -0.0005    0.0008
          25    0.0158   -0.0380   -0.0230    0.0545    0.0024    0.0305    0.0132   -0.0138
          26   -0.0444   -0.0271    0.0219   -0.0281   -0.0675   -0.0680    0.0231    0.0186
          27   -0.0782   -0.0126    0.0046   -0.0661   -0.0762   -0.0646    0.0221    0.0441
          28   -0.0008   -0.0436   -0.0305   -0.0421   -0.0314   -0.0446    0.0354    0.0750
          29    0.0659   -0.0153   -0.0388    0.0461    0.0659    0.0026   -0.0131   -0.0875
          30   -0.0729   -0.0122    0.0030   -0.0621   -0.0685   -0.0587    0.0187    0.0430
          31   -0.0484    0.0100   -0.0291   -0.0363    0.0686   -0.0713   -0.0197    0.0219
          32   -0.0009    0.0442    0.0190    0.0438    0.0141    0.0126   -0.0192   -0.0083
          33   -0.0795    0.0028   -0.0083   -0.0617    0.0797   -0.0612   -0.0216    0.0444
          34    0.0632    0.0112    0.0326    0.0499   -0.0741    0.0117    0.0198   -0.1047
          35    0.0121    0.0481    0.0388   -0.0311    0.0148   -0.0405   -0.0294    0.0494
          36   -0.0742    0.0031   -0.0064   -0.0582    0.0718   -0.0557   -0.0181    0.0432
          37    0.0016    0.0109    0.0048    0.0033   -0.0009   -0.0252    0.0075   -0.0253
          38    0.0047   -0.0453   -0.0212    0.0042   -0.0190   -0.0227    0.0342    0.0128
          39    0.0888   -0.0002   -0.1043    0.0079    0.0867    0.0015    0.0120    0.0841
          40   -0.0225   -0.1135    0.1199    0.0124    0.0714    0.0487    0.0037   -0.0110
          41   -0.0409    0.0849   -0.0925    0.0233   -0.0570    0.0592   -0.0033   -0.0142
          42   -0.0165   -0.0016    0.0033    0.0756   -0.0008    0.0120    0.0004    0.0201
          43   -0.0005    0.0470    0.0221    0.0021    0.0183   -0.0136   -0.0304    0.0196
          44    0.0027    0.0022    0.0018    0.0044    0.0065   -0.0298   -0.0172   -0.0207
          45    0.0876    0.0112    0.1047   -0.0039   -0.0864   -0.0001   -0.0114    0.0841
          46   -0.0288    0.0642    0.0814    0.0412    0.0550    0.0254    0.2758    0.0316
          47   -0.0304   -0.0530   -0.0600    0.0566   -0.0442    0.0304   -0.2122    0.0466
          48    0.0491    0.0030   -0.0037   -0.1072    0.0012    0.0492    0.0011   -0.0439
          49   -0.0027    0.1379   -0.0922   -0.0614   -0.0590    0.0590   -0.1692   -0.0367
          50    0.0103   -0.1071    0.0663   -0.0840    0.0464    0.0804    0.1293   -0.0520
          51    0.0463    0.0034   -0.0045   -0.0954    0.0002    0.0482   -0.0020   -0.0354


   Root No.       9        10        11        12        13        14        15        16

                 9 A      10 A      11 A      12 A      13 A      14 A      15 A      16 A   

                 750.3     773.4     868.6     875.1     938.0     953.7     988.7    1010.5
  
           1   -0.0132    0.0409   -0.0006   -0.0034   -0.0053    0.0030   -0.0129    0.0136
           2   -0.0180   -0.0305    0.0005   -0.0045    0.0041    0.0036    0.0099   -0.0119
           3    0.0167   -0.0004    0.0002    0.0244   -0.0002   -0.0150   -0.0001    0.0005
           4   -0.0231    0.0025   -0.0044    0.0390    0.0095    0.0010    0.0131   -0.0109
           5    0.0117   -0.0597    0.0054   -0.0106   -0.0083   -0.0017   -0.0178    0.0208
           6   -0.0136   -0.0032   -0.0350    0.0202    0.0022    0.0263    0.0141    0.0175
           7    0.0184    0.0574   -0.0067   -0.0204    0.0105   -0.0025    0.0207   -0.0231
           8   -0.0190    0.0142    0.0034    0.0346   -0.0071    0.0009   -0.0080    0.0061
           9   -0.0135    0.0037    0.0355    0.0194   -0.0006    0.0262   -0.0138   -0.0187
          10    0.0051   -0.0986    0.0016   -0.0024   -0.0031    0.0004    0.0028   -0.0026
          11    0.0092   -0.0187   -0.0020   -0.0028    0.0024    0.0001    0.0113   -0.0124
          12   -0.0205   -0.0020   -0.0043   -0.0128    0.0033   -0.0190   -0.0348   -0.0181
          13    0.0029   -0.0070    0.0007   -0.0072   -0.0422    0.0024    0.0000    0.0026
          14    0.0041    0.0053   -0.0007   -0.0095    0.0330    0.0017    0.0000   -0.0019
          15   -0.0005    0.0001   -0.0002   -0.0259   -0.0006   -0.0088   -0.0000   -0.0006
          16    0.0074   -0.0087    0.0023   -0.0021   -0.0031    0.0002   -0.0102    0.0112
          17    0.0089    0.0997   -0.0011   -0.0029    0.0023    0.0003   -0.0058    0.0054
          18   -0.0203    0.0027    0.0040   -0.0129   -0.0046   -0.0190    0.0346    0.0192
          19    0.0043    0.0001    0.0007   -0.0115   -0.0131    0.0027    0.0008   -0.0151
          20    0.0056   -0.0002   -0.0008   -0.0152    0.0104    0.0034   -0.0006    0.0119
          21    0.0016    0.0001   -0.0002   -0.0264    0.0006    0.0246    0.0000    0.0006
          22   -0.0172    0.0308    0.0493   -0.0034   -0.0100   -0.0370   -0.1175    0.0562
          23   -0.0233   -0.0228   -0.0376   -0.0034    0.0045   -0.0496    0.0895   -0.0469
          24    0.0129   -0.0004    0.0001    0.0215   -0.0019   -0.0592    0.0001   -0.0010
          25   -0.0183    0.0352   -0.0547    0.1266    0.0043    0.0253    0.0773    0.0860
          26    0.0803   -0.0339    0.0984   -0.0163   -0.0247   -0.0698   -0.0335    0.0544
          27    0.0305    0.0011    0.0536   -0.0265   -0.0063   -0.0322   -0.0292   -0.0071
          28   -0.0285    0.0382    0.0392   -0.0068    0.0232   -0.0247   -0.0765   -0.0339
          29   -0.0559   -0.0558   -0.0997    0.0228    0.0081    0.0711   -0.0299    0.0626
          30    0.0213    0.0095    0.0438   -0.0200   -0.0003   -0.0262   -0.0230   -0.0165
          31    0.0828    0.0389   -0.1105   -0.0471    0.0202   -0.0748    0.0521   -0.0233
          32    0.0035   -0.0253    0.0284    0.1170    0.0038    0.0055   -0.0661   -0.0879
          33    0.0304   -0.0021   -0.0542   -0.0252    0.0038   -0.0324    0.0289    0.0083
          34   -0.0451    0.0655    0.1072    0.0215    0.0033    0.0744    0.0094   -0.0728
          35   -0.0428   -0.0204   -0.0110   -0.0003   -0.0255   -0.0039    0.0821    0.0151
          36    0.0211   -0.0102   -0.0442   -0.0190   -0.0016   -0.0261    0.0228    0.0168
          37    0.0050   -0.0871    0.0002   -0.0188   -0.0083   -0.0030   -0.0250    0.0261
          38   -0.0250   -0.0611   -0.0174    0.0454    0.0238   -0.0002    0.0792   -0.1183
          39    0.2250    0.0027    0.1466    0.0685   -0.0275    0.0675    0.1519    0.0597
          40    0.0143   -0.0168    0.0280    0.0049    0.3171   -0.0438    0.0010   -0.0021
          41    0.0198    0.0121   -0.0216    0.0070   -0.2493   -0.0488   -0.0010    0.0003
          42    0.0098   -0.0004    0.0001   -0.0142    0.0009   -0.0447   -0.0001   -0.0012
          43   -0.0249    0.0361    0.0177    0.0484   -0.0257    0.0022   -0.0837    0.1250
          44   -0.0003    0.1004    0.0043   -0.0058    0.0013   -0.0030    0.0027    0.0063
          45    0.2244   -0.0106   -0.1453    0.0716    0.0327    0.0673   -0.1518   -0.0632
          46   -0.0011    0.0549   -0.0170   -0.0891    0.0149    0.0658   -0.0084    0.0706
          47   -0.0045   -0.0418    0.0116   -0.1149   -0.0078    0.0853    0.0067   -0.0514
          48    0.0108   -0.0001    0.0005    0.0671   -0.0014   -0.0537   -0.0001   -0.0007
          49    0.0123   -0.0367    0.0164    0.0598    0.2185   -0.0692   -0.0014    0.0569
          50    0.0182    0.0273   -0.0116    0.0793   -0.1736   -0.0848    0.0009   -0.0475
          51    0.0105   -0.0008    0.0005    0.0448    0.0006   -0.0430   -0.0001   -0.0004


   Root No.      17        18        19        20        21        22        23        24

                17 A      18 A      19 A      20 A      21 A      22 A      23 A      24 A   

                1015.6    1034.8    1064.0    1074.8    1099.4    1110.4    1126.8    1187.1
  
           1   -0.0204   -0.0018   -0.0245    0.0058   -0.0084    0.0189    0.0165   -0.0169
           2   -0.0259    0.0016   -0.0322   -0.0043   -0.0108   -0.0144    0.0216   -0.0235
           3    0.0095   -0.0001   -0.0006   -0.0001    0.0086    0.0001   -0.0090    0.0317
           4    0.0149   -0.0003    0.0071   -0.0018    0.0048   -0.0241   -0.0252    0.0024
           5    0.0013   -0.0072    0.0089    0.0013   -0.0155   -0.0057    0.0222   -0.0067
           6   -0.0153   -0.0094   -0.0054    0.0081   -0.0063    0.0137    0.0076   -0.0019
           7   -0.0010    0.0068    0.0068   -0.0016   -0.0161   -0.0012    0.0281   -0.0074
           8    0.0144    0.0022    0.0093    0.0014    0.0003    0.0248   -0.0182    0.0009
           9   -0.0140    0.0097   -0.0054   -0.0080   -0.0062   -0.0139    0.0076   -0.0018
          10   -0.0057    0.0029   -0.0122    0.0003    0.0163    0.0081   -0.0246    0.0068
          11   -0.0021    0.0060   -0.0071    0.0018    0.0187    0.0089   -0.0194    0.0075
          12    0.0148    0.0061   -0.0090   -0.0331    0.0014   -0.0027   -0.0013   -0.0011
          13    0.0020    0.0317    0.0007   -0.0016    0.0003   -0.0013   -0.0001   -0.0018
          14    0.0023   -0.0247    0.0011    0.0012    0.0005    0.0010   -0.0001   -0.0021
          15   -0.0168    0.0002    0.0122    0.0000   -0.0009    0.0002    0.0021   -0.0504
          16   -0.0015   -0.0049   -0.0036   -0.0017    0.0136   -0.0062   -0.0123    0.0052
          17   -0.0066   -0.0043   -0.0136   -0.0009    0.0207   -0.0098   -0.0289    0.0083
          18    0.0136   -0.0063   -0.0091    0.0331    0.0015    0.0027   -0.0013   -0.0011
          19    0.0037   -0.0441    0.0018    0.0010    0.0004    0.0013    0.0009    0.0020
          20    0.0042    0.0342    0.0024   -0.0008    0.0005   -0.0010    0.0011    0.0025
          21    0.0229   -0.0004    0.0043    0.0000    0.0032   -0.0002   -0.0073    0.0149
          22   -0.0606   -0.0389   -0.0314    0.0286   -0.0379    0.2116    0.0616    0.1537
          23   -0.0746    0.0310   -0.0415   -0.0215   -0.0478   -0.1619    0.0803    0.2046
          24   -0.0343    0.0006   -0.0070   -0.0001   -0.0213   -0.0005    0.0399    0.2218
          25    0.1049   -0.0500   -0.0563   -0.1523   -0.0849   -0.0372    0.0124   -0.0337
          26    0.1123   -0.0249    0.0007   -0.1203   -0.0903   -0.0667    0.0623   -0.0285
          27    0.0142    0.0029    0.0176    0.0004   -0.0117   -0.0176    0.0131    0.0038
          28   -0.0020    0.0035    0.1722    0.1247   -0.0380   -0.1215   -0.0565    0.0622
          29   -0.0453   -0.0327    0.1322    0.1118   -0.0820   -0.0657    0.0449    0.0066
          30    0.0028    0.0061    0.0096    0.0099    0.0077   -0.0024   -0.0166    0.0203
          31    0.0826    0.0092    0.0156    0.0749   -0.0643    0.0532    0.0570   -0.0187
          32    0.1393    0.0531   -0.0546    0.1785   -0.1061    0.0520    0.0290   -0.0382
          33    0.0137   -0.0030    0.0176   -0.0003   -0.0117    0.0174    0.0132    0.0035
          34   -0.0376    0.0329    0.0817   -0.0734   -0.0690    0.0298    0.0588   -0.0103
          35   -0.0146    0.0057    0.2020   -0.1494   -0.0599    0.1344   -0.0413    0.0629
          36    0.0015   -0.0061    0.0096   -0.0099    0.0076    0.0026   -0.0166    0.0205
          37   -0.0188   -0.0106   -0.0328   -0.0012   -0.0299   -0.0153   -0.0790    0.0100
          38    0.0517    0.0538    0.0598   -0.0071    0.1808    0.0836    0.1570   -0.0013
          39   -0.0400   -0.0157    0.0153    0.0664    0.0038    0.0099    0.0058    0.0031
          40   -0.0174   -0.0912    0.0586   -0.0038    0.0111    0.0168   -0.0356   -0.0564
          41   -0.0219    0.0713    0.0757    0.0039    0.0140   -0.0142   -0.0460   -0.0745
          42   -0.0328   -0.0006    0.0620    0.0005    0.0081   -0.0001   -0.0284   -0.0985
          43    0.0448   -0.0552    0.0662    0.0063    0.1825   -0.0840    0.1725   -0.0035
          44   -0.0048   -0.0040   -0.0156    0.0029    0.0198   -0.0073   -0.0340    0.0091
          45   -0.0364    0.0163    0.0158   -0.0665    0.0035   -0.0099    0.0060    0.0030
          46    0.0505    0.1733    0.0041   -0.0017    0.0034    0.0003   -0.0052    0.0451
          47    0.0683   -0.1350    0.0051    0.0012    0.0045   -0.0007   -0.0068    0.0580
          48   -0.0365    0.0014    0.0035    0.0000   -0.0003    0.0001   -0.0002   -0.0384
          49   -0.0512    0.1442    0.0073   -0.0058   -0.0042   -0.0009    0.0114   -0.0336
          50   -0.0632   -0.1115    0.0093    0.0046   -0.0053    0.0015    0.0146   -0.0426
          51   -0.0284    0.0014    0.0101    0.0000   -0.0007    0.0001    0.0017   -0.0219


   Root No.      25        26        27        28        29        30        31        32

                25 A      26 A      27 A      28 A      29 A      30 A      31 A      32 A   

                1203.5    1230.0    1248.7    1290.5    1342.9    1370.6    1401.9    1406.6
  
           1   -0.0017    0.0608    0.0360   -0.0196   -0.0007   -0.0056    0.0314    0.0201
           2    0.0003   -0.0461   -0.0273   -0.0257   -0.0011    0.0041    0.0410    0.0268
           3   -0.0305   -0.0008   -0.0003   -0.0446    0.0175   -0.0001    0.0376    0.0255
           4   -0.0055   -0.0123   -0.0412   -0.0105    0.0291   -0.0342   -0.0139   -0.0259
           5   -0.0019    0.0106   -0.0134   -0.0202    0.0320   -0.0258   -0.0407    0.0153
           6    0.0111   -0.0048   -0.0038    0.0083   -0.0008   -0.0015   -0.0076   -0.0038
           7    0.0001   -0.0134    0.0019   -0.0166    0.0230    0.0153   -0.0355    0.0237
           8   -0.0062    0.0088    0.0433   -0.0157    0.0368    0.0398   -0.0243   -0.0203
           9    0.0107    0.0052    0.0039    0.0082   -0.0008    0.0015   -0.0076   -0.0037
          10    0.0015    0.0060    0.0120    0.0112   -0.0134    0.0162    0.0114   -0.0040
          11    0.0017    0.0254   -0.0179    0.0144   -0.0167    0.0447    0.0101   -0.0024
          12    0.0001    0.0030   -0.0001    0.0003   -0.0008    0.0018    0.0011   -0.0001
          13   -0.0070   -0.0106   -0.0045   -0.0097   -0.0113    0.0019   -0.0067   -0.0041
          14   -0.0096    0.0080    0.0035   -0.0121   -0.0147   -0.0014   -0.0090   -0.0057
          15   -0.0282   -0.0000    0.0001    0.0349   -0.0170    0.0001   -0.0276   -0.0169
          16    0.0019   -0.0228    0.0205    0.0108   -0.0127   -0.0385    0.0067   -0.0029
          17    0.0024   -0.0126   -0.0068    0.0147   -0.0176   -0.0274    0.0137   -0.0053
          18    0.0002   -0.0030    0.0001    0.0003   -0.0008   -0.0018    0.0011   -0.0002
          19   -0.0116    0.0032    0.0016    0.0054   -0.0106   -0.0003   -0.0146   -0.0100
          20   -0.0146   -0.0030   -0.0013    0.0068   -0.0136    0.0004   -0.0188   -0.0129
          21    0.0252    0.0002    0.0000   -0.0093    0.0050   -0.0000    0.0051    0.0027
          22    0.0759   -0.1645   -0.0600    0.0390   -0.0208    0.0239   -0.0365   -0.0314
          23    0.0905    0.1254    0.0458    0.0514   -0.0270   -0.0177   -0.0475   -0.0430
          24    0.0442   -0.0006   -0.0002    0.0202   -0.0045    0.0002   -0.0350   -0.0309
          25    0.0576   -0.0798    0.0342    0.0862   -0.0904    0.1221   -0.0271    0.0792
          26    0.0030   -0.0378    0.0959    0.0106   -0.0254   -0.0382    0.0836   -0.0681
          27   -0.0151   -0.0042    0.0286   -0.0164    0.0161   -0.0730    0.0713   -0.0937
          28   -0.0522   -0.0824    0.0485    0.0112   -0.0715    0.1336    0.0182    0.1191
          29   -0.0184   -0.0551    0.0959    0.0008   -0.0222   -0.0405    0.0945   -0.0716
          30   -0.0039   -0.0053   -0.0166    0.0056   -0.0167    0.0748   -0.0545    0.0961
          31   -0.0116    0.0145   -0.0831   -0.0130    0.0003    0.0705    0.0876   -0.0911
          32    0.0526    0.0892   -0.0581    0.0859   -0.0945   -0.1072   -0.0034    0.0587
          33   -0.0143    0.0035   -0.0286   -0.0166    0.0166    0.0738    0.0712   -0.0978
          34   -0.0036    0.0309   -0.0793   -0.0024   -0.0016    0.0758    0.0860   -0.1056
          35   -0.0565    0.0915   -0.0734    0.0109   -0.0753   -0.1178    0.0432    0.0961
          36   -0.0044    0.0049    0.0164    0.0057   -0.0172   -0.0754   -0.0544    0.0997
          37   -0.0020    0.0386   -0.0345    0.0105   -0.0095    0.0481    0.0106   -0.0088
          38    0.0136   -0.0860    0.1410    0.0216   -0.0349   -0.0620    0.0176    0.0092
          39    0.0024   -0.0040    0.0043    0.0032   -0.0022   -0.0008    0.0001   -0.0003
          40    0.2100    0.0276    0.0096   -0.0344    0.0153   -0.0070    0.0222    0.0085
          41    0.2717   -0.0131   -0.0055   -0.0441    0.0196    0.0045    0.0285    0.0113
          42    0.1512    0.0036    0.0010    0.0164    0.0052   -0.0004   -0.0047   -0.0057
          43    0.0112    0.0932   -0.1446    0.0182   -0.0306    0.0726    0.0140    0.0145
          44    0.0022   -0.0141   -0.0047    0.0159   -0.0187   -0.0295    0.0149   -0.0069
          45    0.0023    0.0040   -0.0042    0.0031   -0.0022    0.0008    0.0001   -0.0003
          46    0.0258    0.0025    0.0024    0.0948    0.0879   -0.0007    0.0455    0.0298
          47    0.0338   -0.0024   -0.0022    0.1212    0.1122   -0.0002    0.0581    0.0380
          48   -0.0196    0.0002    0.0001   -0.1039   -0.1049    0.0005   -0.0645   -0.0433
          49   -0.0460   -0.0125   -0.0064    0.1367    0.0802    0.0004    0.0330    0.0237
          50   -0.0601    0.0085    0.0048    0.1771    0.1040   -0.0010    0.0430    0.0307
          51   -0.0068   -0.0001   -0.0000    0.1048    0.0835   -0.0004    0.0470    0.0326


   Root No.      33        34        35        36        37        38        39        40

                33 A      34 A      35 A      36 A      37 A      38 A      39 A      40 A   

                1410.3    1829.6    1861.9    2897.2    2974.8    2976.0    3039.8    3052.6
  
           1    0.0117    0.0047   -0.0183    0.0208    0.0002    0.0012    0.0006   -0.0006
           2   -0.0078    0.0062   -0.0238    0.0274   -0.0000    0.0015    0.0008    0.0005
           3    0.0006    0.0011   -0.0238   -0.0521   -0.0001   -0.0030   -0.0016   -0.0000
           4   -0.0074    0.0062   -0.0018    0.0009    0.0010    0.0010    0.0011   -0.0135
           5    0.0460   -0.0175    0.0001   -0.0004    0.0005    0.0004   -0.0016    0.0173
           6    0.0011   -0.0005   -0.0004    0.0048   -0.0318   -0.0279   -0.0001   -0.0012
           7   -0.0452   -0.0185    0.0007   -0.0006   -0.0002    0.0001   -0.0017   -0.0191
           8   -0.0063    0.0012   -0.0017    0.0008   -0.0010    0.0011    0.0006    0.0079
           9   -0.0013   -0.0005   -0.0003    0.0048    0.0293   -0.0303   -0.0001    0.0012
          10   -0.0064   -0.1620    0.0075   -0.0002   -0.0000    0.0000   -0.0001    0.0007
          11   -0.0364    0.1539   -0.0056   -0.0001   -0.0000   -0.0001   -0.0000    0.0004
          12   -0.0016    0.0012   -0.0000   -0.0000    0.0001   -0.0002   -0.0000    0.0000
          13   -0.0030    0.0065    0.1365   -0.0006    0.0003    0.0002    0.0208   -0.0000
          14    0.0021    0.0084    0.1761   -0.0007   -0.0002    0.0003    0.0262    0.0001
          15   -0.0004   -0.0001    0.0257    0.0015    0.0000    0.0003   -0.0551   -0.0001
          16    0.0332    0.1918   -0.0074   -0.0001    0.0000   -0.0001   -0.0000   -0.0002
          17    0.0157   -0.1147    0.0057   -0.0002    0.0000   -0.0000   -0.0001   -0.0007
          18    0.0016    0.0012   -0.0000   -0.0000   -0.0001   -0.0002   -0.0000   -0.0000
          19    0.0002   -0.0064   -0.1177    0.0000   -0.0000   -0.0000   -0.0009   -0.0000
          20   -0.0007   -0.0083   -0.1515    0.0000   -0.0000   -0.0000   -0.0011   -0.0000
          21    0.0000    0.0005    0.0086   -0.0005   -0.0000   -0.0000    0.0047    0.0000
          22   -0.0426    0.0020    0.0250   -0.2499   -0.0034   -0.0152   -0.0045   -0.0011
          23    0.0307    0.0026    0.0324   -0.3294    0.0012   -0.0203   -0.0059    0.0007
          24   -0.0008   -0.0038    0.0214    0.6261    0.0014    0.0338    0.0186    0.0002
          25    0.0600   -0.0177    0.0024   -0.0100    0.0866    0.0759   -0.0075    0.0876
          26   -0.0956   -0.0290    0.0031    0.0208   -0.1184   -0.1037    0.0105   -0.1213
          27   -0.1074   -0.0019   -0.0023   -0.0309    0.1732    0.1514   -0.0180    0.2095
          28    0.0676   -0.0176   -0.0088    0.0099   -0.1010   -0.0889   -0.0090    0.0795
          29   -0.1054   -0.0268   -0.0017   -0.0143    0.1127    0.0992    0.0080   -0.0868
          30    0.0998   -0.0018   -0.0052   -0.0270    0.2097    0.1844    0.0164   -0.1947
          31    0.1037   -0.0232    0.0023    0.0228    0.1264   -0.1308    0.0111    0.1325
          32   -0.0290   -0.0249    0.0033   -0.0041   -0.0475    0.0493   -0.0040   -0.0489
          33    0.1026   -0.0019   -0.0023   -0.0309   -0.1595    0.1647   -0.0165   -0.1976
          34    0.1145   -0.0211    0.0008   -0.0165   -0.1247    0.1297    0.0095    0.0990
          35   -0.0318   -0.0242   -0.0090    0.0058    0.0617   -0.0641   -0.0061   -0.0503
          36   -0.0947   -0.0018   -0.0051   -0.0271   -0.1930    0.2004    0.0153    0.1839
          37   -0.0351   -0.1339    0.0067   -0.0022   -0.0002    0.0001    0.0008   -0.0048
          38    0.0608   -0.0928    0.0053   -0.0010   -0.0000    0.0000    0.0001   -0.0005
          39    0.0013   -0.0075    0.0002   -0.0001   -0.0004   -0.0009    0.0001   -0.0002
          40    0.0005    0.0008   -0.0022    0.0081    0.0005    0.0011   -0.2104   -0.0008
          41   -0.0002    0.0010   -0.0042    0.0103   -0.0004    0.0014   -0.2643   -0.0004
          42   -0.0002   -0.0073   -0.1336   -0.0165    0.0001   -0.0014    0.6607    0.0015
          43   -0.0672   -0.0535    0.0034   -0.0004   -0.0000    0.0000   -0.0001   -0.0007
          44    0.0172   -0.1537    0.0079   -0.0023    0.0003    0.0001    0.0008    0.0038
          45   -0.0013   -0.0074    0.0002   -0.0001    0.0003   -0.0010    0.0001    0.0001
          46    0.0025   -0.0007   -0.0206   -0.0010   -0.0001   -0.0001   -0.0233   -0.0001
          47   -0.0004   -0.0010   -0.0278   -0.0013    0.0000   -0.0002   -0.0306   -0.0001
          48   -0.0011   -0.0080   -0.1407   -0.0016   -0.0000   -0.0003   -0.0604   -0.0001
          49   -0.0018    0.0000   -0.0015   -0.0024    0.0000   -0.0004   -0.0034    0.0000
          50    0.0027    0.0001   -0.0002   -0.0031   -0.0000   -0.0005   -0.0042   -0.0000
          51    0.0008    0.0080    0.1510    0.0030    0.0001    0.0009    0.0055   -0.0000


   Root No.      41        42        43        44        45

                41 A      42 A      43 A      44 A      45 A   

                3053.6    3115.7    3134.3    3134.8    3146.9
  
           1   -0.0001   -0.0001    0.0001    0.0006    0.0003
           2   -0.0001    0.0001    0.0001    0.0008    0.0005
           3   -0.0005    0.0000    0.0004   -0.0000   -0.0002
           4   -0.0123    0.0002    0.0001   -0.0011   -0.0000
           5    0.0157   -0.0001   -0.0002    0.0017   -0.0000
           6   -0.0011    0.0001    0.0001   -0.0000   -0.0000
           7    0.0195    0.0001   -0.0002    0.0020   -0.0000
           8   -0.0081   -0.0002    0.0001   -0.0006   -0.0000
           9   -0.0012   -0.0001    0.0001   -0.0000   -0.0000
          10    0.0009    0.0368    0.0048   -0.0366    0.0002
          11    0.0006    0.0106    0.0008   -0.0057    0.0000
          12    0.0000    0.0015    0.0002   -0.0013    0.0000
          13    0.0006   -0.0000   -0.0019   -0.0002    0.0054
          14    0.0008    0.0000   -0.0024   -0.0002    0.0069
          15   -0.0017   -0.0000   -0.0011   -0.0002   -0.0048
          16    0.0004   -0.0005   -0.0006    0.0043   -0.0000
          17    0.0011   -0.0377    0.0049   -0.0372    0.0002
          18    0.0000   -0.0014    0.0002   -0.0013    0.0000
          19   -0.0000   -0.0000    0.0136    0.0011   -0.0281
          20   -0.0000   -0.0000    0.0169    0.0014   -0.0365
          21    0.0002   -0.0000   -0.0567   -0.0054   -0.0327
          22   -0.0025   -0.0001    0.0024   -0.0005   -0.0010
          23   -0.0033    0.0001    0.0031   -0.0006   -0.0014
          24    0.0061   -0.0000   -0.0019    0.0016    0.0040
          25    0.0779   -0.0007   -0.0006    0.0041    0.0001
          26   -0.1081    0.0036    0.0010   -0.0076   -0.0000
          27    0.1867   -0.0041   -0.0014    0.0114    0.0001
          28    0.0704   -0.0005   -0.0001    0.0038   -0.0004
          29   -0.0771    0.0026    0.0004   -0.0057    0.0002
          30   -0.1732    0.0036    0.0006   -0.0110    0.0003
          31   -0.1326   -0.0035    0.0011   -0.0085   -0.0001
          32    0.0488   -0.0003   -0.0003    0.0019    0.0001
          33    0.1978    0.0040   -0.0014    0.0115    0.0001
          34   -0.0988   -0.0026    0.0004   -0.0065    0.0003
          35    0.0500   -0.0003   -0.0000    0.0021   -0.0003
          36   -0.1837   -0.0035    0.0007   -0.0111    0.0003
          37   -0.0152   -0.4355   -0.0490    0.3721   -0.0019
          38   -0.0033   -0.1287   -0.0142    0.1075   -0.0005
          39   -0.0006   -0.0175   -0.0019    0.0148   -0.0001
          40   -0.0067   -0.0000   -0.0058   -0.0008   -0.0183
          41   -0.0084    0.0000   -0.0073   -0.0010   -0.0231
          42    0.0206    0.0000    0.0106    0.0017    0.0521
          43    0.0009    0.0072   -0.0005    0.0039   -0.0000
          44   -0.0158    0.4481   -0.0520    0.3925   -0.0026
          45   -0.0006    0.0171   -0.0019    0.0149   -0.0001
          46   -0.0008    0.0001    0.0613    0.0065    0.2397
          47   -0.0010    0.0002    0.0801    0.0085    0.3140
          48   -0.0020    0.0003    0.1155    0.0127    0.5571
          49    0.0001   -0.0001   -0.1989   -0.0182    0.0463
          50    0.0001   -0.0000   -0.2502   -0.0229    0.0579
          51   -0.0004    0.0000    0.5606    0.0511   -0.1633


           MASS-WEIGHTED COORDINATE ANALYSIS (NORMAL COORDINATES)


   Root No.       1         2         3         4         5         6         7         8

                 1 A       2 A       3 A       4 A       5 A       6 A       7 A       8 A   

                  82.2      90.6     338.3     359.8     381.2     428.2     652.3     688.9
  
           1    0.0573   -0.2160   -0.1811   -0.0083   -0.1158    0.0006    0.0297    0.2244
           2    0.0497    0.1703    0.1380   -0.0213    0.0894    0.0095   -0.0152    0.2951
           3   -0.2146   -0.0116    0.0122    0.4157   -0.0120    0.2208   -0.0031   -0.2117
           4    0.0555   -0.2124   -0.1837    0.0244   -0.1217   -0.0401    0.1624    0.2991
           5    0.0695   -0.0884   -0.0143    0.0434    0.0012   -0.2112    0.0187   -0.1990
           6   -0.3258   -0.0524   -0.1016   -0.1458   -0.2230   -0.1517    0.0208   -0.0882
           7    0.0490    0.0345   -0.0298    0.0371   -0.0294   -0.1956    0.0167   -0.2722
           8    0.0461    0.2361    0.1855    0.0239    0.1194   -0.0854   -0.1559    0.2368
           9   -0.3328    0.0164    0.0924   -0.1418    0.2326   -0.1428   -0.0215   -0.0891
          10    0.0276    0.0293   -0.0138    0.0273   -0.0220   -0.1588    0.1024   -0.1059
          11    0.0467   -0.1580   -0.0630    0.0385   -0.0650   -0.2200    0.0554   -0.1641
          12    0.3399   -0.0016   -0.3668   -0.0097    0.3154   -0.0420    0.0209   -0.0329
          13   -0.0892   -0.2638    0.2554   -0.0596    0.1560    0.2608   -0.3952   -0.0049
          14   -0.1474    0.1926   -0.2051   -0.0611   -0.1264    0.3289    0.3065   -0.0128
          15   -0.0266   -0.0028    0.0182    0.4698   -0.0081    0.0178    0.0010    0.2474
          16    0.0198    0.1641    0.0617    0.0274    0.0607   -0.1665   -0.0309   -0.1295
          17    0.0372    0.0195    0.0361    0.0347    0.0438   -0.2088   -0.1192   -0.1443
          18    0.3355    0.0396    0.3671   -0.0470   -0.3125   -0.0456   -0.0206   -0.0318
          19   -0.1179    0.4345    0.0520   -0.0772    0.0384    0.2859    0.0198   -0.0159
          20   -0.1031   -0.3489   -0.0491   -0.0973   -0.0348    0.3697   -0.0160   -0.0198
          21    0.2669    0.0150   -0.0148   -0.3427    0.0026    0.2010    0.0021    0.0077
          22    0.0489   -0.0814   -0.0756    0.0458   -0.0229    0.0050    0.0644    0.1217
          23    0.0551    0.0670    0.0614    0.0543    0.0161    0.0098   -0.0468    0.1615
          24   -0.0267   -0.0015    0.0054    0.1647   -0.0042    0.0675   -0.0009    0.0019
          25    0.0381   -0.0816   -0.0563    0.1249    0.0067    0.0628    0.0256   -0.0334
          26   -0.1072   -0.0582    0.0538   -0.0643   -0.1872   -0.1401    0.0449    0.0448
          27   -0.1888   -0.0271    0.0113   -0.1515   -0.2112   -0.1331    0.0429    0.1063
          28   -0.0018   -0.0937   -0.0749   -0.0965   -0.0871   -0.0919    0.0688    0.1809
          29    0.1591   -0.0329   -0.0951    0.1056    0.1828    0.0053   -0.0254   -0.2109
          30   -0.1759   -0.0263    0.0074   -0.1423   -0.1900   -0.1209    0.0364    0.1036
          31   -0.1167    0.0214   -0.0714   -0.0831    0.1902   -0.1469   -0.0383    0.0529
          32   -0.0023    0.0949    0.0466    0.1004    0.0391    0.0260   -0.0373   -0.0199
          33   -0.1919    0.0060   -0.0203   -0.1413    0.2209   -0.1262   -0.0419    0.1069
          34    0.1524    0.0240    0.0801    0.1144   -0.2053    0.0241    0.0385   -0.2525
          35    0.0292    0.1032    0.0952   -0.0713    0.0409   -0.0833   -0.0570    0.1190
          36   -0.1790    0.0066   -0.0157   -0.1333    0.1991   -0.1147   -0.0352    0.1041
          37    0.0039    0.0233    0.0117    0.0076   -0.0025   -0.0518    0.0145   -0.0610
          38    0.0114   -0.0973   -0.0519    0.0097   -0.0527   -0.0467    0.0664    0.0308
          39    0.2143   -0.0004   -0.2558    0.0181    0.2403    0.0032    0.0234    0.2027
          40   -0.0544   -0.2437    0.2942    0.0284    0.1978    0.1003    0.0072   -0.0264
          41   -0.0987    0.1823   -0.2270    0.0534   -0.1581    0.1219   -0.0065   -0.0342
          42   -0.0398   -0.0035    0.0081    0.1733   -0.0023    0.0248    0.0008    0.0485
          43   -0.0011    0.1008    0.0542    0.0047    0.0508   -0.0279   -0.0591    0.0472
          44    0.0065    0.0047    0.0044    0.0100    0.0181   -0.0614   -0.0335   -0.0500
          45    0.2113    0.0239    0.2567   -0.0090   -0.2395   -0.0003   -0.0222    0.2028
          46   -0.0696    0.1379    0.1997    0.0943    0.1525    0.0523    0.5356    0.0763
          47   -0.0735   -0.1138   -0.1471    0.1296   -0.1226    0.0626   -0.4121    0.1124
          48    0.1184    0.0064   -0.0091   -0.2457    0.0034    0.1014    0.0022   -0.1059
          49   -0.0066    0.2960   -0.2263   -0.1406   -0.1637    0.1216   -0.3287   -0.0884
          50    0.0248   -0.2299    0.1626   -0.1924    0.1285    0.1656    0.2512   -0.1254
          51    0.1116    0.0072   -0.0112   -0.2186    0.0007    0.0993   -0.0039   -0.0854


   Root No.       9        10        11        12        13        14        15        16

                 9 A      10 A      11 A      12 A      13 A      14 A      15 A      16 A   

                 750.3     773.4     868.6     875.1     938.0     953.7     988.7    1010.5
  
           1   -0.1100    0.2227   -0.0059   -0.0281   -0.0337    0.0307   -0.1098    0.1316
           2   -0.1498   -0.1661    0.0044   -0.0373    0.0266    0.0368    0.0846   -0.1153
           3    0.1387   -0.0021    0.0016    0.2038   -0.0013   -0.1534   -0.0006    0.0044
           4   -0.1923    0.0135   -0.0403    0.3263    0.0611    0.0102    0.1121   -0.1053
           5    0.0974   -0.3251    0.0496   -0.0890   -0.0531   -0.0175   -0.1514    0.2006
           6   -0.1126   -0.0176   -0.3243    0.1687    0.0143    0.2694    0.1201    0.1687
           7    0.1526    0.3129   -0.0620   -0.1710    0.0672   -0.0256    0.1768   -0.2231
           8   -0.1580    0.0776    0.0315    0.2894   -0.0456    0.0088   -0.0684    0.0585
           9   -0.1124    0.0204    0.3283    0.1623   -0.0039    0.2683   -0.1176   -0.1804
          10    0.0427   -0.5369    0.0151   -0.0203   -0.0198    0.0043    0.0240   -0.0249
          11    0.0765   -0.1021   -0.0181   -0.0233    0.0152    0.0008    0.0967   -0.1199
          12   -0.1704   -0.0107   -0.0396   -0.1075    0.0211   -0.1946   -0.2965   -0.1744
          13    0.0241   -0.0379    0.0064   -0.0601   -0.2710    0.0242    0.0001    0.0249
          14    0.0344    0.0289   -0.0061   -0.0796    0.2117    0.0176    0.0001   -0.0181
          15   -0.0042    0.0004   -0.0022   -0.2170   -0.0038   -0.0902   -0.0002   -0.0054
          16    0.0612   -0.0473    0.0210   -0.0178   -0.0200    0.0016   -0.0868    0.1085
          17    0.0737    0.5433   -0.0105   -0.0246    0.0150    0.0035   -0.0495    0.0522
          18   -0.1685    0.0146    0.0371   -0.1076   -0.0295   -0.1943    0.2950    0.1854
          19    0.0361    0.0004    0.0067   -0.0964   -0.0840    0.0275    0.0072   -0.1453
          20    0.0466   -0.0011   -0.0070   -0.1272    0.0668    0.0345   -0.0055    0.1148
          21    0.0134    0.0003   -0.0022   -0.2210    0.0037    0.2521    0.0003    0.0058
          22   -0.0414    0.0485    0.1321   -0.0083   -0.0186   -0.1098   -0.2903    0.1571
          23   -0.0560   -0.0360   -0.1007   -0.0082    0.0084   -0.1471    0.2212   -0.1311
          24    0.0311   -0.0006    0.0002    0.0521   -0.0035   -0.1759    0.0002   -0.0028
          25   -0.0440    0.0556   -0.1467    0.3068    0.0079    0.0752    0.1909    0.2403
          26    0.1933   -0.0534    0.2639   -0.0396   -0.0459   -0.2072   -0.0827    0.1522
          27    0.0733    0.0017    0.1437   -0.0642   -0.0116   -0.0957   -0.0722   -0.0200
          28   -0.0686    0.0604    0.1051   -0.0164    0.0431   -0.0733   -0.1889   -0.0948
          29   -0.1345   -0.0880   -0.2675    0.0551    0.0151    0.2111   -0.0737    0.1751
          30    0.0513    0.0150    0.1174   -0.0485   -0.0006   -0.0779   -0.0568   -0.0461
          31    0.1992    0.0614   -0.2964   -0.1141    0.0376   -0.2223    0.1287   -0.0651
          32    0.0085   -0.0400    0.0762    0.2834    0.0071    0.0165   -0.1633   -0.2458
          33    0.0731   -0.0034   -0.1452   -0.0612    0.0070   -0.0963    0.0714    0.0231
          34   -0.1085    0.1033    0.2875    0.0520    0.0062    0.2211    0.0231   -0.2034
          35   -0.1031   -0.0322   -0.0296   -0.0008   -0.0473   -0.0116    0.2028    0.0421
          36    0.0507   -0.0161   -0.1185   -0.0460   -0.0030   -0.0776    0.0563    0.0469
          37    0.0120   -0.1375    0.0004   -0.0455   -0.0154   -0.0088   -0.0617    0.0731
          38   -0.0601   -0.0965   -0.0467    0.1101    0.0443   -0.0007    0.1956   -0.3308
          39    0.5416    0.0042    0.3931    0.1660   -0.0510    0.2006    0.3752    0.1670
          40    0.0344   -0.0266    0.0751    0.0118    0.5897   -0.1302    0.0023   -0.0060
          41    0.0476    0.0191   -0.0579    0.0169   -0.4637   -0.1449   -0.0025    0.0009
          42    0.0236   -0.0006    0.0003   -0.0343    0.0016   -0.1329   -0.0003   -0.0033
          43   -0.0598    0.0570    0.0474    0.1173   -0.0477    0.0065   -0.2067    0.3495
          44   -0.0008    0.1585    0.0116   -0.0141    0.0025   -0.0089    0.0067    0.0175
          45    0.5400   -0.0168   -0.3895    0.1735    0.0608    0.2000   -0.3750   -0.1766
          46   -0.0027    0.0866   -0.0456   -0.2158    0.0277    0.1954   -0.0208    0.1973
          47   -0.0108   -0.0659    0.0311   -0.2783   -0.0145    0.2534    0.0166   -0.1437
          48    0.0260   -0.0002    0.0013    0.1626   -0.0025   -0.1594   -0.0003   -0.0019
          49    0.0297   -0.0579    0.0441    0.1449    0.4064   -0.2056   -0.0035    0.1590
          50    0.0439    0.0430   -0.0311    0.1921   -0.3228   -0.2519    0.0021   -0.1327
          51    0.0252   -0.0012    0.0014    0.1085    0.0011   -0.1278   -0.0002   -0.0012


   Root No.      17        18        19        20        21        22        23        24

                17 A      18 A      19 A      20 A      21 A      22 A      23 A      24 A   

                1015.6    1034.8    1064.0    1074.8    1099.4    1110.4    1126.8    1187.1
  
           1   -0.1953   -0.0151   -0.2116    0.0487   -0.0760    0.1604    0.1427   -0.1256
           2   -0.2477    0.0131   -0.2783   -0.0364   -0.0979   -0.1223    0.1863   -0.1751
           3    0.0912   -0.0010   -0.0050   -0.0011    0.0777    0.0012   -0.0775    0.2358
           4    0.1420   -0.0029    0.0617   -0.0154    0.0438   -0.2042   -0.2173    0.0175
           5    0.0123   -0.0598    0.0770    0.0105   -0.1404   -0.0481    0.1916   -0.0500
           6   -0.1463   -0.0776   -0.0470    0.0677   -0.0576    0.1162    0.0657   -0.0142
           7   -0.0091    0.0559    0.0583   -0.0131   -0.1461   -0.0105    0.2428   -0.0550
           8    0.1378    0.0184    0.0800    0.0117    0.0026    0.2102   -0.1575    0.0065
           9   -0.1337    0.0801   -0.0466   -0.0666   -0.0565   -0.1175    0.0652   -0.0135
          10   -0.0544    0.0244   -0.1054    0.0026    0.1478    0.0688   -0.2121    0.0505
          11   -0.0200    0.0493   -0.0609    0.0153    0.1697    0.0755   -0.1679    0.0561
          12    0.1416    0.0501   -0.0774   -0.2775    0.0127   -0.0233   -0.0108   -0.0084
          13    0.0191    0.2622    0.0057   -0.0137    0.0032   -0.0107   -0.0009   -0.0131
          14    0.0222   -0.2041    0.0093    0.0103    0.0045    0.0086   -0.0009   -0.0153
          15   -0.1610    0.0016    0.1058    0.0004   -0.0081    0.0019    0.0184   -0.3755
          16   -0.0139   -0.0405   -0.0307   -0.0146    0.1236   -0.0526   -0.1060    0.0390
          17   -0.0628   -0.0353   -0.1177   -0.0078    0.1882   -0.0836   -0.2495    0.0619
          18    0.1304   -0.0519   -0.0790    0.2768    0.0136    0.0233   -0.0113   -0.0085
          19    0.0350   -0.3653    0.0154    0.0080    0.0035    0.0112    0.0076    0.0149
          20    0.0401    0.2831    0.0203   -0.0068    0.0045   -0.0081    0.0096    0.0183
          21    0.2191   -0.0036    0.0375    0.0000    0.0294   -0.0016   -0.0626    0.1111
          22   -0.1677   -0.0932   -0.0785    0.0694   -0.0997    0.5202    0.1541    0.3315
          23   -0.2066    0.0744   -0.1039   -0.0523   -0.1255   -0.3980    0.2008    0.4412
          24   -0.0950    0.0014   -0.0175   -0.0002   -0.0560   -0.0013    0.0999    0.4782
          25    0.2905   -0.1198   -0.1409   -0.3694   -0.2233   -0.0914    0.0309   -0.0726
          26    0.3110   -0.0597    0.0017   -0.2918   -0.2374   -0.1640    0.1558   -0.0614
          27    0.0392    0.0068    0.0441    0.0011   -0.0307   -0.0433    0.0328    0.0083
          28   -0.0054    0.0084    0.4307    0.3025   -0.0998   -0.2987   -0.1412    0.1340
          29   -0.1254   -0.0783    0.3308    0.2713   -0.2155   -0.1616    0.1122    0.0143
          30    0.0077    0.0146    0.0240    0.0240    0.0202   -0.0060   -0.0415    0.0439
          31    0.2288    0.0220    0.0391    0.1818   -0.1689    0.1307    0.1427   -0.0403
          32    0.3858    0.1274   -0.1367    0.4330   -0.2789    0.1277    0.0724   -0.0823
          33    0.0380   -0.0073    0.0441   -0.0008   -0.0308    0.0428    0.0331    0.0076
          34   -0.1040    0.0790    0.2043   -0.1781   -0.1813    0.0732    0.1470   -0.0222
          35   -0.0404    0.0136    0.5052   -0.3624   -0.1575    0.3304   -0.1034    0.1355
          36    0.0043   -0.0146    0.0240   -0.0241    0.0200    0.0064   -0.0414    0.0442
          37   -0.0521   -0.0255   -0.0822   -0.0029   -0.0785   -0.0376   -0.1975    0.0216
          38    0.1433    0.1290    0.1495   -0.0172    0.4752    0.2055    0.3927   -0.0027
          39   -0.1109   -0.0376    0.0383    0.1610    0.0101    0.0243    0.0146    0.0066
          40   -0.0481   -0.2187    0.1467   -0.0091    0.0291    0.0412   -0.0889   -0.1216
          41   -0.0606    0.1710    0.1893    0.0095    0.0368   -0.0349   -0.1150   -0.1607
          42   -0.0908   -0.0013    0.1551    0.0011    0.0213   -0.0003   -0.0710   -0.2123
          43    0.1241   -0.1324    0.1656    0.0153    0.4798   -0.2066    0.4316   -0.0075
          44   -0.0133   -0.0097   -0.0390    0.0069    0.0519   -0.0180   -0.0850    0.0196
          45   -0.1008    0.0391    0.0395   -0.1613    0.0092   -0.0243    0.0150    0.0065
          46    0.1398    0.4153    0.0102   -0.0042    0.0090    0.0007   -0.0130    0.0972
          47    0.1890   -0.3236    0.0127    0.0029    0.0119   -0.0017   -0.0171    0.1251
          48   -0.1012    0.0034    0.0089    0.0001   -0.0007    0.0003   -0.0005   -0.0828
          49   -0.1417    0.3456    0.0183   -0.0141   -0.0110   -0.0022    0.0285   -0.0725
          50   -0.1751   -0.2672    0.0233    0.0111   -0.0140    0.0038    0.0365   -0.0919
          51   -0.0787    0.0033    0.0251    0.0000   -0.0018    0.0003    0.0043   -0.0473


   Root No.      25        26        27        28        29        30        31        32

                25 A      26 A      27 A      28 A      29 A      30 A      31 A      32 A   

                1203.5    1230.0    1248.7    1290.5    1342.9    1370.6    1401.9    1406.6
  
           1   -0.0123    0.4793    0.2972   -0.1522   -0.0061   -0.0427    0.2491    0.1720
           2    0.0025   -0.3631   -0.2257   -0.1994   -0.0093    0.0313    0.3258    0.2295
           3   -0.2269   -0.0065   -0.0023   -0.3459    0.1506   -0.0008    0.2982    0.2184
           4   -0.0406   -0.0967   -0.3402   -0.0814    0.2500   -0.2610   -0.1107   -0.2218
           5   -0.0143    0.0832   -0.1106   -0.1570    0.2751   -0.1968   -0.3229    0.1305
           6    0.0826   -0.0381   -0.0310    0.0642   -0.0072   -0.0114   -0.0607   -0.0324
           7    0.0005   -0.1057    0.0158   -0.1291    0.1982    0.1165   -0.2818    0.2027
           8   -0.0462    0.0691    0.3571   -0.1215    0.3170    0.3033   -0.1927   -0.1737
           9    0.0797    0.0412    0.0321    0.0639   -0.0070    0.0115   -0.0606   -0.0317
          10    0.0112    0.0477    0.0992    0.0870   -0.1157    0.1237    0.0908   -0.0338
          11    0.0129    0.2000   -0.1479    0.1115   -0.1434    0.3405    0.0803   -0.0206
          12    0.0008    0.0239   -0.0007    0.0022   -0.0067    0.0138    0.0088   -0.0006
          13   -0.0518   -0.0834   -0.0371   -0.0756   -0.0971    0.0145   -0.0534   -0.0355
          14   -0.0714    0.0633    0.0286   -0.0939   -0.1263   -0.0104   -0.0714   -0.0491
          15   -0.2093   -0.0001    0.0007    0.2707   -0.1462    0.0009   -0.2192   -0.1443
          16    0.0137   -0.1794    0.1689    0.0839   -0.1090   -0.2937    0.0532   -0.0250
          17    0.0176   -0.0991   -0.0565    0.1138   -0.1512   -0.2091    0.1089   -0.0455
          18    0.0013   -0.0238    0.0007    0.0025   -0.0071   -0.0138    0.0088   -0.0013
          19   -0.0861    0.0256    0.0129    0.0417   -0.0909   -0.0022   -0.1163   -0.0858
          20   -0.1084   -0.0236   -0.0109    0.0527   -0.1169    0.0032   -0.1494   -0.1101
          21    0.1870    0.0019    0.0002   -0.0721    0.0427   -0.0003    0.0403    0.0232
          22    0.1634   -0.3756   -0.1435    0.0875   -0.0519    0.0529   -0.0838   -0.0778
          23    0.1948    0.2863    0.1094    0.1155   -0.0674   -0.0392   -0.1093   -0.1064
          24    0.0952   -0.0015   -0.0004    0.0454   -0.0111    0.0004   -0.0805   -0.0766
          25    0.1239   -0.1821    0.0818    0.1937   -0.2254    0.2696   -0.0622    0.1963
          26    0.0065   -0.0862    0.2293    0.0239   -0.0632   -0.0844    0.1923   -0.1688
          27   -0.0326   -0.0096    0.0683   -0.0368    0.0401   -0.1612    0.1639   -0.2321
          28   -0.1123   -0.1882    0.1160    0.0253   -0.1781    0.2949    0.0419    0.2950
          29   -0.0397   -0.1258    0.2293    0.0019   -0.0553   -0.0893    0.2172   -0.1774
          30   -0.0085   -0.0121   -0.0397    0.0125   -0.0417    0.1650   -0.1254    0.2380
          31   -0.0250    0.0332   -0.1986   -0.0293    0.0007    0.1556    0.2015   -0.2257
          32    0.1131    0.2037   -0.1389    0.1930   -0.2356   -0.2367   -0.0078    0.1454
          33   -0.0309    0.0080   -0.0685   -0.0372    0.0413    0.1630    0.1637   -0.2423
          34   -0.0077    0.0705   -0.1895   -0.0054   -0.0041    0.1673    0.1978   -0.2615
          35   -0.1216    0.2089   -0.1755    0.0246   -0.1877   -0.2599    0.0994    0.2380
          36   -0.0094    0.0113    0.0392    0.0127   -0.0428   -0.1665   -0.1251    0.2471
          37   -0.0044    0.0881   -0.0824    0.0236   -0.0236    0.1061    0.0244   -0.0218
          38    0.0293   -0.1964    0.3371    0.0485   -0.0871   -0.1369    0.0406    0.0228
          39    0.0052   -0.0090    0.0104    0.0072   -0.0056   -0.0017    0.0003   -0.0008
          40    0.4521    0.0630    0.0228   -0.0773    0.0381   -0.0153    0.0510    0.0210
          41    0.5849   -0.0299   -0.0132   -0.0991    0.0488    0.0099    0.0655    0.0279
          42    0.3255    0.0083    0.0023    0.0369    0.0128   -0.0008   -0.0108   -0.0141
          43    0.0242    0.2127   -0.3456    0.0408   -0.0763    0.1602    0.0322    0.0359
          44    0.0047   -0.0321   -0.0112    0.0357   -0.0465   -0.0650    0.0344   -0.0172
          45    0.0050    0.0091   -0.0101    0.0070   -0.0054    0.0018    0.0002   -0.0006
          46    0.0555    0.0057    0.0058    0.2130    0.2190   -0.0016    0.1047    0.0737
          47    0.0727   -0.0055   -0.0052    0.2724    0.2798   -0.0003    0.1336    0.0942
          48   -0.0422    0.0005    0.0003   -0.2334   -0.2616    0.0010   -0.1484   -0.1073
          49   -0.0990   -0.0285   -0.0152    0.3072    0.1999    0.0008    0.0759    0.0588
          50   -0.1294    0.0195    0.0115    0.3979    0.2592   -0.0021    0.0988    0.0762
          51   -0.0146   -0.0003   -0.0001    0.2355    0.2081   -0.0009    0.1081    0.0806


   Root No.      33        34        35        36        37        38        39        40

                33 A      34 A      35 A      36 A      37 A      38 A      39 A      40 A   

                1410.3    1829.6    1861.9    2897.2    2974.8    2976.0    3039.8    3052.6
  
           1    0.0917    0.0144   -0.0598    0.0916    0.0012    0.0084    0.0029   -0.0046
           2   -0.0614    0.0190   -0.0776    0.1207   -0.0002    0.0112    0.0037    0.0035
           3    0.0049    0.0033   -0.0774   -0.2294   -0.0009   -0.0223   -0.0071   -0.0001
           4   -0.0582    0.0189   -0.0059    0.0040    0.0072    0.0071    0.0050   -0.0965
           5    0.3614   -0.0538    0.0003   -0.0018    0.0034    0.0028   -0.0071    0.1235
           6    0.0086   -0.0016   -0.0012    0.0213   -0.2238   -0.2049   -0.0004   -0.0088
           7   -0.3550   -0.0569    0.0022   -0.0028   -0.0013    0.0010   -0.0076   -0.1366
           8   -0.0495    0.0037   -0.0057    0.0034   -0.0072    0.0082    0.0027    0.0564
           9   -0.0100   -0.0016   -0.0011    0.0213    0.2059   -0.2227   -0.0005    0.0082
          10   -0.0501   -0.4983    0.0245   -0.0010   -0.0000    0.0000   -0.0002    0.0051
          11   -0.2855    0.4734   -0.0182   -0.0006   -0.0002   -0.0004   -0.0002    0.0028
          12   -0.0122    0.0038   -0.0001   -0.0002    0.0006   -0.0015   -0.0001    0.0003
          13   -0.0239    0.0201    0.4448   -0.0024    0.0020    0.0017    0.0921   -0.0003
          14    0.0169    0.0258    0.5736   -0.0031   -0.0013    0.0024    0.1161    0.0009
          15   -0.0031   -0.0004    0.0836    0.0068    0.0000    0.0022   -0.2439   -0.0009
          16    0.2607    0.5900   -0.0242   -0.0003    0.0002   -0.0004   -0.0002   -0.0012
          17    0.1231   -0.3528    0.0187   -0.0011    0.0001   -0.0001   -0.0003   -0.0053
          18    0.0122    0.0036   -0.0001   -0.0002   -0.0007   -0.0014   -0.0000   -0.0003
          19    0.0015   -0.0198   -0.3836    0.0001   -0.0000   -0.0002   -0.0041   -0.0001
          20   -0.0054   -0.0254   -0.4936    0.0001   -0.0000   -0.0003   -0.0051   -0.0000
          21    0.0004    0.0015    0.0281   -0.0024   -0.0000   -0.0003    0.0209    0.0001
          22   -0.0969    0.0017    0.0236   -0.3185   -0.0068   -0.0324   -0.0057   -0.0023
[...]
 RED. MASS   0.6644         C  5 -- H 14          +9.1% ( 36.2%)     87.7%
 EFF. MASS   4.2458

 VIBRATION   25   25A         ATOM PAIR      ENERGY CONTRIBUTION    RADIAL
 FREQ.      1203.50         C  5 -- H 14         +53.2% ( 82.4%)      0.9%
 T-DIPOLE    0.0388         C  1 -- H  8          +8.5% ( 33.0%)      9.1%
 TRAVEL      0.1459         C  5 -- C  7          +7.7% ( 31.3%)      3.6%
 RED. MASS   0.5373         C  7 -- H 16          +6.0% ( 27.6%)      2.3%
 EFF. MASS   2.6308

 VIBRATION   26   26A         ATOM PAIR      ENERGY CONTRIBUTION    RADIAL
 FREQ.      1229.96         C  1 -- H  8         +27.9% ( 71.7%)      0.0%
 T-DIPOLE    0.0218         C  1 -- C  2         +15.0% ( 52.6%)     62.4%
 TRAVEL      0.0972         C  1 -- C  3         +15.0% ( 52.5%)     61.9%
 RED. MASS   1.6862         C  1 -- C  5         +13.3% ( 49.4%)      0.0%
 EFF. MASS   5.8027

 VIBRATION   27   27A         ATOM PAIR      ENERGY CONTRIBUTION    RADIAL
 FREQ.      1248.69         C  1 -- C  2         +12.0% ( 47.1%)     96.7%
 T-DIPOLE    0.0139         C  1 -- C  3         +12.0% ( 47.1%)     96.6%
 TRAVEL      0.0991         C  3 -- H 12          +8.6% ( 39.9%)      0.3%
 RED. MASS   0.7037         C  2 -- H 10          +8.5% ( 39.8%)      0.4%
 EFF. MASS   5.4939

 VIBRATION   28   28A         ATOM PAIR      ENERGY CONTRIBUTION    RADIAL
 FREQ.      1290.54         C  1 -- C  5         +16.9% ( 52.4%)     82.5%
 T-DIPOLE    0.0342         C  7 -- H 17         +13.9% ( 47.6%)      0.9%
 TRAVEL      0.0974         C  1 -- H  8         +10.7% ( 41.8%)      3.7%
 RED. MASS   0.6643         C  1 -- C  2         +10.0% ( 40.4%)      2.9%
 EFF. MASS   5.5077         C  1 -- C  3         +10.0% ( 40.4%)      2.7%

 VIBRATION   29   29A         ATOM PAIR      ENERGY CONTRIBUTION    RADIAL
 FREQ.      1342.91         C  7 -- H 16         +10.6% ( 41.8%)      0.8%
 T-DIPOLE    0.0325         C  3 -- C  6          +9.4% ( 39.5%)     80.5%
 TRAVEL      0.0951         C  2 -- C  4          +9.3% ( 39.2%)     80.5%
 RED. MASS   0.6025         C  3 -- H 11          +9.0% ( 38.5%)      0.3%
 EFF. MASS   5.5560

 VIBRATION   30   30A         ATOM PAIR      ENERGY CONTRIBUTION    RADIAL
 FREQ.      1370.64         C  2 -- C  4         +13.8% ( 46.9%)     87.7%
 T-DIPOLE    0.0583         C  3 -- C  6         +13.6% ( 46.6%)     87.6%
 TRAVEL      0.0902         C  4 -- C  6         +12.4% ( 44.4%)      0.0%
 RED. MASS   0.7377         C  2 -- H 10         +10.2% ( 40.4%)      0.1%
 EFF. MASS   6.0459         C  3 -- H 12         +10.2% ( 40.4%)      0.1%

 VIBRATION   31   31A         ATOM PAIR      ENERGY CONTRIBUTION    RADIAL
 FREQ.      1401.93         C  1 -- C  5         +13.8% ( 53.4%)     98.4%
 T-DIPOLE    0.1099         C  1 -- C  2         +13.5% ( 52.9%)     19.1%
 TRAVEL      0.0794         C  1 -- C  3         +13.5% ( 52.9%)     18.8%
 RED. MASS   1.2225         C  1 -- H  8         +10.4% ( 46.4%)      0.0%
 EFF. MASS   7.6215

 VIBRATION   32   32A         ATOM PAIR      ENERGY CONTRIBUTION    RADIAL
 FREQ.      1406.56         C  3 -- H 12         +13.6% ( 43.3%)      2.8%
 T-DIPOLE    0.0148         C  2 -- H 10         +12.8% ( 42.0%)      2.6%
 TRAVEL      0.1058         C  1 -- C  3         +10.5% ( 38.2%)     69.6%
 RED. MASS   0.4313         C  1 -- C  2         +10.3% ( 37.7%)     68.1%
 EFF. MASS   4.2828         C  1 -- C  5         +10.0% ( 37.2%)     98.5%

 VIBRATION   33   33A         ATOM PAIR      ENERGY CONTRIBUTION    RADIAL
 FREQ.      1410.31         C  2 -- C  4         +13.1% ( 46.0%)     92.6%
 T-DIPOLE    0.0660         C  3 -- C  6         +12.7% ( 45.4%)     93.3%
 TRAVEL      0.0916         C  2 -- H 10         +11.6% ( 43.3%)      5.6%
 RED. MASS   0.6472         C  2 -- H  9         +11.0% ( 42.3%)      6.6%
 EFF. MASS   5.6970         C  3 -- H 12         +10.7% ( 41.7%)      5.6%
                            C  3 -- H 11         +10.3% ( 40.9%)      6.5%

 VIBRATION   34   34A         ATOM PAIR      ENERGY CONTRIBUTION    RADIAL
 FREQ.      1829.59         C  4 -- C  6         +45.7% ( 99.9%)    100.0%
 T-DIPOLE    0.1308         C  3 -- C  6         +13.9% ( 55.1%)     25.7%
 TRAVEL      0.0557         C  2 -- C  4         +13.9% ( 55.1%)     25.7%
 RED. MASS   5.3639         C  6 -- H 15         +12.9% ( 53.2%)      9.7%
 EFF. MASS  11.8700         C  4 -- H 13         +12.9% ( 53.2%)      9.7%

 VIBRATION   35   35A         ATOM PAIR      ENERGY CONTRIBUTION    RADIAL
 FREQ.      1861.94         C  5 -- C  7         +45.1% ( 99.2%)     98.9%
 T-DIPOLE    0.1559         C  1 -- C  5         +16.7% ( 60.3%)     54.7%
 TRAVEL      0.0554         C  5 -- H 14         +15.4% ( 57.9%)      4.0%
 RED. MASS   5.2672         C  7 -- H 17         +10.9% ( 48.8%)     11.0%
 EFF. MASS  11.7907         C  7 -- H 16         +10.7% ( 48.3%)     12.8%

 VIBRATION   36   36A         ATOM PAIR      ENERGY CONTRIBUTION    RADIAL
 FREQ.      2897.24         C  1 -- H  8         +95.6% ( 99.5%)    100.0%
 T-DIPOLE    0.0565         C  1 -- C  2          +1.1% ( 10.7%)      9.0%
 TRAVEL      0.1263         C  1 -- C  3          +1.1% ( 10.7%)      9.0%
 RED. MASS   0.9114         C  1 -- C  5          +1.1% ( 10.7%)     11.7%
 EFF. MASS   1.4585

 VIBRATION   37   37A         ATOM PAIR      ENERGY CONTRIBUTION    RADIAL
 FREQ.      2974.76         C  2 -- H 10         +29.6% ( 56.5%)     97.3%
 T-DIPOLE    0.0224         C  3 -- H 12         +25.1% ( 51.9%)     97.3%
 TRAVEL      0.1214         C  2 -- H  9         +23.3% ( 50.1%)     95.9%
 RED. MASS   0.2642         C  3 -- H 11         +19.8% ( 46.1%)     95.9%
 EFF. MASS   1.5389

 VIBRATION   38   38A         ATOM PAIR      ENERGY CONTRIBUTION    RADIAL
 FREQ.      2976.02         C  3 -- H 12         +29.5% ( 56.3%)     97.3%
 T-DIPOLE    0.0720         C  2 -- H 10         +25.0% ( 51.8%)     97.3%
 TRAVEL      0.1215         C  3 -- H 11         +23.0% ( 49.8%)     95.9%
 RED. MASS   0.2599         C  2 -- H  9         +19.5% ( 45.7%)     95.9%
 EFF. MASS   1.5349

 VIBRATION   39   39A         ATOM PAIR      ENERGY CONTRIBUTION    RADIAL
 FREQ.      3039.80         C  5 -- H 14         +96.0% ( 99.4%)    100.0%
 T-DIPOLE    0.2468         C  5 -- C  7          +1.4% ( 12.1%)     31.2%
 TRAVEL      0.1215         C  1 -- C  5          +1.3% ( 11.7%)     14.2%
 RED. MASS   0.9069         C  7 -- H 16          +0.9% (  9.5%)     95.2%
 EFF. MASS   1.5015

 VIBRATION   40   40A         ATOM PAIR      ENERGY CONTRIBUTION    RADIAL
 FREQ.      3052.63         C  2 -- H  9         +29.5% ( 53.6%)     98.3%
 T-DIPOLE    0.1219         C  3 -- H 11         +26.2% ( 50.5%)     98.3%
 TRAVEL      0.1316         C  2 -- H 10         +22.7% ( 47.0%)     96.7%
 RED. MASS   0.2462         C  3 -- H 12         +20.2% ( 44.4%)     96.7%
 EFF. MASS   1.2751

 VIBRATION   41   41A         ATOM PAIR      ENERGY CONTRIBUTION    RADIAL
 FREQ.      3053.62         C  3 -- H 11         +29.4% ( 53.5%)     98.2%
 T-DIPOLE    0.0571         C  2 -- H  9         +26.1% ( 50.4%)     98.2%
 TRAVEL      0.1308         C  3 -- H 12         +22.5% ( 46.8%)     96.6%
 RED. MASS   0.2439         C  2 -- H 10         +20.0% ( 44.1%)     96.5%
 EFF. MASS   1.2908

 VIBRATION   42   42A         ATOM PAIR      ENERGY CONTRIBUTION    RADIAL
 FREQ.      3115.75         C  4 -- H 13         +49.4% ( 71.4%)    100.0%
 T-DIPOLE    0.3748         C  6 -- H 15         +48.1% ( 70.4%)    100.0%
 TRAVEL      0.1217         C  4 -- C  6          +1.1% ( 10.7%)      0.0%
 RED. MASS   0.4648         C  2 -- C  4          +0.7% (  8.7%)     27.4%
 EFF. MASS   1.4621

 VIBRATION   43   43A         ATOM PAIR      ENERGY CONTRIBUTION    RADIAL
 FREQ.      3134.28         C  7 -- H 17         +90.2% ( 96.7%)     99.9%
 T-DIPOLE    0.2218         C  7 -- H 16          +7.2% ( 27.4%)     72.9%
 TRAVEL      0.1181         C  5 -- C  7          +1.3% ( 11.6%)     21.5%
 RED. MASS   0.8265         C  6 -- H 15          +0.6% (  7.8%)     99.9%
 EFF. MASS   1.5419

 VIBRATION   44   44A         ATOM PAIR      ENERGY CONTRIBUTION    RADIAL
 FREQ.      3134.82         C  6 -- H 15         +47.8% ( 70.4%)     99.9%
 T-DIPOLE    0.3432         C  4 -- H 13         +46.5% ( 69.5%)     99.9%
 TRAVEL      0.1142         C  4 -- C  6          +2.4% ( 15.9%)    100.0%
 RED. MASS   0.4544         C  7 -- H 17          +1.1% ( 10.6%)     99.8%
 EFF. MASS   1.6498

 VIBRATION   45   45A         ATOM PAIR      ENERGY CONTRIBUTION    RADIAL
 FREQ.      3146.93         C  7 -- H 16         +91.3% ( 96.2%)     99.7%
 T-DIPOLE    0.2505         C  7 -- H 17          +6.3% ( 25.2%)     44.7%
 TRAVEL      0.1210         C  5 -- C  7          +1.6% ( 12.7%)     74.1%
 RED. MASS   0.8109         C  5 -- H 14          +0.8% (  8.7%)     94.5%
 EFF. MASS   1.4636

      SYMMETRY NUMBER FOR POINT-GROUP C1  =  1


          SYSTEM IS A GROUND STATE



 InChI=1S/C7H10/c1-2-7-5-3-4-6-7/h2-4,7H,1,5-6H2


          MOLECULE IS NOT LINEAR

          THERE ARE 45 GENUINE VIBRATIONS IN THIS SYSTEM
          THIS THERMODYNAMICS CALCULATION IS LIMITED TO
          MOLECULES WHICH HAVE NO INTERNAL ROTATIONS




                    CALCULATED THERMODYNAMIC PROPERTIES
                                          *
   TEMP. (K)   PARTITION FUNCTION   H.O.F.    ENTHALPY  HEAT CAPACITY ENTROPY
                                   KCAL/MOL   CAL/MOLE    CAL/K/MOL  CAL/K/MOL


 298.00  VIB.     0.2289D+02                  2434.6927    19.5530    14.3910
         ROT.     0.2035D+06                   888.2813     2.9808    27.2710
         INT.     0.4656D+07                  3322.9740    22.5338    41.6620
         TRA.     0.8833D+27                  1480.4688     4.9680    39.5363
         TOT.                       22.335    4803.4428    27.5018    81.1983

 200.00  VIB.     0.6439D+01                   966.3573    10.7580     8.5327
         ROT.     0.1119D+06                   596.1620     2.9808    26.0823
         INT.     0.7203D+06                  1562.5192    13.7388    34.6150
         TRA.     0.4856D+27                   993.6033     4.9680    37.5551
         TOT.                       20.088    2556.1225    18.7068    72.1701

 210.00  VIB.     0.7276D+01                  1077.8372    11.5435     9.0764
         ROT.     0.1204D+06                   625.9700     2.9808    26.2277
         INT.     0.8758D+06                  1703.8073    14.5243    35.3042
         TRA.     0.5225D+27                  1043.2834     4.9680    37.7975
         TOT.                       20.279    2747.0907    19.4924    73.1017

 220.00  VIB.     0.8235D+01                  1197.3360    12.3615     9.6322
         ROT.     0.1291D+06                   655.7781     2.9808    26.3664
         INT.     0.1063D+07                  1853.1142    15.3423    35.9986
         TRA.     0.5603D+27                  1092.9636     4.9680    38.0286
         TOT.                       20.478    2946.0777    20.3103    74.0273

 230.00  VIB.     0.9334D+01                  1325.1682    13.2098    10.2003
         ROT.     0.1380D+06                   685.5862     2.9808    26.4989
         INT.     0.1288D+07                  2010.7545    16.1906    36.6992
         TRA.     0.5989D+27                  1142.6437     4.9680    38.2495
         TOT.                       20.685    3153.3982    21.1587    74.9487

 240.00  VIB.     0.1060D+02                  1461.6256    14.0860    10.7809
         ROT.     0.1471D+06                   715.3943     2.9808    26.6258
         INT.     0.1558D+07                  2177.0199    17.0668    37.4067
         TRA.     0.6384D+27                  1192.3239     4.9680    38.4609
         TOT.                       20.901    3369.3438    22.0349    75.8676

 250.00  VIB.     0.1205D+02                  1606.9717    14.9871    11.3741
         ROT.     0.1563D+06                   745.2024     2.9808    26.7475
         INT.     0.1884D+07                  2352.1741    17.9679    38.1216
         TRA.     0.6787D+27                  1242.0041     4.9680    38.6637
         TOT.                       21.126    3594.1782    22.9359    76.7853

 260.00  VIB.     0.1373D+02                  1761.4392    15.9097    11.9799
         ROT.     0.1658D+06                   775.0105     2.9808    26.8644
         INT.     0.2276D+07                  2536.4497    18.8905    38.8442
         TRA.     0.7198D+27                  1291.6842     4.9680    38.8586
         TOT.                       21.360    3828.1339    23.8586    77.7028

 270.00  VIB.     0.1566D+02                  1925.2271    16.8506    12.5979
         ROT.     0.1755D+06                   804.8186     2.9808    26.9769
         INT.     0.2749D+07                  2730.0458    19.8314    39.5747
         TRA.     0.7618D+27                  1341.3644     4.9680    39.0461
         TOT.                       21.603    4071.4102    24.7994    78.6208

 280.00  VIB.     0.1791D+02                  2098.5007    17.8063    13.2279
         ROT.     0.1853D+06                   834.6267     2.9808    27.0853
         INT.     0.3318D+07                  2933.1274    20.7871    40.3132
         TRA.     0.8045D+27                  1391.0445     4.9680    39.2267
         TOT.                       21.856    4324.1719    25.7551    79.5399

 290.00  VIB.     0.2051D+02                  2281.3905    18.7733    13.8696
         ROT.     0.1953D+06                   864.4348     2.9808    27.1899
         INT.     0.4005D+07                  3145.8253    21.7541    41.0595
         TRA.     0.8479D+27                  1440.7247     4.9680    39.4011
         TOT.                       22.118    4586.5500    26.7221    80.4606

 300.00  VIB.     0.2353D+02                  2473.9941    19.7485    14.5225
         ROT.     0.2055D+06                   894.2429     2.9808    27.2909
         INT.     0.4835D+07                  3368.2370    22.7293    41.8134
         TRA.     0.8922D+27                  1490.4049     4.9680    39.5695
         TOT.                       22.390    4858.6419    27.6973    81.3829

 310.00  VIB.     0.2704D+02                  2676.3771    20.7287    15.1860
         ROT.     0.2159D+06                   924.0510     2.9808    27.3887
         INT.     0.5838D+07                  3600.4281    23.7095    42.5747
         TRA.     0.9372D+27                  1540.0850     4.9680    39.7324
         TOT.                       22.672    5140.5131    28.6775    82.3071

 320.00  VIB.     0.3114D+02                  2888.5749    21.7110    15.8596
         ROT.     0.2264D+06                   953.8591     2.9808    27.4833
         INT.     0.7050D+07                  3842.4341    24.6918    43.3429
         TRA.     0.9829D+27                  1589.7652     4.9680    39.8901
         TOT.                       22.964    5432.1993    29.6598    83.2331

 330.00  VIB.     0.3592D+02                  3110.5954    22.6928    16.5427
         ROT.     0.2371D+06                   983.6672     2.9808    27.5750
         INT.     0.8517D+07                  4094.2626    25.6736    44.1178
         TRA.     0.1029D+28                  1639.4454     4.9680    40.0430
         TOT.                       23.266    5733.7080    30.6416    84.1608

 340.00  VIB.     0.4151D+02                  3342.4206    23.6716    17.2347
         ROT.     0.2480D+06                  1013.4753     2.9808    27.6640
         INT.     0.1029D+08                  4355.8959    26.6524    44.8987
         TRA.     0.1076D+28                  1689.1255     4.9680    40.1913
         TOT.                       23.577    6045.0215    31.6204    85.0901

 350.00  VIB.     0.4805D+02                  3584.0098    24.6452    17.9350
         ROT.     0.2590D+06                  1043.2834     2.9808    27.7504
         INT.     0.1244D+08                  4627.2932    27.6260    45.6854
         TRA.     0.1124D+28                  1738.8057     4.9680    40.3353
         TOT.                       23.898    6366.0989    32.5941    86.0207

 360.00  VIB.     0.5572D+02                  3835.3016    25.6118    18.6428
         ROT.     0.2702D+06                  1073.0915     2.9808    27.8344
         INT.     0.1505D+08                  4908.3932    28.5926    46.4772
         TRA.     0.1173D+28                  1788.4859     4.9680    40.4753
         TOT.                       24.229    6696.8790    33.5606    86.9525

 370.00  VIB.     0.6472D+02                  4096.2166    26.5696    19.3576
         ROT.     0.2815D+06                  1102.8996     2.9808    27.9161
         INT.     0.1822D+08                  5199.1162    29.5504    47.2737
         TRA.     0.1222D+28                  1838.1660     4.9680    40.6114
         TOT.                       24.569    7037.2822    34.5184    87.8851

 380.00  VIB.     0.7530D+02                  4366.6596    27.5172    20.0788
         ROT.     0.2930D+06                  1132.7077     2.9808    27.9955
         INT.     0.2206D+08                  5499.3673    30.4980    48.0744
         TRA.     0.1272D+28                  1887.8462     4.9680    40.7439
         TOT.                       24.919    7387.2135    35.4660    88.8182

 390.00  VIB.     0.8774D+02                  4646.5218    28.4533    20.8057
         ROT.     0.3046D+06                  1162.5158     2.9808    28.0730
         INT.     0.2673D+08                  5809.0376    31.4341    48.8787
         TRA.     0.1322D+28                  1937.5263     4.9680    40.8729
         TOT.                       25.278    7746.5640    36.4021    89.7516

 400.00  VIB.     0.1024D+03                  4935.6832    29.3768    21.5378
         ROT.     0.3164D+06                  1192.3239     2.9808    28.1484
         INT.     0.3240D+08                  6128.0071    32.3577    49.6862
         TRA.     0.1374D+28                  1987.2065     4.9680    40.9987
         TOT.                       25.647    8115.2136    37.3257    90.6849

   *: NOTE: HEATS OF FORMATION ARE RELATIVE TO THE
            ELEMENTS IN THEIR STANDARD STATE AT 298K
              (=  Standard Enthalpy of Formation).

            Hvib:  Zero-point energy is not included.
                   frequencies of less than zero cm-1 are not included.
            Hrot = (3/2)RT
            Htra = (3/2)RT + pV = (5/2)RT

            Heat capacity is Cp, not Cv

          For more information, see: HTTP://OpenMOPAC.net/Manual/thermochemistry.html


           FORCE CONSTANT IN CARTESIAN COORDINATES (Millidynes/A)

    ATOM   CHEMICAL       X               Y               Z
   NUMBER   SYMBOL  FORCE CONSTANT  FORCE CONSTANT  FORCE CONSTANT

      1       C        7.700810        8.359056        8.992157
      2       C        7.623914        9.342245        8.139647
      3       C        9.592554        7.372649        8.134505
      4       C       14.563423       10.524473        2.359778
      5       C        7.508314       10.705995        9.063087
      6       C       11.923130       13.157053        2.358258
      7       C        7.070265       10.404926        9.042144
      8       H        1.152948        1.485549        3.458577
      9       H        1.268459        1.721181        3.409179
     10       H        1.352788        1.391031        3.673884
     11       H        2.093720        0.896343        3.408440
     12       H        1.734505        1.007916        3.674525
     13       H        4.986101        1.076715        0.358944
     14       H        0.868303        1.166184        4.187697
     15       H        0.711865        5.351612        0.359621
     16       H        1.072935        1.589556        3.817761
     17       H        0.925314        1.272842        4.267171

 **********************
 *                    *
 * JOB ENDED NORMALLY *
 *                    *
 **********************



 TOTAL JOB TIME:             4.69 SECONDS

 == MOPAC DONE ==
