 *******************************************************************************
 ** Site#: 14399        For non-commercial use only    Version 18.184L 64BITS **
 *******************************************************************************
 ** Cite this program as: MOPAC2016, Version: 18.184L, James J. P. Stewart,   **
 ** Stewart Computational Chemistry, web: HTTP://OpenMOPAC.net. Days left:  19**
 *******************************************************************************
 **                                                                           **
 **                                MOPAC2016                                  **
 **                                                                           **
 *******************************************************************************

                              PM3 CALCULATION RESULTS

 *******************************************************************************
 *  CALCULATION DONE:                                Fri Jun 14 09:30:07 2019  *
 *  PM3        - The PM3 Hamiltonian to be used
 *  PRECISE    - CRITERIA TO BE INCREASED BY 100 TIMES
 *  NOSYM      - POINT-GROUP SYMMETRY SET TO C1
 *  THREADS=1  - MULTI-THREADING NOT USED
 *  T=         - A TIME OF 172800.0 SECONDS REQUESTED
 *  DUMP=N     - RESTART FILE WRITTEN EVERY  7200.000 SECONDS
 *******************************************************************************
pm3  precise nosym THREADS=1
 InChI=1S/C7H10/c1-3-6-5-7(6)4-2/h3-4,6H,1,5H2,2H3

   ATOM   CHEMICAL          X               Y               Z
  NUMBER   SYMBOL      (ANGSTROMS)     (ANGSTROMS)     (ANGSTROMS)
 
     1       C         -0.71530000  *  -0.52970000  *  -0.76890000  *
     2       C         -0.69120000  *  -1.61320000  *   0.30770000  *
     3       C          2.38360000  *   0.83200000  *  -0.04470000  *
     4       C          0.43000000  *  -0.57690000  *   0.13500000  *
     5       C          1.73180000  *  -0.41260000  *   0.40190000  *
     6       C         -1.83130000  *   0.42800000  *  -0.55840000  *
     7       C         -1.86070000  *   1.28110000  *   0.47460000  *
     8       H         -0.63120000  *  -0.87470000  *  -1.82330000  *
     9       H         -0.42450000  *  -2.64460000  *  -0.02940000  *
    10       H         -1.32730000  *  -1.50590000  *   1.19530000  *
    11       H          2.58240000  *   0.80060000  *  -1.13550000  *
    12       H          1.83100000  *   1.75010000  *   0.17700000  *
    13       H          3.38980000  *   0.94970000  *   0.42980000  *
    14       H         -2.81510000  *   0.06570000  *  -0.87620000  *
    15       H          2.40610000  *  -1.25640000  *   0.58140000  *
    16       H         -2.47280000  *   0.97150000  *   1.32850000  *
    17       H         -1.98540000  *   2.33530000  *   0.20510000  *
 


          CARTESIAN COORDINATES 

    NO.       ATOM           X           Y           Z

     1         C         -0.7153     -0.5297     -0.7689
     2         C         -0.6912     -1.6132      0.3077
     3         C          2.3836      0.8320     -0.0447
     4         C          0.4300     -0.5769      0.1350
     5         C          1.7318     -0.4126      0.4019
     6         C         -1.8313      0.4280     -0.5584
     7         C         -1.8607      1.2811      0.4746
     8         H         -0.6312     -0.8747     -1.8233
     9         H         -0.4245     -2.6446     -0.0294
    10         H         -1.3273     -1.5059      1.1953
    11         H          2.5824      0.8006     -1.1355
    12         H          1.8310      1.7501      0.1770
    13         H          3.3898      0.9497      0.4298
    14         H         -2.8151      0.0657     -0.8762
    15         H          2.4061     -1.2564      0.5814
    16         H         -2.4728      0.9715      1.3285
    17         H         -1.9854      2.3353      0.2051

  H: (PM3): J. J. P. STEWART, J. COMP. CHEM. 10, 209 (1989).
  C: (PM3): J. J. P. STEWART, J. COMP. CHEM. 10, 209 (1989).

           Empirical Formula: C7 H10  =    17 atoms



      MOLECULAR POINT GROUP   :   C1  


      RHF CALCULATION, NO. OF DOUBLY OCCUPIED LEVELS = 19


          Geometry optimization using EF

          DIAGONAL MATRIX USED AS START HESSIAN

 CYCLE:     1 TIME:   0.016 TIME LEFT:  2.00D  GRAD.:   173.151 HEAT:  144.4823
 CYCLE:     2 TIME:   0.031 TIME LEFT:  2.00D  GRAD.:   257.107 HEAT:  141.2701
 CYCLE:     3 TIME:   0.023 TIME LEFT:  2.00D  GRAD.:   211.514 HEAT:  127.6798
 CYCLE:     4 TIME:   0.133 TIME LEFT:  2.00D  GRAD.:   121.998 HEAT:  117.2319
 CYCLE:     5 TIME:   0.023 TIME LEFT:  2.00D  GRAD.:   114.022 HEAT:  107.8179
 CYCLE:     6 TIME:   0.023 TIME LEFT:  2.00D  GRAD.:   171.720 HEAT:  98.03023
 CYCLE:     7 TIME:   0.027 TIME LEFT:  2.00D  GRAD.:   136.924 HEAT:  91.03379
 CYCLE:     8 TIME:   0.027 TIME LEFT:  2.00D  GRAD.:   107.840 HEAT:  85.27277
 CYCLE:     9 TIME:   0.023 TIME LEFT:  2.00D  GRAD.:   126.658 HEAT:  81.29837
 CYCLE:    10 TIME:   0.027 TIME LEFT:  2.00D  GRAD.:   132.022 HEAT:  77.87935
 CYCLE:    11 TIME:   0.023 TIME LEFT:  2.00D  GRAD.:   119.637 HEAT:  75.02414
 CYCLE:    12 TIME:   0.023 TIME LEFT:  2.00D  GRAD.:    78.695 HEAT:  70.65596
 CYCLE:    13 TIME:   0.023 TIME LEFT:  2.00D  GRAD.:    74.809 HEAT:  67.57348
 CYCLE:    14 TIME:   0.023 TIME LEFT:  2.00D  GRAD.:   142.289 HEAT:  67.34802
 CYCLE:    15 TIME:   0.027 TIME LEFT:  2.00D  GRAD.:   101.649 HEAT:  64.88974
 CYCLE:    16 TIME:   0.023 TIME LEFT:  2.00D  GRAD.:    99.563 HEAT:  64.50904
 CYCLE:    17 TIME:   0.023 TIME LEFT:  2.00D  GRAD.:    85.572 HEAT:  62.18518
 CYCLE:    18 TIME:   0.023 TIME LEFT:  2.00D  GRAD.:    85.065 HEAT:  61.66054
 CYCLE:    19 TIME:   0.020 TIME LEFT:  2.00D  GRAD.:    38.843 HEAT:  60.06780
 CYCLE:    20 TIME:   0.027 TIME LEFT:  2.00D  GRAD.:    57.495 HEAT:  59.79751
 CYCLE:    21 TIME:   0.062 TIME LEFT:  2.00D  GRAD.:    35.040 HEAT:  58.92325
 CYCLE:    22 TIME:   0.023 TIME LEFT:  2.00D  GRAD.:    29.305 HEAT:  58.29859
 CYCLE:    23 TIME:   0.020 TIME LEFT:  2.00D  GRAD.:    27.812 HEAT:  57.71439
 CYCLE:    24 TIME:   0.023 TIME LEFT:  2.00D  GRAD.:    30.123 HEAT:  57.37815
 CYCLE:    25 TIME:   0.023 TIME LEFT:  2.00D  GRAD.:    19.088 HEAT:  56.99225
 CYCLE:    26 TIME:   0.023 TIME LEFT:  2.00D  GRAD.:    11.531 HEAT:  56.82404
 CYCLE:    27 TIME:   0.023 TIME LEFT:  2.00D  GRAD.:    14.197 HEAT:  56.64013
 CYCLE:    28 TIME:   0.023 TIME LEFT:  2.00D  GRAD.:    12.539 HEAT:  56.43348
 CYCLE:    29 TIME:   0.023 TIME LEFT:  2.00D  GRAD.:     8.479 HEAT:  56.33886
 CYCLE:    30 TIME:   0.023 TIME LEFT:  2.00D  GRAD.:     9.402 HEAT:  56.23497
 CYCLE:    31 TIME:   0.020 TIME LEFT:  2.00D  GRAD.:    12.075 HEAT:  56.09413
 CYCLE:    32 TIME:   0.023 TIME LEFT:  2.00D  GRAD.:    11.767 HEAT:  55.92432
 CYCLE:    33 TIME:   0.023 TIME LEFT:  2.00D  GRAD.:    10.514 HEAT:  55.77325
 CYCLE:    34 TIME:   0.023 TIME LEFT:  2.00D  GRAD.:     9.347 HEAT:  55.63125
 CYCLE:    35 TIME:   0.023 TIME LEFT:  2.00D  GRAD.:    10.857 HEAT:  55.46417
 CYCLE:    36 TIME:   0.023 TIME LEFT:  2.00D  GRAD.:    14.891 HEAT:  55.24973
 CYCLE:    37 TIME:   0.020 TIME LEFT:  2.00D  GRAD.:    12.663 HEAT:  55.01058
 CYCLE:    38 TIME:   0.023 TIME LEFT:  2.00D  GRAD.:    13.033 HEAT:  54.67222
 CYCLE:    39 TIME:   0.023 TIME LEFT:  2.00D  GRAD.:    11.267 HEAT:  54.40308
 CYCLE:    40 TIME:   0.023 TIME LEFT:  2.00D  GRAD.:     8.142 HEAT:  54.24050
 CYCLE:    41 TIME:   0.023 TIME LEFT:  2.00D  GRAD.:     6.923 HEAT:  54.14480
 CYCLE:    42 TIME:   0.023 TIME LEFT:  2.00D  GRAD.:     5.268 HEAT:  54.09846
 CYCLE:    43 TIME:   0.023 TIME LEFT:  2.00D  GRAD.:     4.172 HEAT:  54.06115
 CYCLE:    44 TIME:   0.020 TIME LEFT:  2.00D  GRAD.:     4.094 HEAT:  53.99674
 CYCLE:    45 TIME:   0.023 TIME LEFT:  2.00D  GRAD.:     4.845 HEAT:  53.94988
 CYCLE:    46 TIME:   0.023 TIME LEFT:  2.00D  GRAD.:     5.459 HEAT:  53.87733
 CYCLE:    47 TIME:   0.023 TIME LEFT:  2.00D  GRAD.:     7.689 HEAT:  53.73170
 CYCLE:    48 TIME:   0.035 TIME LEFT:  2.00D  GRAD.:    21.657 HEAT:  53.69053
 CYCLE:    49 TIME:   0.027 TIME LEFT:  2.00D  GRAD.:    13.814 HEAT:  53.19381
 CYCLE:    50 TIME:   0.035 TIME LEFT:  2.00D  GRAD.:    18.471 HEAT:  53.12944
 CYCLE:    51 TIME:   0.027 TIME LEFT:  2.00D  GRAD.:     7.712 HEAT:  52.99163
 CYCLE:    52 TIME:   0.023 TIME LEFT:  2.00D  GRAD.:     9.938 HEAT:  52.96654
 CYCLE:    53 TIME:   0.023 TIME LEFT:  2.00D  GRAD.:     5.050 HEAT:  52.87636
 CYCLE:    54 TIME:   0.023 TIME LEFT:  2.00D  GRAD.:     4.017 HEAT:  52.77742
 CYCLE:    55 TIME:   0.023 TIME LEFT:  2.00D  GRAD.:     3.909 HEAT:  52.72779
 CYCLE:    56 TIME:   0.023 TIME LEFT:  2.00D  GRAD.:     2.800 HEAT:  52.70303
 CYCLE:    57 TIME:   0.020 TIME LEFT:  2.00D  GRAD.:     1.929 HEAT:  52.69284
 CYCLE:    58 TIME:   0.023 TIME LEFT:  2.00D  GRAD.:     1.818 HEAT:  52.68425
 CYCLE:    59 TIME:   0.023 TIME LEFT:  2.00D  GRAD.:     2.007 HEAT:  52.67604
 CYCLE:    60 TIME:   0.023 TIME LEFT:  2.00D  GRAD.:     2.148 HEAT:  52.66596
 CYCLE:    61 TIME:   0.023 TIME LEFT:  2.00D  GRAD.:     2.443 HEAT:  52.65244
 CYCLE:    62 TIME:   0.027 TIME LEFT:  2.00D  GRAD.:     2.835 HEAT:  52.63474
 CYCLE:    63 TIME:   0.023 TIME LEFT:  2.00D  GRAD.:     3.165 HEAT:  52.61409
 CYCLE:    64 TIME:   0.020 TIME LEFT:  2.00D  GRAD.:     3.154 HEAT:  52.59442
 CYCLE:    65 TIME:   0.023 TIME LEFT:  2.00D  GRAD.:     3.265 HEAT:  52.57092
 CYCLE:    66 TIME:   0.023 TIME LEFT:  2.00D  GRAD.:     2.953 HEAT:  52.55662
 CYCLE:    67 TIME:   0.023 TIME LEFT:  2.00D  GRAD.:     2.774 HEAT:  52.53155
 CYCLE:    68 TIME:   0.020 TIME LEFT:  2.00D  GRAD.:     2.292 HEAT:  52.52356
 CYCLE:    69 TIME:   0.023 TIME LEFT:  2.00D  GRAD.:     2.889 HEAT:  52.51058
 CYCLE:    70 TIME:   0.023 TIME LEFT:  2.00D  GRAD.:     2.176 HEAT:  52.50132
 CYCLE:    71 TIME:   0.023 TIME LEFT:  2.00D  GRAD.:     2.064 HEAT:  52.48752
 CYCLE:    72 TIME:   0.023 TIME LEFT:  2.00D  GRAD.:     2.618 HEAT:  52.47511
 CYCLE:    73 TIME:   0.023 TIME LEFT:  2.00D  GRAD.:     1.899 HEAT:  52.46910
 CYCLE:    74 TIME:   0.023 TIME LEFT:  2.00D  GRAD.:     2.007 HEAT:  52.45908
 CYCLE:    75 TIME:   0.020 TIME LEFT:  2.00D  GRAD.:     2.827 HEAT:  52.44560
 CYCLE:    76 TIME:   0.023 TIME LEFT:  2.00D  GRAD.:     3.452 HEAT:  52.43065
 CYCLE:    77 TIME:   0.023 TIME LEFT:  2.00D  GRAD.:     4.828 HEAT:  52.41269
 CYCLE:    78 TIME:   0.023 TIME LEFT:  2.00D  GRAD.:     3.316 HEAT:  52.39880
 CYCLE:    79 TIME:   0.020 TIME LEFT:  2.00D  GRAD.:     2.832 HEAT:  52.38429
 CYCLE:    80 TIME:   0.023 TIME LEFT:  2.00D  GRAD.:     1.785 HEAT:  52.37823
 CYCLE:    81 TIME:   0.023 TIME LEFT:  2.00D  GRAD.:     1.519 HEAT:  52.37429
 CYCLE:    82 TIME:   0.027 TIME LEFT:  2.00D  GRAD.:     1.809 HEAT:  52.36753
 CYCLE:    83 TIME:   0.023 TIME LEFT:  2.00D  GRAD.:     2.176 HEAT:  52.36056
 CYCLE:    84 TIME:   0.020 TIME LEFT:  2.00D  GRAD.:     2.727 HEAT:  52.34732
 CYCLE:    85 TIME:   0.023 TIME LEFT:  2.00D  GRAD.:     2.052 HEAT:  52.33849
 CYCLE:    86 TIME:   0.023 TIME LEFT:  2.00D  GRAD.:     2.395 HEAT:  52.32477
 CYCLE:    87 TIME:   0.023 TIME LEFT:  2.00D  GRAD.:     2.684 HEAT:  52.32143
 CYCLE:    88 TIME:   0.020 TIME LEFT:  2.00D  GRAD.:     2.391 HEAT:  52.31324
 CYCLE:    89 TIME:   0.023 TIME LEFT:  2.00D  GRAD.:     2.004 HEAT:  52.30427
 CYCLE:    90 TIME:   0.023 TIME LEFT:  2.00D  GRAD.:     2.190 HEAT:  52.29821
 CYCLE:    91 TIME:   0.023 TIME LEFT:  2.00D  GRAD.:     2.538 HEAT:  52.28002
 CYCLE:    92 TIME:   0.023 TIME LEFT:  2.00D  GRAD.:     2.480 HEAT:  52.27195
 CYCLE:    93 TIME:   0.020 TIME LEFT:  2.00D  GRAD.:     3.653 HEAT:  52.26786
 CYCLE:    94 TIME:   0.023 TIME LEFT:  2.00D  GRAD.:     2.021 HEAT:  52.25776
 CYCLE:    95 TIME:   0.023 TIME LEFT:  2.00D  GRAD.:     0.955 HEAT:  52.25531
 CYCLE:    96 TIME:   0.023 TIME LEFT:  2.00D  GRAD.:     0.551 HEAT:  52.25336
 CYCLE:    97 TIME:   0.023 TIME LEFT:  2.00D  GRAD.:     0.496 HEAT:  52.25227
 CYCLE:    98 TIME:   0.023 TIME LEFT:  2.00D  GRAD.:     0.386 HEAT:  52.25192
 CYCLE:    99 TIME:   0.020 TIME LEFT:  2.00D  GRAD.:     0.274 HEAT:  52.25169
 CYCLE:   100 TIME:   0.023 TIME LEFT:  2.00D  GRAD.:     0.206 HEAT:  52.25162
 CYCLE:   101 TIME:   0.023 TIME LEFT:  2.00D  GRAD.:     0.227 HEAT:  52.25152
 CYCLE:   102 TIME:   0.023 TIME LEFT:  2.00D  GRAD.:     0.133 HEAT:  52.25149
 CYCLE:   103 TIME:   0.023 TIME LEFT:  2.00D  GRAD.:     0.078 HEAT:  52.25146
 CYCLE:   104 TIME:   0.027 TIME LEFT:  2.00D  GRAD.:     0.067 HEAT:  52.25145
 CYCLE:   105 TIME:   0.027 TIME LEFT:  2.00D  GRAD.:     0.088 HEAT:  52.25143
 CYCLE:   106 TIME:   0.023 TIME LEFT:  2.00D  GRAD.:     0.055 HEAT:  52.25143
 CYCLE:   107 TIME:   0.023 TIME LEFT:  2.00D  GRAD.:     0.062 HEAT:  52.25142
 CYCLE:   108 TIME:   0.023 TIME LEFT:  2.00D  GRAD.:     0.042 HEAT:  52.25141

     GRADIENT =  0.04234  IS LESS THAN CUTOFF =  0.05000



 -------------------------------------------------------------------------------
 pm3  precise nosym THREADS=1
 InChI=1S/C7H10/c1-3-6-5-7(6)4-2/h3-4,6H,1,5H2,2H3



     GEOMETRY OPTIMISED USING EIGENVECTOR FOLLOWING (EF).     
     SCF FIELD WAS ACHIEVED                                   


                              PM3 CALCULATION
                                                       MOPAC2016 (Version: 18.184L)
                                                       Fri Jun 14 09:30:10 2019
                                                       No. of days remaining =  19




          FINAL HEAT OF FORMATION =         52.25141 KCAL/MOL =     218.61992 KJ/MOL


          TOTAL ENERGY            =       -981.54386 EV
          ELECTRONIC ENERGY       =      -4447.58838 EV  POINT GROUP:     C1  
          CORE-CORE REPULSION     =       3466.04452 EV
          COSMO AREA              =        149.96 SQUARE ANGSTROMS
          COSMO VOLUME            =        142.33 CUBIC ANGSTROMS

          GRADIENT NORM           =          0.04234 = 0.01027 PER ATOM
          IONIZATION POTENTIAL    =          9.769826 EV
          HOMO LUMO ENERGIES (EV) =         -9.770  1.002
          NO. OF FILLED LEVELS    =         19
          MOLECULAR WEIGHT        =         94.1560

          MOLECULAR DIMENSIONS (Angstroms)

            Atom       Atom       Distance
            H    14    H    11     5.72570
            H    16    H     9     5.48458
            H    15    H     8     3.26567


          SCF CALCULATIONS        =        116
 
          WALL-CLOCK TIME         =          2.746 SECONDS
          COMPUTATION TIME        =          1.012 SECONDS




   ATOM   CHEMICAL          X               Y               Z
  NUMBER   SYMBOL      (ANGSTROMS)     (ANGSTROMS)     (ANGSTROMS)
 
     1       C         -0.84396783  *  -0.63386051  *  -0.64981588  *
     2       C         -0.53428198  *  -1.93654458  *   0.06810702  *
     3       C          2.03969081  *   1.00746623  *   0.03085486  *
     4       C          0.44243931  *  -0.85123065  *   0.02380072  *
     5       C          1.61591994  *  -0.36965633  *   0.37408552  *
     6       C         -1.83351351  *   0.31027812  *  -0.09522633  *
     7       C         -1.53429224  *   1.57696618  *   0.16908247  *
     8       H         -0.86943252  *  -0.63957299  *  -1.75679184  *
     9       H         -0.37383743  *  -2.85195219  *  -0.51301973  *
    10       H         -1.03815639  *  -2.17428771  *   1.01281684  *
    11       H          2.70763157  *   1.00070645  *  -0.84052775  *
    12       H          1.17900059  *   1.65725599  *  -0.20583804  *
    13       H          2.58389385  *   1.47012873  *   0.86402138  *
    14       H         -2.83845236  *  -0.09672638  *   0.06514730  *
    15       H          2.31887949  *  -0.98925609  *   0.94219570  *
    16       H         -2.25880413  *   2.28691572  *   0.55423167  *
    17       H         -0.53010134  *   1.98194480  *   0.02129430  *

                             CARTESIAN COORDINATES

   1    C       -0.843967826    -0.633860511    -0.649815881
   2    C       -0.534281978    -1.936544576     0.068107018
   3    C        2.039690808     1.007466232     0.030854856
   4    C        0.442439311    -0.851230648     0.023800721
   5    C        1.615919943    -0.369656332     0.374085523
   6    C       -1.833513506     0.310278115    -0.095226330
   7    C       -1.534292237     1.576966176     0.169082471
   8    H       -0.869432517    -0.639572994    -1.756791844
   9    H       -0.373837433    -2.851952191    -0.513019730
  10    H       -1.038156391    -2.174287712     1.012816841
  11    H        2.707631567     1.000706454    -0.840527753
  12    H        1.179000589     1.657255988    -0.205838044
  13    H        2.583893851     1.470128735     0.864021382
  14    H       -2.838452359    -0.096726384     0.065147295
  15    H        2.318879494    -0.989256088     0.942195705
  16    H       -2.258804126     2.286915724     0.554231668
  17    H       -0.530101337     1.981944803     0.021294302


           Empirical Formula: C7 H10  =    17 atoms



      MOLECULAR POINT GROUP   :   C1  


                  EIGENVALUES  
 -39.70441 -33.04250 -31.27009 -24.14778 -22.57640 -20.37130 -17.64650 -16.98706
 -16.43867 -15.69396 -15.11561 -14.13452 -13.54782 -12.77492 -12.11259 -11.86908
 -11.29019 -10.14668  -9.76983   1.00179   1.17199   2.83696   2.93864   3.14293
   3.56737   3.84142   3.86100   4.12441   4.21018   4.29901   4.51117   4.62966
   4.69505   4.85971   5.42625   5.64442   5.80410   6.11704


              NET ATOMIC CHARGES AND DIPOLE CONTRIBUTIONS

  ATOM NO.   TYPE          CHARGE      No. of ELECS.   s-Pop       p-Pop       
    1          C          -0.059152        4.0592     1.15405     2.90510
    2          C          -0.091232        4.0912     1.15242     2.93881
    3          C          -0.083686        4.0837     1.12724     2.95644
    4          C          -0.202539        4.2025     1.18809     3.01445
    5          C          -0.061494        4.0615     1.16861     2.89289
    6          C          -0.108385        4.1084     1.18508     2.92330
    7          C          -0.169102        4.1691     1.18560     2.98350
    8          H           0.100937        0.8991     0.89906
    9          H           0.078182        0.9218     0.92182
   10          H           0.082222        0.9178     0.91778
   11          H           0.047478        0.9525     0.95252
   12          H           0.051916        0.9481     0.94808
   13          H           0.043138        0.9569     0.95686
   14          H           0.099803        0.9002     0.90020
   15          H           0.100009        0.9000     0.89999
   16          H           0.080623        0.9194     0.91938
   17          H           0.091282        0.9087     0.90872
 DIPOLE           X         Y         Z       TOTAL
 POINT-CHG.     0.068     0.058    -0.080     0.120
 HYBRID         0.016    -0.024     0.024     0.038
 SUM            0.084     0.034    -0.055     0.106


          ATOMIC ORBITAL ELECTRON POPULATIONS

     Atom    s        px        py        pz   
    1  C   1.15405   0.94772   0.97782   0.97957
    2  C   1.15242   1.00264   0.92094   1.01523
    3  C   1.12724   1.00745   0.94558   1.00341
    4  C   1.18809   0.94815   1.03095   1.03535
    5  C   1.16861   0.94210   0.96369   0.98710
    6  C   1.18508   0.97712   0.95406   0.99212
    7  C   1.18560   1.01358   0.96156   1.00835
    8  H   0.89906
    9  H   0.92182
   10  H   0.91778
   11  H   0.95252
   12  H   0.94808
   13  H   0.95686
   14  H   0.90020
   15  H   0.89999
   16  H   0.91938
   17  H   0.90872
 *******************************************************************************
 ** Site#: 14399        For non-commercial use only    Version 18.184L 64BITS **
 *******************************************************************************
 ** Cite this program as: MOPAC2016, Version: 18.184L, James J. P. Stewart,   **
 ** Stewart Computational Chemistry, web: HTTP://OpenMOPAC.net. Days left:  19**
 *******************************************************************************
 **                                                                           **
 **                                MOPAC2016                                  **
 **                                                                           **
 *******************************************************************************

                              PM3 CALCULATION RESULTS

 *******************************************************************************
 *  CALCULATION DONE:                                Fri Jun 14 09:30:10 2019  *
 *  PM3        - The PM3 Hamiltonian to be used
 *  OLDGEO     - PREVIOUS GEOMETRY TO BE USED
 *  PRECISE    - CRITERIA TO BE INCREASED BY 100 TIMES
 *  NOSYM      - POINT-GROUP SYMMETRY SET TO C1
 *  THREADS=1  - MULTI-THREADING NOT USED
 *  T=         - A TIME OF 172800.0 SECONDS REQUESTED
 *  DUMP=N     - RESTART FILE WRITTEN EVERY  7200.000 SECONDS
 *  THERMO     - THERMODYNAMIC QUANTITIES TO BE CALCULATED
 *******************************************************************************
oldgeo thermo nosym precise THREADS=1  pm3
 InChI=1S/C7H10/c1-3-6-5-7(6)4-2/h3-4,6H,1,5H2,2H3

   ATOM   CHEMICAL          X               Y               Z
  NUMBER   SYMBOL      (ANGSTROMS)     (ANGSTROMS)     (ANGSTROMS)
 
     1       C         -0.84396783  *  -0.63386051  *  -0.64981588  *
     2       C         -0.53428198  *  -1.93654458  *   0.06810702  *
     3       C          2.03969081  *   1.00746623  *   0.03085486  *
     4       C          0.44243931  *  -0.85123065  *   0.02380072  *
     5       C          1.61591994  *  -0.36965633  *   0.37408552  *
     6       C         -1.83351351  *   0.31027812  *  -0.09522633  *
     7       C         -1.53429224  *   1.57696618  *   0.16908247  *
     8       H         -0.86943252  *  -0.63957299  *  -1.75679184  *
     9       H         -0.37383743  *  -2.85195219  *  -0.51301973  *
    10       H         -1.03815639  *  -2.17428771  *   1.01281684  *
    11       H          2.70763157  *   1.00070645  *  -0.84052775  *
    12       H          1.17900059  *   1.65725599  *  -0.20583804  *
    13       H          2.58389385  *   1.47012873  *   0.86402138  *
    14       H         -2.83845236  *  -0.09672638  *   0.06514730  *
    15       H          2.31887949  *  -0.98925609  *   0.94219570  *
    16       H         -2.25880413  *   2.28691572  *   0.55423167  *
    17       H         -0.53010134  *   1.98194480  *   0.02129430  *
 


          CARTESIAN COORDINATES 

    NO.       ATOM           X           Y           Z

     1         C         -0.8440     -0.6339     -0.6498
     2         C         -0.5343     -1.9365      0.0681
     3         C          2.0397      1.0075      0.0309
     4         C          0.4424     -0.8512      0.0238
     5         C          1.6159     -0.3697      0.3741
     6         C         -1.8335      0.3103     -0.0952
     7         C         -1.5343      1.5770      0.1691
     8         H         -0.8694     -0.6396     -1.7568
     9         H         -0.3738     -2.8520     -0.5130
    10         H         -1.0382     -2.1743      1.0128
    11         H          2.7076      1.0007     -0.8405
    12         H          1.1790      1.6573     -0.2058
    13         H          2.5839      1.4701      0.8640
    14         H         -2.8385     -0.0967      0.0651
    15         H          2.3189     -0.9893      0.9422
    16         H         -2.2588      2.2869      0.5542
    17         H         -0.5301      1.9819      0.0213

  H: (PM3): J. J. P. STEWART, J. COMP. CHEM. 10, 209 (1989).
  C: (PM3): J. J. P. STEWART, J. COMP. CHEM. 10, 209 (1989).

           Empirical Formula: C7 H10  =    17 atoms



      MOLECULAR POINT GROUP   :   C1  


      RHF CALCULATION, NO. OF DOUBLY OCCUPIED LEVELS = 19



          HEAT OF FORMATION =      52.251414 KCALS/MOLE


          CARTESIAN COORDINATE DERIVATIVES

   NUMBER  ATOM         X            Y            Z

     1       C      0.000461     0.000083    -0.000026
     2       C     -0.002384    -0.001788     0.001821
     3       C     -0.000215     0.010850    -0.002599
     4       C     -0.001563    -0.002607     0.001146
     5       C      0.001681    -0.001028    -0.003719
     6       C      0.002082    -0.000972    -0.005533
     7       C     -0.006131     0.007253     0.005892
     8       H      0.000958    -0.002691    -0.000713
     9       H      0.004410    -0.001456    -0.002795
    10       H      0.000542     0.006448    -0.002856
    11       H      0.004745    -0.009914     0.020993
    12       H      0.003267     0.011799    -0.006218
    13       H     -0.002910    -0.020365    -0.004975
    14       H      0.002939     0.007717    -0.002075
    15       H     -0.003302     0.000383     0.000409
    16       H     -0.002141     0.001739     0.002292
    17       H     -0.002440    -0.005451    -0.001045
 


          GRADIENT NORM =   0.04178


          TIME FOR SCF CALCULATION =    0.02

          TIME FOR DERIVATIVES     =    0.01

          MOLECULAR WEIGHT =   94.16



          ROTATIONAL CONSTANTS IN CM(-1)

          A =    0.11593683   B =    0.07861373   C =    0.05050999



           PRINCIPAL MOMENTS OF INERTIA IN UNITS OF 10**(-40)*GRAM-CM**2

          A =      241.4485   B =      356.0800   C =      554.2028


          ORIENTATION OF MOLECULE IN FORCE CALCULATION

    NO.       ATOM         X         Y         Z

     1          C       0.0004   -1.0567   -0.4208
     2          C       1.5197   -1.0567   -0.4208
     3          C      -0.4975    2.2936   -0.4208
     4          C       0.7673    0.1948   -0.4577
     5          C       0.7591    1.5107   -0.4644
     6          C      -0.7488   -1.4445    0.7902
     7          C      -1.6490   -0.6465    1.3530
     8          H      -0.5230   -1.3841   -1.3400
     9          H       2.0627   -1.4044   -1.3072
    10          H       2.0673   -1.3336    0.4883
    11          H      -0.7673    2.6481   -1.4243
    12          H      -1.3419    1.6976   -0.0326
    13          H      -0.3895    3.1740    0.2255
    14          H      -0.5288   -2.4436    1.1836
    15          H       1.7021    2.0678   -0.4999
    16          H      -2.2234   -0.9294    2.2289
    17          H      -1.8613    0.3546    0.9697


    FIRST DERIVATIVES WILL BE USED IN THE CALCULATION OF SECOND DERIVATIVES

          ESTIMATED TIME TO COMPLETE CALCULATION =        7.17 SECONDS

    FOR POINT-GROUP C1   THERE ARE   1 UNIQUE SYMMETRY FUNCTIONS.

 STEP:   1 TIME =     0.04 SECS, INTEGRAL =      0.04 TIME LEFT: 172799.92
 STEP:   2 TIME =     0.03 SECS, INTEGRAL =      0.07 TIME LEFT: 172799.89
 STEP:   3 TIME =     0.03 SECS, INTEGRAL =      0.11 TIME LEFT: 172799.86
 STEP:   4 TIME =     0.03 SECS, INTEGRAL =      0.13 TIME LEFT: 172799.83
 STEP:   5 TIME =     0.03 SECS, INTEGRAL =      0.16 TIME LEFT: 172799.80
 STEP:   6 TIME =     0.03 SECS, INTEGRAL =      0.19 TIME LEFT: 172799.78
 STEP:   7 TIME =     0.03 SECS, INTEGRAL =      0.22 TIME LEFT: 172799.75
 STEP:   8 TIME =     0.04 SECS, INTEGRAL =      0.25 TIME LEFT: 172799.71
 STEP:   9 TIME =     0.04 SECS, INTEGRAL =      0.29 TIME LEFT: 172799.68
 STEP:  10 TIME =     0.03 SECS, INTEGRAL =      0.32 TIME LEFT: 172799.64
 STEP:  11 TIME =     0.03 SECS, INTEGRAL =      0.35 TIME LEFT: 172799.61
 STEP:  12 TIME =     0.03 SECS, INTEGRAL =      0.38 TIME LEFT: 172799.58
 STEP:  13 TIME =     0.03 SECS, INTEGRAL =      0.41 TIME LEFT: 172799.55
 STEP:  14 TIME =     0.03 SECS, INTEGRAL =      0.44 TIME LEFT: 172799.53
 STEP:  15 TIME =     0.03 SECS, INTEGRAL =      0.46 TIME LEFT: 172799.50
 STEP:  16 TIME =     0.03 SECS, INTEGRAL =      0.50 TIME LEFT: 172799.47
 STEP:  17 TIME =     0.03 SECS, INTEGRAL =      0.52 TIME LEFT: 172799.44
 STEP:  18 TIME =     0.03 SECS, INTEGRAL =      0.55 TIME LEFT: 172799.41
 STEP:  19 TIME =     0.03 SECS, INTEGRAL =      0.58 TIME LEFT: 172799.39
 STEP:  20 TIME =     0.03 SECS, INTEGRAL =      0.61 TIME LEFT: 172799.36
 STEP:  21 TIME =     0.03 SECS, INTEGRAL =      0.64 TIME LEFT: 172799.32
 STEP:  22 TIME =     0.03 SECS, INTEGRAL =      0.67 TIME LEFT: 172799.30
 STEP:  23 TIME =     0.03 SECS, INTEGRAL =      0.70 TIME LEFT: 172799.27
 STEP:  24 TIME =     0.03 SECS, INTEGRAL =      0.72 TIME LEFT: 172799.24
 STEP:  25 TIME =     0.03 SECS, INTEGRAL =      0.75 TIME LEFT: 172799.21
 STEP:  26 TIME =     0.03 SECS, INTEGRAL =      0.78 TIME LEFT: 172799.19
 STEP:  27 TIME =     0.03 SECS, INTEGRAL =      0.81 TIME LEFT: 172799.16
 STEP:  28 TIME =     0.02 SECS, INTEGRAL =      0.83 TIME LEFT: 172799.13
 STEP:  29 TIME =     0.03 SECS, INTEGRAL =      0.86 TIME LEFT: 172799.11
 STEP:  30 TIME =     0.03 SECS, INTEGRAL =      0.89 TIME LEFT: 172799.07
 STEP:  31 TIME =     0.03 SECS, INTEGRAL =      0.92 TIME LEFT: 172799.05
 STEP:  32 TIME =     0.03 SECS, INTEGRAL =      0.95 TIME LEFT: 172799.02
 STEP:  33 TIME =     0.03 SECS, INTEGRAL =      0.98 TIME LEFT: 172798.99
 STEP:  34 TIME =     0.04 SECS, INTEGRAL =      1.02 TIME LEFT: 172798.95
 STEP:  35 TIME =     0.04 SECS, INTEGRAL =      1.06 TIME LEFT: 172798.91
 STEP:  36 TIME =     0.04 SECS, INTEGRAL =      1.09 TIME LEFT: 172798.87
 STEP:  37 TIME =     0.04 SECS, INTEGRAL =      1.13 TIME LEFT: 172798.84
 STEP:  38 TIME =     0.04 SECS, INTEGRAL =      1.16 TIME LEFT: 172798.80
 STEP:  39 TIME =     0.04 SECS, INTEGRAL =      1.20 TIME LEFT: 172798.77
 STEP:  40 TIME =     0.04 SECS, INTEGRAL =      1.23 TIME LEFT: 172798.73
 STEP:  41 TIME =     0.03 SECS, INTEGRAL =      1.27 TIME LEFT: 172798.70
 STEP:  42 TIME =     0.03 SECS, INTEGRAL =      1.29 TIME LEFT: 172798.67
 STEP:  43 TIME =     0.03 SECS, INTEGRAL =      1.32 TIME LEFT: 172798.64
 STEP:  44 TIME =     0.03 SECS, INTEGRAL =      1.35 TIME LEFT: 172798.61
 STEP:  45 TIME =     0.03 SECS, INTEGRAL =      1.38 TIME LEFT: 172798.58
 STEP:  46 TIME =     0.04 SECS, INTEGRAL =      1.42 TIME LEFT: 172798.55
 STEP:  47 TIME =     0.03 SECS, INTEGRAL =      1.45 TIME LEFT: 172798.52
 STEP:  48 TIME =     0.03 SECS, INTEGRAL =      1.48 TIME LEFT: 172798.49
 STEP:  49 TIME =     0.03 SECS, INTEGRAL =      1.50 TIME LEFT: 172798.46
 STEP:  50 TIME =     0.03 SECS, INTEGRAL =      1.54 TIME LEFT: 172798.43
 STEP:  51 TIME =     0.03 SECS, INTEGRAL =      1.57 TIME LEFT: 172798.40

(To convert to Hartree/Bohr^2, multiply by (10^(-21) x N x a0^2)/(4.184 x 627.51) =  0.0642)


           FORCE MATRIX IN MILLIDYNES/ANGSTROM


                  C  1       C  2       C  3       C  4       C  5       C  6
 ------------------------------------------------------------------------------
     C    1  15.981235
     C    2   4.376877  15.442955
     C    3   0.118276   0.159484  14.626961
     C    4   5.771308   6.071787   0.918860  22.091925
     C    5   0.491168   0.483374   5.190254  11.201928  18.364557
     C    6   5.274972   0.542199   0.020839   0.609935   0.024155  18.300057
     C    7   0.875172   0.051096   0.025780   0.028424   0.007944  11.063431
     H    8   4.482822   0.444644   0.015286   0.447426   0.018234   0.398475
     H    9   0.450423   4.797359   0.022452   0.464649   0.017759   0.045599
     H   10   0.461928   4.780307   0.023015   0.467308   0.015978   0.025013
     H   11   0.016166   0.022449   4.713365   0.028606   0.433090   0.002924
     H   12   0.007011   0.005555   4.526534   0.042652   0.470991   0.005090
     H   13   0.009811   0.016412   4.742848   0.047267   0.445922   0.001787
     H   14   0.432523   0.015957   0.002549   0.038325   0.004763   4.809156
     H   15   0.131927   0.099735   0.430472   0.459831   4.806871   0.022014
     H   16   0.134325   0.012856   0.002869   0.009792   0.001957   0.460864
     H   17   0.098999   0.007556   0.061637   0.009202   0.008683   0.493220


                  C  7       H  8       H  9       H 10       H 11       H 12
 ------------------------------------------------------------------------------
     C    7  17.954176
     H    8   0.024583   4.994566
     H    9   0.007530   0.019906   5.397831
     H   10   0.004487   0.039818   0.483911   5.379626
     H   11   0.001932   0.002187   0.003380   0.003311   5.417954
     H   12   0.062157   0.001379   0.000783   0.000685   0.542916   5.399595
     H   13   0.002480   0.001326   0.002209   0.002849   0.570709   0.552822
     H   14   0.459759   0.012295   0.002669   0.005219   0.000610   0.000930
     H   15   0.002479   0.018343   0.013575   0.014170   0.012423   0.038365
     H   16   5.126333   0.014643   0.002080   0.001026   0.000853   0.001477
     H   17   4.863136   0.011377   0.001340   0.000916   0.001504   0.188706


                  H 13       H 14       H 15       H 16       H 17
 ------------------------------------------------------------------
     H   13   5.450034
     H   14   0.000409   5.173792
     H   15   0.030394   0.002719   5.173649
     H   16   0.000817   0.076674   0.000872   5.495988
     H   17   0.001565   0.115967   0.001602   0.392123   5.399163


          HEAT OF FORMATION =      52.251414 KCALS/MOLE

          ZERO POINT ENERGY      92.327 KCAL/MOL


           NORMAL COORDINATE ANALYSIS (Total motion = 1 Angstrom)


   Root No.       1         2         3         4         5         6         7         8

                 1 A       2 A       3 A       4 A       5 A       6 A       7 A       8 A   

                 127.9     165.6     208.0     244.2     280.3     355.5     428.1     540.8
  
           1   -0.0049   -0.0031    0.0107    0.0050    0.0149   -0.0259   -0.0121    0.0212
           2   -0.0004    0.0120   -0.0311   -0.0360    0.0035    0.0103    0.0111    0.0030
           3   -0.0180    0.0091    0.0086   -0.0144   -0.0176   -0.0399   -0.0131   -0.0077
           4   -0.0046   -0.0032    0.0101    0.0045    0.0180   -0.0278   -0.0195    0.0199
           5    0.0045    0.0010    0.0189   -0.0015   -0.0134   -0.0039   -0.0240   -0.0471
           6    0.0227   -0.0109    0.0296   -0.0163    0.0186    0.0408    0.0182   -0.0009
           7   -0.0032    0.0132    0.0189   -0.0064   -0.0299    0.0118   -0.0138   -0.0171
           8    0.0070    0.0075    0.0438    0.0150   -0.0513    0.0046    0.0032    0.0525
           9   -0.0267   -0.0014    0.0294    0.0036    0.0521   -0.0047    0.0127   -0.0108
          10   -0.0077    0.0056   -0.0310   -0.0255    0.0292   -0.0120    0.0100    0.0392
          11    0.0024    0.0066   -0.0064   -0.0177   -0.0084    0.0027    0.0004   -0.0166
          12    0.0133    0.0056   -0.0265   -0.0069   -0.0387   -0.0350    0.0614    0.0039
          13   -0.0045    0.0130   -0.0163   -0.0255   -0.0040    0.0107   -0.0138   -0.0484
          14    0.0026    0.0066   -0.0061   -0.0174   -0.0088    0.0030    0.0003   -0.0145
          15    0.0166   -0.0043   -0.0426    0.0541   -0.0114    0.0062   -0.0299    0.0017
          16   -0.0229    0.0065   -0.0075    0.0221   -0.0151    0.0292    0.0202    0.0057
          17   -0.0221   -0.0002   -0.0233    0.0091    0.0446    0.0158   -0.0152    0.0330
          18   -0.0364    0.0110   -0.0009    0.0119   -0.0243   -0.0044   -0.0070   -0.0103
          19    0.0434   -0.0297    0.0022    0.0189   -0.0021    0.0053    0.0315   -0.0166
          20    0.0053   -0.0302   -0.0055    0.0371    0.0427   -0.0264    0.0147   -0.0140
          21    0.0302   -0.0044   -0.0106   -0.0319   -0.0015    0.0135   -0.0343    0.0219
          22    0.0177   -0.0163    0.0413    0.0060    0.0370   -0.0141   -0.0301    0.0150
          23    0.0072    0.0245   -0.0790   -0.0667   -0.0210   -0.0116    0.0882    0.0180
          24   -0.0334    0.0119    0.0076   -0.0027   -0.0215   -0.0362   -0.0291   -0.0095
          25    0.0214   -0.0172    0.0354    0.0080    0.0370    0.0342    0.0038    0.0090
          26    0.0147    0.0029   -0.0046    0.0215   -0.0593   -0.0428    0.0149   -0.0610
          27    0.0348   -0.0202    0.0547   -0.0234    0.0488    0.0959    0.0178   -0.0027
          28   -0.0292    0.0064    0.0071    0.0163   -0.0085   -0.1011   -0.0643    0.0052
          29   -0.0022   -0.0090    0.0823    0.0018    0.0212    0.0208   -0.1003   -0.0867
          30    0.0355   -0.0197    0.0510   -0.0226    0.0457    0.0944    0.0228   -0.0040
          31   -0.0222   -0.0940   -0.0260    0.0068   -0.1239    0.0230   -0.0564    0.0190
          32   -0.0806   -0.1612    0.0683   -0.0523   -0.1041    0.0165    0.0116    0.0889
          33   -0.0526   -0.0324    0.0504   -0.0243    0.0583   -0.0032    0.0271   -0.0075
          34    0.0056    0.0579    0.0173   -0.0243    0.0114    0.0126   -0.0069   -0.0542
          35    0.0374    0.0594    0.0751    0.0657   -0.0499   -0.0096    0.0170    0.1015
          36    0.0388    0.1777    0.0738    0.0380    0.1353   -0.0184    0.0432   -0.0115
          37    0.0050    0.0678    0.0970    0.0111   -0.0081    0.0006    0.0246    0.0446
          38    0.0632    0.1151    0.0317    0.0608   -0.0198   -0.0038   -0.0006    0.0411
          39   -0.1049   -0.1581    0.0335   -0.0620    0.0055    0.0083    0.0125   -0.0029
          40   -0.0888    0.0428   -0.0340    0.0410   -0.0403    0.1297    0.0548    0.0127
          41   -0.0632    0.0127   -0.0302    0.0375    0.0373    0.0516    0.0065    0.0279
          42   -0.1038    0.0239   -0.0040    0.0723   -0.0259    0.0327    0.0256   -0.0238
          43   -0.0008    0.0151    0.0001   -0.0135   -0.0234    0.0188   -0.0238   -0.0548
          44   -0.0017    0.0015   -0.0348   -0.0323    0.0232   -0.0073    0.0120    0.0007
          45    0.0465   -0.0206   -0.0818    0.1214   -0.0140    0.0683   -0.1202    0.0109
          46    0.0413   -0.0276   -0.0170    0.0295    0.0123    0.0810    0.0548   -0.0103
          47   -0.0093   -0.0460    0.0049    0.0886    0.0193   -0.0309    0.0768   -0.0916
          48    0.0242   -0.0081   -0.0199   -0.0084    0.0015    0.0615    0.0001    0.0019
          49    0.1033   -0.0609    0.0320    0.0008   -0.0258   -0.0813    0.0145   -0.0330
          50    0.0426   -0.0392    0.0016    0.0104    0.0478   -0.0564   -0.0126    0.0060
          51    0.0945   -0.0107   -0.0098   -0.0892    0.0382   -0.0215   -0.0930    0.0753


   Root No.       9        10        11        12        13        14        15        16

                 9 A      10 A      11 A      12 A      13 A      14 A      15 A      16 A   

                 565.9     673.6     813.1     833.1     872.1     929.5     948.8     977.5
  
           1    0.0048    0.0085    0.0139   -0.0117    0.0036   -0.0048    0.0075    0.0037
           2   -0.0247    0.0037   -0.0282    0.0201   -0.0212   -0.0047   -0.0185    0.0049
           3   -0.0278    0.0213   -0.0025   -0.0020   -0.0212   -0.0113    0.0026    0.0293
           4    0.0236    0.0117   -0.0181    0.0197    0.0090    0.0034    0.0054   -0.0039
           5    0.0287   -0.0092   -0.0180    0.0145   -0.0032    0.0010   -0.0070    0.0039
           6   -0.0066   -0.0041    0.0083   -0.0013   -0.0191   -0.0006   -0.0240    0.0090
           7    0.0147   -0.0070   -0.0076    0.0010   -0.0044   -0.0028   -0.0015    0.0023
           8   -0.0104    0.0155    0.0159   -0.0102    0.0117   -0.0008    0.0157   -0.0061
           9   -0.0042   -0.0004   -0.0077   -0.0097    0.0094   -0.0022   -0.0093    0.0093
          10   -0.0256    0.0293    0.0012    0.0128    0.0162    0.0083   -0.0071    0.0002
          11   -0.0118    0.0068    0.0152   -0.0090    0.0037    0.0006   -0.0031    0.0021
          12    0.0485   -0.0188    0.0051   -0.0092   -0.0150    0.0078    0.0144   -0.0238
          13    0.0021   -0.0001    0.0213   -0.0119    0.0097    0.0037    0.0067   -0.0053
          14   -0.0171    0.0131    0.0313   -0.0184    0.0150    0.0031    0.0041   -0.0017
          15   -0.0122    0.0063   -0.0226   -0.0213    0.0100   -0.0026   -0.0014   -0.0052
          16   -0.0188   -0.0467   -0.0012   -0.0065   -0.0122   -0.0328   -0.0003   -0.0073
          17    0.0299   -0.0369   -0.0007   -0.0116   -0.0121   -0.0200   -0.0049   -0.0140
          18   -0.0227   -0.0157    0.0016    0.0140    0.0200   -0.0182    0.0037   -0.0062
          19   -0.0180   -0.0045    0.0000   -0.0057   -0.0138   -0.0064    0.0027    0.0018
          20    0.0018   -0.0034    0.0020   -0.0024   -0.0027   -0.0032    0.0096    0.0085
          21    0.0247    0.0075   -0.0004    0.0084    0.0192    0.0058   -0.0095   -0.0323
          22    0.0405    0.0388    0.0568   -0.0551   -0.0172    0.0445   -0.0694   -0.0587
          23   -0.0269    0.0173   -0.1378    0.0942   -0.0077    0.0194    0.1200    0.0303
          24   -0.0461   -0.0027    0.0120   -0.0021   -0.0121   -0.0490   -0.0027    0.0566
          25    0.0506   -0.0387   -0.0470    0.0759    0.1612   -0.0328    0.0736    0.0243
          26    0.1434   -0.0813    0.0443    0.1006    0.0885   -0.0503   -0.0858    0.1036
          27   -0.0362   -0.0079   -0.0382    0.0003    0.0412   -0.0035    0.0535   -0.0133
          28    0.0342    0.0550   -0.0084   -0.0206   -0.1316    0.0509   -0.0406   -0.0400
          29   -0.0158    0.0369   -0.1365   -0.0324   -0.0854    0.0622    0.1062   -0.0993
          30   -0.0283   -0.0165   -0.0360    0.0087    0.0452   -0.0111    0.0435   -0.0012
          31    0.0071    0.0042   -0.1192   -0.0582    0.0326   -0.0242   -0.0838    0.0779
          32    0.0073    0.0080    0.0435    0.0469   -0.0286    0.0117    0.0274   -0.0286
          33    0.0048   -0.0065    0.0333    0.0280   -0.0163    0.0080    0.0175   -0.0194
          34    0.0188   -0.0092    0.0547   -0.0006   -0.0059   -0.0016    0.0527   -0.0283
          35   -0.0164    0.0131   -0.0543    0.0217   -0.0050    0.0055   -0.0548    0.0241
          36    0.0019   -0.0070    0.0254    0.0333   -0.0209    0.0056    0.0082   -0.0119
          37    0.0318   -0.0204   -0.0389    0.0994   -0.0747    0.0086   -0.0538    0.0056
          38   -0.0234    0.0231   -0.0054   -0.0431    0.0380   -0.0072    0.0036    0.0097
          39    0.0105   -0.0083    0.0280    0.0213   -0.0158    0.0057    0.0160   -0.0137
          40    0.0290    0.0046   -0.0233   -0.0055   -0.0234    0.2324   -0.0495    0.0120
          41    0.0591   -0.0068    0.0022   -0.0188   -0.0016    0.1237    0.0030    0.0244
          42    0.0279    0.0319    0.0232   -0.0068    0.0531    0.1982    0.0520    0.0824
          43    0.0164   -0.0141    0.0198   -0.0017   -0.0125   -0.0049    0.0245   -0.0111
          44   -0.0446    0.0387    0.0460   -0.0217    0.0468    0.0201   -0.0239    0.0096
          45   -0.0533    0.0101    0.1545    0.2002   -0.1048    0.0225    0.0464    0.0119
          46    0.0991    0.1894    0.0051   -0.0358   -0.0649   -0.0697    0.0413    0.1374
          47   -0.0212    0.1492   -0.0136    0.0694    0.0669    0.0301   -0.0650   -0.1071
          48    0.0958    0.1835   -0.0013    0.0112    0.0087   -0.0251   -0.0063    0.0209
          49   -0.1220   -0.1046   -0.0143    0.0297    0.0396    0.1719   -0.0547   -0.0173
          50   -0.0186   -0.0756    0.0034   -0.0136   -0.0047    0.0714    0.0184    0.0628
          51    0.0276   -0.1302    0.0159   -0.0431   -0.0193    0.1019    0.0511    0.1260


   Root No.      17        18        19        20        21        22        23        24

                17 A      18 A      19 A      20 A      21 A      22 A      23 A      24 A   

                 999.2    1029.2    1038.4    1070.9    1094.4    1120.3    1153.3    1163.1
  
           1    0.0001    0.0005    0.0077   -0.0117    0.0450   -0.0272   -0.0089    0.0086
           2   -0.0097   -0.0160    0.0007   -0.0294   -0.0172    0.0279   -0.0103    0.0085
           3   -0.0032   -0.0103   -0.0011   -0.0321    0.0062   -0.0228   -0.0136    0.0200
           4   -0.0162   -0.0090   -0.0023   -0.0086    0.0011    0.0116    0.0317   -0.0224
           5    0.0088    0.0025   -0.0011   -0.0070    0.0052    0.0259    0.0366   -0.0228
           6   -0.0192   -0.0054   -0.0180    0.0322    0.0049   -0.0036    0.0079   -0.0096
           7   -0.0048    0.0016    0.0013   -0.0033   -0.0021    0.0048    0.0332    0.0353
           8   -0.0254   -0.0089   -0.0045    0.0041   -0.0177    0.0050    0.0024    0.0005
           9   -0.0223    0.0260    0.0147   -0.0015   -0.0034    0.0003   -0.0040   -0.0060
          10    0.0143    0.0079   -0.0076    0.0156   -0.0447    0.0214   -0.0035   -0.0098
          11    0.0121    0.0061    0.0031   -0.0046    0.0167   -0.0022   -0.0054   -0.0003
          12    0.0091    0.0165    0.0230   -0.0114   -0.0166    0.0022    0.0033   -0.0054
          13    0.0058   -0.0014   -0.0019    0.0115    0.0021   -0.0166   -0.0259   -0.0329
          14    0.0100    0.0073    0.0016    0.0048    0.0146   -0.0123   -0.0049   -0.0061
          15    0.0217   -0.0388   -0.0245    0.0056    0.0061   -0.0000    0.0031    0.0048
          16    0.0009   -0.0048    0.0180    0.0181    0.0049    0.0085   -0.0017    0.0018
          17   -0.0041   -0.0062    0.0183    0.0050    0.0081   -0.0196    0.0004   -0.0016
          18    0.0056    0.0017    0.0069    0.0209   -0.0010    0.0310   -0.0053    0.0083
          19   -0.0017    0.0145   -0.0335   -0.0172   -0.0068   -0.0029    0.0007   -0.0025
          20    0.0013    0.0094   -0.0215   -0.0102   -0.0072    0.0022   -0.0012    0.0063
          21   -0.0054    0.0143   -0.0185   -0.0095    0.0096   -0.0117    0.0008   -0.0042
          22    0.0157    0.0211    0.0048   -0.0565    0.0776    0.1735   -0.1465    0.1685
          23   -0.0856    0.0240   -0.0545    0.1181    0.2045   -0.0488   -0.0199    0.0506
          24    0.0158   -0.0369    0.0208   -0.0602   -0.0953   -0.1116    0.0717   -0.0902
          25    0.0242   -0.0116    0.0233   -0.0610   -0.0712   -0.0485   -0.0856    0.0573
          26   -0.0372   -0.0316   -0.0710    0.0897   -0.0940   -0.0709   -0.1380    0.0827
          27    0.0263    0.0067    0.0280   -0.0426   -0.0023   -0.0031    0.0038   -0.0012
          28   -0.0674    0.0029   -0.0500    0.1474   -0.0572   -0.0299   -0.0262   -0.0117
          29    0.0482    0.0531    0.0335    0.0712   -0.1497   -0.0516   -0.1182    0.0550
          30    0.0265    0.0035    0.0241   -0.0424   -0.0077   -0.0040   -0.0041    0.0075
          31   -0.0261    0.1583    0.0638   -0.0106    0.0211   -0.0019    0.0015    0.0022
          32    0.0710   -0.0653   -0.0405    0.0155   -0.0004   -0.0096   -0.0227   -0.0264
          33    0.0196   -0.0373   -0.0157    0.0040   -0.0025   -0.0026   -0.0026   -0.0042
          34   -0.0493   -0.0641   -0.0238   -0.0081   -0.0283    0.0294    0.1012    0.1104
          35    0.0798    0.0555    0.0156    0.0148    0.0279   -0.0338   -0.0845   -0.0944
          36    0.0368   -0.0230   -0.0148    0.0031    0.0064   -0.0029    0.0072    0.0081
          37    0.1997   -0.0027   -0.0235   -0.0034    0.0785   -0.0257   -0.0135   -0.0012
          38   -0.0735    0.0327    0.0174    0.0054   -0.0323    0.0055   -0.0065   -0.0148
          39    0.0141   -0.0313   -0.0122   -0.0010    0.0021    0.0030    0.0144    0.0183
          40   -0.0422   -0.0378   -0.0117   -0.1073   -0.0402   -0.1345   -0.0028    0.0561
          41   -0.0047    0.0052   -0.0189   -0.0198    0.0116   -0.0160    0.0047   -0.0178
          42    0.0296    0.0497   -0.0719    0.0282    0.0322    0.1207    0.0058   -0.0622
          43   -0.0501   -0.0419    0.0017   -0.0409    0.0291    0.0281   -0.1229   -0.1141
          44    0.1053    0.0885    0.0015    0.0946   -0.0322   -0.0918    0.1606    0.1317
          45   -0.0382    0.1162    0.0771   -0.0314   -0.0093   -0.0067   -0.0039    0.0076
          46    0.0330   -0.0538    0.0923    0.0409   -0.0231    0.0346   -0.0117    0.0047
          47   -0.0293   -0.0610    0.1079    0.0293    0.0434   -0.0283    0.0166    0.0068
          48    0.0083   -0.0523    0.1049    0.0425    0.0159    0.0055   -0.0015    0.0010
          49   -0.0175   -0.0818    0.1427    0.0465    0.0206   -0.0204    0.0016   -0.0111
          50    0.0099   -0.0315    0.0499    0.0259   -0.0077    0.0233   -0.0022    0.0127
          51    0.0249   -0.0424    0.0687    0.0494   -0.0099    0.0573    0.0011    0.0203


   Root No.      25        26        27        28        29        30        31        32

                25 A      26 A      27 A      28 A      29 A      30 A      31 A      32 A   

                1193.3    1224.0    1278.3    1333.5    1390.1    1396.2    1403.2    1419.7
  
           1    0.0251    0.0145    0.0064    0.0090   -0.0008   -0.0130    0.0105    0.0353
           2    0.0021   -0.0519    0.0074    0.0109    0.0048   -0.0121    0.0088    0.0170
           3    0.0057   -0.0026   -0.0249    0.0072   -0.0016    0.0156   -0.0161   -0.0283
           4   -0.0325   -0.0367    0.0077   -0.0018    0.0215   -0.0224    0.0219   -0.0120
           5   -0.0025    0.0444   -0.0251    0.0026   -0.0111    0.0200   -0.0197   -0.0076
           6    0.0005    0.0008    0.0058   -0.0004    0.0004   -0.0026    0.0023    0.0036
           7    0.0162    0.0011   -0.0022   -0.0051   -0.0144   -0.0065   -0.0055    0.0633
           8   -0.0029    0.0028   -0.0045   -0.0013    0.0355   -0.0022   -0.0196   -0.0267
           9   -0.0012    0.0004   -0.0016   -0.0032   -0.0160   -0.0228   -0.0095   -0.0087
          10    0.0196    0.0605   -0.0088   -0.0050   -0.0059    0.0110   -0.0091   -0.0051
          11    0.0128    0.0083    0.0205   -0.0109   -0.0081   -0.0013    0.0043    0.0182
          12    0.0007   -0.0017    0.0019   -0.0000    0.0001   -0.0013    0.0010    0.0018
          13   -0.0340   -0.0206   -0.0220    0.0151    0.0148    0.0014   -0.0062   -0.0250
          14   -0.0011   -0.0048    0.0315   -0.0198   -0.0026   -0.0052    0.0101    0.0009
          15    0.0022    0.0007    0.0006   -0.0008   -0.0008   -0.0000    0.0002   -0.0003
          16    0.0046   -0.0046    0.0003    0.0164   -0.0001    0.0030   -0.0089   -0.0054
          17    0.0181   -0.0081   -0.0211   -0.0082   -0.0014    0.0104   -0.0056   -0.0190
          18   -0.0307    0.0142    0.0123   -0.0178    0.0010   -0.0090    0.0138    0.0150
          19    0.0087   -0.0096   -0.0027    0.0106   -0.0002    0.0048   -0.0071   -0.0096
          20   -0.0239    0.0165    0.0084   -0.0112    0.0004   -0.0061    0.0092    0.0111
          21    0.0087   -0.0003   -0.0022   -0.0040    0.0001   -0.0022    0.0024    0.0060
          22   -0.0531   -0.0194   -0.0583    0.0055    0.0014    0.0193   -0.0181   -0.0393
          23   -0.0223    0.0524   -0.0332   -0.0058   -0.0028    0.0137   -0.0108   -0.0217
          24    0.0605   -0.0198    0.0275    0.0156    0.0001   -0.0130    0.0080    0.0299
          25   -0.0202   -0.1146    0.0559   -0.0553   -0.0923    0.1046   -0.0896   -0.0023
          26    0.0612    0.0144   -0.0202    0.0289    0.0440   -0.0479    0.0405   -0.0055
          27   -0.0155   -0.0335    0.0295   -0.0397   -0.0847    0.0955   -0.0844    0.0073
          28   -0.0254   -0.0973    0.0928   -0.0609   -0.0897    0.0875   -0.0737    0.0244
          29    0.0622    0.0205   -0.0052    0.0283    0.0523   -0.0638    0.0558    0.0073
          30    0.0152    0.0282   -0.0369    0.0398    0.0806   -0.0876    0.0770   -0.0135
          31    0.0169    0.0139    0.0803    0.0163    0.0113    0.1099    0.1153   -0.1400
          32   -0.0332   -0.0124   -0.0426    0.0773   -0.2199    0.0360    0.1343   -0.0236
          33   -0.0098   -0.0072   -0.0309    0.0172   -0.0924   -0.0255    0.0166    0.0387
          34    0.0613    0.0238    0.0498   -0.0144   -0.0091    0.0495    0.0732   -0.1304
          35   -0.0628   -0.0295   -0.0582    0.0349    0.0578    0.0739   -0.0035    0.2024
          36   -0.0004   -0.0010    0.0190    0.0427    0.0636    0.2173    0.1533   -0.0044
          37    0.0226    0.0067    0.0921   -0.0623    0.0052   -0.1177   -0.0592   -0.1856
          38   -0.0177   -0.0025   -0.0394    0.0337   -0.1600   -0.0596    0.0265   -0.0329
          39    0.0126    0.0035    0.0214   -0.0296    0.2297    0.0932   -0.0423    0.0595
          40   -0.1351    0.1364    0.0268   -0.0180   -0.0019   -0.0054    0.0089    0.0119
          41    0.0608   -0.0433   -0.0279    0.0012   -0.0010    0.0118   -0.0088   -0.0215
          42    0.1506   -0.1473   -0.0157    0.0264    0.0033   -0.0034   -0.0033    0.0040
          43    0.0118    0.0480    0.0392   -0.0203    0.0020    0.0033    0.0077   -0.0125
          44   -0.0820   -0.1234   -0.0725    0.0397    0.0217   -0.0092   -0.0145   -0.0243
          45   -0.0004   -0.0032   -0.0050    0.0014   -0.0008    0.0007   -0.0029   -0.0046
          46   -0.0265   -0.0072   -0.0369   -0.0977    0.0004   -0.0043    0.0332    0.0060
          47    0.0422    0.0106    0.0677    0.1860   -0.0010    0.0125   -0.0639   -0.0220
          48    0.0056    0.0012   -0.0004   -0.0029    0.0002   -0.0034    0.0029    0.0080
          49    0.0555   -0.0457   -0.0895   -0.1581   -0.0024    0.0119    0.0534   -0.0246
          50   -0.0388    0.0268    0.0280    0.0263    0.0006   -0.0088   -0.0066    0.0137
          51   -0.0497    0.0424    0.0887    0.1586    0.0002   -0.0072   -0.0543    0.0047


   Root No.      33        34        35        36        37        38        39        40

                33 A      34 A      35 A      36 A      37 A      38 A      39 A      40 A   

                1522.4    1861.2    2101.6    2981.0    3045.8    3048.2    3055.7    3074.1
  
           1    0.0862   -0.0309   -0.0551   -0.0343   -0.0002   -0.0001   -0.0001    0.0000
           2    0.0496   -0.0068   -0.0540   -0.0218    0.0001   -0.0004    0.0000    0.0001
           3   -0.0450    0.0339    0.0113   -0.0567    0.0001   -0.0003    0.0000    0.0001
           4   -0.0535    0.0020    0.0503    0.0004    0.0002    0.0001    0.0001    0.0001
           5    0.0236   -0.0003   -0.0535   -0.0008   -0.0002   -0.0002   -0.0002   -0.0000
           6    0.0033    0.0014    0.0013    0.0039    0.0000   -0.0000    0.0000    0.0012
           7   -0.0403   -0.0011   -0.0117   -0.0000    0.0130    0.0006   -0.0159   -0.0126
           8    0.0296   -0.0019    0.0120   -0.0000    0.0175    0.0009   -0.0211   -0.0154
           9    0.0028    0.0000    0.0007    0.0000   -0.0061    0.0002    0.0146   -0.0464
          10   -0.0130    0.0030   -0.0052   -0.0003   -0.0001    0.0003   -0.0003   -0.0001
          11   -0.0124   -0.0091    0.2925    0.0016    0.0032    0.0009    0.0026    0.0005
          12    0.0038   -0.0023   -0.0045   -0.0005   -0.0000   -0.0003    0.0000   -0.0001
          13    0.0364   -0.0019    0.0262   -0.0000   -0.0281   -0.0053   -0.0179   -0.0042
          14   -0.0719    0.0109   -0.1915   -0.0002   -0.0194   -0.0037   -0.0126   -0.0026
          15   -0.0010    0.0004    0.0005   -0.0001    0.0010    0.0002    0.0007    0.0001
          16   -0.0103    0.1637    0.0062    0.0002   -0.0004    0.0155   -0.0012   -0.0002
          17   -0.0274   -0.1033    0.0013    0.0000    0.0029   -0.0591    0.0023    0.0002
          18    0.0228   -0.1291   -0.0072   -0.0006   -0.0015    0.0202   -0.0000    0.0001
          19   -0.0185   -0.1356   -0.0019   -0.0003   -0.0022   -0.0001    0.0033    0.0007
          20    0.0210    0.1178    0.0013    0.0000    0.0071    0.0043   -0.0113   -0.0024
          21    0.0105    0.0861    0.0009    0.0000   -0.0019   -0.0027    0.0032    0.0007
          22   -0.0396    0.0094   -0.0227    0.4098   -0.0005    0.0016   -0.0005   -0.0007
          23   -0.0235   -0.0074   -0.0160    0.2549   -0.0003   -0.0006   -0.0004   -0.0003
          24    0.0577    0.0058   -0.0319    0.6960   -0.0008    0.0020   -0.0008   -0.0011
          25    0.0105    0.0037    0.0275    0.0136    0.0003   -0.0018    0.0003    0.0044
          26   -0.0231    0.0037   -0.0173   -0.0117   -0.0003    0.0008   -0.0002   -0.0029
          27    0.0578    0.0032   -0.0344   -0.0254   -0.0002    0.0022   -0.0003   -0.0066
          28    0.0428    0.0009    0.0242   -0.0132    0.0002    0.0002    0.0002   -0.0052
          29   -0.0124   -0.0026   -0.0139    0.0099   -0.0001   -0.0004   -0.0003    0.0027
          30   -0.0642    0.0030    0.0366   -0.0283    0.0000    0.0006    0.0003   -0.0082
          31    0.0379    0.0041   -0.0075    0.0003    0.0212    0.0002   -0.0405    0.0905
          32   -0.0068    0.0019    0.0030   -0.0004   -0.0120    0.0005    0.0333   -0.1408
          33   -0.0244    0.0003    0.0030    0.0009    0.0601    0.0002   -0.1250    0.3740
          34    0.0547    0.0145    0.0120    0.0001   -0.1708   -0.0065    0.2315    0.0183
          35   -0.0800   -0.0045   -0.0231   -0.0000   -0.1280   -0.0054    0.1687    0.0104
          36    0.0102    0.0071    0.0000   -0.0001    0.0827    0.0037   -0.1070   -0.0337
          37    0.0389    0.0020   -0.0206   -0.0001   -0.0089   -0.0013    0.0002    0.0430
          38    0.0129   -0.0015    0.0107    0.0001   -0.0745   -0.0072    0.0511    0.3126
          39    0.0031   -0.0002   -0.0045   -0.0001   -0.0665   -0.0058    0.0536    0.2158
          40    0.0108   -0.0190    0.0020   -0.0007    0.0087   -0.1466    0.0036   -0.0000
          41   -0.0271   -0.0985   -0.0020   -0.0036   -0.0384    0.6738   -0.0186   -0.0004
          42    0.0187    0.0871   -0.0068    0.0000    0.0149   -0.2667    0.0078    0.0003
          43   -0.0468    0.0067   -0.1184    0.0015    0.3373    0.0633    0.2164    0.0491
          44    0.0618   -0.0003   -0.0422    0.0010    0.1979    0.0368    0.1237    0.0267
          45   -0.0040    0.0030    0.0030   -0.0011   -0.0129   -0.0022   -0.0077   -0.0029
          46    0.0236   -0.0505   -0.0033   -0.0021    0.0043   -0.0380   -0.0019   -0.0005
          47   -0.0539   -0.0838   -0.0003   -0.0011    0.0042   -0.0234   -0.0037   -0.0009
          48    0.0157    0.1144   -0.0003    0.0014   -0.0079    0.0613    0.0046    0.0012
          49    0.0227    0.0390    0.0023    0.0003    0.0201   -0.0026   -0.0297   -0.0061
          50    0.0074    0.1076    0.0027    0.0025   -0.0819    0.0071    0.1254    0.0277
          51   -0.0368   -0.1091   -0.0008   -0.0004    0.0300   -0.0016   -0.0467   -0.0106


   Root No.      41        42        43        44        45

                41 A      42 A      43 A      44 A      45 A   

                3078.7    3112.1    3118.5    3148.0    3165.7
  
           1   -0.0012    0.0003   -0.0004   -0.0003   -0.0000
           2   -0.0008    0.0000   -0.0009    0.0003    0.0000
           3   -0.0027   -0.0001   -0.0001    0.0005    0.0000
           4   -0.0025    0.0002    0.0378    0.0000   -0.0000
           5   -0.0010   -0.0001   -0.0223    0.0000    0.0000
           6   -0.0580   -0.0002   -0.0033   -0.0000    0.0000
           7   -0.0003    0.0049   -0.0000   -0.0002   -0.0157
           8   -0.0004    0.0170   -0.0002    0.0004    0.0149
           9   -0.0013   -0.0042    0.0001   -0.0000    0.0009
          10   -0.0000    0.0002    0.0002   -0.0000    0.0001
          11    0.0000   -0.0005    0.0017   -0.0000   -0.0004
          12   -0.0005   -0.0000   -0.0001    0.0001    0.0000
          13   -0.0001    0.0010   -0.0001   -0.0000    0.0000
          14   -0.0001    0.0010   -0.0001   -0.0000    0.0005
          15   -0.0001   -0.0000   -0.0000   -0.0000   -0.0000
          16   -0.0004   -0.0025   -0.0001   -0.0053    0.0005
          17    0.0002    0.0023    0.0001    0.0094   -0.0005
          18    0.0001    0.0015   -0.0000    0.0002   -0.0003
          19   -0.0000    0.0105   -0.0001    0.0384   -0.0024
          20    0.0000   -0.0368    0.0004    0.0159    0.0076
          21   -0.0000    0.0109   -0.0001   -0.0565   -0.0020
          22    0.0191   -0.0006   -0.0001   -0.0013    0.0000
          23    0.0087   -0.0004    0.0001   -0.0005   -0.0000
          24    0.0258   -0.0011    0.0008   -0.0016    0.0000
          25   -0.2114   -0.0023   -0.2376    0.0002    0.0002
          26    0.1342    0.0014    0.1529   -0.0001   -0.0001
          27    0.3221    0.0038    0.4134   -0.0002   -0.0003
          28    0.2422   -0.0009   -0.2083    0.0003    0.0000
          29   -0.1223    0.0004    0.1032   -0.0001   -0.0000
          30    0.3816   -0.0016   -0.3729    0.0005    0.0001
          31    0.0021    0.0327   -0.0004    0.0012    0.0566
          32   -0.0035   -0.0305    0.0003   -0.0016   -0.0806
          33    0.0093    0.1162   -0.0013    0.0053    0.2619
          34    0.0008   -0.0785    0.0012    0.0016    0.1816
          35    0.0005   -0.0650    0.0010    0.0015    0.1533
          36   -0.0011    0.0452   -0.0007   -0.0009   -0.0931
          37    0.0012   -0.0170    0.0001   -0.0008   -0.0457
          38    0.0082   -0.1221    0.0009   -0.0047   -0.2421
          39    0.0058   -0.1004    0.0007   -0.0037   -0.1860
          40    0.0000   -0.0007    0.0007    0.0174    0.0001
          41   -0.0018   -0.0033   -0.0014   -0.0686    0.0005
          42    0.0006    0.0029    0.0005    0.0243   -0.0005
          43    0.0014   -0.0145    0.0003    0.0002   -0.0032
          44    0.0008   -0.0072   -0.0000    0.0001   -0.0014
          45    0.0005    0.0004    0.0000   -0.0000   -0.0000
          46    0.0002   -0.0073   -0.0001   -0.4204    0.0041
          47    0.0002   -0.0153    0.0001   -0.2118    0.0050
          48   -0.0003    0.0186    0.0001    0.6442   -0.0082
          49    0.0002   -0.0846    0.0009    0.0149    0.0149
          50   -0.0010    0.4455   -0.0047   -0.0230   -0.0998
          51    0.0004   -0.1776    0.0018   -0.0034    0.0421


           MASS-WEIGHTED COORDINATE ANALYSIS (NORMAL COORDINATES)


   Root No.       1         2         3         4         5         6         7         8

                 1 A       2 A       3 A       4 A       5 A       6 A       7 A       8 A   

                 127.9     165.6     208.0     244.2     280.3     355.5     428.1     540.8
  
           1   -0.0410   -0.0262    0.0857    0.0400    0.1029   -0.2084   -0.0964    0.1595
           2   -0.0035    0.1017   -0.2490   -0.2855    0.0242    0.0831    0.0877    0.0225
           3   -0.1508    0.0768    0.0688   -0.1146   -0.1215   -0.3213   -0.1042   -0.0576
           4   -0.0388   -0.0275    0.0810    0.0358    0.1241   -0.2234   -0.1548    0.1500
           5    0.0380    0.0089    0.1511   -0.0116   -0.0925   -0.0313   -0.1902   -0.3543
           6    0.1905   -0.0921    0.2369   -0.1292    0.1281    0.3278    0.1444   -0.0066
           7   -0.0267    0.1117    0.1515   -0.0508   -0.2061    0.0950   -0.1096   -0.1287
           8    0.0589    0.0636    0.3508    0.1188   -0.3539    0.0371    0.0254    0.3948
           9   -0.2235   -0.0118    0.2353    0.0287    0.3589   -0.0381    0.1005   -0.0813
          10   -0.0647    0.0473   -0.2484   -0.2019    0.2016   -0.0966    0.0793    0.2951
          11    0.0204    0.0558   -0.0509   -0.1401   -0.0579    0.0219    0.0029   -0.1249
          12    0.1110    0.0477   -0.2123   -0.0548   -0.2666   -0.2815    0.4870    0.0292
          13   -0.0374    0.1099   -0.1307   -0.2025   -0.0276    0.0860   -0.1097   -0.3641
          14    0.0215    0.0563   -0.0490   -0.1381   -0.0607    0.0240    0.0023   -0.1091
          15    0.1389   -0.0361   -0.3411    0.4292   -0.0785    0.0499   -0.2377    0.0131
          16   -0.1922    0.0555   -0.0599    0.1752   -0.1039    0.2350    0.1603    0.0428
          17   -0.1854   -0.0019   -0.1864    0.0724    0.3071    0.1268   -0.1204    0.2481
          18   -0.3049    0.0930   -0.0071    0.0944   -0.1673   -0.0353   -0.0558   -0.0778
          19    0.3634   -0.2522    0.0180    0.1500   -0.0145    0.0427    0.2503   -0.1250
          20    0.0444   -0.2564   -0.0439    0.2941    0.2945   -0.2120    0.1167   -0.1051
          21    0.2531   -0.0375   -0.0849   -0.2531   -0.0103    0.1082   -0.2722    0.1645
          22    0.0429   -0.0401    0.0958    0.0138    0.0739   -0.0329   -0.0692    0.0327
          23    0.0174    0.0601   -0.1833   -0.1533   -0.0419   -0.0270    0.2029    0.0391
          24   -0.0810    0.0291    0.0175   -0.0062   -0.0429   -0.0843   -0.0668   -0.0207
          25    0.0519   -0.0422    0.0822    0.0184    0.0740    0.0798    0.0088    0.0196
          26    0.0357    0.0072   -0.0107    0.0495   -0.1184   -0.0996    0.0342   -0.1331
          27    0.0844   -0.0496    0.1269   -0.0538    0.0974    0.2235    0.0409   -0.0059
          28   -0.0709    0.0157    0.0165    0.0373   -0.0170   -0.2356   -0.1479    0.0113
          29   -0.0054   -0.0221    0.1908    0.0042    0.0424    0.0485   -0.2306   -0.1891
          30    0.0862   -0.0485    0.1183   -0.0520    0.0912    0.2199    0.0525   -0.0086
          31   -0.0538   -0.2310   -0.0604    0.0157   -0.2475    0.0535   -0.1297    0.0413
          32   -0.1955   -0.3961    0.1583   -0.1202   -0.2080    0.0384    0.0267    0.1937
          33   -0.1277   -0.0797    0.1168   -0.0558    0.1165   -0.0073    0.0624   -0.0164
          34    0.0135    0.1423    0.0402   -0.0559    0.0228    0.0293   -0.0160   -0.1181
          35    0.0908    0.1459    0.1742    0.1510   -0.0996   -0.0223    0.0390    0.2212
          36    0.0941    0.4366    0.1711    0.0873    0.2702   -0.0428    0.0992   -0.0252
          37    0.0122    0.1667    0.2251    0.0256   -0.0161    0.0014    0.0566    0.0973
          38    0.1534    0.2829    0.0736    0.1397   -0.0395   -0.0090   -0.0014    0.0896
          39   -0.2546   -0.3885    0.0778   -0.1425    0.0109    0.0194    0.0287   -0.0064
          40   -0.2155    0.1051   -0.0789    0.0941   -0.0804    0.3023    0.1260    0.0277
          41   -0.1533    0.0312   -0.0700    0.0862    0.0745    0.1203    0.0150    0.0608
          42   -0.2519    0.0587   -0.0092    0.1661   -0.0517    0.0761    0.0589   -0.0518
          43   -0.0020    0.0372    0.0001   -0.0311   -0.0467    0.0437   -0.0547   -0.1194
          44   -0.0041    0.0038   -0.0806   -0.0742    0.0462   -0.0171    0.0275    0.0014
          45    0.1127   -0.0505   -0.1896    0.2790   -0.0280    0.1591   -0.2763    0.0237
          46    0.1002   -0.0679   -0.0394    0.0677    0.0246    0.1889    0.1261   -0.0224
          47   -0.0226   -0.1130    0.0113    0.2037    0.0386   -0.0719    0.1766   -0.1997
          48    0.0587   -0.0198   -0.0463   -0.0193    0.0030    0.1434    0.0002    0.0041
          49    0.2507   -0.1496    0.0741    0.0018   -0.0515   -0.1895    0.0333   -0.0718
          50    0.1034   -0.0963    0.0037    0.0240    0.0955   -0.1315   -0.0290    0.0130
          51    0.2293   -0.0264   -0.0227   -0.2049    0.0762   -0.0501   -0.2139    0.1642


   Root No.       9        10        11        12        13        14        15        16

                 9 A      10 A      11 A      12 A      13 A      14 A      15 A      16 A   

                 565.9     673.6     813.1     833.1     872.1     929.5     948.8     977.5
  
           1    0.0379    0.0626    0.1224   -0.1094    0.0323   -0.0365    0.0777    0.0346
           2   -0.1947    0.0275   -0.2486    0.1878   -0.1922   -0.0358   -0.1922    0.0458
           3   -0.2190    0.1562   -0.0224   -0.0191   -0.1918   -0.0865    0.0271    0.2738
           4    0.1860    0.0857   -0.1591    0.1839    0.0818    0.0256    0.0565   -0.0364
           5    0.2257   -0.0673   -0.1584    0.1357   -0.0293    0.0076   -0.0728    0.0362
           6   -0.0522   -0.0299    0.0729   -0.0122   -0.1725   -0.0044   -0.2491    0.0846
           7    0.1159   -0.0516   -0.0669    0.0097   -0.0399   -0.0215   -0.0151    0.0212
           8   -0.0817    0.1138    0.1401   -0.0955    0.1056   -0.0061    0.1630   -0.0572
           9   -0.0335   -0.0026   -0.0676   -0.0905    0.0856   -0.0167   -0.0969    0.0870
          10   -0.2020    0.2155    0.0106    0.1192    0.1470    0.0631   -0.0740    0.0014
          11   -0.0930    0.0498    0.1337   -0.0845    0.0333    0.0044   -0.0323    0.0195
          12    0.3818   -0.1381    0.0452   -0.0864   -0.1363    0.0595    0.1499   -0.2230
          13    0.0167   -0.0005    0.1878   -0.1110    0.0879    0.0284    0.0693   -0.0493
          14   -0.1346    0.0966    0.2755   -0.1723    0.1357    0.0234    0.0428   -0.0158
          15   -0.0961    0.0463   -0.1993   -0.1986    0.0905   -0.0199   -0.0141   -0.0491
          16   -0.1484   -0.3431   -0.0104   -0.0605   -0.1102   -0.2512   -0.0028   -0.0681
          17    0.2354   -0.2709   -0.0061   -0.1083   -0.1100   -0.1532   -0.0509   -0.1306
          18   -0.1790   -0.1155    0.0139    0.1311    0.1815   -0.1391    0.0383   -0.0581
          19   -0.1419   -0.0333    0.0004   -0.0537   -0.1253   -0.0487    0.0276    0.0168
          20    0.0144   -0.0250    0.0180   -0.0221   -0.0245   -0.0241    0.0996    0.0791
          21    0.1948    0.0552   -0.0032    0.0790    0.1742    0.0445   -0.0985   -0.3023
          22    0.0925    0.0827    0.1450   -0.1491   -0.0452    0.0986   -0.2088   -0.1590
          23   -0.0613    0.0369   -0.3519    0.2551   -0.0203    0.0430    0.3611    0.0822
          24   -0.1052   -0.0057    0.0306   -0.0057   -0.0318   -0.1085   -0.0082    0.1534
          25    0.1155   -0.0823   -0.1199    0.2054    0.4228   -0.0727    0.2215    0.0658
          26    0.3272   -0.1731    0.1131    0.2723    0.2321   -0.1115   -0.2583    0.2807
          27   -0.0825   -0.0169   -0.0975    0.0008    0.1081   -0.0079    0.1609   -0.0360
          28    0.0781    0.1170   -0.0215   -0.0558   -0.3452    0.1127   -0.1222   -0.1084
          29   -0.0360    0.0786   -0.3485   -0.0878   -0.2241    0.1378    0.3196   -0.2691
          30   -0.0647   -0.0351   -0.0918    0.0234    0.1186   -0.0245    0.1309   -0.0033
          31    0.0162    0.0090   -0.3044   -0.1574    0.0856   -0.0536   -0.2520    0.2112
          32    0.0166    0.0170    0.1110    0.1269   -0.0752    0.0259    0.0823   -0.0775
          33    0.0110   -0.0139    0.0851    0.0759   -0.0428    0.0178    0.0527   -0.0526
          34    0.0429   -0.0196    0.1396   -0.0015   -0.0154   -0.0036    0.1586   -0.0767
          35   -0.0373    0.0279   -0.1387    0.0586   -0.0131    0.0121   -0.1649    0.0653
          36    0.0043   -0.0149    0.0649    0.0901   -0.0549    0.0124    0.0246   -0.0321
          37    0.0726   -0.0433   -0.0994    0.2691   -0.1960    0.0191   -0.1619    0.0151
          38   -0.0535    0.0492   -0.0138   -0.1168    0.0998   -0.0159    0.0109    0.0262
          39    0.0240   -0.0176    0.0716    0.0577   -0.0413    0.0126    0.0482   -0.0370
          40    0.0662    0.0098   -0.0594   -0.0148   -0.0615    0.5149   -0.1490    0.0325
          41    0.1348   -0.0145    0.0055   -0.0509   -0.0042    0.2740    0.0090    0.0660
          42    0.0637    0.0679    0.0591   -0.0183    0.1394    0.4391    0.1564    0.2232
          43    0.0373   -0.0301    0.0506   -0.0045   -0.0329   -0.0110    0.0738   -0.0302
          44   -0.1018    0.0823    0.1175   -0.0587    0.1228    0.0445   -0.0718    0.0260
          45   -0.1217    0.0215    0.3946    0.5421   -0.2749    0.0499    0.1395    0.0323
          46    0.2262    0.4030    0.0131   -0.0968   -0.1703   -0.1543    0.1243    0.3723
          47   -0.0483    0.3174   -0.0347    0.1879    0.1756    0.0667   -0.1955   -0.2901
          48    0.2187    0.3905   -0.0033    0.0303    0.0229   -0.0557   -0.0189    0.0567
          49   -0.2784   -0.2226   -0.0365    0.0805    0.1038    0.3808   -0.1647   -0.0470
          50   -0.0425   -0.1609    0.0088   -0.0369   -0.0124    0.1582    0.0553    0.1700
          51    0.0629   -0.2771    0.0407   -0.1167   -0.0506    0.2257    0.1539    0.3414


   Root No.      17        18        19        20        21        22        23        24

                17 A      18 A      19 A      20 A      21 A      22 A      23 A      24 A   

                 999.2    1029.2    1038.4    1070.9    1094.4    1120.3    1153.3    1163.1
  
           1    0.0006    0.0046    0.0692   -0.1016    0.3627   -0.2271   -0.0718    0.0731
           2   -0.0907   -0.1491    0.0060   -0.2555   -0.1389    0.2328   -0.0829    0.0718
           3   -0.0299   -0.0958   -0.0098   -0.2789    0.0503   -0.1904   -0.1094    0.1702
           4   -0.1510   -0.0839   -0.0207   -0.0744    0.0087    0.0967    0.2552   -0.1905
           5    0.0817    0.0228   -0.0099   -0.0607    0.0420    0.2159    0.2949   -0.1938
           6   -0.1788   -0.0507   -0.1628    0.2798    0.0392   -0.0304    0.0639   -0.0818
           7   -0.0450    0.0152    0.0121   -0.0284   -0.0173    0.0402    0.2677    0.2997
           8   -0.2363   -0.0832   -0.0405    0.0356   -0.1428    0.0421    0.0193    0.0040
           9   -0.2072    0.2422    0.1327   -0.0131   -0.0271    0.0029   -0.0324   -0.0506
          10    0.1335    0.0738   -0.0689    0.1358   -0.3602    0.1788   -0.0286   -0.0832
          11    0.1126    0.0568    0.0284   -0.0398    0.1344   -0.0182   -0.0435   -0.0028
          12    0.0844    0.1538    0.2082   -0.0985   -0.1335    0.0182    0.0268   -0.0457
          13    0.0539   -0.0131   -0.0174    0.0996    0.0167   -0.1387   -0.2082   -0.2797
          14    0.0933    0.0684    0.0141    0.0417    0.1179   -0.1024   -0.0398   -0.0520
          15    0.2020   -0.3617   -0.2219    0.0484    0.0495   -0.0003    0.0249    0.0410
          16    0.0079   -0.0446    0.1624    0.1571    0.0398    0.0709   -0.0139    0.0157
          17   -0.0385   -0.0577    0.1654    0.0432    0.0653   -0.1633    0.0034   -0.0133
          18    0.0522    0.0159    0.0624    0.1816   -0.0083    0.2587   -0.0426    0.0702
          19   -0.0157    0.1352   -0.3034   -0.1496   -0.0551   -0.0242    0.0056   -0.0211
          20    0.0123    0.0876   -0.1948   -0.0883   -0.0583    0.0185   -0.0094    0.0537
          21   -0.0507    0.1332   -0.1675   -0.0826    0.0776   -0.0977    0.0066   -0.0355
          22    0.0423    0.0568    0.0126   -0.1420    0.1813    0.4194   -0.3416    0.4145
          23   -0.2309    0.0648   -0.1427    0.2969    0.4776   -0.1179   -0.0465    0.1244
          24    0.0425   -0.0997    0.0545   -0.1512   -0.2225   -0.2697    0.1672   -0.2218
          25    0.0653   -0.0312    0.0611   -0.1533   -0.1663   -0.1172   -0.1998    0.1408
          26   -0.1003   -0.0852   -0.1862    0.2254   -0.2195   -0.1715   -0.3220    0.2035
          27    0.0709    0.0180    0.0734   -0.1071   -0.0054   -0.0075    0.0089   -0.0031
          28   -0.1819    0.0078   -0.1310    0.3706   -0.1337   -0.0723   -0.0611   -0.0287
          29    0.1301    0.1433    0.0879    0.1791   -0.3497   -0.1248   -0.2756    0.1352
          30    0.0715    0.0094    0.0632   -0.1067   -0.0179   -0.0097   -0.0096    0.0184
          31   -0.0704    0.4271    0.1671   -0.0267    0.0494   -0.0046    0.0034    0.0055
          32    0.1913   -0.1762   -0.1062    0.0390   -0.0008   -0.0232   -0.0529   -0.0651
          33    0.0529   -0.1006   -0.0411    0.0101   -0.0059   -0.0062   -0.0060   -0.0103
          34   -0.1329   -0.1730   -0.0623   -0.0204   -0.0660    0.0711    0.2361    0.2716
          35    0.2150    0.1498    0.0409    0.0371    0.0651   -0.0816   -0.1972   -0.2322
          36    0.0993   -0.0620   -0.0388    0.0079    0.0150   -0.0070    0.0167    0.0199
          37    0.5386   -0.0074   -0.0617   -0.0085    0.1833   -0.0622   -0.0316   -0.0029
          38   -0.1981    0.0884    0.0455    0.0136   -0.0754    0.0132   -0.0152   -0.0365
          39    0.0380   -0.0844   -0.0321   -0.0025    0.0049    0.0072    0.0337    0.0449
          40   -0.1138   -0.1020   -0.0307   -0.2697   -0.0939   -0.3252   -0.0065    0.1381
          41   -0.0126    0.0139   -0.0495   -0.0497    0.0271   -0.0386    0.0109   -0.0438
          42    0.0797    0.1341   -0.1883    0.0709    0.0751    0.2918    0.0135   -0.1530
          43   -0.1351   -0.1131    0.0046   -0.1029    0.0679    0.0680   -0.2867   -0.2806
          44    0.2840    0.2388    0.0040    0.2377   -0.0753   -0.2219    0.3745    0.3238
          45   -0.1029    0.3135    0.2020   -0.0790   -0.0216   -0.0163   -0.0091    0.0188
          46    0.0890   -0.1451    0.2418    0.1029   -0.0540    0.0837   -0.0272    0.0116
          47   -0.0790   -0.1647    0.2828    0.0737    0.1013   -0.0684    0.0387    0.0168
          48    0.0225   -0.1411    0.2750    0.1069    0.0372    0.0134   -0.0034    0.0025
          49   -0.0472   -0.2208    0.3741    0.1169    0.0481   -0.0492    0.0037   -0.0273
          50    0.0268   -0.0850    0.1309    0.0652   -0.0181    0.0564   -0.0050    0.0312
          51    0.0672   -0.1145    0.1802    0.1243   -0.0231    0.1386    0.0026    0.0498


   Root No.      25        26        27        28        29        30        31        32

                25 A      26 A      27 A      28 A      29 A      30 A      31 A      32 A   

                1193.3    1224.0    1278.3    1333.5    1390.1    1396.2    1403.2    1419.7
  
           1    0.2200    0.1054    0.0625    0.0803   -0.0061   -0.1092    0.0968    0.2511
           2    0.0186   -0.3760    0.0724    0.0978    0.0360   -0.1023    0.0811    0.1209
           3    0.0494   -0.0185   -0.2423    0.0640   -0.0122    0.1316   -0.1491   -0.2015
           4   -0.2847   -0.2656    0.0754   -0.0163    0.1617   -0.1892    0.2027   -0.0857
           5   -0.0222    0.3217   -0.2438    0.0236   -0.0838    0.1688   -0.1818   -0.0538
           6    0.0040    0.0058    0.0564   -0.0040    0.0033   -0.0221    0.0211    0.0256
           7    0.1415    0.0078   -0.0209   -0.0458   -0.1085   -0.0551   -0.0507    0.4506
           8   -0.0251    0.0201   -0.0440   -0.0116    0.2676   -0.0187   -0.1810   -0.1902
           9   -0.0102    0.0028   -0.0157   -0.0290   -0.1208   -0.1920   -0.0877   -0.0618
          10    0.1718    0.4383   -0.0855   -0.0448   -0.0447    0.0928   -0.0840   -0.0361
          11    0.1119    0.0603    0.1993   -0.0973   -0.0607   -0.0111    0.0393    0.1299
          12    0.0063   -0.0126    0.0187   -0.0003    0.0005   -0.0113    0.0097    0.0127
          13   -0.2978   -0.1495   -0.2139    0.1350    0.1114    0.0121   -0.0569   -0.1784
          14   -0.0099   -0.0346    0.3062   -0.1775   -0.0195   -0.0436    0.0936    0.0066
          15    0.0189    0.0052    0.0056   -0.0075   -0.0057   -0.0002    0.0019   -0.0024
          16    0.0405   -0.0331    0.0032    0.1463   -0.0011    0.0249   -0.0819   -0.0384
          17    0.1582   -0.0586   -0.2057   -0.0730   -0.0106    0.0881   -0.0516   -0.1350
          18   -0.2685    0.1029    0.1194   -0.1595    0.0078   -0.0759    0.1271    0.1070
          19    0.0763   -0.0694   -0.0266    0.0946   -0.0018    0.0407   -0.0655   -0.0687
          20   -0.2093    0.1197    0.0818   -0.1001    0.0027   -0.0518    0.0849    0.0787
          21    0.0763   -0.0023   -0.0215   -0.0359    0.0009   -0.0187    0.0224    0.0429
          22   -0.1346   -0.0408   -0.1644    0.0142    0.0030    0.0471   -0.0485   -0.0811
          23   -0.0564    0.1099   -0.0936   -0.0150   -0.0061    0.0334   -0.0289   -0.0448
          24    0.1533   -0.0416    0.0774    0.0403    0.0002   -0.0317    0.0213    0.0616
          25   -0.0511   -0.2406    0.1575   -0.1432   -0.2013    0.2553   -0.2399   -0.0047
          26    0.1550    0.0302   -0.0570    0.0749    0.0959   -0.1169    0.1083   -0.0114
          27   -0.0392   -0.0703    0.0833   -0.1027   -0.1847    0.2332   -0.2258    0.0150
          28   -0.0644   -0.2042    0.2615   -0.1578   -0.1957    0.2136   -0.1972    0.0503
[...]

 VIBRATION   24   24A         ATOM PAIR      ENERGY CONTRIBUTION    RADIAL
 FREQ.      1163.15         C  1 -- H  8         +15.9% ( 49.6%)      8.1%
 T-DIPOLE    0.0973         C  3 -- C  5         +14.8% ( 47.9%)     62.2%
 TRAVEL      0.1122         C  5 -- H 15         +12.4% ( 43.8%)     25.8%
 RED. MASS   0.3960         C  3 -- H 12          +9.7% ( 38.8%)     49.1%
 EFF. MASS   4.6049

 VIBRATION   25   25A         ATOM PAIR      ENERGY CONTRIBUTION    RADIAL
 FREQ.      1193.33         C  6 -- H 14         +19.1% ( 59.8%)      4.5%
 T-DIPOLE    0.0954         C  1 -- C  2          +9.5% ( 42.3%)     98.6%
 TRAVEL      0.0963         C  6 -- C  7          +8.2% ( 39.3%)      3.8%
 RED. MASS   0.4808         C  4 -- C  5          +7.4% ( 37.2%)      6.0%
 EFF. MASS   6.0944

 VIBRATION   26   26A         ATOM PAIR      ENERGY CONTRIBUTION    RADIAL
 FREQ.      1224.03         C  2 -- C  4         +18.0% ( 60.2%)     60.9%
 T-DIPOLE    0.0692         C  1 -- C  2         +14.8% ( 54.6%)     22.0%
 TRAVEL      0.0857         C  1 -- C  4         +12.2% ( 49.5%)     98.8%
 RED. MASS   1.1670         C  2 -- H  9          +9.9% ( 44.6%)     30.3%
 EFF. MASS   7.5038

 VIBRATION   27   27A         ATOM PAIR      ENERGY CONTRIBUTION    RADIAL
 FREQ.      1278.31         C  5 -- H 15         +13.5% ( 48.6%)      0.1%
 T-DIPOLE    0.0702         C  2 -- C  4         +10.6% ( 43.2%)     96.0%
 TRAVEL      0.0997         C  3 -- C  5          +9.7% ( 41.3%)     76.2%
 RED. MASS   0.4588         C  1 -- C  6          +8.0% ( 37.5%)     75.6%
 EFF. MASS   5.3035

 VIBRATION   28   28A         ATOM PAIR      ENERGY CONTRIBUTION    RADIAL
 FREQ.      1333.48         C  7 -- H 17         +26.3% ( 53.9%)      1.9%
 T-DIPOLE    0.0820         C  7 -- H 16         +21.6% ( 48.8%)      0.7%
 TRAVEL      0.1424         C  1 -- C  6          +7.0% ( 27.8%)     35.4%
 RED. MASS   0.2868         C  6 -- H 14          +6.4% ( 26.6%)      0.7%
 EFF. MASS   2.4947

 VIBRATION   29   29A         ATOM PAIR      ENERGY CONTRIBUTION    RADIAL
 FREQ.      1390.08         C  3 -- H 13         +31.8% ( 56.2%)      1.7%
 T-DIPOLE    0.0484         C  3 -- H 11         +24.1% ( 48.9%)      6.9%
 TRAVEL      0.1396         C  2 -- H  9          +9.1% ( 30.0%)      3.6%
 RED. MASS   0.3607         C  2 -- H 10          +9.0% ( 29.8%)      3.7%
 EFF. MASS   2.4895

 VIBRATION   30   30A         ATOM PAIR      ENERGY CONTRIBUTION    RADIAL
 FREQ.      1396.25         C  3 -- H 12         +23.4% ( 50.2%)      0.0%
 T-DIPOLE    0.1047         C  2 -- H  9         +14.4% ( 39.3%)      3.2%
 TRAVEL      0.1317         C  2 -- H 10         +12.8% ( 37.1%)      5.1%
 RED. MASS   0.2642         C  3 -- H 13         +11.0% ( 34.4%)      6.1%
 EFF. MASS   2.7845

 VIBRATION   31   31A         ATOM PAIR      ENERGY CONTRIBUTION    RADIAL
 FREQ.      1403.15         C  3 -- H 11         +14.9% ( 41.8%)      0.3%
 T-DIPOLE    0.0401         C  3 -- H 12         +14.1% ( 40.7%)      3.3%
 TRAVEL      0.1224         C  2 -- H  9         +13.0% ( 39.0%)      3.7%
 RED. MASS   0.2439         C  2 -- H 10         +11.7% ( 37.0%)      5.6%
 EFF. MASS   3.2052

 VIBRATION   32   32A         ATOM PAIR      ENERGY CONTRIBUTION    RADIAL
 FREQ.      1419.68         C  3 -- H 12         +20.6% ( 60.7%)      6.5%
 T-DIPOLE    0.0627         C  3 -- H 13         +16.4% ( 54.2%)      2.1%
 TRAVEL      0.0898         C  3 -- H 11         +13.2% ( 48.6%)      1.6%
 RED. MASS   1.0070         C  3 -- C  5         +12.7% ( 47.7%)     93.4%
 EFF. MASS   5.8928

 VIBRATION   33   33A         ATOM PAIR      ENERGY CONTRIBUTION    RADIAL
 FREQ.      1522.43         C  1 -- C  2         +16.8% ( 67.4%)     86.7%
 T-DIPOLE    0.1870         C  1 -- C  6         +13.8% ( 61.3%)     78.6%
 TRAVEL      0.0640         C  1 -- C  4         +12.3% ( 57.8%)     69.8%
 RED. MASS   2.6568         C  1 -- H  8         +11.4% ( 55.7%)      0.8%
 EFF. MASS  10.8126         C  3 -- C  5         +11.1% ( 54.9%)     87.2%

 VIBRATION   34   34A         ATOM PAIR      ENERGY CONTRIBUTION    RADIAL
 FREQ.      1861.20         C  6 -- C  7         +44.6% ( 98.7%)     98.6%
 T-DIPOLE    0.2036         C  1 -- C  6         +17.0% ( 60.9%)     58.2%
 TRAVEL      0.0554         C  6 -- H 14         +15.2% ( 57.6%)      3.8%
 RED. MASS   5.2359         C  7 -- H 17         +11.0% ( 49.0%)     10.3%
 EFF. MASS  11.8045         C  7 -- H 16         +10.6% ( 48.0%)     12.9%

 VIBRATION   35   35A         ATOM PAIR      ENERGY CONTRIBUTION    RADIAL
 FREQ.      2101.63         C  4 -- C  5         +38.4% ( 92.4%)     99.7%
 T-DIPOLE    0.7633         C  1 -- C  4         +22.3% ( 70.4%)     84.3%
 TRAVEL      0.0519         C  2 -- C  4         +22.3% ( 70.3%)     86.1%
 RED. MASS   5.6442         C  3 -- C  5          +6.4% ( 37.7%)     45.5%
 EFF. MASS  11.9253

 VIBRATION   36   36A         ATOM PAIR      ENERGY CONTRIBUTION    RADIAL
 FREQ.      2981.00         C  1 -- H  8         +96.4% ( 99.9%)    100.0%
 T-DIPOLE    0.2257         C  1 -- C  2          +1.1% ( 10.6%)     22.6%
 TRAVEL      0.1250         C  1 -- C  4          +1.1% ( 10.6%)     27.1%
 RED. MASS   0.9244         C  1 -- C  6          +1.1% ( 10.5%)     10.9%
 EFF. MASS   1.4471

 VIBRATION   37   37A         ATOM PAIR      ENERGY CONTRIBUTION    RADIAL
 FREQ.      3045.77         C  5 -- H 15         +63.9% ( 81.7%)    100.0%
 T-DIPOLE    0.1562         C  3 -- H 12         +22.6% ( 48.6%)     99.0%
 TRAVEL      0.1209         C  3 -- H 13          +4.8% ( 22.3%)     84.9%
 RED. MASS   0.4674         C  7 -- H 17          +3.4% ( 19.0%)     99.7%
 EFF. MASS   1.5152

 VIBRATION   38   38A         ATOM PAIR      ENERGY CONTRIBUTION    RADIAL
 FREQ.      3048.21         C  6 -- H 14         +95.2% ( 99.0%)    100.0%
 T-DIPOLE    0.2668         C  6 -- C  7          +1.4% ( 12.1%)     31.7%
 TRAVEL      0.1212         C  1 -- C  6          +1.4% ( 11.8%)     14.4%
 RED. MASS   0.8935         C  7 -- H 16          +1.0% ( 10.1%)     96.1%
 EFF. MASS   1.5049

 VIBRATION   39   39A         ATOM PAIR      ENERGY CONTRIBUTION    RADIAL
 FREQ.      3055.69         C  3 -- H 12         +45.9% ( 69.4%)     99.2%
 T-DIPOLE    0.2615         C  5 -- H 15         +29.6% ( 55.8%)    100.0%
 TRAVEL      0.1213         C  3 -- H 11          +9.9% ( 32.2%)     86.5%
 RED. MASS   0.3236         C  7 -- H 17          +9.3% ( 31.2%)     99.8%
 EFF. MASS   1.4997

 VIBRATION   40   40A         ATOM PAIR      ENERGY CONTRIBUTION    RADIAL
 FREQ.      3074.07         C  3 -- H 11         +51.2% ( 73.8%)     97.1%
 T-DIPOLE    0.0574         C  3 -- H 13         +45.4% ( 69.5%)     96.9%
 TRAVEL      0.1207         C  3 -- H 12          +1.2% ( 11.3%)      5.8%
 RED. MASS   0.4964         C  3 -- C  5          +1.0% ( 10.2%)      0.0%
 EFF. MASS   1.5044

 VIBRATION   41   41A         ATOM PAIR      ENERGY CONTRIBUTION    RADIAL
 FREQ.      3078.69         C  2 -- H 10         +54.9% ( 76.5%)     97.8%
 T-DIPOLE    0.1728         C  2 -- H  9         +42.6% ( 67.4%)     96.4%
 TRAVEL      0.1191         C  2 -- C  4          +1.1% ( 10.8%)      0.1%
 RED. MASS   0.5243         C  1 -- C  2          +1.1% ( 10.8%)      0.1%
 EFF. MASS   1.5446

 VIBRATION   42   42A         ATOM PAIR      ENERGY CONTRIBUTION    RADIAL
 FREQ.      3112.14         C  7 -- H 17         +79.7% ( 90.0%)    100.0%
 T-DIPOLE    0.2098         C  3 -- H 13          +8.4% ( 29.3%)     96.0%
 TRAVEL      0.1224         C  3 -- H 11          +5.1% ( 22.8%)     91.5%
 RED. MASS   0.6296         C  3 -- H 12          +4.5% ( 21.4%)     92.4%
 EFF. MASS   1.4469

 VIBRATION   43   43A         ATOM PAIR      ENERGY CONTRIBUTION    RADIAL
 FREQ.      3118.47         C  2 -- H  9         +55.8% ( 74.3%)     97.2%
 T-DIPOLE    0.2182         C  2 -- H 10         +42.4% ( 64.8%)     95.2%
 TRAVEL      0.1286         C  2 -- C  4          +0.9% (  9.4%)     79.3%
 RED. MASS   0.4922         C  1 -- C  2          +0.9% (  9.3%)     75.7%
 EFF. MASS   1.3068

 VIBRATION   44   44A         ATOM PAIR      ENERGY CONTRIBUTION    RADIAL
 FREQ.      3147.97         C  7 -- H 16         +96.1% ( 99.4%)    100.0%
 T-DIPOLE    0.2374         C  6 -- C  7          +1.5% ( 12.5%)     48.0%
 TRAVEL      0.1185         C  7 -- H 17          +1.5% ( 12.4%)     23.6%
 RED. MASS   0.9099         C  6 -- H 14          +0.9% (  9.5%)     96.4%
 EFF. MASS   1.5248

 VIBRATION   45   45A         ATOM PAIR      ENERGY CONTRIBUTION    RADIAL
 FREQ.      3165.69         C  3 -- H 13         +38.3% ( 59.7%)     98.1%
 T-DIPOLE    0.1154         C  3 -- H 11         +31.0% ( 53.7%)     97.1%
 TRAVEL      0.1360         C  3 -- H 12         +25.1% ( 48.3%)     96.3%
 RED. MASS   0.3043         C  7 -- H 17          +5.1% ( 21.8%)     99.9%
 EFF. MASS   1.1512

      SYMMETRY NUMBER FOR POINT-GROUP C1  =  1


          SYSTEM IS A GROUND STATE



 InChI=1S/C7H10/c1-3-6-5-7(6)4-2/h3-4,6H,1,5H2,2H3


          MOLECULE IS NOT LINEAR

          THERE ARE 45 GENUINE VIBRATIONS IN THIS SYSTEM
          THIS THERMODYNAMICS CALCULATION IS LIMITED TO
          MOLECULES WHICH HAVE NO INTERNAL ROTATIONS




                    CALCULATED THERMODYNAMIC PROPERTIES
                                          *
   TEMP. (K)   PARTITION FUNCTION   H.O.F.    ENTHALPY  HEAT CAPACITY ENTROPY
                                   KCAL/MOL   CAL/MOLE    CAL/K/MOL  CAL/K/MOL


 298.00  VIB.     0.2342D+02                  2864.2846    21.8848    15.8789
         ROT.     0.2462D+06                   888.2813     2.9808    27.6501
         INT.     0.5768D+07                  3752.5659    24.8656    43.5291
         TRA.     0.8833D+27                  1480.4688     4.9680    39.5363
         TOT.                       52.251    5233.0347    29.8336    83.0653

 200.00  VIB.     0.5178D+01                  1148.6539    13.3398     9.0109
         ROT.     0.1354D+06                   596.1620     2.9808    26.4614
         INT.     0.7010D+06                  1744.8159    16.3206    35.4723
         TRA.     0.4856D+27                   993.6033     4.9680    37.5551
         TOT.                       49.757    2738.4191    21.2886    73.0275

 210.00  VIB.     0.5989D+01                  1286.0577    14.1441     9.6811
         ROT.     0.1457D+06                   625.9700     2.9808    26.6069
         INT.     0.8724D+06                  1912.0277    17.1249    36.2880
         TRA.     0.5225D+27                  1043.2834     4.9680    37.7975
         TOT.                       49.974    2955.3111    22.0929    74.0855

 220.00  VIB.     0.6943D+01                  1431.5973    14.9669    10.3580
         ROT.     0.1562D+06                   655.7781     2.9808    26.7455
         INT.     0.1085D+07                  2087.3754    17.9478    37.1036
         TRA.     0.5603D+27                  1092.9636     4.9680    38.0286
         TOT.                       50.199    3180.3390    22.9158    75.1322

 230.00  VIB.     0.8066D+01                  1585.4574    15.8080    11.0418
         ROT.     0.1670D+06                   685.5862     2.9808    26.8781
         INT.     0.1347D+07                  2271.0436    18.7888    37.9199
         TRA.     0.5989D+27                  1142.6437     4.9680    38.2495
         TOT.                       50.432    3413.6873    23.7569    76.1693

 240.00  VIB.     0.9388D+01                  1747.8154    16.6663    11.7327
         ROT.     0.1780D+06                   715.3943     2.9808    27.0049
         INT.     0.1671D+07                  2463.2097    19.6471    38.7376
         TRA.     0.6384D+27                  1192.3239     4.9680    38.4609
         TOT.                       50.674    3655.5336    24.6151    77.1985

 250.00  VIB.     0.1095D+02                  1918.8355    17.5402    12.4307
         ROT.     0.1892D+06                   745.2024     2.9808    27.1266
         INT.     0.2071D+07                  2664.0380    20.5210    39.5573
         TRA.     0.6787D+27                  1242.0041     4.9680    38.6637
         TOT.                       50.924    3906.0420    25.4890    78.2210

 260.00  VIB.     0.1279D+02                  2098.6646    18.4277    13.1359
         ROT.     0.2007D+06                   775.0105     2.9808    27.2435
         INT.     0.2566D+07                  2873.6751    21.4085    40.3794
         TRA.     0.7198D+27                  1291.6842     4.9680    38.8586
         TOT.                       51.184    4165.3593    26.3765    79.2380

 270.00  VIB.     0.1496D+02                  2287.4283    19.3267    13.8482
         ROT.     0.2124D+06                   804.8186     2.9808    27.3560
         INT.     0.3177D+07                  3092.2469    22.3075    41.2042
         TRA.     0.7618D+27                  1341.3644     4.9680    39.0461
         TOT.                       51.452    4433.6113    27.2756    80.2502

 280.00  VIB.     0.1753D+02                  2485.2296    20.2349    14.5674
         ROT.     0.2243D+06                   834.6267     2.9808    27.4644
         INT.     0.3932D+07                  3319.8564    23.2157    42.0318
         TRA.     0.8045D+27                  1391.0445     4.9680    39.2267
         TOT.                       51.729    4710.9009    28.1837    81.2586

 290.00  VIB.     0.2058D+02                  2692.1479    21.1497    15.2934
         ROT.     0.2364D+06                   864.4348     2.9808    27.5690
         INT.     0.4866D+07                  3556.5827    24.1305    42.8624
         TRA.     0.8479D+27                  1440.7247     4.9680    39.4011
         TOT.                       52.016    4997.3074    29.0985    82.2635

 300.00  VIB.     0.2420D+02                  2908.2383    22.0689    16.0259
         ROT.     0.2487D+06                   894.2429     2.9808    27.6701
         INT.     0.6019D+07                  3802.4812    25.0497    43.6960
         TRA.     0.8922D+27                  1490.4049     4.9680    39.5695
         TOT.                       52.311    5292.8861    30.0177    83.2655

 310.00  VIB.     0.2849D+02                  3133.5325    22.9901    16.7646
         ROT.     0.2613D+06                   924.0510     2.9808    27.7678
         INT.     0.7444D+07                  4057.5835    25.9709    44.5324
         TRA.     0.9372D+27                  1540.0850     4.9680    39.7324
         TOT.                       52.616    5597.6686    30.9389    84.2648

 320.00  VIB.     0.3360D+02                  3368.0396    23.9111    17.5090
         ROT.     0.2740D+06                   953.8591     2.9808    27.8624
         INT.     0.9206D+07                  4321.8988    26.8919    45.3715
         TRA.     0.9829D+27                  1589.7652     4.9680    39.8901
         TOT.                       52.930    5911.6640    31.8599    85.2616

 330.00  VIB.     0.3967D+02                  3611.7475    24.8299    18.2589
         ROT.     0.2870D+06                   983.6672     2.9808    27.9542
         INT.     0.1138D+08                  4595.4148    27.8107    46.2131
         TRA.     0.1029D+28                  1639.4454     4.9680    40.0430
         TOT.                       53.253    6234.8601    32.7788    86.2561

 340.00  VIB.     0.4691D+02                  3864.6244    25.7446    19.0137
         ROT.     0.3001D+06                  1013.4753     2.9808    28.0432
         INT.     0.1408D+08                  4878.0997    28.7254    47.0569
         TRA.     0.1076D+28                  1689.1255     4.9680    40.1913
         TOT.                       53.586    6567.2252    33.6934    87.2482

 350.00  VIB.     0.5554D+02                  4126.6204    26.6535    19.7731
         ROT.     0.3134D+06                  1043.2834     2.9808    28.1296
         INT.     0.1741D+08                  5169.9038    29.6343    47.9027
         TRA.     0.1124D+28                  1738.8057     4.9680    40.3353
         TOT.                       53.927    6908.7095    34.6023    88.2380

 360.00  VIB.     0.6584D+02                  4397.6697    27.5550    20.5366
         ROT.     0.3270D+06                  1073.0915     2.9808    28.2135
         INT.     0.2153D+08                  5470.7612    30.5358    48.7502
         TRA.     0.1173D+28                  1788.4859     4.9680    40.4753
         TOT.                       54.278    7259.2471    35.5039    89.2255

 370.00  VIB.     0.7815D+02                  4677.6920    28.4479    21.3038
         ROT.     0.3407D+06                  1102.8996     2.9808    28.2952
         INT.     0.2662D+08                  5780.5916    31.4287    49.5990
         TRA.     0.1222D+28                  1838.1660     4.9680    40.6114
         TOT.                       54.637    7618.7577    36.3967    90.2104

 380.00  VIB.     0.9286D+02                  4966.5947    29.3309    22.0742
         ROT.     0.3546D+06                  1132.7077     2.9808    28.3747
         INT.     0.3293D+08                  6099.3024    32.3117    50.4489
         TRA.     0.1272D+28                  1887.8462     4.9680    40.7439
         TOT.                       55.006    7987.1485    37.2797    91.1928

 390.00  VIB.     0.1105D+03                  5264.2741    30.2031    22.8474
         ROT.     0.3687D+06                  1162.5158     2.9808    28.4521
         INT.     0.4073D+08                  6426.7899    33.1839    51.2995
         TRA.     0.1322D+28                  1937.5263     4.9680    40.8729
         TOT.                       55.383    8364.3162    38.1519    92.1725

 400.00  VIB.     0.1316D+03                  5570.6177    31.0636    23.6230
         ROT.     0.3829D+06                  1192.3239     2.9808    28.5276
         INT.     0.5038D+08                  6762.9416    34.0444    52.1505
         TRA.     0.1374D+28                  1987.2065     4.9680    40.9987
         TOT.                       55.769    8750.1481    39.0124    93.1493

   *: NOTE: HEATS OF FORMATION ARE RELATIVE TO THE
            ELEMENTS IN THEIR STANDARD STATE AT 298K
              (=  Standard Enthalpy of Formation).

            Hvib:  Zero-point energy is not included.
                   frequencies of less than zero cm-1 are not included.
            Hrot = (3/2)RT
            Htra = (3/2)RT + pV = (5/2)RT

            Heat capacity is Cp, not Cv

          For more information, see: HTTP://OpenMOPAC.net/Manual/thermochemistry.html


           FORCE CONSTANT IN CARTESIAN COORDINATES (Millidynes/A)

    ATOM   CHEMICAL       X               Y               Z
   NUMBER   SYMBOL  FORCE CONSTANT  FORCE CONSTANT  FORCE CONSTANT

      1       C       10.099157        7.199712        8.920148
      2       C        9.702204        7.006869        8.398598
      3       C        8.688808        8.633378        7.974515
      4       C        5.361275       21.294118        2.318351
      5       C        9.209003       15.703272        2.384532
      6       C        8.831991       10.415503        8.196715
      7       C        8.488224       10.042533        7.884087
      8       H        1.675369        0.923468        3.545149
      9       H        1.818729        1.019074        3.730234
     10       H        1.829807        0.845603        3.866649
     11       H        0.886061        1.096360        4.646473
     12       H        3.265282        2.222963        1.286471
     13       H        0.760750        3.632171        2.312931
     14       H        0.709672        4.312021        1.170301
     15       H        4.001912        1.828838        0.351195
     16       H        1.838079        0.964872        3.668490
     17       H        0.732237        4.534853        1.210436

 **********************
 *                    *
 * JOB ENDED NORMALLY *
 *                    *
 **********************



 TOTAL JOB TIME:             7.62 SECONDS

 == MOPAC DONE ==
