 *******************************************************************************
 ** Site#: 14399        For non-commercial use only    Version 18.184L 64BITS **
 *******************************************************************************
 ** Cite this program as: MOPAC2016, Version: 18.184L, James J. P. Stewart,   **
 ** Stewart Computational Chemistry, web: HTTP://OpenMOPAC.net. Days left:  20**
 *******************************************************************************
 **                                                                           **
 **                                MOPAC2016                                  **
 **                                                                           **
 *******************************************************************************

                              PM3 CALCULATION RESULTS

 *******************************************************************************
 *  CALCULATION DONE:                                Thu Jun 13 20:11:35 2019  *
 *  PM3        - The PM3 Hamiltonian to be used
 *  PRECISE    - CRITERIA TO BE INCREASED BY 100 TIMES
 *  NOSYM      - POINT-GROUP SYMMETRY SET TO C1
 *  THREADS=1  - MULTI-THREADING NOT USED
 *  T=         - A TIME OF 172800.0 SECONDS REQUESTED
 *  DUMP=N     - RESTART FILE WRITTEN EVERY  7200.000 SECONDS
 *******************************************************************************
pm3  precise nosym THREADS=1
 InChI=1S/C7H12O2/c1-6(9-8)2-3-7-4-5-7/h2-3,6-8H,4-5H2,1H3

   ATOM   CHEMICAL          X               Y               Z
  NUMBER   SYMBOL      (ANGSTROMS)     (ANGSTROMS)     (ANGSTROMS)
 
     1       O         -2.86130000  *  -0.00660000  *   0.71210000  *
     2       O         -2.98780000  *  -1.31840000  *   0.61460000  *
     3       C          1.70530000  *  -1.00500000  *   0.21380000  *
     4       C          2.83380000  *  -0.98020000  *  -0.80480000  *
     5       C          2.66280000  *   0.17730000  *   0.16340000  *
     6       C         -1.89270000  *   0.37740000  *  -0.23520000  *
     7       C         -2.02910000  *   1.87410000  *  -0.50080000  *
     8       C          0.34260000  *  -0.71760000  *  -0.34780000  *
     9       C         -0.51160000  *   0.08650000  *   0.30000000  *
    10       H          1.82780000  *  -1.67440000  *   1.09160000  *
    11       H          3.68610000  *  -1.64920000  *  -0.56160000  *
    12       H          2.54420000  *  -0.73880000  *  -1.85050000  *
    13       H          3.41750000  *   0.19580000  *   0.97770000  *
    14       H          2.27600000  *   1.10480000  *  -0.31220000  *
    15       H         -2.06650000  *  -0.14510000  *  -1.20690000  *
    16       H         -3.04110000  *   2.09360000  *  -0.90270000  *
    17       H         -1.88620000  *   2.45230000  *   0.43770000  *
    18       H         -1.27480000  *   2.20220000  *  -1.24810000  *
    19       H          0.04780000  *  -1.19780000  *  -1.27670000  *
    20       H         -0.21130000  *   0.54460000  *   1.23930000  *
    21       H         -2.58160000  *  -1.67560000  *   1.44580000  *
 


          CARTESIAN COORDINATES 

    NO.       ATOM           X           Y           Z

     1         O         -2.8613     -0.0066      0.7121
     2         O         -2.9878     -1.3184      0.6146
     3         C          1.7053     -1.0050      0.2138
     4         C          2.8338     -0.9802     -0.8048
     5         C          2.6628      0.1773      0.1634
     6         C         -1.8927      0.3774     -0.2352
     7         C         -2.0291      1.8741     -0.5008
     8         C          0.3426     -0.7176     -0.3478
     9         C         -0.5116      0.0865      0.3000
    10         H          1.8278     -1.6744      1.0916
    11         H          3.6861     -1.6492     -0.5616
    12         H          2.5442     -0.7388     -1.8505
    13         H          3.4175      0.1958      0.9777
    14         H          2.2760      1.1048     -0.3122
    15         H         -2.0665     -0.1451     -1.2069
    16         H         -3.0411      2.0936     -0.9027
    17         H         -1.8862      2.4523      0.4377
    18         H         -1.2748      2.2022     -1.2481
    19         H          0.0478     -1.1978     -1.2767
    20         H         -0.2113      0.5446      1.2393
    21         H         -2.5816     -1.6756      1.4458

  H: (PM3): J. J. P. STEWART, J. COMP. CHEM. 10, 209 (1989).
  C: (PM3): J. J. P. STEWART, J. COMP. CHEM. 10, 209 (1989).
  O: (PM3): J. J. P. STEWART, J. COMP. CHEM. 10, 209 (1989).

           Empirical Formula: C7 H12 O2  =    21 atoms



      MOLECULAR POINT GROUP   :   C1  


      RHF CALCULATION, NO. OF DOUBLY OCCUPIED LEVELS = 26


          Geometry optimization using EF

          DIAGONAL MATRIX USED AS START HESSIAN

 CYCLE:     1 TIME:   0.031 TIME LEFT:  2.00D  GRAD.:   187.179 HEAT:  16.01576
 CYCLE:     2 TIME:   0.031 TIME LEFT:  2.00D  GRAD.:   211.282 HEAT:  10.88794
 CYCLE:     3 TIME:   0.039 TIME LEFT:  2.00D  GRAD.:    87.377 HEAT:  4.047686
 CYCLE:     4 TIME:   0.039 TIME LEFT:  2.00D  GRAD.:    89.302 HEAT:  2.561720
 CYCLE:     5 TIME:   0.023 TIME LEFT:  2.00D  GRAD.:    68.574 HEAT:  1.366194
 CYCLE:     6 TIME:   0.023 TIME LEFT:  2.00D  GRAD.:    70.575 HEAT: 0.9696880
 CYCLE:     7 TIME:   0.023 TIME LEFT:  2.00D  GRAD.:    63.842 HEAT: 0.3093475
 CYCLE:     8 TIME:   0.031 TIME LEFT:  2.00D  GRAD.:    32.704 HEAT:-0.6084071
 CYCLE:     9 TIME:   0.031 TIME LEFT:  2.00D  GRAD.:    20.714 HEAT:-0.8534221
 CYCLE:    10 TIME:   0.031 TIME LEFT:  2.00D  GRAD.:    25.251 HEAT:-0.9410321
 CYCLE:    11 TIME:   0.023 TIME LEFT:  2.00D  GRAD.:    17.043 HEAT: -1.100296
 CYCLE:    12 TIME:   0.047 TIME LEFT:  2.00D  GRAD.:    14.728 HEAT: -1.156089
 CYCLE:    13 TIME:   0.031 TIME LEFT:  2.00D  GRAD.:    13.804 HEAT: -1.211002
 CYCLE:    14 TIME:   0.023 TIME LEFT:  2.00D  GRAD.:    14.340 HEAT: -1.246768
 CYCLE:    15 TIME:   0.031 TIME LEFT:  2.00D  GRAD.:    12.118 HEAT: -1.288641
 CYCLE:    16 TIME:   0.023 TIME LEFT:  2.00D  GRAD.:    12.267 HEAT: -1.324878
 CYCLE:    17 TIME:   0.031 TIME LEFT:  2.00D  GRAD.:    11.615 HEAT: -1.350927
 CYCLE:    18 TIME:   0.031 TIME LEFT:  2.00D  GRAD.:    13.026 HEAT: -1.370154
 CYCLE:    19 TIME:   0.023 TIME LEFT:  2.00D  GRAD.:    14.902 HEAT: -1.374218
 CYCLE:    20 TIME:   0.031 TIME LEFT:  2.00D  GRAD.:     9.267 HEAT: -1.426549
 CYCLE:    21 TIME:   0.039 TIME LEFT:  2.00D  GRAD.:     7.750 HEAT: -1.446403
 CYCLE:    22 TIME:   0.031 TIME LEFT:  2.00D  GRAD.:     5.658 HEAT: -1.466734
 CYCLE:    23 TIME:   0.023 TIME LEFT:  2.00D  GRAD.:     5.397 HEAT: -1.488514
 CYCLE:    24 TIME:   0.031 TIME LEFT:  2.00D  GRAD.:     5.091 HEAT: -1.525474
 CYCLE:    25 TIME:   0.031 TIME LEFT:  2.00D  GRAD.:     5.427 HEAT: -1.564600
 CYCLE:    26 TIME:   0.023 TIME LEFT:  2.00D  GRAD.:     9.193 HEAT: -1.574534
 CYCLE:    27 TIME:   0.031 TIME LEFT:  2.00D  GRAD.:     3.709 HEAT: -1.605135
 CYCLE:    28 TIME:   0.031 TIME LEFT:  2.00D  GRAD.:     3.169 HEAT: -1.619911
 CYCLE:    29 TIME:   0.023 TIME LEFT:  2.00D  GRAD.:     4.296 HEAT: -1.649527
 CYCLE:    30 TIME:   0.031 TIME LEFT:  2.00D  GRAD.:     4.319 HEAT: -1.680355
 CYCLE:    31 TIME:   0.031 TIME LEFT:  2.00D  GRAD.:     3.868 HEAT: -1.697686
 CYCLE:    32 TIME:   0.023 TIME LEFT:  2.00D  GRAD.:     4.454 HEAT: -1.726335
 CYCLE:    33 TIME:   0.031 TIME LEFT:  2.00D  GRAD.:     6.927 HEAT: -1.778691
 CYCLE:    34 TIME:   0.031 TIME LEFT:  2.00D  GRAD.:     6.442 HEAT: -1.823742
 CYCLE:    35 TIME:   0.023 TIME LEFT:  2.00D  GRAD.:     8.755 HEAT: -1.850308
 CYCLE:    36 TIME:   0.031 TIME LEFT:  2.00D  GRAD.:     7.012 HEAT: -1.882029
 CYCLE:    37 TIME:   0.031 TIME LEFT:  2.00D  GRAD.:    10.958 HEAT: -1.906760
 CYCLE:    38 TIME:   0.023 TIME LEFT:  2.00D  GRAD.:     6.219 HEAT: -1.955114
 CYCLE:    39 TIME:   0.031 TIME LEFT:  2.00D  GRAD.:     7.622 HEAT: -2.000943
 CYCLE:    40 TIME:   0.023 TIME LEFT:  2.00D  GRAD.:     4.363 HEAT: -2.033756
 CYCLE:    41 TIME:   0.031 TIME LEFT:  2.00D  GRAD.:     7.172 HEAT: -2.059554
 CYCLE:    42 TIME:   0.031 TIME LEFT:  2.00D  GRAD.:     4.264 HEAT: -2.077307
 CYCLE:    43 TIME:   0.023 TIME LEFT:  2.00D  GRAD.:     3.295 HEAT: -2.093251
 CYCLE:    44 TIME:   0.031 TIME LEFT:  2.00D  GRAD.:     3.783 HEAT: -2.104407
 CYCLE:    45 TIME:   0.031 TIME LEFT:  2.00D  GRAD.:     3.893 HEAT: -2.115017
 CYCLE:    46 TIME:   0.031 TIME LEFT:  2.00D  GRAD.:     2.685 HEAT: -2.124753
 CYCLE:    47 TIME:   0.023 TIME LEFT:  2.00D  GRAD.:     4.300 HEAT: -2.136644
 CYCLE:    48 TIME:   0.031 TIME LEFT:  2.00D  GRAD.:     3.681 HEAT: -2.142102
 CYCLE:    49 TIME:   0.031 TIME LEFT:  2.00D  GRAD.:     2.005 HEAT: -2.152021
 CYCLE:    50 TIME:   0.023 TIME LEFT:  2.00D  GRAD.:     3.486 HEAT: -2.164877
 CYCLE:    51 TIME:   0.031 TIME LEFT:  2.00D  GRAD.:     3.135 HEAT: -2.172962
 CYCLE:    52 TIME:   0.031 TIME LEFT:  2.00D  GRAD.:     2.772 HEAT: -2.186204
 CYCLE:    53 TIME:   0.023 TIME LEFT:  2.00D  GRAD.:     4.084 HEAT: -2.193773
 CYCLE:    54 TIME:   0.031 TIME LEFT:  2.00D  GRAD.:     2.650 HEAT: -2.206136
 CYCLE:    55 TIME:   0.031 TIME LEFT:  2.00D  GRAD.:     2.607 HEAT: -2.230121
 CYCLE:    56 TIME:   0.023 TIME LEFT:  2.00D  GRAD.:     4.363 HEAT: -2.252642
 CYCLE:    57 TIME:   0.031 TIME LEFT:  2.00D  GRAD.:     4.101 HEAT: -2.275266
 CYCLE:    58 TIME:   0.023 TIME LEFT:  2.00D  GRAD.:     6.659 HEAT: -2.287633
 CYCLE:    59 TIME:   0.031 TIME LEFT:  2.00D  GRAD.:     2.719 HEAT: -2.310332
 CYCLE:    60 TIME:   0.031 TIME LEFT:  2.00D  GRAD.:     2.413 HEAT: -2.324814
 CYCLE:    61 TIME:   0.031 TIME LEFT:  2.00D  GRAD.:     2.349 HEAT: -2.344703
 CYCLE:    62 TIME:   0.023 TIME LEFT:  2.00D  GRAD.:     1.936 HEAT: -2.353340
 CYCLE:    63 TIME:   0.031 TIME LEFT:  2.00D  GRAD.:     2.063 HEAT: -2.362396
 CYCLE:    64 TIME:   0.023 TIME LEFT:  2.00D  GRAD.:     1.521 HEAT: -2.367148
 CYCLE:    65 TIME:   0.031 TIME LEFT:  2.00D  GRAD.:     2.762 HEAT: -2.376537
 CYCLE:    66 TIME:   0.031 TIME LEFT:  2.00D  GRAD.:     1.477 HEAT: -2.380621
 CYCLE:    67 TIME:   0.023 TIME LEFT:  2.00D  GRAD.:     1.574 HEAT: -2.386060
 CYCLE:    68 TIME:   0.031 TIME LEFT:  2.00D  GRAD.:     3.474 HEAT: -2.400838
 CYCLE:    69 TIME:   0.031 TIME LEFT:  2.00D  GRAD.:     2.174 HEAT: -2.409129
 CYCLE:    70 TIME:   0.023 TIME LEFT:  2.00D  GRAD.:     2.464 HEAT: -2.426116
 CYCLE:    71 TIME:   0.031 TIME LEFT:  2.00D  GRAD.:     1.957 HEAT: -2.438678
 CYCLE:    72 TIME:   0.031 TIME LEFT:  2.00D  GRAD.:     2.024 HEAT: -2.445780
 CYCLE:    73 TIME:   0.023 TIME LEFT:  2.00D  GRAD.:     1.927 HEAT: -2.454148
 CYCLE:    74 TIME:   0.031 TIME LEFT:  2.00D  GRAD.:     1.902 HEAT: -2.459785
 CYCLE:    75 TIME:   0.031 TIME LEFT:  2.00D  GRAD.:     1.466 HEAT: -2.466076
 CYCLE:    76 TIME:   0.023 TIME LEFT:  2.00D  GRAD.:     1.276 HEAT: -2.468680
 CYCLE:    77 TIME:   0.031 TIME LEFT:  2.00D  GRAD.:     1.415 HEAT: -2.471476
 CYCLE:    78 TIME:   0.023 TIME LEFT:  2.00D  GRAD.:     1.094 HEAT: -2.472843
 CYCLE:    79 TIME:   0.031 TIME LEFT:  2.00D  GRAD.:     0.781 HEAT: -2.473944
 CYCLE:    80 TIME:   0.031 TIME LEFT:  2.00D  GRAD.:     0.795 HEAT: -2.475312
 CYCLE:    81 TIME:   0.031 TIME LEFT:  2.00D  GRAD.:     0.620 HEAT: -2.475828
 CYCLE:    82 TIME:   0.023 TIME LEFT:  2.00D  GRAD.:     1.079 HEAT: -2.478197
 CYCLE:    83 TIME:   0.031 TIME LEFT:  2.00D  GRAD.:     1.046 HEAT: -2.479730
 CYCLE:    84 TIME:   0.031 TIME LEFT:  2.00D  GRAD.:     1.551 HEAT: -2.483664
 CYCLE:    85 TIME:   0.023 TIME LEFT:  2.00D  GRAD.:     0.758 HEAT: -2.485570
 CYCLE:    86 TIME:   0.031 TIME LEFT:  2.00D  GRAD.:     0.581 HEAT: -2.486523
 CYCLE:    87 TIME:   0.031 TIME LEFT:  2.00D  GRAD.:     0.976 HEAT: -2.491705
 CYCLE:    88 TIME:   0.023 TIME LEFT:  2.00D  GRAD.:     1.298 HEAT: -2.497219
 CYCLE:    89 TIME:   0.031 TIME LEFT:  2.00D  GRAD.:     5.394 HEAT: -2.504413
 CYCLE:    90 TIME:   0.031 TIME LEFT:  2.00D  GRAD.:     2.415 HEAT: -2.513630
 CYCLE:    91 TIME:   0.023 TIME LEFT:  2.00D  GRAD.:     1.214 HEAT: -2.519680
 CYCLE:    92 TIME:   0.031 TIME LEFT:  2.00D  GRAD.:     3.618 HEAT: -2.525312
 CYCLE:    93 TIME:   0.023 TIME LEFT:  2.00D  GRAD.:     1.435 HEAT: -2.531953
 CYCLE:    94 TIME:   0.031 TIME LEFT:  2.00D  GRAD.:     1.002 HEAT: -2.540362
 CYCLE:    95 TIME:   0.031 TIME LEFT:  2.00D  GRAD.:     1.839 HEAT: -2.548887
 CYCLE:    96 TIME:   0.031 TIME LEFT:  2.00D  GRAD.:     1.520 HEAT: -2.553761
 CYCLE:    97 TIME:   0.023 TIME LEFT:  2.00D  GRAD.:     1.485 HEAT: -2.562105
 CYCLE:    98 TIME:   0.031 TIME LEFT:  2.00D  GRAD.:     1.992 HEAT: -2.571822
 CYCLE:    99 TIME:   0.023 TIME LEFT:  2.00D  GRAD.:     5.577 HEAT: -2.570114
 CYCLE:   100 TIME:   0.031 TIME LEFT:  2.00D  GRAD.:     5.972 HEAT: -2.575655
 CYCLE:   101 TIME:   0.031 TIME LEFT:  2.00D  GRAD.:     2.597 HEAT: -2.585393
 CYCLE:   102 TIME:   0.023 TIME LEFT:  2.00D  GRAD.:     1.591 HEAT: -2.588963
 CYCLE:   103 TIME:   0.031 TIME LEFT:  2.00D  GRAD.:     2.597 HEAT: -2.592553
 CYCLE:   104 TIME:   0.031 TIME LEFT:  2.00D  GRAD.:     3.652 HEAT: -2.601051
 CYCLE:   105 TIME:   0.023 TIME LEFT:  2.00D  GRAD.:     4.485 HEAT: -2.612210
 CYCLE:   106 TIME:   0.031 TIME LEFT:  2.00D  GRAD.:     3.908 HEAT: -2.625439
 CYCLE:   107 TIME:   0.031 TIME LEFT:  2.00D  GRAD.:     4.472 HEAT: -2.636747
 CYCLE:   108 TIME:   0.039 TIME LEFT:  2.00D  GRAD.:     3.468 HEAT: -2.652165
 CYCLE:   109 TIME:   0.023 TIME LEFT:  2.00D  GRAD.:     3.378 HEAT: -2.658337
 CYCLE:   110 TIME:   0.031 TIME LEFT:  2.00D  GRAD.:     1.798 HEAT: -2.666815
 CYCLE:   111 TIME:   0.031 TIME LEFT:  2.00D  GRAD.:     4.505 HEAT: -2.671325
 CYCLE:   112 TIME:   0.023 TIME LEFT:  2.00D  GRAD.:     2.391 HEAT: -2.684598
 CYCLE:   113 TIME:   0.031 TIME LEFT:  2.00D  GRAD.:     1.841 HEAT: -2.693594
 CYCLE:   114 TIME:   0.031 TIME LEFT:  2.00D  GRAD.:     3.189 HEAT: -2.702812
 CYCLE:   115 TIME:   0.023 TIME LEFT:  2.00D  GRAD.:     2.865 HEAT: -2.707035
 CYCLE:   116 TIME:   0.031 TIME LEFT:  2.00D  GRAD.:     1.385 HEAT: -2.711559
 CYCLE:   117 TIME:   0.031 TIME LEFT:  2.00D  GRAD.:     1.011 HEAT: -2.713775
 CYCLE:   118 TIME:   0.031 TIME LEFT:  2.00D  GRAD.:     0.971 HEAT: -2.715727
 CYCLE:   119 TIME:   0.023 TIME LEFT:  2.00D  GRAD.:     0.731 HEAT: -2.717425
 CYCLE:   120 TIME:   0.031 TIME LEFT:  2.00D  GRAD.:     0.782 HEAT: -2.718252
 CYCLE:   121 TIME:   0.023 TIME LEFT:  2.00D  GRAD.:     0.999 HEAT: -2.720358
 CYCLE:   122 TIME:   0.031 TIME LEFT:  2.00D  GRAD.:     1.133 HEAT: -2.722386
 CYCLE:   123 TIME:   0.031 TIME LEFT:  2.00D  GRAD.:     1.754 HEAT: -2.731722
 CYCLE:   124 TIME:   0.023 TIME LEFT:  2.00D  GRAD.:     1.837 HEAT: -2.737802
 CYCLE:   125 TIME:   0.031 TIME LEFT:  2.00D  GRAD.:     2.026 HEAT: -2.751671
 CYCLE:   126 TIME:   0.031 TIME LEFT:  2.00D  GRAD.:     3.043 HEAT: -2.757147
 CYCLE:   127 TIME:   0.023 TIME LEFT:  2.00D  GRAD.:     1.924 HEAT: -2.764324
 CYCLE:   128 TIME:   0.031 TIME LEFT:  2.00D  GRAD.:     2.164 HEAT: -2.770769
 CYCLE:   129 TIME:   0.023 TIME LEFT:  2.00D  GRAD.:     1.491 HEAT: -2.774756
 CYCLE:   130 TIME:   0.031 TIME LEFT:  2.00D  GRAD.:     1.405 HEAT: -2.777681
 CYCLE:   131 TIME:   0.031 TIME LEFT:  2.00D  GRAD.:     0.964 HEAT: -2.781737
 CYCLE:   132 TIME:   0.031 TIME LEFT:  2.00D  GRAD.:     0.758 HEAT: -2.782908
 CYCLE:   133 TIME:   0.023 TIME LEFT:  2.00D  GRAD.:     0.559 HEAT: -2.784166
 CYCLE:   134 TIME:   0.031 TIME LEFT:  2.00D  GRAD.:     0.569 HEAT: -2.784712
 CYCLE:   135 TIME:   0.031 TIME LEFT:  2.00D  GRAD.:     0.607 HEAT: -2.785215
 CYCLE:   136 TIME:   0.031 TIME LEFT:  2.00D  GRAD.:     0.889 HEAT: -2.785872
 CYCLE:   137 TIME:   0.031 TIME LEFT:  2.00D  GRAD.:     1.086 HEAT: -2.786841
 CYCLE:   138 TIME:   0.023 TIME LEFT:  2.00D  GRAD.:     2.326 HEAT: -2.791774
 CYCLE:   139 TIME:   0.031 TIME LEFT:  2.00D  GRAD.:     2.909 HEAT: -2.797966
 CYCLE:   140 TIME:   0.039 TIME LEFT:  2.00D  GRAD.:     4.369 HEAT: -2.823072
 CYCLE:   141 TIME:   0.031 TIME LEFT:  2.00D  GRAD.:     6.398 HEAT: -2.839047
 CYCLE:   142 TIME:   0.023 TIME LEFT:  2.00D  GRAD.:     3.702 HEAT: -2.846852
 CYCLE:   143 TIME:   0.039 TIME LEFT:  2.00D  GRAD.:     3.254 HEAT: -2.852191
 CYCLE:   144 TIME:   0.031 TIME LEFT:  2.00D  GRAD.:     3.468 HEAT: -2.862801
 CYCLE:   145 TIME:   0.031 TIME LEFT:  2.00D  GRAD.:     3.378 HEAT: -2.867479
 CYCLE:   146 TIME:   0.023 TIME LEFT:  2.00D  GRAD.:     2.525 HEAT: -2.873360
 CYCLE:   147 TIME:   0.031 TIME LEFT:  2.00D  GRAD.:     4.267 HEAT: -2.877391
 CYCLE:   148 TIME:   0.031 TIME LEFT:  2.00D  GRAD.:     2.771 HEAT: -2.879936
 CYCLE:   149 TIME:   0.023 TIME LEFT:  2.00D  GRAD.:     1.887 HEAT: -2.884715
 CYCLE:   150 TIME:   0.031 TIME LEFT:  2.00D  GRAD.:     2.794 HEAT: -2.888077
 CYCLE:   151 TIME:   0.031 TIME LEFT:  2.00D  GRAD.:     2.596 HEAT: -2.891634
 CYCLE:   152 TIME:   0.023 TIME LEFT:  2.00D  GRAD.:     1.186 HEAT: -2.896740
 CYCLE:   153 TIME:   0.031 TIME LEFT:  2.00D  GRAD.:     3.212 HEAT: -2.897395
 CYCLE:   154 TIME:   0.031 TIME LEFT:  2.00D  GRAD.:     2.025 HEAT: -2.899908
 CYCLE:   155 TIME:   0.023 TIME LEFT:  2.00D  GRAD.:     1.064 HEAT: -2.901304
 CYCLE:   156 TIME:   0.031 TIME LEFT:  2.00D  GRAD.:     1.320 HEAT: -2.902899
 CYCLE:   157 TIME:   0.031 TIME LEFT:  2.00D  GRAD.:     2.258 HEAT: -2.904093
 CYCLE:   158 TIME:   0.023 TIME LEFT:  2.00D  GRAD.:     2.763 HEAT: -2.903985
 CYCLE:   159 TIME:   0.031 TIME LEFT:  2.00D  GRAD.:     1.343 HEAT: -2.906944
 CYCLE:   160 TIME:   0.031 TIME LEFT:  2.00D  GRAD.:     1.438 HEAT: -2.908342
 CYCLE:   161 TIME:   0.023 TIME LEFT:  2.00D  GRAD.:     2.147 HEAT: -2.911548
 CYCLE:   162 TIME:   0.031 TIME LEFT:  2.00D  GRAD.:     2.235 HEAT: -2.917478
 CYCLE:   163 TIME:   0.031 TIME LEFT:  2.00D  GRAD.:     2.126 HEAT: -2.925180
 CYCLE:   164 TIME:   0.023 TIME LEFT:  2.00D  GRAD.:     2.219 HEAT: -2.932968
 CYCLE:   165 TIME:   0.031 TIME LEFT:  2.00D  GRAD.:     2.339 HEAT: -2.936603
 CYCLE:   166 TIME:   0.023 TIME LEFT:  2.00D  GRAD.:     3.553 HEAT: -2.939200
 CYCLE:   167 TIME:   0.031 TIME LEFT:  2.00D  GRAD.:     2.324 HEAT: -2.942863
 CYCLE:   168 TIME:   0.031 TIME LEFT:  2.00D  GRAD.:     2.072 HEAT: -2.946098
 CYCLE:   169 TIME:   0.023 TIME LEFT:  2.00D  GRAD.:     1.891 HEAT: -2.948290
 CYCLE:   170 TIME:   0.031 TIME LEFT:  2.00D  GRAD.:     2.128 HEAT: -2.951681
 CYCLE:   171 TIME:   0.031 TIME LEFT:  2.00D  GRAD.:     1.956 HEAT: -2.954586
 CYCLE:   172 TIME:   0.023 TIME LEFT:  2.00D  GRAD.:     1.465 HEAT: -2.957775
 CYCLE:   173 TIME:   0.031 TIME LEFT:  2.00D  GRAD.:     1.211 HEAT: -2.959809
 CYCLE:   174 TIME:   0.031 TIME LEFT:  2.00D  GRAD.:     0.937 HEAT: -2.960702
 CYCLE:   175 TIME:   0.023 TIME LEFT:  2.00D  GRAD.:     0.935 HEAT: -2.961260
 CYCLE:   176 TIME:   0.031 TIME LEFT:  2.00D  GRAD.:     0.829 HEAT: -2.961793
 CYCLE:   177 TIME:   0.031 TIME LEFT:  2.00D  GRAD.:     1.035 HEAT: -2.962385
 CYCLE:   178 TIME:   0.023 TIME LEFT:  2.00D  GRAD.:     1.407 HEAT: -2.963508
 CYCLE:   179 TIME:   0.031 TIME LEFT:  2.00D  GRAD.:     1.533 HEAT: -2.964219
 CYCLE:   180 TIME:   0.023 TIME LEFT:  2.00D  GRAD.:     1.124 HEAT: -2.965819
 CYCLE:   181 TIME:   0.031 TIME LEFT:  2.00D  GRAD.:     1.466 HEAT: -2.969164
 CYCLE:   182 TIME:   0.031 TIME LEFT:  2.00D  GRAD.:     1.824 HEAT: -2.972650
 CYCLE:   183 TIME:   0.031 TIME LEFT:  2.00D  GRAD.:     1.960 HEAT: -2.977806
 CYCLE:   184 TIME:   0.023 TIME LEFT:  2.00D  GRAD.:     2.712 HEAT: -2.982828
 CYCLE:   185 TIME:   0.031 TIME LEFT:  2.00D  GRAD.:     3.096 HEAT: -2.984490
 CYCLE:   186 TIME:   0.031 TIME LEFT:  2.00D  GRAD.:     1.748 HEAT: -2.988965
 CYCLE:   187 TIME:   0.023 TIME LEFT:  2.00D  GRAD.:     1.637 HEAT: -2.992367
 CYCLE:   188 TIME:   0.031 TIME LEFT:  2.00D  GRAD.:     2.213 HEAT: -2.999841
 CYCLE:   189 TIME:   0.031 TIME LEFT:  2.00D  GRAD.:     2.539 HEAT: -3.006690
 CYCLE:   190 TIME:   0.023 TIME LEFT:  2.00D  GRAD.:     2.463 HEAT: -3.011389
 CYCLE:   191 TIME:   0.031 TIME LEFT:  2.00D  GRAD.:     1.897 HEAT: -3.016228
 CYCLE:   192 TIME:   0.031 TIME LEFT:  2.00D  GRAD.:     1.269 HEAT: -3.019951
 CYCLE:   193 TIME:   0.023 TIME LEFT:  2.00D  GRAD.:     2.286 HEAT: -3.021596
 CYCLE:   194 TIME:   0.031 TIME LEFT:  2.00D  GRAD.:     1.918 HEAT: -3.023873
 CYCLE:   195 TIME:   0.023 TIME LEFT:  2.00D  GRAD.:     1.197 HEAT: -3.026116
 CYCLE:   196 TIME:   0.031 TIME LEFT:  2.00D  GRAD.:     1.213 HEAT: -3.028243
 CYCLE:   197 TIME:   0.031 TIME LEFT:  2.00D  GRAD.:     0.861 HEAT: -3.029774
 CYCLE:   198 TIME:   0.031 TIME LEFT:  2.00D  GRAD.:     0.961 HEAT: -3.030375
 CYCLE:   199 TIME:   0.023 TIME LEFT:  2.00D  GRAD.:     1.076 HEAT: -3.030356
 CYCLE:   200 TIME:   0.031 TIME LEFT:  2.00D  GRAD.:     0.591 HEAT: -3.031079
 CYCLE:   201 TIME:   0.023 TIME LEFT:  2.00D  GRAD.:     0.397 HEAT: -3.031254
 CYCLE:   202 TIME:   0.031 TIME LEFT:  2.00D  GRAD.:     0.401 HEAT: -3.031429
 CYCLE:   203 TIME:   0.031 TIME LEFT:  2.00D  GRAD.:     0.514 HEAT: -3.031617
 CYCLE:   204 TIME:   0.031 TIME LEFT:  2.00D  GRAD.:     0.555 HEAT: -3.031756
 CYCLE:   205 TIME:   0.023 TIME LEFT:  2.00D  GRAD.:     0.724 HEAT: -3.032263
 CYCLE:   206 TIME:   0.031 TIME LEFT:  2.00D  GRAD.:     1.392 HEAT: -3.032628
 CYCLE:   207 TIME:   0.023 TIME LEFT:  2.00D  GRAD.:     1.443 HEAT: -3.033198
 CYCLE:   208 TIME:   0.031 TIME LEFT:  2.00D  GRAD.:     0.919 HEAT: -3.033909
 CYCLE:   209 TIME:   0.031 TIME LEFT:  2.00D  GRAD.:     0.575 HEAT: -3.034517
 CYCLE:   210 TIME:   0.023 TIME LEFT:  2.00D  GRAD.:     0.820 HEAT: -3.035080
 CYCLE:   211 TIME:   0.031 TIME LEFT:  2.00D  GRAD.:     0.900 HEAT: -3.035737
 CYCLE:   212 TIME:   0.016 TIME LEFT:  2.00D  GRAD.:     1.059 HEAT: -3.036938
 CYCLE:   213 TIME:   0.023 TIME LEFT:  2.00D  GRAD.:     0.900 HEAT: -3.038351
 CYCLE:   214 TIME:   0.023 TIME LEFT:  2.00D  GRAD.:     2.451 HEAT: -3.037163
 CYCLE:   215 TIME:   0.023 TIME LEFT:  2.00D  GRAD.:     0.966 HEAT: -3.039586
 CYCLE:   216 TIME:   0.023 TIME LEFT:  2.00D  GRAD.:     0.439 HEAT: -3.040182
 CYCLE:   217 TIME:   0.023 TIME LEFT:  2.00D  GRAD.:     0.292 HEAT: -3.040880
 CYCLE:   218 TIME:   0.023 TIME LEFT:  2.00D  GRAD.:     0.679 HEAT: -3.041501
 CYCLE:   219 TIME:   0.023 TIME LEFT:  2.00D  GRAD.:     0.560 HEAT: -3.041759
 CYCLE:   220 TIME:   0.023 TIME LEFT:  2.00D  GRAD.:     0.626 HEAT: -3.042132
 CYCLE:   221 TIME:   0.023 TIME LEFT:  2.00D  GRAD.:     0.671 HEAT: -3.042352
 CYCLE:   222 TIME:   0.023 TIME LEFT:  2.00D  GRAD.:     0.554 HEAT: -3.042681
 CYCLE:   223 TIME:   0.016 TIME LEFT:  2.00D  GRAD.:     0.438 HEAT: -3.043064
 CYCLE:   224 TIME:   0.031 TIME LEFT:  2.00D  GRAD.:     0.330 HEAT: -3.043289
 CYCLE:   225 TIME:   0.031 TIME LEFT:  2.00D  GRAD.:     0.299 HEAT: -3.043581
 CYCLE:   226 TIME:   0.023 TIME LEFT:  2.00D  GRAD.:     0.294 HEAT: -3.043691
 CYCLE:   227 TIME:   0.031 TIME LEFT:  2.00D  GRAD.:     0.188 HEAT: -3.043766
 CYCLE:   228 TIME:   0.031 TIME LEFT:  2.00D  GRAD.:     0.203 HEAT: -3.043797
 CYCLE:   229 TIME:   0.031 TIME LEFT:  2.00D  GRAD.:     2.163 HEAT: -3.041208
 CYCLE:   230 TIME:   0.023 TIME LEFT:  2.00D  GRAD.:     0.278 HEAT: -3.043795
 CYCLE:   231 TIME:   0.031 TIME LEFT:  2.00D  GRAD.:     0.289 HEAT: -3.043788
 CYCLE:   232 TIME:   0.023 TIME LEFT:  2.00D  GRAD.:     0.061 HEAT: -3.043850
 CYCLE:   233 TIME:   0.031 TIME LEFT:  2.00D  GRAD.:     0.032 HEAT: -3.043851

     GRADIENT =  0.03156  IS LESS THAN CUTOFF =  0.05000



 -------------------------------------------------------------------------------
 pm3  precise nosym THREADS=1
 InChI=1S/C7H12O2/c1-6(9-8)2-3-7-4-5-7/h2-3,6-8H,4-5H2,1H3



     GEOMETRY OPTIMISED USING EIGENVECTOR FOLLOWING (EF).     
     SCF FIELD WAS ACHIEVED                                   


                              PM3 CALCULATION
                                                       MOPAC2016 (Version: 18.184L)
                                                       Thu Jun 13 20:11:42 2019
                                                       No. of days remaining =  20




          FINAL HEAT OF FORMATION =         -3.04385 KCAL/MOL =     -12.73547 KJ/MOL


          TOTAL ENERGY            =      -1598.45691 EV
          ELECTRONIC ENERGY       =      -7385.43401 EV  POINT GROUP:     C1  
          CORE-CORE REPULSION     =       5786.97710 EV
          COSMO AREA              =        184.09 SQUARE ANGSTROMS
          COSMO VOLUME            =        175.97 CUBIC ANGSTROMS

          GRADIENT NORM           =          0.03156 = 0.00689 PER ATOM
          IONIZATION POTENTIAL    =          9.788581 EV
          HOMO LUMO ENERGIES (EV) =         -9.789  0.823
          NO. OF FILLED LEVELS    =         26
          MOLECULAR WEIGHT        =        128.1706

          MOLECULAR DIMENSIONS (Angstroms)

            Atom       Atom       Distance
            H    21    H    13     8.03438
            H    16    H    11     6.00702
            H    20    H    12     3.17553


          SCF CALCULATIONS        =        243
 
          WALL-CLOCK TIME         =          6.719 SECONDS
          COMPUTATION TIME        =          3.140 SECONDS




   ATOM   CHEMICAL          X               Y               Z
  NUMBER   SYMBOL      (ANGSTROMS)     (ANGSTROMS)     (ANGSTROMS)
 
     1       O         -2.94776615  *  -0.15945077  *   0.67785390  *
     2       O         -3.15261284  *  -1.60466885  *   0.27471009  *
     3       C          1.84071427  *  -0.44676591  *   0.25647237  *
     4       C          2.75650141  *  -1.39852150  *  -0.46982659  *
     5       C          3.05873480  *   0.06638780  *  -0.46853324  *
     6       C         -1.90884353  *   0.35679097  *  -0.14043212  *
     7       C         -2.12897277  *   1.87033928  *  -0.18188590  *
     8       C          0.51055615  *  -0.17284725  *  -0.31375828  *
     9       C         -0.55858570  *   0.05418304  *   0.45095132  *
    10       H          1.85347945  *  -0.45099003  *   1.36249527  *
    11       H          3.38102617  *  -2.09091513  *   0.10454401  *
    12       H          2.41740036  *  -1.88460766  *  -1.39172429  *
    13       H          3.90623501  *   0.45401163  *   0.10661960  *
    14       H          2.94032874  *   0.64809430  *  -1.38976142  *
    15       H         -1.99072939  *  -0.06794058  *  -1.17223913  *
    16       H         -3.10540072  *   2.12682925  *  -0.61252003  *
    17       H         -2.07803363  *   2.32223027  *   0.81753208  *
    18       H         -1.35544372  *   2.34530864  *  -0.79834365  *
    19       H          0.44065003  *  -0.16406819  *  -1.40975636  *
    20       H         -0.49716095  *   0.03552484  *   1.54638388  *
    21       H         -3.75782178  *  -1.79648362  *   0.97195622  *

                             CARTESIAN COORDINATES

   1    O       -2.947766147    -0.159450766     0.677853895
   2    O       -3.152612844    -1.604668846     0.274710091
   3    C        1.840714273    -0.446765912     0.256472369
   4    C        2.756501413    -1.398521503    -0.469826592
   5    C        3.058734805     0.066387796    -0.468533242
   6    C       -1.908843535     0.356790970    -0.140432118
   7    C       -2.128972765     1.870339280    -0.181885904
   8    C        0.510556150    -0.172847245    -0.313758282
   9    C       -0.558585700     0.054183043     0.450951319
  10    H        1.853479448    -0.450990033     1.362495271
  11    H        3.381026171    -2.090915129     0.104544011
  12    H        2.417400362    -1.884607665    -1.391724294
  13    H        3.906235008     0.454011629     0.106619596
  14    H        2.940328742     0.648094302    -1.389761416
  15    H       -1.990729388    -0.067940582    -1.172239135
  16    H       -3.105400724     2.126829247    -0.612520027
  17    H       -2.078033628     2.322230269     0.817532084
  18    H       -1.355443722     2.345308638    -0.798343654
  19    H        0.440650029    -0.164068190    -1.409756358
  20    H       -0.497160948     0.035524835     1.546383877
  21    H       -3.757821779    -1.796483623     0.971956219


           Empirical Formula: C7 H12 O2  =    21 atoms



      MOLECULAR POINT GROUP   :   C1  


                  EIGENVALUES  
 -39.89069 -37.47332 -34.35756 -31.49321 -29.04198 -23.40434 -22.21543 -20.55131
 -20.09710 -17.89275 -17.48554 -16.97557 -16.15145 -15.63734 -14.73744 -14.02749
 -13.68378 -13.46581 -13.26739 -12.64205 -12.42949 -12.33529 -12.20127 -11.77050
 -11.07071  -9.78858   0.82284   1.17098   2.94181   3.13640   3.35708   3.38499
   3.46137   3.65092   3.78109   3.87241   3.98478   4.03566   4.36834   4.48152
   4.51105   4.65181   4.76326   4.83373   4.88303   5.07509   5.64522   5.90747


              NET ATOMIC CHARGES AND DIPOLE CONTRIBUTIONS

  ATOM NO.   TYPE          CHARGE      No. of ELECS.   s-Pop       p-Pop       
    1          O          -0.152693        6.1527     1.90656     4.24613
    2          O          -0.206340        6.2063     1.86502     4.34132
    3          C          -0.106155        4.1062     1.16351     2.94264
    4          C          -0.143482        4.1435     1.16087     2.98261
    5          C          -0.146233        4.1462     1.16106     2.98517
    6          C           0.105446        3.8946     1.16353     2.73103
    7          C          -0.121036        4.1210     1.14183     2.97920
    8          C          -0.100968        4.1010     1.18612     2.91485
    9          C          -0.177106        4.1771     1.20628     2.97082
   10          H           0.097648        0.9024     0.90235
   11          H           0.077670        0.9223     0.92233
   12          H           0.080448        0.9196     0.91955
   13          H           0.077463        0.9225     0.92254
   14          H           0.079229        0.9208     0.92077
   15          H           0.073935        0.9261     0.92607
   16          H           0.050105        0.9499     0.94989
   17          H           0.049781        0.9502     0.95022
   18          H           0.050471        0.9495     0.94953
   19          H           0.101174        0.8988     0.89883
   20          H           0.113394        0.8866     0.88661
   21          H           0.197249        0.8028     0.80275
 DIPOLE           X         Y         Z       TOTAL
 POINT-CHG.     0.539     0.528    -0.277     0.804
 HYBRID        -0.149    -0.100     0.310     0.358
 SUM            0.389     0.429     0.033     0.580


          ATOMIC ORBITAL ELECTRON POPULATIONS

     Atom    s        px        py        pz   
    1  O   1.90656   1.56743   1.09881   1.57989
    2  O   1.86502   1.70960   1.10866   1.52305
    3  C   1.16351   0.90979   1.04910   0.98375
    4  C   1.16087   1.02760   0.93034   1.02467
    5  C   1.16106   0.98939   0.97143   1.02435
    6  C   1.16353   0.86039   0.92702   0.94361
    7  C   1.14183   1.01714   0.94024   1.02182
    8  C   1.18612   0.93882   0.99244   0.98358
    9  C   1.20628   0.95545   1.01535   1.00002
   10  H   0.90235
   11  H   0.92233
   12  H   0.91955
   13  H   0.92254
   14  H   0.92077
   15  H   0.92607
   16  H   0.94989
   17  H   0.95022
   18  H   0.94953
   19  H   0.89883
   20  H   0.88661
   21  H   0.80275
 *******************************************************************************
 ** Site#: 14399        For non-commercial use only    Version 18.184L 64BITS **
 *******************************************************************************
 ** Cite this program as: MOPAC2016, Version: 18.184L, James J. P. Stewart,   **
 ** Stewart Computational Chemistry, web: HTTP://OpenMOPAC.net. Days left:  20**
 *******************************************************************************
 **                                                                           **
 **                                MOPAC2016                                  **
 **                                                                           **
 *******************************************************************************

                              PM3 CALCULATION RESULTS

 *******************************************************************************
 *  CALCULATION DONE:                                Thu Jun 13 20:11:42 2019  *
 *  PM3        - The PM3 Hamiltonian to be used
 *  OLDGEO     - PREVIOUS GEOMETRY TO BE USED
 *  PRECISE    - CRITERIA TO BE INCREASED BY 100 TIMES
 *  NOSYM      - POINT-GROUP SYMMETRY SET TO C1
 *  THREADS=1  - MULTI-THREADING NOT USED
 *  T=         - A TIME OF 172800.0 SECONDS REQUESTED
 *  DUMP=N     - RESTART FILE WRITTEN EVERY  7200.000 SECONDS
 *  THERMO     - THERMODYNAMIC QUANTITIES TO BE CALCULATED
 *******************************************************************************
oldgeo thermo nosym precise THREADS=1  pm3
 InChI=1S/C7H12O2/c1-6(9-8)2-3-7-4-5-7/h2-3,6-8H,4-5H2,1H3

   ATOM   CHEMICAL          X               Y               Z
  NUMBER   SYMBOL      (ANGSTROMS)     (ANGSTROMS)     (ANGSTROMS)
 
     1       O         -2.94776615  *  -0.15945077  *   0.67785390  *
     2       O         -3.15261284  *  -1.60466885  *   0.27471009  *
     3       C          1.84071427  *  -0.44676591  *   0.25647237  *
     4       C          2.75650141  *  -1.39852150  *  -0.46982659  *
     5       C          3.05873480  *   0.06638780  *  -0.46853324  *
     6       C         -1.90884353  *   0.35679097  *  -0.14043212  *
     7       C         -2.12897277  *   1.87033928  *  -0.18188590  *
     8       C          0.51055615  *  -0.17284725  *  -0.31375828  *
     9       C         -0.55858570  *   0.05418304  *   0.45095132  *
    10       H          1.85347945  *  -0.45099003  *   1.36249527  *
    11       H          3.38102617  *  -2.09091513  *   0.10454401  *
    12       H          2.41740036  *  -1.88460766  *  -1.39172429  *
    13       H          3.90623501  *   0.45401163  *   0.10661960  *
    14       H          2.94032874  *   0.64809430  *  -1.38976142  *
    15       H         -1.99072939  *  -0.06794058  *  -1.17223913  *
    16       H         -3.10540072  *   2.12682925  *  -0.61252003  *
    17       H         -2.07803363  *   2.32223027  *   0.81753208  *
    18       H         -1.35544372  *   2.34530864  *  -0.79834365  *
    19       H          0.44065003  *  -0.16406819  *  -1.40975636  *
    20       H         -0.49716095  *   0.03552484  *   1.54638388  *
    21       H         -3.75782178  *  -1.79648362  *   0.97195622  *
 


          CARTESIAN COORDINATES 

    NO.       ATOM           X           Y           Z

     1         O         -2.9478     -0.1595      0.6779
     2         O         -3.1526     -1.6047      0.2747
     3         C          1.8407     -0.4468      0.2565
     4         C          2.7565     -1.3985     -0.4698
     5         C          3.0587      0.0664     -0.4685
     6         C         -1.9088      0.3568     -0.1404
     7         C         -2.1290      1.8703     -0.1819
     8         C          0.5106     -0.1728     -0.3138
     9         C         -0.5586      0.0542      0.4510
    10         H          1.8535     -0.4510      1.3625
    11         H          3.3810     -2.0909      0.1045
    12         H          2.4174     -1.8846     -1.3917
    13         H          3.9062      0.4540      0.1066
    14         H          2.9403      0.6481     -1.3898
    15         H         -1.9907     -0.0679     -1.1722
    16         H         -3.1054      2.1268     -0.6125
    17         H         -2.0780      2.3222      0.8175
    18         H         -1.3554      2.3453     -0.7983
    19         H          0.4407     -0.1641     -1.4098
    20         H         -0.4972      0.0355      1.5464
    21         H         -3.7578     -1.7965      0.9720

  H: (PM3): J. J. P. STEWART, J. COMP. CHEM. 10, 209 (1989).
  C: (PM3): J. J. P. STEWART, J. COMP. CHEM. 10, 209 (1989).
  O: (PM3): J. J. P. STEWART, J. COMP. CHEM. 10, 209 (1989).

           Empirical Formula: C7 H12 O2  =    21 atoms



      MOLECULAR POINT GROUP   :   C1  


      RHF CALCULATION, NO. OF DOUBLY OCCUPIED LEVELS = 26



          HEAT OF FORMATION =      -3.043850 KCALS/MOLE


          CARTESIAN COORDINATE DERIVATIVES

   NUMBER  ATOM         X            Y            Z

     1       O      0.000628    -0.000821    -0.004791
     2       O     -0.002316    -0.004795     0.000153
     3       C     -0.006866    -0.008874     0.014768
     4       C      0.011340     0.002100     0.002383
     5       C     -0.004207     0.005444     0.000859
     6       C      0.003817     0.002893     0.003086
     7       C     -0.003103     0.000048     0.001805
     8       C      0.002713     0.001771     0.001298
     9       C     -0.000862    -0.001171    -0.004087
    10       H      0.000101     0.001178    -0.008228
    11       H      0.002551     0.001868     0.002946
    12       H      0.004897    -0.000549    -0.004590
    13       H     -0.001459    -0.000671     0.001062
    14       H     -0.007199    -0.000556    -0.008708
    15       H     -0.002141    -0.000697     0.003699
    16       H     -0.001308     0.001547    -0.000129
    17       H      0.004841     0.000979    -0.006769
    18       H      0.000755    -0.004043     0.003700
    19       H     -0.000027    -0.000198    -0.001940
    20       H     -0.002072     0.000129     0.004175
    21       H     -0.000084     0.004419    -0.000692
 


          GRADIENT NORM =   0.03307


          TIME FOR SCF CALCULATION =    0.02

          TIME FOR DERIVATIVES     =    0.02

          MOLECULAR WEIGHT =  128.17



          ROTATIONAL CONSTANTS IN CM(-1)

          A =    0.10798488   B =    0.02275235   C =    0.01982738



           PRINCIPAL MOMENTS OF INERTIA IN UNITS OF 10**(-40)*GRAM-CM**2

          A =      259.2286   B =     1230.3245   C =     1411.8243


          ORIENTATION OF MOLECULE IN FORCE CALCULATION

    NO.       ATOM         X         Y         Z

     1          O       0.1515   -2.5775    0.4507
     2          O       1.6658   -2.5775    0.4507
     3          C      -0.1098    2.2310    0.4507
     4          C       0.8680    3.3167    0.0802
     5          C      -0.5713    3.4518   -0.3038
     6          C      -0.2639   -1.5246   -0.4062
     7          C      -1.6675   -1.9069   -0.8800
     8          C      -0.0395    0.9438   -0.2618
     9          C      -0.3151   -0.2165    0.3359
    10          H      -0.4020    2.1312    1.5129
    11          H       1.2914    3.9526    0.8648
    12          H       1.6232    3.1298   -0.6917
    13          H      -1.2090    4.1875    0.1975
    14          H      -0.8652    3.3638   -1.3559
    15          H       0.4273   -1.4527   -1.2831
    16          H      -1.6656   -2.8567   -1.4300
    17          H      -2.3718   -2.0090   -0.0438
    18          H      -2.0614   -1.1323   -1.5501
    19          H       0.2533    0.9856   -1.3194
    20          H      -0.5973   -0.2655    1.3952
    21          H       1.7451   -3.2255    1.1312


    FIRST DERIVATIVES WILL BE USED IN THE CALCULATION OF SECOND DERIVATIVES

          ESTIMATED TIME TO COMPLETE CALCULATION =        9.84 SECONDS

    FOR POINT-GROUP C1   THERE ARE   1 UNIQUE SYMMETRY FUNCTIONS.

 STEP:   1 TIME =     0.05 SECS, INTEGRAL =      0.05 TIME LEFT: 172799.91
 STEP:   2 TIME =     0.05 SECS, INTEGRAL =      0.11 TIME LEFT: 172799.85
 STEP:   3 TIME =     0.05 SECS, INTEGRAL =      0.16 TIME LEFT: 172799.80
 STEP:   4 TIME =     0.04 SECS, INTEGRAL =      0.20 TIME LEFT: 172799.76
 STEP:   5 TIME =     0.04 SECS, INTEGRAL =      0.24 TIME LEFT: 172799.72
 STEP:   6 TIME =     0.04 SECS, INTEGRAL =      0.28 TIME LEFT: 172799.68
 STEP:   7 TIME =     0.05 SECS, INTEGRAL =      0.33 TIME LEFT: 172799.63
 STEP:   8 TIME =     0.05 SECS, INTEGRAL =      0.38 TIME LEFT: 172799.59
 STEP:   9 TIME =     0.04 SECS, INTEGRAL =      0.41 TIME LEFT: 172799.55
 STEP:  10 TIME =     0.03 SECS, INTEGRAL =      0.45 TIME LEFT: 172799.52
 STEP:  11 TIME =     0.04 SECS, INTEGRAL =      0.48 TIME LEFT: 172799.48
 STEP:  12 TIME =     0.04 SECS, INTEGRAL =      0.52 TIME LEFT: 172799.44
 STEP:  13 TIME =     0.04 SECS, INTEGRAL =      0.56 TIME LEFT: 172799.40
 STEP:  14 TIME =     0.04 SECS, INTEGRAL =      0.60 TIME LEFT: 172799.36
 STEP:  15 TIME =     0.04 SECS, INTEGRAL =      0.64 TIME LEFT: 172799.32
 STEP:  16 TIME =     0.04 SECS, INTEGRAL =      0.68 TIME LEFT: 172799.28
 STEP:  17 TIME =     0.04 SECS, INTEGRAL =      0.72 TIME LEFT: 172799.24
 STEP:  18 TIME =     0.04 SECS, INTEGRAL =      0.76 TIME LEFT: 172799.20
 STEP:  19 TIME =     0.04 SECS, INTEGRAL =      0.80 TIME LEFT: 172799.16
 STEP:  20 TIME =     0.04 SECS, INTEGRAL =      0.84 TIME LEFT: 172799.12
 STEP:  21 TIME =     0.04 SECS, INTEGRAL =      0.88 TIME LEFT: 172799.09
 STEP:  22 TIME =     0.05 SECS, INTEGRAL =      0.92 TIME LEFT: 172799.04
 STEP:  23 TIME =     0.04 SECS, INTEGRAL =      0.96 TIME LEFT: 172799.00
 STEP:  24 TIME =     0.04 SECS, INTEGRAL =      1.00 TIME LEFT: 172798.96
 STEP:  25 TIME =     0.04 SECS, INTEGRAL =      1.04 TIME LEFT: 172798.92
 STEP:  26 TIME =     0.04 SECS, INTEGRAL =      1.08 TIME LEFT: 172798.88
 STEP:  27 TIME =     0.04 SECS, INTEGRAL =      1.12 TIME LEFT: 172798.84
 STEP:  28 TIME =     0.04 SECS, INTEGRAL =      1.16 TIME LEFT: 172798.80
 STEP:  29 TIME =     0.04 SECS, INTEGRAL =      1.20 TIME LEFT: 172798.77
 STEP:  30 TIME =     0.04 SECS, INTEGRAL =      1.23 TIME LEFT: 172798.73
 STEP:  31 TIME =     0.04 SECS, INTEGRAL =      1.27 TIME LEFT: 172798.69
 STEP:  32 TIME =     0.05 SECS, INTEGRAL =      1.32 TIME LEFT: 172798.64
 STEP:  33 TIME =     0.05 SECS, INTEGRAL =      1.37 TIME LEFT: 172798.59
 STEP:  34 TIME =     0.04 SECS, INTEGRAL =      1.41 TIME LEFT: 172798.55
 STEP:  35 TIME =     0.04 SECS, INTEGRAL =      1.45 TIME LEFT: 172798.52
 STEP:  36 TIME =     0.04 SECS, INTEGRAL =      1.48 TIME LEFT: 172798.48
 STEP:  37 TIME =     0.03 SECS, INTEGRAL =      1.52 TIME LEFT: 172798.45
 STEP:  38 TIME =     0.04 SECS, INTEGRAL =      1.55 TIME LEFT: 172798.41
 STEP:  39 TIME =     0.04 SECS, INTEGRAL =      1.59 TIME LEFT: 172798.37
 STEP:  40 TIME =     0.04 SECS, INTEGRAL =      1.63 TIME LEFT: 172798.33
 STEP:  41 TIME =     0.04 SECS, INTEGRAL =      1.67 TIME LEFT: 172798.29
 STEP:  42 TIME =     0.05 SECS, INTEGRAL =      1.72 TIME LEFT: 172798.24
 STEP:  43 TIME =     0.05 SECS, INTEGRAL =      1.77 TIME LEFT: 172798.19
 STEP:  44 TIME =     0.05 SECS, INTEGRAL =      1.82 TIME LEFT: 172798.14
 STEP:  45 TIME =     0.04 SECS, INTEGRAL =      1.86 TIME LEFT: 172798.10
 STEP:  46 TIME =     0.04 SECS, INTEGRAL =      1.90 TIME LEFT: 172798.06
 STEP:  47 TIME =     0.04 SECS, INTEGRAL =      1.94 TIME LEFT: 172798.02
 STEP:  48 TIME =     0.04 SECS, INTEGRAL =      1.98 TIME LEFT: 172797.98
 STEP:  49 TIME =     0.04 SECS, INTEGRAL =      2.02 TIME LEFT: 172797.95
 STEP:  50 TIME =     0.04 SECS, INTEGRAL =      2.05 TIME LEFT: 172797.91
 STEP:  51 TIME =     0.05 SECS, INTEGRAL =      2.10 TIME LEFT: 172797.86
 STEP:  52 TIME =     0.04 SECS, INTEGRAL =      2.14 TIME LEFT: 172797.82
 STEP:  53 TIME =     0.05 SECS, INTEGRAL =      2.19 TIME LEFT: 172797.77
 STEP:  54 TIME =     0.05 SECS, INTEGRAL =      2.23 TIME LEFT: 172797.73
 STEP:  55 TIME =     0.05 SECS, INTEGRAL =      2.28 TIME LEFT: 172797.68
 STEP:  56 TIME =     0.04 SECS, INTEGRAL =      2.32 TIME LEFT: 172797.64
 STEP:  57 TIME =     0.04 SECS, INTEGRAL =      2.36 TIME LEFT: 172797.60
 STEP:  58 TIME =     0.04 SECS, INTEGRAL =      2.40 TIME LEFT: 172797.56
 STEP:  59 TIME =     0.04 SECS, INTEGRAL =      2.44 TIME LEFT: 172797.52
 STEP:  60 TIME =     0.04 SECS, INTEGRAL =      2.48 TIME LEFT: 172797.48
 STEP:  61 TIME =     0.04 SECS, INTEGRAL =      2.52 TIME LEFT: 172797.45
 STEP:  62 TIME =     0.05 SECS, INTEGRAL =      2.57 TIME LEFT: 172797.39
 STEP:  63 TIME =     0.05 SECS, INTEGRAL =      2.62 TIME LEFT: 172797.34

(To convert to Hartree/Bohr^2, multiply by (10^(-21) x N x a0^2)/(4.184 x 627.51) =  0.0642)


           FORCE MATRIX IN MILLIDYNES/ANGSTROM


                  O  1       O  2       C  3       C  4       C  5       C  6
 ------------------------------------------------------------------------------
     O    1   7.873652
     O    2   2.566503  10.098564
     C    3   0.023000   0.002536  15.855416
     C    4   0.004951   0.002016   4.689566  15.348623
     C    5   0.003019   0.001759   4.685175   5.187716  15.344859
     C    6   4.775690   0.976427   0.140884   0.022596   0.023009  14.573325
     C    7   0.863846   0.117009   0.020853   0.004214   0.004543   3.846804
     C    8   0.061460   0.002827   5.286533   0.617212   0.617360   0.785659
     C    9   0.919377   0.054596   0.915990   0.039120   0.036931   4.367068
     H   10   0.001340   0.000823   4.548908   0.436157   0.435729   0.002303
     H   11   0.001435   0.000632   0.462746   4.848467   0.461421   0.004084
     H   12   0.000713   0.000617   0.463038   4.822538   0.463094   0.002305
     H   13   0.000671   0.000483   0.461640   0.461209   4.848501   0.003999
     H   14   0.000555   0.000374   0.462015   0.463143   4.822406   0.002451
     H   15   0.441705   0.087066   0.005787   0.001013   0.001300   4.137899
     H   16   0.060138   0.003444   0.003877   0.000928   0.000941   0.469920
     H   17   0.056057   0.003176   0.001098   0.000639   0.000479   0.478520
     H   18   0.061319   0.018242   0.001304   0.000783   0.000676   0.452685
     H   19   0.009517   0.001847   0.440436   0.019349   0.018809   0.087708
     H   20   0.049444   0.004467   0.089105   0.010110   0.010028   0.453728
     H   21   1.084073   8.652923   0.001593   0.000933   0.000814   0.144250


                  C  7       C  8       C  9       H 10       H 11       H 12
 ------------------------------------------------------------------------------
     C    7  14.204348
     C    8   0.034963  18.470359
     C    9   0.664513  10.665013  18.060098
     H   10   0.001111   0.438814   0.048605   5.070376
     H   11   0.000694   0.043094   0.006166   0.020820   5.452407
     H   12   0.000666   0.027572   0.003892   0.038164   0.495344   5.431439
     H   13   0.001409   0.043798   0.005583   0.020624   0.020848   0.042973
     H   14   0.000849   0.027166   0.003718   0.038336   0.043030   0.021504
     H   15   0.416014   0.047812   0.431619   0.000609   0.000353   0.000322
     H   16   4.760053   0.003060   0.047125   0.000245   0.000179   0.000152
     H   17   4.746299   0.002702   0.017131   0.000282   0.000149   0.000142
     H   18   4.767927   0.004532   0.025083   0.000289   0.000286   0.000178
     H   19   0.012481   4.744467   0.467460   0.035029   0.001387   0.013309
     H   20   0.010099   0.468801   4.793403   0.029922   0.001923   0.000939
     H   21   0.021617   0.001584   0.009711   0.000556   0.000283   0.000339


                  H 13       H 14       H 15       H 16       H 17       H 18
 ------------------------------------------------------------------------------
     H   13   5.452758
     H   14   0.495381   5.431694
     H   15   0.000252   0.000220   4.546558
     H   16   0.000317   0.000159   0.025952   5.499479
     H   17   0.000153   0.000120   0.044029   0.567289   5.491210
     H   18   0.000231   0.000239   0.027366   0.562419   0.573877   5.491315
     H   19   0.001466   0.012836   0.028789   0.002482   0.000639   0.002738
     H   20   0.002006   0.000893   0.033669   0.001737   0.004409   0.002817
     H   21   0.000246   0.000252   0.007239   0.001163   0.000685   0.003732


                  H 19       H 20       H 21
 ------------------------------------------
     H   19   5.121691
     H   20   0.105911   5.180261
     H   21   0.000911   0.002847   8.994082


          HEAT OF FORMATION =      -3.043850 KCALS/MOLE

          ZERO POINT ENERGY     111.343 KCAL/MOL


           NORMAL COORDINATE ANALYSIS (Total motion = 1 Angstrom)


   Root No.       1         2         3         4         5         6         7         8

                 1 A       2 A       3 A       4 A       5 A       6 A       7 A       8 A   

                  18.5      49.3      67.0     112.4     143.7     158.2     169.7     265.6
  
           1    0.0145   -0.0025   -0.0025    0.0023   -0.0013    0.0034    0.0012   -0.0085
           2    0.0072   -0.0072    0.0205    0.0259    0.0065   -0.0067   -0.0035    0.0217
           3   -0.0023   -0.0280    0.0262    0.0354    0.0113   -0.0119   -0.0058    0.0560
           4    0.0145   -0.0024   -0.0027    0.0022   -0.0019    0.0047    0.0013   -0.0050
           5    0.0378    0.0717   -0.0224   -0.0041   -0.0086    0.0171   -0.0125    0.0441
           6   -0.0176    0.0369   -0.0399   -0.0122    0.0024   -0.0042   -0.0311   -0.0274
           7   -0.0240    0.0387    0.0180    0.0070    0.0015   -0.0033   -0.0034    0.0041
           8   -0.0017   -0.0156    0.0039    0.0023   -0.0066    0.0044    0.0008   -0.0338
           9   -0.0059    0.0097    0.0065    0.0033   -0.0110    0.0135    0.0112   -0.0068
          10    0.0178    0.0081   -0.0122    0.0201   -0.0051    0.0043    0.0016   -0.0048
          11   -0.0226    0.0016    0.0307   -0.0180    0.0097   -0.0125   -0.0106   -0.0237
          12    0.0429   -0.0199    0.0067   -0.0238    0.0212   -0.0178   -0.0095    0.0117
          13    0.0397   -0.0072   -0.0107    0.0078   -0.0045    0.0037    0.0018   -0.0053
          14    0.0087   -0.0206   -0.0208    0.0225    0.0087   -0.0099   -0.0101   -0.0347
          15   -0.0279    0.0295   -0.0167    0.0365    0.0183   -0.0146   -0.0100    0.0035
          16   -0.0152   -0.0198   -0.0095   -0.0029    0.0013   -0.0013    0.0001   -0.0049
          17   -0.0034   -0.0067    0.0037    0.0004   -0.0082    0.0070    0.0031   -0.0107
          18   -0.0010   -0.0192    0.0085    0.0054   -0.0095    0.0085    0.0039    0.0151
          19   -0.0155   -0.0221    0.0001    0.0210   -0.0073    0.0055    0.0030   -0.0026
          20   -0.0288   -0.0183   -0.0177   -0.0397   -0.0082    0.0123    0.0160    0.0444
          21    0.0207   -0.0021   -0.0028   -0.0300    0.0145   -0.0145   -0.0129   -0.0253
          22   -0.0147    0.0329    0.0598   -0.0328    0.0088   -0.0101   -0.0070    0.0055
          23   -0.0029   -0.0120   -0.0022    0.0060    0.0037   -0.0045   -0.0044   -0.0199
          24   -0.0027    0.0025    0.0213   -0.0077   -0.0309    0.0311    0.0220   -0.0246
          25   -0.0270   -0.0204   -0.0363   -0.0376    0.0130   -0.0127   -0.0016    0.0214
          26   -0.0014   -0.0088    0.0087    0.0070    0.0029   -0.0045   -0.0057   -0.0085
          27   -0.0053   -0.0160   -0.0018   -0.0081   -0.0303    0.0290    0.0210   -0.0003
          28   -0.0785    0.0763    0.0062    0.0443   -0.0019   -0.0000   -0.0032    0.0020
          29    0.0041   -0.0239    0.0081   -0.0018   -0.0291    0.0256    0.0153   -0.0493
          30   -0.0203    0.0193    0.0036    0.0132   -0.0135    0.0158    0.0122   -0.0084
          31   -0.0071    0.0243   -0.0450    0.0694   -0.0134    0.0133    0.0059   -0.0177
          32   -0.0322    0.0060    0.0549   -0.0378   -0.0080    0.0043    0.0021   -0.0286
          33    0.0642   -0.0322    0.0049   -0.0345    0.0401   -0.0364   -0.0222    0.0227
          34    0.0519   -0.0151    0.0058   -0.0167   -0.0005   -0.0007   -0.0003    0.0028
          35   -0.0387    0.0170    0.0460   -0.0293    0.0360   -0.0392   -0.0292   -0.0076
          36    0.0802   -0.0463    0.0205   -0.0573    0.0195   -0.0163   -0.0070    0.0155
          37    0.0309   -0.0023   -0.0424    0.0473   -0.0128    0.0127    0.0068   -0.0174
          38    0.0222   -0.0329   -0.0350    0.0324   -0.0096    0.0086    0.0028   -0.0470
          39   -0.0589    0.0537   -0.0362    0.0725    0.0349   -0.0305   -0.0228    0.0059
          40    0.0896   -0.0415    0.0080   -0.0377    0.0011   -0.0023   -0.0006    0.0024
          41    0.0157   -0.0222   -0.0450    0.0436    0.0342   -0.0344   -0.0284   -0.0298
          42   -0.0425    0.0393   -0.0198    0.0477    0.0147   -0.0110   -0.0079    0.0008
          43   -0.0288   -0.0298   -0.0031    0.0171   -0.0054    0.0053    0.0040    0.0099
          44    0.0039   -0.0026    0.0054    0.0055   -0.0314    0.0247    0.0134   -0.0387
          45   -0.0112   -0.0266    0.0135    0.0211   -0.0160    0.0145    0.0074    0.0224
          46   -0.0074   -0.0219    0.0185    0.0630   -0.0457   -0.0122   -0.0062   -0.0177
          47   -0.0307   -0.0201   -0.0218   -0.0434   -0.0906   -0.0518   -0.0051    0.0652
          48    0.0240    0.0009    0.0043   -0.0235    0.1564    0.0957    0.0235   -0.0601
          49   -0.0017   -0.0120   -0.0068    0.0003   -0.0298   -0.0381   -0.0179   -0.0270
          50   -0.0377   -0.0203   -0.0214   -0.0540    0.1543    0.1426    0.0645    0.0369
          51    0.0313    0.0063   -0.0090   -0.0493    0.0153   -0.0357   -0.0248   -0.0475
          52   -0.0384   -0.0350   -0.0042    0.0183    0.0474    0.0728    0.0363    0.0401
          53   -0.0379   -0.0234   -0.0282   -0.0552   -0.0884   -0.0482   -0.0004    0.0830
          54    0.0236   -0.0003   -0.0122   -0.0462   -0.1101   -0.1240   -0.0515   -0.0070
          55    0.0045    0.0745    0.1678   -0.0376    0.0053   -0.0069   -0.0128   -0.0256
          56   -0.0051   -0.0116   -0.0148    0.0062    0.0130   -0.0122   -0.0081   -0.0196
          57    0.0025    0.0140    0.0506   -0.0090   -0.0308    0.0311    0.0198   -0.0325
          58   -0.0457   -0.0628   -0.1415   -0.0446    0.0180   -0.0176    0.0006    0.0574
          59    0.0008   -0.0089    0.0208    0.0106    0.0111   -0.0144   -0.0128    0.0066
          60   -0.0102   -0.0273   -0.0292   -0.0097   -0.0278    0.0267    0.0209    0.0105
          61    0.0344    0.0016    0.0094    0.0116   -0.0043    0.0108    0.0128    0.0471
          62    0.0426    0.0780   -0.0138    0.0083    0.0187   -0.0781    0.3701    0.0189
          63   -0.0154    0.0424   -0.0332   -0.0015    0.0287   -0.0957    0.3316   -0.0582


   Root No.       9        10        11        12        13        14        15        16

                 9 A      10 A      11 A      12 A      13 A      14 A      15 A      16 A   

                 316.7     356.6     412.6     463.4     518.5     552.5     800.8     816.9
  
           1    0.0167    0.0003   -0.0193   -0.0073    0.0092    0.0008    0.1575    0.0078
           2    0.0068    0.0512   -0.0063    0.0186    0.0502   -0.0295    0.0020   -0.0033
           3   -0.0031    0.0009    0.0062   -0.0320   -0.0016   -0.0092    0.0027    0.0014
           4    0.0222   -0.0046   -0.0357   -0.0238    0.0376    0.0333   -0.1164   -0.0051
           5   -0.0160   -0.0118    0.0206   -0.0004   -0.0186   -0.0086   -0.0107   -0.0005
           6    0.0127    0.0112   -0.0165   -0.0025    0.0178    0.0056    0.0103    0.0005
           7   -0.0262   -0.0011   -0.0432    0.0049   -0.0098   -0.0097   -0.0006   -0.0005
           8   -0.0110   -0.0052    0.0109   -0.0297   -0.0052    0.0038    0.0008    0.0040
           9   -0.0070    0.0489    0.0067   -0.0302   -0.0243    0.0232    0.0031    0.0032
          10   -0.0026    0.0009   -0.0080   -0.0019   -0.0056   -0.0018   -0.0015    0.0009
          11   -0.0365   -0.0280   -0.0319   -0.0214   -0.0047   -0.0198    0.0011   -0.0033
          12   -0.0099   -0.0023   -0.0134    0.0076   -0.0018    0.0022   -0.0000    0.0062
          13   -0.0054   -0.0011   -0.0070   -0.0059   -0.0031   -0.0052    0.0005   -0.0044
          14    0.0069   -0.0464    0.0277   -0.0204    0.0180   -0.0136    0.0024   -0.0028
          15    0.0117   -0.0105    0.0039    0.0067    0.0005    0.0014   -0.0006    0.0047
          16    0.0144    0.0088    0.0111    0.0069   -0.0374   -0.0393   -0.0186   -0.0015
          17    0.0035    0.0209   -0.0033    0.0531    0.0112    0.0078   -0.0072   -0.0001
          18   -0.0048   -0.0388   -0.0046    0.0194   -0.0177    0.0501    0.0130    0.0015
          19   -0.0042   -0.0017    0.0141    0.0298   -0.0450   -0.0218   -0.0262   -0.0023
          20    0.0444   -0.0068   -0.0198   -0.0070   -0.0111   -0.0081   -0.0012   -0.0002
          21    0.0151    0.0100    0.0061    0.0187   -0.0297   -0.0158   -0.0096   -0.0006
          22    0.0107   -0.0086    0.0468    0.0079    0.0259    0.0219    0.0082   -0.0014
          23   -0.0055    0.0222    0.0072   -0.0153   -0.0244    0.0340    0.0001    0.0120
          24   -0.0083    0.0047    0.0180   -0.0294    0.0221   -0.0338   -0.0076    0.0096
          25   -0.0327    0.0125    0.0484   -0.0050    0.0264    0.0120   -0.0033    0.0019
          26    0.0033    0.0077   -0.0028    0.0264   -0.0172    0.0452    0.0023    0.0050
          27   -0.0145   -0.0263   -0.0021    0.0414    0.0344   -0.0119   -0.0009   -0.0062
          28   -0.0327    0.0057   -0.0752    0.0025   -0.0338   -0.0176   -0.0098    0.0007
          29   -0.0168    0.0004    0.0187   -0.0513    0.0019   -0.0124   -0.0064    0.0294
          30   -0.0094    0.0490   -0.0023   -0.0312   -0.0291    0.0183   -0.0005    0.0068
          31    0.0328   -0.0019    0.0439   -0.0087    0.0082    0.0089   -0.0230    0.1657
          32   -0.0546    0.0187   -0.0377   -0.0517   -0.0329    0.0061    0.0355   -0.1426
          33   -0.0151   -0.0391   -0.0383    0.0358    0.0134   -0.0256   -0.0156    0.0231
          34   -0.0220    0.0045   -0.0329    0.0013   -0.0128   -0.0040    0.0171   -0.1298
          35   -0.0592   -0.0774   -0.0924    0.0123    0.0065   -0.0689   -0.0257    0.0531
          36   -0.0242    0.0127   -0.0251    0.0030   -0.0119    0.0109    0.0253   -0.1427
          37    0.0249    0.0022    0.0391   -0.0185    0.0014    0.0111    0.0323   -0.1770
          38    0.0174   -0.0118    0.0565   -0.0498    0.0001    0.0136    0.0257   -0.1101
          39    0.0356   -0.0590    0.0219    0.0339    0.0345   -0.0189    0.0075   -0.0685
          40   -0.0261   -0.0047   -0.0318   -0.0011   -0.0016   -0.0188   -0.0324    0.1899
          41    0.0321   -0.1175    0.0488    0.0141    0.0694   -0.0503   -0.0060    0.0226
          42    0.0160   -0.0045    0.0100    0.0028   -0.0032    0.0079    0.0101   -0.0571
          43    0.0131   -0.0021    0.0095    0.0097   -0.0650   -0.0454   -0.1101   -0.0067
          44    0.0016    0.0086   -0.0203    0.0977    0.0179    0.0120    0.0540   -0.0010
          45   -0.0046   -0.0464   -0.0083    0.0236   -0.0379    0.0444   -0.0563   -0.0027
          46   -0.0497   -0.0045    0.0298    0.0860   -0.0174    0.0384   -0.0221    0.0008
          47    0.0521   -0.0160   -0.0253   -0.0218   -0.0128   -0.0017    0.0237    0.0012
          48    0.0037    0.0258    0.0142    0.0420   -0.0275   -0.0289   -0.0510   -0.0032
          49    0.0108    0.0314    0.0218    0.0317   -0.0604   -0.0816   -0.1047   -0.0087
          50    0.0604   -0.0074   -0.0288   -0.0273   -0.0224   -0.0333    0.0015   -0.0017
          51    0.0302    0.0385    0.0118    0.0183   -0.0456   -0.0717   -0.0805   -0.0065
          52    0.0080   -0.0422   -0.0069   -0.0095   -0.0460    0.0124    0.0685    0.0030
          53    0.0681   -0.0250   -0.0348   -0.0470   -0.0214   -0.0112    0.0423    0.0012
          54    0.0344    0.0136    0.0023   -0.0027   -0.0413   -0.0403   -0.0210   -0.0024
          55    0.1020   -0.0407    0.1059    0.0045    0.0091    0.0228   -0.0059    0.0002
          56   -0.0123    0.0605    0.0179   -0.0505   -0.0497    0.0621    0.0074    0.0307
          57    0.0168   -0.0031    0.0346   -0.0311    0.0163   -0.0318   -0.0113    0.0104
          58   -0.1301    0.0426    0.0255    0.0002    0.0863    0.0377    0.0293    0.0019
          59    0.0119   -0.0154   -0.0059    0.0530   -0.0360    0.1051    0.0193    0.0038
          60   -0.0401   -0.0185   -0.0079    0.0427    0.0494   -0.0022    0.0082   -0.0063
          61   -0.0010   -0.0399    0.0019   -0.0398   -0.0320    0.0166    0.0037    0.0039
          62   -0.0162   -0.0197    0.0186    0.0043   -0.0243   -0.0043   -0.0129   -0.0003
          63    0.0154    0.0086   -0.0228    0.0046    0.0206    0.0105    0.0084    0.0002


   Root No.      17        18        19        20        21        22        23        24

                17 A      18 A      19 A      20 A      21 A      22 A      23 A      24 A   

                 866.6     918.7     920.0     921.8     943.0     958.9     971.7    1007.1
  
           1    0.0009    0.0001    0.0017   -0.0043   -0.0140    0.0005    0.0011    0.0008
           2    0.0017   -0.0009   -0.0015    0.0126    0.0267   -0.0012   -0.0074    0.0020
           3   -0.0004    0.0005    0.0021   -0.0080   -0.0235    0.0012    0.0048   -0.0016
           4   -0.0007   -0.0001   -0.0007    0.0007    0.0024    0.0002    0.0021   -0.0010
           5   -0.0000   -0.0002    0.0002    0.0004    0.0008   -0.0001   -0.0010    0.0002
           6    0.0001   -0.0001    0.0002   -0.0003   -0.0015    0.0001    0.0009   -0.0002
           7   -0.0029   -0.0086   -0.0094   -0.0107    0.0021    0.0155   -0.0028   -0.0107
           8    0.0002   -0.0007    0.0077   -0.0118    0.0020   -0.0034   -0.0127   -0.0266
           9   -0.0009   -0.0001   -0.0119    0.0124    0.0000    0.0054    0.0090    0.0261
          10   -0.0067    0.0098    0.0252   -0.0058    0.0009   -0.0210   -0.0072   -0.0184
          11   -0.0130    0.0124    0.0040    0.0259   -0.0062   -0.0164    0.0022   -0.0051
          12   -0.0051   -0.0015   -0.0081    0.0053   -0.0042    0.0042   -0.0083   -0.0188
          13   -0.0059    0.0084    0.0040    0.0164   -0.0021   -0.0098    0.0112    0.0248
          14    0.0142   -0.0092   -0.0279    0.0081   -0.0022    0.0200   -0.0011   -0.0102
          15    0.0016    0.0096    0.0019    0.0184   -0.0070   -0.0139   -0.0033   -0.0063
          16    0.0006   -0.0010    0.0041    0.0006   -0.0053   -0.0003   -0.0132    0.0022
          17    0.0007   -0.0016    0.0038   -0.0015   -0.0161    0.0031    0.0133    0.0010
          18    0.0011   -0.0020    0.0015    0.0065    0.0148    0.0005    0.0018    0.0066
          19   -0.0044    0.0050   -0.0131    0.0002    0.0203   -0.0019    0.0081   -0.0038
          20   -0.0003   -0.0010    0.0036   -0.0008   -0.0216    0.0071    0.0363   -0.0115
          21   -0.0007   -0.0018   -0.0006    0.0084    0.0370    0.0026    0.0207   -0.0101
          22   -0.0118   -0.0335   -0.0426   -0.0143   -0.0005   -0.0163    0.0066   -0.0018
          23    0.0009    0.0004    0.0161   -0.0211    0.0030    0.0001   -0.0077    0.0027
          24   -0.0028   -0.0132    0.0047   -0.0255    0.0121   -0.0030    0.0109   -0.0011
          25    0.0151   -0.0289    0.0427    0.0206   -0.0042    0.0076   -0.0137    0.0065
          26   -0.0017    0.0021   -0.0005   -0.0135   -0.0065   -0.0040   -0.0184    0.0046
          27    0.0042   -0.0049    0.0051    0.0104   -0.0155   -0.0016   -0.0291    0.0033
          28    0.1439   -0.0467   -0.0440   -0.0286    0.0097    0.2147   -0.0424   -0.0034
          29   -0.0136   -0.0027    0.0381   -0.0523    0.0245   -0.0216   -0.0001   -0.0092
          30    0.0382   -0.0110   -0.0172    0.0015    0.0050    0.0584   -0.0008    0.0305
          31   -0.0366    0.0164   -0.0199    0.0496   -0.0218   -0.0451   -0.0257   -0.0899
          32   -0.1339    0.0379   -0.0016    0.1124   -0.0295    0.0483   -0.0014    0.0352
          33    0.1138   -0.0268    0.0226   -0.0989    0.0286   -0.0348    0.0054   -0.0108
          34    0.0152   -0.0053    0.0553   -0.0670    0.0212    0.0225   -0.0163   -0.0249
          35    0.1278    0.0156    0.0456   -0.0351    0.0222   -0.1287    0.0755    0.1467
          36   -0.0128   -0.0181    0.0141   -0.0446    0.0105    0.0731   -0.0338   -0.0588
          37    0.0495   -0.0019   -0.0237    0.0124   -0.0018   -0.0552    0.0466    0.0840
          38    0.1330   -0.0135   -0.1067    0.0665   -0.0264   -0.0340    0.0213    0.0133
          39   -0.1096    0.0024    0.0876   -0.0781    0.0313    0.0072    0.0106    0.0378
          40   -0.0167    0.0048   -0.0439    0.0746   -0.0154    0.0860    0.0096    0.0811
          41   -0.1272   -0.0312    0.0218   -0.0627    0.0373    0.1319    0.0354    0.1382
          42    0.0129    0.0121    0.0135    0.0047   -0.0053   -0.0493   -0.0051   -0.0323
          43   -0.0097    0.0145   -0.0261   -0.0217   -0.0490   -0.0125   -0.0487    0.0301
          44   -0.0057    0.0120   -0.0245   -0.0124   -0.0447   -0.0074   -0.0092    0.0372
          45   -0.0077    0.0111   -0.0247   -0.0131   -0.0245   -0.0103   -0.0302    0.0326
          46    0.0094   -0.0246    0.0466    0.0309   -0.0024    0.0461    0.2215   -0.0807
          47   -0.0006   -0.0013   -0.0008    0.0065    0.0320    0.0017    0.0158   -0.0080
          48   -0.0010    0.0002    0.0037   -0.0055   -0.0536    0.0097    0.0478   -0.0127
          49   -0.0129    0.0246   -0.0388   -0.0400   -0.1207   -0.0143   -0.0501    0.0291
          50   -0.0074    0.0142   -0.0277   -0.0128    0.0057   -0.0158   -0.0599    0.0232
          51   -0.0092    0.0174   -0.0276   -0.0286   -0.0842   -0.0114   -0.0432    0.0236
          52   -0.0044    0.0015   -0.0269    0.0357    0.2458   -0.0184   -0.0474   -0.0008
          53   -0.0052    0.0079   -0.0243    0.0067    0.0981   -0.0164   -0.0566    0.0142
          54   -0.0063    0.0105   -0.0241   -0.0045    0.0368   -0.0142   -0.0519    0.0175
          55    0.0797    0.3070    0.1115    0.0380    0.0019    0.0795   -0.0251    0.0091
          56   -0.0077   -0.0319    0.0176   -0.0517    0.0227   -0.0051    0.0313    0.0689
          57    0.0222    0.0798    0.0473   -0.0120    0.0136    0.0234    0.0035    0.0051
          58   -0.0274    0.2901   -0.1400   -0.0929    0.0296   -0.0023    0.0520   -0.0146
          59    0.0018   -0.0167    0.0010    0.0056   -0.0118   -0.0103   -0.0630    0.0424
          60   -0.0068    0.0792   -0.0432   -0.0187   -0.0063   -0.0044   -0.0132   -0.0006
          61   -0.0018    0.0015    0.0031   -0.0186   -0.0469    0.0015    0.0064   -0.0015
          62   -0.0003    0.0014   -0.0005   -0.0013   -0.0015    0.0001   -0.0005    0.0001
          63    0.0001    0.0012   -0.0009    0.0005    0.0023    0.0002    0.0009   -0.0001


   Root No.      25        26        27        28        29        30        31        32

                25 A      26 A      27 A      28 A      29 A      30 A      31 A      32 A   

                1091.9    1100.3    1125.8    1130.5    1132.5    1162.2    1171.0    1175.7
  
           1    0.0003    0.0043   -0.0053    0.0041   -0.0068   -0.0021   -0.0001   -0.0066
           2    0.0026    0.0184   -0.0063    0.0095   -0.0207   -0.0063    0.0002    0.0005
           3   -0.0028   -0.0191    0.0112   -0.0098    0.0181    0.0046   -0.0000    0.0041
           4   -0.0011   -0.0067    0.0032   -0.0018    0.0025    0.0003    0.0000    0.0010
           5    0.0005    0.0024   -0.0003   -0.0001    0.0002    0.0002    0.0000    0.0009
           6   -0.0005   -0.0028    0.0007   -0.0003    0.0003   -0.0000   -0.0000   -0.0001
           7    0.0611   -0.0086   -0.0084   -0.0462   -0.0147   -0.0107    0.0131   -0.0032
           8   -0.0055    0.0010   -0.0058    0.0047    0.0048   -0.0216   -0.0011    0.0028
           9    0.0163   -0.0029   -0.0047   -0.0080   -0.0143    0.0314    0.0034    0.0107
          10   -0.0298    0.0052   -0.0022    0.0064    0.0065   -0.0290   -0.0066    0.0023
          11   -0.0032    0.0026    0.0204    0.0329   -0.0015    0.0329    0.0471   -0.0005
          12    0.0369   -0.0074    0.0027    0.0204    0.0143   -0.0331   -0.0329    0.0040
          13   -0.0076    0.0009    0.0099    0.0132   -0.0049    0.0465   -0.0306   -0.0031
          14    0.0050    0.0032    0.0041   -0.0311   -0.0236    0.0251   -0.0436    0.0011
          15   -0.0462    0.0076   -0.0094   -0.0182   -0.0002   -0.0124    0.0232    0.0018
          16    0.0111    0.0459   -0.0083   -0.0123    0.0356    0.0197    0.0002    0.0279
          17   -0.0008   -0.0031    0.0125   -0.0086    0.0150    0.0040   -0.0004   -0.0208
          18    0.0021    0.0218    0.0025    0.0130   -0.0353   -0.0145    0.0003   -0.0227
          19   -0.0102   -0.0532   -0.0022    0.0091   -0.0225   -0.0076   -0.0000   -0.0091
          20   -0.0012   -0.0014   -0.0065    0.0058   -0.0103   -0.0026    0.0001    0.0069
          21    0.0004    0.0087    0.0048   -0.0056    0.0129    0.0022   -0.0002    0.0072
          22   -0.0216    0.0065   -0.0024    0.0077    0.0077    0.0045   -0.0053    0.0029
          23    0.0027   -0.0057   -0.0107   -0.0046    0.0163    0.0013   -0.0003   -0.0296
          24   -0.0058    0.0055   -0.0004    0.0024    0.0017   -0.0094   -0.0016   -0.0130
          25    0.0079   -0.0060    0.0108   -0.0028   -0.0112   -0.0091    0.0016   -0.0091
          26    0.0009   -0.0113   -0.0269   -0.0033    0.0253    0.0147   -0.0009   -0.0133
          27    0.0037   -0.0156   -0.0187   -0.0039    0.0163    0.0184    0.0002    0.0103
          28   -0.0870    0.0097    0.0401    0.1693    0.0608   -0.0152   -0.0787    0.0131
          29    0.0087    0.0069   -0.0224    0.0071   -0.0553   -0.0981    0.0121    0.2262
          30   -0.0230    0.0025    0.0056    0.0519    0.0006    0.0216   -0.0206    0.0398
          31    0.0962   -0.0116    0.0564    0.1154    0.0220   -0.0002    0.0583    0.0059
          32   -0.0600    0.0006   -0.0343   -0.0237    0.0383   -0.1197   -0.1492    0.0008
          33    0.0115    0.0040    0.0143    0.0045   -0.0283    0.0756    0.0913    0.0026
          34   -0.1287    0.0286   -0.0064   -0.0514   -0.0362    0.0224    0.0837    0.0074
          35   -0.0243   -0.0082   -0.0508   -0.0196    0.0260   -0.0701   -0.1425    0.0068
          36   -0.0603    0.0190    0.0137   -0.0257   -0.0348    0.0425    0.1016    0.0083
          37    0.1025   -0.0292   -0.0036    0.0926    0.0687   -0.0567    0.1198   -0.0093
          38    0.0456   -0.0124   -0.0257   -0.0149    0.0367   -0.1124    0.1328   -0.0017
          39    0.0396   -0.0086    0.0187    0.0647    0.0052    0.0592   -0.0443    0.0006
          40   -0.1311    0.0132   -0.0554   -0.0658    0.0194   -0.0502    0.1455   -0.0129
          41    0.0542   -0.0201   -0.0320    0.0273    0.0364   -0.0618    0.1201    0.0048
          42   -0.0116    0.0052    0.0117    0.0009   -0.0115    0.0222   -0.0398    0.0050
          43    0.0347    0.2847    0.0156    0.0055   -0.0089   -0.0246   -0.0016   -0.0340
          44   -0.0254   -0.0349    0.3131   -0.0896    0.0432   -0.0679    0.0041    0.0758
          45    0.0197    0.2136    0.0400    0.0234   -0.0719   -0.0557   -0.0009   -0.0704
          46    0.0012    0.0317   -0.0223    0.0085   -0.0033   -0.0034   -0.0000    0.0438
          47   -0.0004    0.0024    0.0047   -0.0050    0.0109    0.0021   -0.0002    0.0067
          48   -0.0018    0.0007   -0.0100    0.0128   -0.0260   -0.0082    0.0002    0.0040
          49   -0.0237   -0.1251   -0.0150    0.0454   -0.1108   -0.0357    0.0004   -0.0475
          50   -0.0104   -0.0520    0.0164    0.0056   -0.0248   -0.0125    0.0001   -0.0217
          51   -0.0126   -0.0598   -0.0030    0.0263   -0.0668   -0.0238    0.0002   -0.0306
          52   -0.0092   -0.0452    0.0356   -0.0252    0.0454    0.0029   -0.0009   -0.0138
          53   -0.0070   -0.0340    0.0225   -0.0079    0.0075   -0.0046   -0.0003   -0.0175
          54   -0.0066   -0.0309    0.0146    0.0005   -0.0100   -0.0075   -0.0001   -0.0189
          55    0.0530   -0.0203    0.0154   -0.0206   -0.0189   -0.0049    0.0101   -0.0033
          56   -0.0117    0.0092    0.1170   -0.0080   -0.0484   -0.0185    0.0022    0.0269
          57    0.0145   -0.0013    0.0075   -0.0050   -0.0083   -0.0119    0.0028   -0.0125
          58   -0.0227    0.0360   -0.0131    0.0130    0.0151    0.0071   -0.0044    0.0280
          59    0.0047   -0.0149   -0.0507    0.0318   -0.0607    0.0157    0.0053    0.3061
          60   -0.0042   -0.0046   -0.0263    0.0020    0.0193    0.0232   -0.0011    0.0315
          61   -0.0025   -0.0224    0.0187   -0.0258    0.0555    0.0182   -0.0006    0.0081
          62    0.0003    0.0021    0.0014   -0.0020    0.0047    0.0016   -0.0001    0.0006
          63   -0.0005   -0.0006   -0.0005    0.0021   -0.0048   -0.0019   -0.0000   -0.0022


   Root No.      33        34        35        36        37        38        39        40

                33 A      34 A      35 A      36 A      37 A      38 A      39 A      40 A   

                1212.8    1248.2    1273.7    1295.0    1339.7    1392.5    1399.8    1400.1
  
           1   -0.0011    0.0007   -0.0135   -0.0017    0.0016   -0.0026   -0.0000    0.0003
           2    0.0041   -0.0041    0.0142    0.0091   -0.0138    0.0002    0.0000   -0.0006
           3   -0.0035    0.0021   -0.0124   -0.0041    0.0074   -0.0009   -0.0000    0.0001
           4   -0.0006   -0.0000   -0.0013   -0.0001   -0.0000   -0.0013   -0.0000   -0.0001
           5    0.0006   -0.0003    0.0028    0.0011   -0.0023   -0.0004    0.0000   -0.0002
           6   -0.0005    0.0001   -0.0025   -0.0008    0.0019    0.0005   -0.0000    0.0003
           7    0.0074   -0.0035    0.0006   -0.0092   -0.0044    0.0001    0.0021    0.0001
           8   -0.0128   -0.0056    0.0006    0.0265   -0.0068   -0.0032   -0.0003    0.0014
           9   -0.0334    0.0103   -0.0012    0.0431    0.0141   -0.0004    0.0005    0.0003
          10    0.0028   -0.0029    0.0026    0.0320    0.0156   -0.0004   -0.0285   -0.0009
          11    0.0013    0.0018   -0.0003   -0.0036    0.0028    0.0003   -0.0127   -0.0007
          12    0.0062    0.0022    0.0013   -0.0036    0.0003    0.0001    0.0003    0.0000
          13   -0.0051    0.0017   -0.0028   -0.0261   -0.0130    0.0006   -0.0218   -0.0014
          14    0.0021    0.0014    0.0004    0.0018    0.0054    0.0000    0.0174    0.0008
          15    0.0042    0.0035   -0.0002   -0.0190   -0.0072    0.0004   -0.0137   -0.0009
          16    0.0142    0.0026    0.0819    0.0046   -0.0045    0.0243    0.0003   -0.0011
          17   -0.0110    0.0213    0.0066   -0.0362    0.0714    0.0069   -0.0001    0.0004
          18   -0.0016    0.0023    0.0888   -0.0015   -0.0009    0.0134    0.0003   -0.0032
          19   -0.0016   -0.0011   -0.0107   -0.0001    0.0011   -0.0670   -0.0008    0.0119
          20    0.0031   -0.0056   -0.0028    0.0082   -0.0133   -0.0217   -0.0005    0.0118
          21   -0.0014   -0.0017   -0.0254    0.0010   -0.0001   -0.0289    0.0010   -0.0355
          22   -0.0021    0.0112    0.0024    0.0086   -0.0042    0.0005   -0.0002    0.0001
          23   -0.0015   -0.0202   -0.0031   -0.0110   -0.0247   -0.0001    0.0001   -0.0001
          24    0.0139   -0.0470    0.0103   -0.0344    0.0056    0.0015   -0.0000   -0.0007
          25   -0.0115   -0.0079   -0.0102   -0.0070    0.0025   -0.0025    0.0001    0.0000
          26   -0.0019    0.0058   -0.0142   -0.0030   -0.0234   -0.0003    0.0000   -0.0005
          27    0.0249    0.0259   -0.0340    0.0240   -0.0179   -0.0026   -0.0000    0.0007
          28    0.0016    0.0147    0.0009   -0.0187   -0.0067    0.0000   -0.0056   -0.0004
          29   -0.1342    0.2736   -0.0003   -0.1312   -0.0397    0.0039    0.0006   -0.0017
          30   -0.0499    0.0435   -0.0013    0.0251    0.0109    0.0003   -0.0015   -0.0001
          31    0.0183    0.0089    0.0040    0.0647    0.0793    0.0086    0.1885    0.0046
          32    0.0301   -0.0030    0.0040   -0.0138    0.0060    0.0011    0.0043   -0.0002
          33   -0.0274    0.0013   -0.0027   -0.0079   -0.0319   -0.0049   -0.1188   -0.0030
          34   -0.0067    0.0066    0.0029    0.0788    0.0679    0.0059    0.1397    0.0036
          35   -0.0273   -0.0032    0.0028    0.0911    0.0545    0.0038    0.1301    0.0041
          36    0.0009    0.0132    0.0007    0.0169    0.0350    0.0049    0.1188    0.0029
          37    0.0029   -0.0088   -0.0020   -0.0534   -0.0506   -0.0061    0.1005    0.0069
          38    0.0310   -0.0017    0.0043   -0.0026    0.0182    0.0028   -0.0315   -0.0026
          39   -0.0310   -0.0032   -0.0046   -0.0397   -0.0666   -0.0112    0.1952    0.0134
          40    0.0006   -0.0126   -0.0030   -0.0596   -0.0656   -0.0091    0.1540    0.0105
          41   -0.0284   -0.0017    0.0035    0.1042    0.0669    0.0073   -0.1571   -0.0100
          42    0.0029    0.0081   -0.0006   -0.0200   -0.0006    0.0020   -0.0398   -0.0027
          43   -0.0284   -0.0040   -0.2284   -0.0085    0.0136   -0.0332   -0.0005    0.0052
          44   -0.0948   -0.0807    0.0415    0.0531   -0.1055   -0.0079    0.0000    0.0016
          45   -0.0397   -0.0073   -0.1581   -0.0059    0.0009   -0.0342   -0.0004    0.0007
          46    0.0059   -0.0302   -0.1272    0.0356   -0.0624    0.2668    0.0026   -0.0269
          47   -0.0010   -0.0016   -0.0139    0.0005    0.0005   -0.0339    0.0066   -0.1973
          48    0.0031   -0.0085   -0.0111    0.0127   -0.0217    0.0347   -0.0114    0.3355
          49   -0.0058   -0.0065   -0.0167    0.0038   -0.0172    0.1650    0.0040   -0.0946
          50   -0.0103    0.0013   -0.0020   -0.0087    0.0138    0.0968    0.0057   -0.1370
          51   -0.0066   -0.0049   -0.0247    0.0021   -0.0114    0.1595    0.0046   -0.1110
          52   -0.0196    0.0065   -0.1376   -0.0190    0.0252    0.1655    0.0013   -0.0234
          53   -0.0130    0.0043   -0.0504   -0.0121    0.0170    0.1454   -0.0059    0.1965
          54   -0.0090    0.0044   -0.0108   -0.0098    0.0170    0.0543   -0.0072    0.2262
          55    0.0171    0.0231   -0.0235    0.0095   -0.0018   -0.0038   -0.0015    0.0003
          56    0.3613    0.1417   -0.0432    0.0158    0.0037    0.0001   -0.0002    0.0006
          57    0.0332   -0.0416    0.0016   -0.0341    0.0090    0.0004   -0.0003   -0.0007
          58    0.0037   -0.0218    0.0369   -0.0089    0.0085    0.0054   -0.0007   -0.0008
          59    0.0570   -0.2468   -0.0650   -0.0517    0.0817   -0.0036   -0.0001    0.0029
          60    0.0345    0.0132   -0.0234    0.0233   -0.0124   -0.0004   -0.0003    0.0004
          61   -0.0093    0.0131   -0.0308   -0.0312    0.0675    0.0278   -0.0001    0.0066
          62   -0.0001    0.0013    0.0020   -0.0017    0.0039    0.0021    0.0000    0.0001
          63    0.0000   -0.0005    0.0002    0.0016   -0.0037   -0.0024    0.0000   -0.0005


   Root No.      41        42        43        44        45        46        47        48

                41 A      42 A      43 A      44 A      45 A      46 A      47 A      48 A   

                1407.7    1416.6    1486.5    1592.6    1887.7    2834.0    2999.0    3030.7
  
           1    0.0005   -0.0005   -0.0208    0.0000   -0.0012   -0.0007    0.0000   -0.0000
           2   -0.0001   -0.0019    0.0399   -0.0007    0.0041   -0.0009   -0.0000    0.0000
           3   -0.0002    0.0012   -0.0358    0.0011    0.0002    0.0010   -0.0000   -0.0000
           4    0.0000   -0.0004   -0.0221    0.0003    0.0000   -0.0002   -0.0000    0.0000
           5    0.0000   -0.0010   -0.0255    0.0002   -0.0000    0.0006    0.0000   -0.0000
           6   -0.0001    0.0010    0.0266   -0.0002    0.0002   -0.0005    0.0000   -0.0000
           7    0.0001    0.0000    0.0005    0.0183   -0.0014    0.0000    0.0158    0.0021
           8    0.0064    0.0432   -0.0006    0.1386   -0.0466    0.0000    0.0064    0.0014
           9    0.0018    0.0153   -0.0021   -0.0196   -0.0105    0.0000   -0.0572   -0.0073
          10    0.0027    0.0233   -0.0041   -0.0991    0.0059   -0.0000   -0.0013    0.0000
[...]
 T-DIPOLE    0.3823         C  3 -- H 10         +10.4% ( 47.9%)     16.0%
 TRAVEL      0.0796         C  3 -- C  4         +10.1% ( 47.3%)      5.7%
 RED. MASS   0.8506         C  3 -- C  5         +10.1% ( 47.3%)      5.5%
 EFF. MASS   8.2182

 VIBRATION   37   37A         ATOM PAIR      ENERGY CONTRIBUTION    RADIAL
 FREQ.      1339.75         C  6 -- C  9         +19.0% ( 63.1%)     88.9%
 T-DIPOLE    0.6737         C  6 -- H 15         +17.5% ( 60.6%)      0.0%
 TRAVEL      0.0810         O  1 -- C  6         +15.2% ( 56.6%)     67.5%
 RED. MASS   1.9228         C  6 -- C  7         +13.6% ( 53.5%)      3.5%
 EFF. MASS   7.6670

 VIBRATION   38   38A         ATOM PAIR      ENERGY CONTRIBUTION    RADIAL
 FREQ.      1392.54         C  7 -- H 16         +28.2% ( 61.9%)      3.9%
 T-DIPOLE    0.1072         C  7 -- H 17         +26.5% ( 59.9%)      2.1%
 TRAVEL      0.1133         C  7 -- H 18         +23.4% ( 56.4%)      2.9%
 RED. MASS   0.9675         C  6 -- C  7         +15.9% ( 46.4%)     98.9%
 EFF. MASS   3.7750

 VIBRATION   39   39A         ATOM PAIR      ENERGY CONTRIBUTION    RADIAL
 FREQ.      1399.80         C  4 -- H 12         +21.5% ( 46.0%)      2.6%
 T-DIPOLE    0.0833         C  5 -- H 14         +21.3% ( 45.7%)      2.6%
 TRAVEL      0.1596         C  4 -- H 11         +21.0% ( 45.5%)      2.9%
 RED. MASS   0.2659         C  5 -- H 13         +20.8% ( 45.3%)      2.9%
 EFF. MASS   1.8912

 VIBRATION   40   40A         ATOM PAIR      ENERGY CONTRIBUTION    RADIAL
 FREQ.      1400.12         C  7 -- H 16         +50.8% ( 61.4%)      0.2%
 T-DIPOLE    0.0787         C  7 -- H 18         +30.0% ( 47.2%)      4.2%
 TRAVEL      0.1772         C  7 -- H 17         +13.9% ( 32.1%)     25.2%
 RED. MASS   0.4089         C  6 -- C  7          +4.9% ( 19.0%)      1.7%
 EFF. MASS   1.5333

 VIBRATION   41   41A         ATOM PAIR      ENERGY CONTRIBUTION    RADIAL
 FREQ.      1407.67         C  7 -- H 17         +50.4% ( 62.0%)      0.5%
 T-DIPOLE    0.1155         C  7 -- H 18         +31.6% ( 49.1%)      5.7%
 TRAVEL      0.1718         C  7 -- H 16         +10.3% ( 28.0%)     28.8%
 RED. MASS   0.4272         C  6 -- C  7          +5.3% ( 20.2%)     11.7%
 EFF. MASS   1.6222

 VIBRATION   42   42A         ATOM PAIR      ENERGY CONTRIBUTION    RADIAL
 FREQ.      1416.57         C  3 -- C  8         +14.7% ( 49.2%)     99.7%
 T-DIPOLE    0.0463         C  3 -- H 10          +9.5% ( 39.5%)      1.6%
 TRAVEL      0.0955         C  5 -- H 13          +9.1% ( 38.6%)      1.5%
 RED. MASS   0.5315         C  4 -- H 11          +8.9% ( 38.3%)      1.5%
 EFF. MASS   5.2162

 VIBRATION   43   43A         ATOM PAIR      ENERGY CONTRIBUTION    RADIAL
 FREQ.      1486.53         O  2 -- H 21         +82.5% ( 90.9%)      2.8%
 T-DIPOLE    0.4013         O  1 -- C  6          +6.4% ( 25.4%)     97.0%
 TRAVEL      0.1290         O  1 -- O  2          +4.9% ( 22.1%)      0.0%
 RED. MASS   0.8595         C  6 -- C  7          +1.9% ( 13.8%)     28.6%
 EFF. MASS   2.7277

 VIBRATION   44   44A         ATOM PAIR      ENERGY CONTRIBUTION    RADIAL
 FREQ.      1592.56         C  3 -- C  4         +19.4% ( 73.2%)     94.7%
 T-DIPOLE    0.0386         C  3 -- C  5         +19.4% ( 73.1%)     94.7%
 TRAVEL      0.0605         C  4 -- C  5         +14.8% ( 63.9%)    100.0%
 RED. MASS   3.2595         C  3 -- C  8         +11.0% ( 55.1%)     77.1%
 EFF. MASS  11.5538         C  3 -- H 10         +10.0% ( 52.5%)      2.3%

 VIBRATION   45   45A         ATOM PAIR      ENERGY CONTRIBUTION    RADIAL
 FREQ.      1887.74         C  8 -- C  9         +43.6% ( 97.7%)     96.6%
 T-DIPOLE    0.6379         C  3 -- C  8         +15.3% ( 57.9%)     56.2%
 TRAVEL      0.0550         C  8 -- H 19         +13.9% ( 55.2%)      3.3%
 RED. MASS   5.3573         C  6 -- C  9         +13.0% ( 53.4%)     49.0%
 EFF. MASS  11.8030         C  9 -- H 20         +12.5% ( 52.4%)      4.3%

 VIBRATION   46   46A         ATOM PAIR      ENERGY CONTRIBUTION    RADIAL
 FREQ.      2833.98         C  6 -- H 15         +96.4% ( 99.9%)    100.0%
 T-DIPOLE    0.0647         O  1 -- C  6          +1.2% ( 11.0%)     11.4%
 TRAVEL      0.1272         C  6 -- C  9          +1.2% ( 11.0%)     12.6%
 RED. MASS   0.9279         C  6 -- C  7          +1.2% ( 11.0%)     11.1%
 EFF. MASS   1.4701

 VIBRATION   47   47A         ATOM PAIR      ENERGY CONTRIBUTION    RADIAL
 FREQ.      2998.98         C  3 -- H 10         +94.4% ( 99.0%)    100.0%
 T-DIPOLE    0.1708         C  8 -- H 19          +1.4% ( 12.2%)     99.9%
 TRAVEL      0.1239         C  3 -- C  8          +1.2% ( 11.2%)     15.1%
 RED. MASS   0.8925         C  3 -- C  4          +1.1% ( 10.9%)     21.9%
 EFF. MASS   1.4649

 VIBRATION   48   48A         ATOM PAIR      ENERGY CONTRIBUTION    RADIAL
 FREQ.      3030.71         C  8 -- H 19         +95.5% ( 99.0%)    100.0%
 T-DIPOLE    0.2768         C  8 -- C  9          +1.4% ( 12.1%)     39.9%
 TRAVEL      0.1215         C  3 -- H 10          +1.4% ( 11.8%)    100.0%
 RED. MASS   0.8968         C  3 -- C  8          +1.3% ( 11.7%)     16.0%
 EFF. MASS   1.5061

 VIBRATION   49   49A         ATOM PAIR      ENERGY CONTRIBUTION    RADIAL
 FREQ.      3047.26         C  9 -- H 20         +96.6% ( 99.7%)    100.0%
 T-DIPOLE    0.3143         C  8 -- C  9          +1.6% ( 12.8%)     40.8%
 TRAVEL      0.1206         C  6 -- C  9          +1.4% ( 11.8%)     14.1%
 RED. MASS   0.9218         C  8 -- H 19          +0.3% (  5.4%)     94.3%
 EFF. MASS   1.5217

 VIBRATION   50   50A         ATOM PAIR      ENERGY CONTRIBUTION    RADIAL
 FREQ.      3084.07         C  4 -- H 12         +27.7% ( 54.5%)     97.7%
 T-DIPOLE    0.0224         C  5 -- H 14         +27.4% ( 54.3%)     97.7%
 TRAVEL      0.1185         C  4 -- H 11         +21.3% ( 47.9%)     96.2%
 RED. MASS   0.2641         C  5 -- H 13         +21.2% ( 47.7%)     96.2%
 EFF. MASS   1.5566

 VIBRATION   51   51A         ATOM PAIR      ENERGY CONTRIBUTION    RADIAL
 FREQ.      3087.28         C  7 -- H 17         +64.9% ( 83.1%)     98.9%
 T-DIPOLE    0.0848         C  7 -- H 18         +22.5% ( 48.9%)     89.0%
 TRAVEL      0.1205         C  7 -- H 16         +11.6% ( 35.2%)     77.0%
 RED. MASS   0.5134         C  6 -- C  7          +1.0% ( 10.3%)      0.0%
 EFF. MASS   1.5033

 VIBRATION   52   52A         ATOM PAIR      ENERGY CONTRIBUTION    RADIAL
 FREQ.      3091.19         C  7 -- H 16         +54.2% ( 76.0%)     97.8%
 T-DIPOLE    0.0866         C  7 -- H 18         +43.1% ( 67.8%)     96.1%
 TRAVEL      0.1202         C  7 -- H 17          +1.6% ( 13.0%)     14.4%
 RED. MASS   0.5107         C  6 -- C  7          +1.0% ( 10.5%)      0.0%
 EFF. MASS   1.5095

 VIBRATION   53   53A         ATOM PAIR      ENERGY CONTRIBUTION    RADIAL
 FREQ.      3098.28         C  5 -- H 14         +28.8% ( 55.2%)     98.1%
 T-DIPOLE    0.2581         C  4 -- H 12         +28.5% ( 55.0%)     98.1%
 TRAVEL      0.1188         C  5 -- H 13         +20.1% ( 46.2%)     96.1%
 RED. MASS   0.2654         C  4 -- H 11         +19.9% ( 46.0%)     96.1%
 EFF. MASS   1.5430

 VIBRATION   54   54A         ATOM PAIR      ENERGY CONTRIBUTION    RADIAL
 FREQ.      3134.00         C  4 -- H 11         +30.5% ( 54.8%)     97.4%
 T-DIPOLE    0.2317         C  5 -- H 13         +25.7% ( 50.3%)     97.4%
 TRAVEL      0.1301         C  4 -- H 12         +22.9% ( 47.5%)     95.3%
 RED. MASS   0.2479         C  5 -- H 14         +19.5% ( 43.8%)     95.4%
 EFF. MASS   1.2708

 VIBRATION   55   55A         ATOM PAIR      ENERGY CONTRIBUTION    RADIAL
 FREQ.      3135.02         C  5 -- H 13         +31.5% ( 55.9%)     97.5%
 T-DIPOLE    0.1900         C  4 -- H 11         +26.7% ( 51.5%)     97.5%
 TRAVEL      0.1269         C  5 -- H 14         +21.6% ( 46.3%)     94.5%
 RED. MASS   0.2517         C  4 -- H 12         +18.2% ( 42.5%)     94.4%
 EFF. MASS   1.3356

 VIBRATION   56   56A         ATOM PAIR      ENERGY CONTRIBUTION    RADIAL
 FREQ.      3183.62         C  7 -- H 18         +33.7% ( 55.8%)     97.2%
 T-DIPOLE    0.0941         C  7 -- H 16         +33.4% ( 55.6%)     97.0%
 TRAVEL      0.1368         C  7 -- H 17         +32.7% ( 55.0%)     96.9%
 RED. MASS   0.3271         C  6 -- C  7          +0.3% (  4.9%)     99.9%
 EFF. MASS   1.1323

 VIBRATION   57   57A         ATOM PAIR      ENERGY CONTRIBUTION    RADIAL
 FREQ.      3988.13         O  2 -- H 21         +99.6% (100.0%)     99.9%
 T-DIPOLE    0.3824         O  1 -- O  2          +0.4% (  6.0%)      0.0%
 TRAVEL      0.1107
 RED. MASS   0.9479
 EFF. MASS   1.3794

      SYMMETRY NUMBER FOR POINT-GROUP C1  =  1


          SYSTEM IS A GROUND STATE



 InChI=1S/C7H12O2/c1-6(9-8)2-3-7-4-5-7/h2-3,6-8H,4-5H2,1H3


          MOLECULE IS NOT LINEAR

          THERE ARE 57 GENUINE VIBRATIONS IN THIS SYSTEM
          THIS THERMODYNAMICS CALCULATION IS LIMITED TO
          MOLECULES WHICH HAVE NO INTERNAL ROTATIONS




                    CALCULATED THERMODYNAMIC PROPERTIES
                                          *
   TEMP. (K)   PARTITION FUNCTION   H.O.F.    ENTHALPY  HEAT CAPACITY ENTROPY
                                   KCAL/MOL   CAL/MOLE    CAL/K/MOL  CAL/K/MOL


 298.00  VIB.     0.1247D+05                  5092.5005    31.9825    35.8297
         ROT.     0.7570D+06                   888.2813     2.9808    29.8818
         INT.     0.9436D+10                  5980.7818    34.9633    65.7115
         TRA.     0.1403D+28                  1480.4688     4.9680    40.4556
         TOT.                       -3.044    7461.2507    39.9313   106.1671

 200.00  VIB.     0.6753D+03                  2463.1282    21.9828    25.2626
         ROT.     0.4162D+06                   596.1620     2.9808    28.6931
         INT.     0.2811D+09                  3059.2902    24.9636    53.9557
         TRA.     0.7713D+27                   993.6033     4.9680    38.4745
         TOT.                       -6.452    4052.8934    29.9316    92.4302

 210.00  VIB.     0.9191D+03                  2687.5743    22.9103    26.3575
         ROT.     0.4478D+06                   625.9700     2.9808    28.8386
         INT.     0.4116D+09                  3313.5443    25.8911    55.1961
         TRA.     0.8299D+27                  1043.2834     4.9680    38.7168
         TOT.                       -6.148    4356.8278    30.8591    93.9129

 220.00  VIB.     0.1247D+04                  2921.4126    23.8614    27.4452
         ROT.     0.4802D+06                   655.7781     2.9808    28.9772
         INT.     0.5988D+09                  3577.1907    26.8422    56.4224
         TRA.     0.8899D+27                  1092.9636     4.9680    38.9480
         TOT.                       -5.835    4670.1543    31.8102    95.3703

 230.00  VIB.     0.1687D+04                  3164.8817    24.8364    28.5273
         ROT.     0.5133D+06                   685.5862     2.9808    29.1097
         INT.     0.8661D+09                  3850.4679    27.8172    57.6370
         TRA.     0.9512D+27                  1142.6437     4.9680    39.1688
         TOT.                       -5.512    4993.1117    32.7852    96.8058

 240.00  VIB.     0.2277D+04                  3418.2185    25.8347    29.6053
         ROT.     0.5471D+06                   715.3943     2.9808    29.2366
         INT.     0.1246D+10                  4133.6128    28.8155    58.8419
         TRA.     0.1014D+28                  1192.3239     4.9680    39.3802
         TOT.                       -5.179    5325.9367    33.7835    98.2221

 250.00  VIB.     0.3067D+04                  3681.6491    26.8549    30.6805
         ROT.     0.5817D+06                   745.2024     2.9808    29.3583
         INT.     0.1784D+10                  4426.8516    29.8357    60.0388
         TRA.     0.1078D+28                  1242.0041     4.9680    39.5830
         TOT.                       -4.836    5668.8556    34.8037    99.6218

 260.00  VIB.     0.4121D+04                  3955.3829    27.8950    31.7540
         ROT.     0.6169D+06                   775.0105     2.9808    29.4752
         INT.     0.2542D+10                  4730.3934    30.8758    61.2292
         TRA.     0.1143D+28                  1291.6842     4.9680    39.7779
         TOT.                       -4.483    6022.0776    35.8438   101.0071

 270.00  VIB.     0.5526D+04                  4239.6065    28.9525    32.8266
         ROT.     0.6528D+06                   804.8186     2.9808    29.5877
         INT.     0.3608D+10                  5044.4251    31.9333    62.4142
         TRA.     0.1210D+28                  1341.3644     4.9680    39.9654
         TOT.                       -4.119    6385.7895    36.9013   102.3796

 280.00  VIB.     0.7399D+04                  4534.4810    30.0247    33.8988
         ROT.     0.6894D+06                   834.6267     2.9808    29.6961
         INT.     0.5101D+10                  5369.1077    33.0055    63.5949
         TRA.     0.1278D+28                  1391.0445     4.9680    40.1461
         TOT.                       -3.745    6760.1522    37.9735   103.7410

 290.00  VIB.     0.9892D+04                  4840.1391    31.1087    34.9713
         ROT.     0.7267D+06                   864.4348     2.9808    29.8007
         INT.     0.7188D+10                  5704.5739    34.0895    64.7720
         TRA.     0.1347D+28                  1440.7247     4.9680    40.3204
         TOT.                       -3.360    7145.2987    39.0575   105.0924

 300.00  VIB.     0.1321D+05                  5156.6846    32.2016    36.0443
         ROT.     0.7646D+06                   894.2429     2.9808    29.9017
         INT.     0.1010D+11                  6050.9275    35.1824    65.9461
         TRA.     0.1417D+28                  1490.4049     4.9680    40.4888
         TOT.                       -2.964    7541.3324    40.1505   106.4349

 310.00  VIB.     0.1761D+05                  5484.1917    33.3005    37.1181
         ROT.     0.8032D+06                   924.0510     2.9808    29.9995
         INT.     0.1414D+11                  6408.2427    36.2813    67.1176
         TRA.     0.1488D+28                  1540.0850     4.9680    40.6517
         TOT.                       -2.557    7948.3277    41.2494   107.7693

 320.00  VIB.     0.2345D+05                  5822.7058    34.4026    38.1928
         ROT.     0.8423D+06                   953.8591     2.9808    30.0941
         INT.     0.1976D+11                  6776.5649    37.3834    68.2869
         TRA.     0.1561D+28                  1589.7652     4.9680    40.8094
         TOT.                       -2.139    8366.3301    42.3514   109.0963

 330.00  VIB.     0.3121D+05                  6172.2448    35.5051    39.2683
         ROT.     0.8821D+06                   983.6672     2.9808    30.1858
         INT.     0.2753D+11                  7155.9120    38.4859    69.4541
         TRA.     0.1635D+28                  1639.4454     4.9680    40.9623
         TOT.                       -1.710    8795.3573    43.4539   110.4164

 340.00  VIB.     0.4149D+05                  6532.8004    36.6055    40.3446
         ROT.     0.9225D+06                  1013.4753     2.9808    30.2748
         INT.     0.3828D+11                  7546.2757    39.5863    70.6194
         TRA.     0.1710D+28                  1689.1255     4.9680    41.1106
         TOT.                       -1.270    9235.4012    44.5543   111.7300

 350.00  VIB.     0.5512D+05                  6904.3403    37.7016    41.4215
         ROT.     0.9635D+06                  1043.2834     2.9808    30.3612
         INT.     0.5311D+11                  7947.6237    40.6824    71.7827
         TRA.     0.1786D+28                  1738.8057     4.9680    41.2546
         TOT.                       -0.819    9686.4294    45.6504   113.0374

 360.00  VIB.     0.7317D+05                  7286.8098    38.7911    42.4989
         ROT.     0.1005D+07                  1073.0915     2.9808    30.4452
         INT.     0.7354D+11                  8359.9014    41.7719    72.9441
         TRA.     0.1863D+28                  1788.4859     4.9680    41.3946
         TOT.                       -0.357   10148.3872    46.7399   114.3387

 370.00  VIB.     0.9706D+05                  7680.1346    39.8723    43.5765
         ROT.     0.1047D+07                  1102.8996     2.9808    30.5269
         INT.     0.1017D+12                  8783.0342    42.8531    74.1033
         TRA.     0.1941D+28                  1838.1660     4.9680    41.5307
         TOT.                        0.116   10621.2002    47.8211   115.6341

 380.00  VIB.     0.1287D+06                  8084.2223    40.9434    44.6540
         ROT.     0.1090D+07                  1132.7077     2.9808    30.6064
         INT.     0.1403D+12                  9216.9300    43.9242    75.2604
         TRA.     0.2020D+28                  1887.8462     4.9680    41.6632
         TOT.                        0.600   11104.7762    48.8923   116.9236

 390.00  VIB.     0.1705D+06                  8498.9650    42.0031    45.7313
         ROT.     0.1133D+07                  1162.5158     2.9808    30.6838
         INT.     0.1933D+12                  9661.4808    44.9839    76.4151
         TRA.     0.2100D+28                  1937.5263     4.9680    41.7923
         TOT.                        1.094   11599.0071    49.9519   118.2073

 400.00  VIB.     0.2258D+06                  8924.2412    43.0500    46.8079
         ROT.     0.1177D+07                  1192.3239     2.9808    30.7593
         INT.     0.2658D+12                 10116.5651    46.0308    77.5672
         TRA.     0.2182D+28                  1987.2065     4.9680    41.9180
         TOT.                        1.599   12103.7716    50.9988   119.4852

   *: NOTE: HEATS OF FORMATION ARE RELATIVE TO THE
            ELEMENTS IN THEIR STANDARD STATE AT 298K
              (=  Standard Enthalpy of Formation).

            Hvib:  Zero-point energy is not included.
                   frequencies of less than zero cm-1 are not included.
            Hrot = (3/2)RT
            Htra = (3/2)RT + pV = (5/2)RT

            Heat capacity is Cp, not Cv

          For more information, see: HTTP://OpenMOPAC.net/Manual/thermochemistry.html


           FORCE CONSTANT IN CARTESIAN COORDINATES (Millidynes/A)

    ATOM   CHEMICAL       X               Y               Z
   NUMBER   SYMBOL  FORCE CONSTANT  FORCE CONSTANT  FORCE CONSTANT

      1       O        4.375705        4.272312        2.831446
      2       O        3.071248        4.657469        4.997077
      3       C        4.942857       11.495329        9.432346
      4       C       11.041966        6.306249        7.694947
      5       C        8.753488        7.280333        9.004533
      6       C        8.209390        8.657104        8.336765
      7       C        7.881872        8.443740        8.264321
      8       C        3.158462       14.404627        9.999822
      9       C        3.244456       13.854098        9.917730
     10       H        0.833220        0.882668        4.618222
     11       H        1.426535        2.162612        3.069790
     12       H        2.926404        0.737882        2.978929
     13       H        2.224487        2.721249        1.713734
     14       H        0.995930        0.668277        4.978861
     15       H        2.184015        0.745717        2.954636
     16       H        0.736422        4.222539        1.852591
     17       H        2.582888        0.703016        3.514213
     18       H        1.250578        3.097013        2.420931
     19       H        0.685399        0.793867        4.711202
     20       H        0.665498        0.803055        4.787051
     21       H        1.305028        4.184365        4.614322

 **********************
 *                    *
 * JOB ENDED NORMALLY *
 *                    *
 **********************



 TOTAL JOB TIME:            16.77 SECONDS

 == MOPAC DONE ==
