 *******************************************************************************
 ** Site#: 14399        For non-commercial use only    Version 18.184L 64BITS **
 *******************************************************************************
 ** Cite this program as: MOPAC2016, Version: 18.184L, James J. P. Stewart,   **
 ** Stewart Computational Chemistry, web: HTTP://OpenMOPAC.net. Days left:  20**
 *******************************************************************************
 **                                                                           **
 **                                MOPAC2016                                  **
 **                                                                           **
 *******************************************************************************

                              PM3 CALCULATION RESULTS

 *******************************************************************************
 *  CALCULATION DONE:                                Thu Jun 13 16:01:09 2019  *
 *  PM3        - The PM3 Hamiltonian to be used
 *  PRECISE    - CRITERIA TO BE INCREASED BY 100 TIMES
 *  NOSYM      - POINT-GROUP SYMMETRY SET TO C1
 *  THREADS=1  - MULTI-THREADING NOT USED
 *  T=         - A TIME OF 172800.0 SECONDS REQUESTED
 *  DUMP=N     - RESTART FILE WRITTEN EVERY  7200.000 SECONDS
 *******************************************************************************
pm3  precise nosym THREADS=1
 InChI=1S/C10H12/c1-2-6-10-8-4-3-7-9(10)5-1/h1-3,5-7,9-10H,4,8H2

   ATOM   CHEMICAL          X               Y               Z
  NUMBER   SYMBOL      (ANGSTROMS)     (ANGSTROMS)     (ANGSTROMS)
 
     1       C         -0.15430000  *  -0.75430000  *  -0.55510000  *
     2       C         -0.28290000  *   0.78610000  *  -0.74010000  *
     3       C          0.85450000  *  -1.09180000  *   0.55210000  *
     4       C          2.23660000  *  -0.52550000  *   0.21380000  *
     5       C         -1.48680000  *  -1.39470000  *  -0.24250000  *
     6       C          1.05120000  *   1.49730000  *  -0.67010000  *
     7       C         -1.24110000  *   1.39940000  *   0.25490000  *
     8       C          2.17800000  *   0.91300000  *  -0.23020000  *
     9       C         -2.27810000  *   0.70300000  *   0.72790000  *
    10       C         -2.45400000  *  -0.71710000  *   0.38250000  *
    11       H          0.21410000  *  -1.19070000  *  -1.51060000  *
    12       H         -0.70190000  *   0.96810000  *  -1.75390000  *
    13       H          0.93640000  *  -2.19470000  *   0.67010000  *
    14       H          0.51000000  *  -0.66630000  *   1.52110000  *
    15       H          2.88320000  *  -0.59910000  *   1.11400000  *
    16       H          2.70330000  *  -1.12810000  *  -0.59470000  *
    17       H          1.09340000  *   2.53810000  *  -0.97860000  *
    18       H         -1.15420000  *   2.44910000  *   0.51030000  *
    19       H         -1.63210000  *  -2.44470000  *  -0.46430000  *
    20       H          3.09990000  *   1.48670000  *  -0.23290000  *
    21       H         -3.37230000  *  -1.22030000  *   0.65640000  *
    22       H         -3.00290000  *   1.18660000  *   1.37010000  *
 


          CARTESIAN COORDINATES 

    NO.       ATOM           X           Y           Z

     1         C         -0.1543     -0.7543     -0.5551
     2         C         -0.2829      0.7861     -0.7401
     3         C          0.8545     -1.0918      0.5521
     4         C          2.2366     -0.5255      0.2138
     5         C         -1.4868     -1.3947     -0.2425
     6         C          1.0512      1.4973     -0.6701
     7         C         -1.2411      1.3994      0.2549
     8         C          2.1780      0.9130     -0.2302
     9         C         -2.2781      0.7030      0.7279
    10         C         -2.4540     -0.7171      0.3825
    11         H          0.2141     -1.1907     -1.5106
    12         H         -0.7019      0.9681     -1.7539
    13         H          0.9364     -2.1947      0.6701
    14         H          0.5100     -0.6663      1.5211
    15         H          2.8832     -0.5991      1.1140
    16         H          2.7033     -1.1281     -0.5947
    17         H          1.0934      2.5381     -0.9786
    18         H         -1.1542      2.4491      0.5103
    19         H         -1.6321     -2.4447     -0.4643
    20         H          3.0999      1.4867     -0.2329
    21         H         -3.3723     -1.2203      0.6564
    22         H         -3.0029      1.1866      1.3701

  H: (PM3): J. J. P. STEWART, J. COMP. CHEM. 10, 209 (1989).
  C: (PM3): J. J. P. STEWART, J. COMP. CHEM. 10, 209 (1989).

           Empirical Formula: C10 H12  =    22 atoms



      MOLECULAR POINT GROUP   :   C1  


      RHF CALCULATION, NO. OF DOUBLY OCCUPIED LEVELS = 26


          Geometry optimization using EF

          DIAGONAL MATRIX USED AS START HESSIAN

 CYCLE:     1 TIME:   0.027 TIME LEFT:  2.00D  GRAD.:    70.973 HEAT:  37.37250
 CYCLE:     2 TIME:   0.051 TIME LEFT:  2.00D  GRAD.:    42.564 HEAT:  36.12820
 CYCLE:     3 TIME:   0.023 TIME LEFT:  2.00D  GRAD.:    54.442 HEAT:  35.90318
 CYCLE:     4 TIME:   0.023 TIME LEFT:  2.00D  GRAD.:    50.395 HEAT:  35.74080
 CYCLE:     5 TIME:   0.023 TIME LEFT:  2.00D  GRAD.:    55.996 HEAT:  35.70971
 CYCLE:     6 TIME:   0.020 TIME LEFT:  2.00D  GRAD.:    54.604 HEAT:  35.67251
 CYCLE:     7 TIME:   0.027 TIME LEFT:  2.00D  GRAD.:    45.535 HEAT:  35.47440
 CYCLE:     8 TIME:   0.020 TIME LEFT:  2.00D  GRAD.:    45.193 HEAT:  35.40352
 CYCLE:     9 TIME:   0.023 TIME LEFT:  2.00D  GRAD.:    41.319 HEAT:  35.31606
 CYCLE:    10 TIME:   0.031 TIME LEFT:  2.00D  GRAD.:    19.011 HEAT:  34.90541
 CYCLE:    11 TIME:   0.035 TIME LEFT:  2.00D  GRAD.:    12.819 HEAT:  34.83181
 CYCLE:    12 TIME:   0.035 TIME LEFT:  2.00D  GRAD.:     7.700 HEAT:  34.79194
 CYCLE:    13 TIME:   0.031 TIME LEFT:  2.00D  GRAD.:     5.735 HEAT:  34.77469
 CYCLE:    14 TIME:   0.027 TIME LEFT:  2.00D  GRAD.:     7.305 HEAT:  34.76204
 CYCLE:    15 TIME:   0.023 TIME LEFT:  2.00D  GRAD.:     8.565 HEAT:  34.74579
 CYCLE:    16 TIME:   0.031 TIME LEFT:  2.00D  GRAD.:     6.240 HEAT:  34.73427
 CYCLE:    17 TIME:   0.027 TIME LEFT:  2.00D  GRAD.:     6.053 HEAT:  34.72429
 CYCLE:    18 TIME:   0.020 TIME LEFT:  2.00D  GRAD.:     7.093 HEAT:  34.72365
 CYCLE:    19 TIME:   0.023 TIME LEFT:  2.00D  GRAD.:     6.083 HEAT:  34.71644
 CYCLE:    20 TIME:   0.023 TIME LEFT:  2.00D  GRAD.:     6.581 HEAT:  34.71481
 CYCLE:    21 TIME:   0.023 TIME LEFT:  2.00D  GRAD.:     6.239 HEAT:  34.71018
 CYCLE:    22 TIME:   0.023 TIME LEFT:  2.00D  GRAD.:     4.717 HEAT:  34.70491
 CYCLE:    23 TIME:   0.023 TIME LEFT:  2.00D  GRAD.:     2.253 HEAT:  34.69820
 CYCLE:    24 TIME:   0.023 TIME LEFT:  2.00D  GRAD.:     1.838 HEAT:  34.69616
 CYCLE:    25 TIME:   0.020 TIME LEFT:  2.00D  GRAD.:     2.486 HEAT:  34.69467
 CYCLE:    26 TIME:   0.023 TIME LEFT:  2.00D  GRAD.:     1.500 HEAT:  34.69217
 CYCLE:    27 TIME:   0.023 TIME LEFT:  2.00D  GRAD.:     2.188 HEAT:  34.69098
 CYCLE:    28 TIME:   0.023 TIME LEFT:  2.00D  GRAD.:     1.289 HEAT:  34.68897
 CYCLE:    29 TIME:   0.023 TIME LEFT:  2.00D  GRAD.:     1.335 HEAT:  34.68707
 CYCLE:    30 TIME:   0.023 TIME LEFT:  2.00D  GRAD.:     2.412 HEAT:  34.68378
 CYCLE:    31 TIME:   0.020 TIME LEFT:  2.00D  GRAD.:     2.769 HEAT:  34.67948
 CYCLE:    32 TIME:   0.023 TIME LEFT:  2.00D  GRAD.:     1.646 HEAT:  34.67571
 CYCLE:    33 TIME:   0.023 TIME LEFT:  2.00D  GRAD.:     2.139 HEAT:  34.67192
 CYCLE:    34 TIME:   0.023 TIME LEFT:  2.00D  GRAD.:     2.877 HEAT:  34.66787
 CYCLE:    35 TIME:   0.023 TIME LEFT:  2.00D  GRAD.:     2.302 HEAT:  34.66225
 CYCLE:    36 TIME:   0.023 TIME LEFT:  2.00D  GRAD.:     1.113 HEAT:  34.65824
 CYCLE:    37 TIME:   0.023 TIME LEFT:  2.00D  GRAD.:     1.334 HEAT:  34.65574
 CYCLE:    38 TIME:   0.020 TIME LEFT:  2.00D  GRAD.:     1.710 HEAT:  34.65213
 CYCLE:    39 TIME:   0.023 TIME LEFT:  2.00D  GRAD.:     1.503 HEAT:  34.64920
 CYCLE:    40 TIME:   0.023 TIME LEFT:  2.00D  GRAD.:     0.990 HEAT:  34.64686
 CYCLE:    41 TIME:   0.023 TIME LEFT:  2.00D  GRAD.:     1.023 HEAT:  34.64512
 CYCLE:    42 TIME:   0.023 TIME LEFT:  2.00D  GRAD.:     0.909 HEAT:  34.64382
 CYCLE:    43 TIME:   0.023 TIME LEFT:  2.00D  GRAD.:     0.602 HEAT:  34.64297
 CYCLE:    44 TIME:   0.023 TIME LEFT:  2.00D  GRAD.:     0.565 HEAT:  34.64235
 CYCLE:    45 TIME:   0.020 TIME LEFT:  2.00D  GRAD.:     0.742 HEAT:  34.64168
 CYCLE:    46 TIME:   0.023 TIME LEFT:  2.00D  GRAD.:     0.655 HEAT:  34.64107
 CYCLE:    47 TIME:   0.023 TIME LEFT:  2.00D  GRAD.:     0.417 HEAT:  34.64058
 CYCLE:    48 TIME:   0.023 TIME LEFT:  2.00D  GRAD.:     0.395 HEAT:  34.64025
 CYCLE:    49 TIME:   0.023 TIME LEFT:  2.00D  GRAD.:     0.428 HEAT:  34.63998
 CYCLE:    50 TIME:   0.023 TIME LEFT:  2.00D  GRAD.:     0.356 HEAT:  34.63971
 CYCLE:    51 TIME:   0.020 TIME LEFT:  2.00D  GRAD.:     0.223 HEAT:  34.63953
 CYCLE:    52 TIME:   0.023 TIME LEFT:  2.00D  GRAD.:     0.191 HEAT:  34.63942
 CYCLE:    53 TIME:   0.023 TIME LEFT:  2.00D  GRAD.:     0.174 HEAT:  34.63936
 CYCLE:    54 TIME:   0.023 TIME LEFT:  2.00D  GRAD.:     0.134 HEAT:  34.63933
 CYCLE:    55 TIME:   0.023 TIME LEFT:  2.00D  GRAD.:     0.123 HEAT:  34.63929
 CYCLE:    56 TIME:   0.023 TIME LEFT:  2.00D  GRAD.:     0.126 HEAT:  34.63926
 CYCLE:    57 TIME:   0.023 TIME LEFT:  2.00D  GRAD.:     0.130 HEAT:  34.63923
 CYCLE:    58 TIME:   0.020 TIME LEFT:  2.00D  GRAD.:     0.091 HEAT:  34.63921
 CYCLE:    59 TIME:   0.023 TIME LEFT:  2.00D  GRAD.:     0.071 HEAT:  34.63919
 CYCLE:    60 TIME:   0.023 TIME LEFT:  2.00D  GRAD.:     0.139 HEAT:  34.63917
 CYCLE:    61 TIME:   0.023 TIME LEFT:  2.00D  GRAD.:     0.078 HEAT:  34.63917
 CYCLE:    62 TIME:   0.023 TIME LEFT:  2.00D  GRAD.:     0.097 HEAT:  34.63915
 CYCLE:    63 TIME:   0.023 TIME LEFT:  2.00D  GRAD.:     0.056 HEAT:  34.63915
 CYCLE:    64 TIME:   0.020 TIME LEFT:  2.00D  GRAD.:     0.097 HEAT:  34.63914
 CYCLE:    65 TIME:   0.023 TIME LEFT:  2.00D  GRAD.:     0.050 HEAT:  34.63914
 CYCLE:    66 TIME:   0.023 TIME LEFT:  2.00D  GRAD.:     0.064 HEAT:  34.63913
 CYCLE:    67 TIME:   0.023 TIME LEFT:  2.00D  GRAD.:     0.021 HEAT:  34.63913

     GRADIENT =  0.02128  IS LESS THAN CUTOFF =  0.05000



 -------------------------------------------------------------------------------
 pm3  precise nosym THREADS=1
 InChI=1S/C10H12/c1-2-6-10-8-4-3-7-9(10)5-1/h1-3,5-7,9-10H,4,8H2



     GEOMETRY OPTIMISED USING EIGENVECTOR FOLLOWING (EF).     
     SCF FIELD WAS ACHIEVED                                   


                              PM3 CALCULATION
                                                       MOPAC2016 (Version: 18.184L)
                                                       Thu Jun 13 16:01:10 2019
                                                       No. of days remaining =  20




          FINAL HEAT OF FORMATION =         34.63913 KCAL/MOL =     144.93012 KJ/MOL


          TOTAL ENERGY            =      -1368.89421 EV
          ELECTRONIC ENERGY       =      -7651.31799 EV  POINT GROUP:     C1  
          CORE-CORE REPULSION     =       6282.42378 EV
          COSMO AREA              =        171.83 SQUARE ANGSTROMS
          COSMO VOLUME            =        178.25 CUBIC ANGSTROMS

          GRADIENT NORM           =          0.02128 = 0.00454 PER ATOM
          IONIZATION POTENTIAL    =          9.010108 EV
          HOMO LUMO ENERGIES (EV) =         -9.010  0.277
          NO. OF FILLED LEVELS    =         26
          MOLECULAR WEIGHT        =        132.2048

          MOLECULAR DIMENSIONS (Angstroms)

            Atom       Atom       Distance
            H    21    H    20     7.07119
            H    18    H    13     5.12928
            H    14    H    12     3.20555


          SCF CALCULATIONS        =         75
 
          WALL-CLOCK TIME         =          1.676 SECONDS
          COMPUTATION TIME        =          0.728 SECONDS




   ATOM   CHEMICAL          X               Y               Z
  NUMBER   SYMBOL      (ANGSTROMS)     (ANGSTROMS)     (ANGSTROMS)
 
     1       C         -0.15341327  *  -0.74233714  *  -0.53791815  *
     2       C         -0.27572071  *   0.78111538  *  -0.72277433  *
     3       C          0.88292780  *  -1.10224323  *   0.52801111  *
     4       C          2.24622252  *  -0.53788810  *   0.16810849  *
     5       C         -1.45716507  *  -1.38179816  *  -0.17743792  *
     6       C          1.03848995  *   1.48456706  *  -0.60213845  *
     7       C         -1.28060491  *   1.41045419  *   0.18964647  *
     8       C          2.16889843  *   0.89625740  *  -0.21140308  *
     9       C         -2.31027455  *   0.71547467  *   0.68828235  *
    10       C         -2.45523279  *  -0.69908061  *   0.39618577  *
    11       H          0.18415517  *  -1.17201528  *  -1.51349986  *
    12       H         -0.65006791  *   0.96869962  *  -1.76261301  *
    13       H          0.94202803  *  -2.20215458  *   0.64105837  *
    14       H          0.55652730  *  -0.71303237  *   1.51248038  *
    15       H          2.94377868  *  -0.66362738  *   1.01908163  *
    16       H          2.69260059  *  -1.10143029  *  -0.67648477  *
    17       H          1.02616171  *   2.55020072  *  -0.86133030  *
    18       H         -1.15201301  *   2.47668641  *   0.40613633  *
    19       H         -1.54182904  *  -2.45559635  *  -0.37618634  *
    20       H          3.10578147  *   1.46264017  *  -0.16498392  *
    21       H         -3.39927433  *  -1.18135159  *   0.66885074  *
    22       H         -3.06545371  *   1.18419290  *   1.32693818  *

                             CARTESIAN COORDINATES

   1    C       -0.153413270    -0.742337141    -0.537918150
   2    C       -0.275720709     0.781115382    -0.722774331
   3    C        0.882927804    -1.102243230     0.528011113
   4    C        2.246222515    -0.537888102     0.168108487
   5    C       -1.457165075    -1.381798156    -0.177437916
   6    C        1.038489952     1.484567055    -0.602138450
   7    C       -1.280604914     1.410454191     0.189646474
   8    C        2.168898426     0.896257399    -0.211403079
   9    C       -2.310274547     0.715474675     0.688282349
  10    C       -2.455232789    -0.699080606     0.396185769
  11    H        0.184155171    -1.172015281    -1.513499857
  12    H       -0.650067909     0.968699617    -1.762613013
  13    H        0.942028026    -2.202154581     0.641058367
  14    H        0.556527297    -0.713032370     1.512480382
  15    H        2.943778681    -0.663627379     1.019081627
  16    H        2.692600589    -1.101430292    -0.676484769
  17    H        1.026161713     2.550200718    -0.861330299
  18    H       -1.152013013     2.476686412     0.406136330
  19    H       -1.541829035    -2.455596354    -0.376186339
  20    H        3.105781475     1.462640171    -0.164983921
  21    H       -3.399274330    -1.181351592     0.668850735
  22    H       -3.065453708     1.184192901     1.326938183


           Empirical Formula: C10 H12  =    22 atoms



      MOLECULAR POINT GROUP   :   C1  


                  EIGENVALUES  
 -41.88881 -35.44759 -31.94535 -29.03667 -27.63598 -22.35898 -21.79766 -21.02545
 -18.54785 -17.32011 -16.82153 -16.03365 -15.86669 -15.03407 -14.81122 -14.19580
 -14.06594 -13.53964 -13.22255 -12.29613 -12.19977 -11.79443 -11.47242 -11.24987
  -9.77100  -9.01011   0.27746   1.08241   2.07112   3.26970   3.36227   3.45055
   3.46838   3.61104   3.69598   3.76358   3.91563   3.95663   4.11280   4.17609
   4.30713   4.48396   4.58246   4.73970   4.88097   5.04100   5.10235   5.38729
   5.69264   5.89191   6.01953   6.23202


              NET ATOMIC CHARGES AND DIPOLE CONTRIBUTIONS

  ATOM NO.   TYPE          CHARGE      No. of ELECS.   s-Pop       p-Pop       
    1          C          -0.034531        4.0345     1.16560     2.86893
    2          C          -0.001123        4.0011     1.15177     2.84935
    3          C          -0.096254        4.0963     1.16111     2.93514
    4          C          -0.059094        4.0591     1.14576     2.91333
    5          C          -0.137387        4.1374     1.19858     2.93881
    6          C          -0.144760        4.1448     1.19508     2.94968
    7          C          -0.123834        4.1238     1.19826     2.92558
    8          C          -0.141092        4.1411     1.19359     2.94751
    9          C          -0.120073        4.1201     1.17914     2.94093
   10          C          -0.105978        4.1060     1.17876     2.92721
   11          H           0.067415        0.9326     0.93259
   12          H           0.072062        0.9279     0.92794
   13          H           0.051488        0.9485     0.94851
   14          H           0.061166        0.9388     0.93883
   15          H           0.054366        0.9456     0.94563
   16          H           0.055659        0.9443     0.94434
   17          H           0.098094        0.9019     0.90191
   18          H           0.102759        0.8972     0.89724
   19          H           0.099846        0.9002     0.90015
   20          H           0.097255        0.9027     0.90275
   21          H           0.101334        0.8987     0.89867
   22          H           0.102682        0.8973     0.89732
 DIPOLE           X         Y         Z       TOTAL
 POINT-CHG.     0.274    -0.170    -0.126     0.346
 HYBRID         0.005     0.050     0.016     0.053
 SUM            0.279    -0.119    -0.110     0.323


          ATOMIC ORBITAL ELECTRON POPULATIONS

     Atom    s        px        py        pz   
    1  C   1.16560   0.93942   0.94295   0.98656
    2  C   1.15177   0.92908   0.93678   0.98349
    3  C   1.16111   0.94594   1.00068   0.98852
    4  C   1.14576   0.96647   0.94325   1.00361
    5  C   1.19858   0.95774   0.98636   0.99470
    6  C   1.19508   0.94929   0.98648   1.01391
    7  C   1.19826   0.95670   0.98726   0.98161
    8  C   1.19359   0.97560   0.96993   1.00198
    9  C   1.17914   0.98289   0.94941   1.00863
   10  C   1.17876   0.98189   0.95058   0.99474
   11  H   0.93259
   12  H   0.92794
   13  H   0.94851
   14  H   0.93883
   15  H   0.94563
   16  H   0.94434
   17  H   0.90191
   18  H   0.89724
   19  H   0.90015
   20  H   0.90275
   21  H   0.89867
   22  H   0.89732
 *******************************************************************************
 ** Site#: 14399        For non-commercial use only    Version 18.184L 64BITS **
 *******************************************************************************
 ** Cite this program as: MOPAC2016, Version: 18.184L, James J. P. Stewart,   **
 ** Stewart Computational Chemistry, web: HTTP://OpenMOPAC.net. Days left:  20**
 *******************************************************************************
 **                                                                           **
 **                                MOPAC2016                                  **
 **                                                                           **
 *******************************************************************************

                              PM3 CALCULATION RESULTS

 *******************************************************************************
 *  CALCULATION DONE:                                Thu Jun 13 16:01:10 2019  *
 *  PM3        - The PM3 Hamiltonian to be used
 *  OLDGEO     - PREVIOUS GEOMETRY TO BE USED
 *  PRECISE    - CRITERIA TO BE INCREASED BY 100 TIMES
 *  NOSYM      - POINT-GROUP SYMMETRY SET TO C1
 *  THREADS=1  - MULTI-THREADING NOT USED
 *  T=         - A TIME OF 172800.0 SECONDS REQUESTED
 *  DUMP=N     - RESTART FILE WRITTEN EVERY  7200.000 SECONDS
 *  THERMO     - THERMODYNAMIC QUANTITIES TO BE CALCULATED
 *******************************************************************************
oldgeo thermo nosym precise THREADS=1  pm3
 InChI=1S/C10H12/c1-2-6-10-8-4-3-7-9(10)5-1/h1-3,5-7,9-10H,4,8H2

   ATOM   CHEMICAL          X               Y               Z
  NUMBER   SYMBOL      (ANGSTROMS)     (ANGSTROMS)     (ANGSTROMS)
 
     1       C         -0.15341327  *  -0.74233714  *  -0.53791815  *
     2       C         -0.27572071  *   0.78111538  *  -0.72277433  *
     3       C          0.88292780  *  -1.10224323  *   0.52801111  *
     4       C          2.24622252  *  -0.53788810  *   0.16810849  *
     5       C         -1.45716507  *  -1.38179816  *  -0.17743792  *
     6       C          1.03848995  *   1.48456706  *  -0.60213845  *
     7       C         -1.28060491  *   1.41045419  *   0.18964647  *
     8       C          2.16889843  *   0.89625740  *  -0.21140308  *
     9       C         -2.31027455  *   0.71547467  *   0.68828235  *
    10       C         -2.45523279  *  -0.69908061  *   0.39618577  *
    11       H          0.18415517  *  -1.17201528  *  -1.51349986  *
    12       H         -0.65006791  *   0.96869962  *  -1.76261301  *
    13       H          0.94202803  *  -2.20215458  *   0.64105837  *
    14       H          0.55652730  *  -0.71303237  *   1.51248038  *
    15       H          2.94377868  *  -0.66362738  *   1.01908163  *
    16       H          2.69260059  *  -1.10143029  *  -0.67648477  *
    17       H          1.02616171  *   2.55020072  *  -0.86133030  *
    18       H         -1.15201301  *   2.47668641  *   0.40613633  *
    19       H         -1.54182904  *  -2.45559635  *  -0.37618634  *
    20       H          3.10578147  *   1.46264017  *  -0.16498392  *
    21       H         -3.39927433  *  -1.18135159  *   0.66885074  *
    22       H         -3.06545371  *   1.18419290  *   1.32693818  *
 


          CARTESIAN COORDINATES 

    NO.       ATOM           X           Y           Z

     1         C         -0.1534     -0.7423     -0.5379
     2         C         -0.2757      0.7811     -0.7228
     3         C          0.8829     -1.1022      0.5280
     4         C          2.2462     -0.5379      0.1681
     5         C         -1.4572     -1.3818     -0.1774
     6         C          1.0385      1.4846     -0.6021
     7         C         -1.2806      1.4105      0.1896
     8         C          2.1689      0.8963     -0.2114
     9         C         -2.3103      0.7155      0.6883
    10         C         -2.4552     -0.6991      0.3962
    11         H          0.1842     -1.1720     -1.5135
    12         H         -0.6501      0.9687     -1.7626
    13         H          0.9420     -2.2022      0.6411
    14         H          0.5565     -0.7130      1.5125
    15         H          2.9438     -0.6636      1.0191
    16         H          2.6926     -1.1014     -0.6765
    17         H          1.0262      2.5502     -0.8613
    18         H         -1.1520      2.4767      0.4061
    19         H         -1.5418     -2.4556     -0.3762
    20         H          3.1058      1.4626     -0.1650
    21         H         -3.3993     -1.1814      0.6689
    22         H         -3.0655      1.1842      1.3269

  H: (PM3): J. J. P. STEWART, J. COMP. CHEM. 10, 209 (1989).
  C: (PM3): J. J. P. STEWART, J. COMP. CHEM. 10, 209 (1989).

           Empirical Formula: C10 H12  =    22 atoms



      MOLECULAR POINT GROUP   :   C1  


      RHF CALCULATION, NO. OF DOUBLY OCCUPIED LEVELS = 26



          HEAT OF FORMATION =      34.639131 KCALS/MOLE


          CARTESIAN COORDINATE DERIVATIVES

   NUMBER  ATOM         X            Y            Z

     1       C     -0.000451    -0.001740     0.001057
     2       C      0.000716     0.003762     0.000759
     3       C     -0.002226    -0.003319    -0.000561
     4       C      0.002578     0.001186    -0.002425
     5       C     -0.000517    -0.001519     0.003872
     6       C     -0.001053    -0.005707    -0.001699
     7       C     -0.002725     0.001538     0.000518
     8       C     -0.000631     0.001186    -0.000422
     9       C     -0.003718    -0.004893    -0.001266
    10       C      0.006850     0.005788    -0.002735
    11       H     -0.000049     0.004059     0.005577
    12       H      0.003166     0.003339     0.002441
    13       H     -0.003365    -0.007405    -0.002316
    14       H     -0.003990     0.002060     0.004222
    15       H      0.003441    -0.000458    -0.003147
    16       H      0.002008    -0.000561    -0.001187
    17       H      0.000037    -0.002894     0.003293
    18       H      0.000853     0.000078    -0.001470
    19       H     -0.002297     0.002608     0.000223
    20       H     -0.002151    -0.002135    -0.003294
    21       H     -0.000711     0.005666    -0.000673
    22       H      0.004235    -0.000638    -0.000767
 


          GRADIENT NORM =   0.02370


          TIME FOR SCF CALCULATION =    0.03

          TIME FOR DERIVATIVES     =    0.01

          MOLECULAR WEIGHT =  132.20



          ROTATIONAL CONSTANTS IN CM(-1)

          A =    0.08705506   B =    0.04078729   C =    0.03132888



           PRINCIPAL MOMENTS OF INERTIA IN UNITS OF 10**(-40)*GRAM-CM**2

          A =      321.5525   B =      686.3112   C =      893.5135


          ORIENTATION OF MOLECULE IN FORCE CALCULATION

    NO.       ATOM         X         Y         Z

     1          C      -0.7390   -0.4901    0.3684
     2          C       0.8005   -0.4901    0.3684
     3          C      -1.3054    0.9307    0.3684
     4          C      -0.8121    1.7088    1.5758
     5          C      -1.3115   -1.2369   -0.7948
     6          C       1.3778    0.6109    1.1998
     7          C       1.3936   -0.4615   -1.0048
     8          C       0.6589    1.5909    1.7469
     9          C       0.7278   -0.9279   -2.0683
    10          C      -0.6254   -1.4340   -1.9270
    11          H      -1.0738   -1.0005    1.3053
    12          H       1.1408   -1.4551    0.8263
    13          H      -2.4122    0.8960    0.3620
    14          H      -1.0126    1.4494   -0.5656
    15          H      -1.0941    2.7754    1.4789
    16          H      -1.3038    1.3475    2.5020
    17          H       2.4644    0.5707    1.3431
    18          H       2.4125   -0.0692   -1.0950
    19          H      -2.3435   -1.5872   -0.6856
    20          H       1.1393    2.3571    2.3655
    21          H      -1.0604   -1.9692   -2.7770
    22          H       1.1749   -0.9400   -3.0672


    FIRST DERIVATIVES WILL BE USED IN THE CALCULATION OF SECOND DERIVATIVES

          ESTIMATED TIME TO COMPLETE CALCULATION =       10.31 SECONDS

    FOR POINT-GROUP C1   THERE ARE   1 UNIQUE SYMMETRY FUNCTIONS.

 STEP:   1 TIME =     0.05 SECS, INTEGRAL =      0.05 TIME LEFT: 172799.91
 STEP:   2 TIME =     0.05 SECS, INTEGRAL =      0.11 TIME LEFT: 172799.86
 STEP:   3 TIME =     0.05 SECS, INTEGRAL =      0.16 TIME LEFT: 172799.80
 STEP:   4 TIME =     0.05 SECS, INTEGRAL =      0.21 TIME LEFT: 172799.75
 STEP:   5 TIME =     0.05 SECS, INTEGRAL =      0.26 TIME LEFT: 172799.70
 STEP:   6 TIME =     0.05 SECS, INTEGRAL =      0.31 TIME LEFT: 172799.65
 STEP:   7 TIME =     0.05 SECS, INTEGRAL =      0.36 TIME LEFT: 172799.60
 STEP:   8 TIME =     0.05 SECS, INTEGRAL =      0.41 TIME LEFT: 172799.55
 STEP:   9 TIME =     0.05 SECS, INTEGRAL =      0.46 TIME LEFT: 172799.50
 STEP:  10 TIME =     0.05 SECS, INTEGRAL =      0.51 TIME LEFT: 172799.45
 STEP:  11 TIME =     0.05 SECS, INTEGRAL =      0.56 TIME LEFT: 172799.40
 STEP:  12 TIME =     0.05 SECS, INTEGRAL =      0.61 TIME LEFT: 172799.35
 STEP:  13 TIME =     0.05 SECS, INTEGRAL =      0.66 TIME LEFT: 172799.30
 STEP:  14 TIME =     0.05 SECS, INTEGRAL =      0.71 TIME LEFT: 172799.25
 STEP:  15 TIME =     0.05 SECS, INTEGRAL =      0.77 TIME LEFT: 172799.20
 STEP:  16 TIME =     0.05 SECS, INTEGRAL =      0.82 TIME LEFT: 172799.14
 STEP:  17 TIME =     0.05 SECS, INTEGRAL =      0.87 TIME LEFT: 172799.09
 STEP:  18 TIME =     0.05 SECS, INTEGRAL =      0.92 TIME LEFT: 172799.04
 STEP:  19 TIME =     0.05 SECS, INTEGRAL =      0.97 TIME LEFT: 172798.99
 STEP:  20 TIME =     0.05 SECS, INTEGRAL =      1.02 TIME LEFT: 172798.94
 STEP:  21 TIME =     0.05 SECS, INTEGRAL =      1.07 TIME LEFT: 172798.89
 STEP:  22 TIME =     0.05 SECS, INTEGRAL =      1.12 TIME LEFT: 172798.84
 STEP:  23 TIME =     0.05 SECS, INTEGRAL =      1.17 TIME LEFT: 172798.79
 STEP:  24 TIME =     0.05 SECS, INTEGRAL =      1.23 TIME LEFT: 172798.73
 STEP:  25 TIME =     0.05 SECS, INTEGRAL =      1.28 TIME LEFT: 172798.68
 STEP:  26 TIME =     0.05 SECS, INTEGRAL =      1.33 TIME LEFT: 172798.63
 STEP:  27 TIME =     0.05 SECS, INTEGRAL =      1.39 TIME LEFT: 172798.57
 STEP:  28 TIME =     0.05 SECS, INTEGRAL =      1.44 TIME LEFT: 172798.52
 STEP:  29 TIME =     0.05 SECS, INTEGRAL =      1.49 TIME LEFT: 172798.47
 STEP:  30 TIME =     0.05 SECS, INTEGRAL =      1.54 TIME LEFT: 172798.42
 STEP:  31 TIME =     0.05 SECS, INTEGRAL =      1.60 TIME LEFT: 172798.36
 STEP:  32 TIME =     0.05 SECS, INTEGRAL =      1.65 TIME LEFT: 172798.31
 STEP:  33 TIME =     0.05 SECS, INTEGRAL =      1.70 TIME LEFT: 172798.26
 STEP:  34 TIME =     0.05 SECS, INTEGRAL =      1.75 TIME LEFT: 172798.21
 STEP:  35 TIME =     0.05 SECS, INTEGRAL =      1.81 TIME LEFT: 172798.15
 STEP:  36 TIME =     0.05 SECS, INTEGRAL =      1.86 TIME LEFT: 172798.10
 STEP:  37 TIME =     0.05 SECS, INTEGRAL =      1.91 TIME LEFT: 172798.05
 STEP:  38 TIME =     0.05 SECS, INTEGRAL =      1.96 TIME LEFT: 172798.00
 STEP:  39 TIME =     0.05 SECS, INTEGRAL =      2.01 TIME LEFT: 172797.95
 STEP:  40 TIME =     0.05 SECS, INTEGRAL =      2.07 TIME LEFT: 172797.89
 STEP:  41 TIME =     0.05 SECS, INTEGRAL =      2.12 TIME LEFT: 172797.84
 STEP:  42 TIME =     0.05 SECS, INTEGRAL =      2.17 TIME LEFT: 172797.79
 STEP:  43 TIME =     0.05 SECS, INTEGRAL =      2.22 TIME LEFT: 172797.74
 STEP:  44 TIME =     0.05 SECS, INTEGRAL =      2.27 TIME LEFT: 172797.69
 STEP:  45 TIME =     0.05 SECS, INTEGRAL =      2.33 TIME LEFT: 172797.63
 STEP:  46 TIME =     0.05 SECS, INTEGRAL =      2.38 TIME LEFT: 172797.58
 STEP:  47 TIME =     0.05 SECS, INTEGRAL =      2.43 TIME LEFT: 172797.53
 STEP:  48 TIME =     0.05 SECS, INTEGRAL =      2.48 TIME LEFT: 172797.48
 STEP:  49 TIME =     0.05 SECS, INTEGRAL =      2.53 TIME LEFT: 172797.43
 STEP:  50 TIME =     0.05 SECS, INTEGRAL =      2.58 TIME LEFT: 172797.38
 STEP:  51 TIME =     0.05 SECS, INTEGRAL =      2.64 TIME LEFT: 172797.32
 STEP:  52 TIME =     0.05 SECS, INTEGRAL =      2.69 TIME LEFT: 172797.27
 STEP:  53 TIME =     0.05 SECS, INTEGRAL =      2.74 TIME LEFT: 172797.22
 STEP:  54 TIME =     0.05 SECS, INTEGRAL =      2.80 TIME LEFT: 172797.16
 STEP:  55 TIME =     0.05 SECS, INTEGRAL =      2.85 TIME LEFT: 172797.11
 STEP:  56 TIME =     0.05 SECS, INTEGRAL =      2.90 TIME LEFT: 172797.06
 STEP:  57 TIME =     0.05 SECS, INTEGRAL =      2.95 TIME LEFT: 172797.01
 STEP:  58 TIME =     0.05 SECS, INTEGRAL =      3.00 TIME LEFT: 172796.96
 STEP:  59 TIME =     0.05 SECS, INTEGRAL =      3.05 TIME LEFT: 172796.91
 STEP:  60 TIME =     0.05 SECS, INTEGRAL =      3.11 TIME LEFT: 172796.86
 STEP:  61 TIME =     0.05 SECS, INTEGRAL =      3.16 TIME LEFT: 172796.80
 STEP:  62 TIME =     0.05 SECS, INTEGRAL =      3.21 TIME LEFT: 172796.75
 STEP:  63 TIME =     0.05 SECS, INTEGRAL =      3.26 TIME LEFT: 172796.70
 STEP:  64 TIME =     0.05 SECS, INTEGRAL =      3.31 TIME LEFT: 172796.65
 STEP:  65 TIME =     0.05 SECS, INTEGRAL =      3.36 TIME LEFT: 172796.60
 STEP:  66 TIME =     0.05 SECS, INTEGRAL =      3.41 TIME LEFT: 172796.55

(To convert to Hartree/Bohr^2, multiply by (10^(-21) x N x a0^2)/(4.184 x 627.51) =  0.0642)


           FORCE MATRIX IN MILLIDYNES/ANGSTROM


                  C  1       C  2       C  3       C  4       C  5       C  6
 ------------------------------------------------------------------------------
     C    1  14.596608
     C    2   3.573994  14.899011
     C    3   3.832514   0.602420  14.374084
     C    4   0.664802   0.096496   4.221732  14.787989
     C    5   4.676603   0.624506   0.718408   0.053136  18.027206
     C    6   0.626454   4.686410   0.066035   0.847357   0.050143  18.239159
     C    7   0.615347   4.616816   0.022056   0.014680   0.150178   0.761809
     C    8   0.059141   0.791015   0.713400   5.033647   0.004243  10.737994
     C    9   0.112550   0.845735   0.023178   0.005226   1.123475   0.051045
     C   10   0.814165   0.120797   0.040670   0.007652  10.352476   0.010195
     H   11   4.195925   0.418370   0.432863   0.026531   0.408641   0.013237
     H   12   0.419899   4.093533   0.045495   0.010113   0.012441   0.403351
     H   13   0.444420   0.048486   4.485314   0.433539   0.038870   0.004462
     H   14   0.447219   0.017231   4.478825   0.440088   0.026184   0.006785
     H   15   0.049117   0.008608   0.429418   4.471968   0.009398   0.044736
     H   16   0.015762   0.013531   0.446566   4.404949   0.001469   0.029009
     H   17   0.041508   0.429543   0.004287   0.121947   0.007618   4.790333
     H   18   0.039315   0.436003   0.003744   0.001129   0.011992   0.048991
     H   19   0.428018   0.042729   0.015131   0.001637   4.840606   0.007824
     H   20   0.002208   0.117706   0.042560   0.426811   0.001292   0.442004
     H   21   0.116926   0.003891   0.017826   0.003176   0.443978   0.000641
     H   22   0.006932   0.116628   0.000717   0.000721   0.046780   0.012639


                  C  7       C  8       C  9       C 10       H 11       H 12
 ------------------------------------------------------------------------------
     C    7  18.044501
     C    8   0.038934  18.238552
     C    9  10.319753   0.009225  18.417525
     C   10   1.132301   0.003637   5.654229  18.437864
     H   11   0.043816   0.006369   0.008686   0.043383   4.643706
     H   12   0.384844   0.037831   0.034023   0.017713   0.031981   4.520700
     H   13   0.002157   0.052127   0.001201   0.002284   0.028880   0.007530
     H   14   0.004217   0.012568   0.002632   0.004020   0.044261   0.002239
     H   15   0.001432   0.433796   0.000959   0.001694   0.001987   0.000439
     H   16   0.002514   0.412438   0.001018   0.000963   0.011888   0.001020
     H   17   0.026695   0.443725   0.002565   0.000820   0.000611   0.034866
     H   18   4.833205   0.003756   0.441568   0.124040   0.006760   0.014949
     H   19   0.015817   0.001598   0.123607   0.444260   0.037082   0.004257
     H   20   0.018835   4.824795   0.003380   0.001263   0.000476   0.014508
     H   21   0.047046   0.000622   0.433128   4.863195   0.012000   0.000834
     H   22   0.444206   0.001468   4.865783   0.433579   0.000907   0.015785


                  H 13       H 14       H 15       H 16       H 17       H 18
 ------------------------------------------------------------------------------
     H   13   5.105356
     H   14   0.562572   5.084393
     H   15   0.025937   0.035400   5.067524
     H   16   0.033139   0.043618   0.565769   5.006835
     H   17   0.000943   0.000433   0.013367   0.017084   5.170043
     H   18   0.000781   0.000777   0.000329   0.000424   0.023939   5.216091
     H   19   0.009148   0.002151   0.000450   0.000501   0.001634   0.008347
     H   20   0.006963   0.001583   0.035804   0.016885   0.069195   0.000694
     H   21   0.000527   0.000702   0.000631   0.000247   0.000344   0.007472
     H   22   0.000306   0.000553   0.000204   0.000267   0.000553   0.064821


                  H 19       H 20       H 21       H 22
 ------------------------------------------------------
     H   19   5.216142
     H   20   0.000368   5.197448
     H   21   0.064171   0.000179   5.229709
     H   22   0.007305   0.000913   0.030731   5.234220


          HEAT OF FORMATION =      34.639131 KCALS/MOLE

          ZERO POINT ENERGY     119.116 KCAL/MOL


           NORMAL COORDINATE ANALYSIS (Total motion = 1 Angstrom)


   Root No.       1         2         3         4         5         6         7         8

                 1 A       2 A       3 A       4 A       5 A       6 A       7 A       8 A   

                  93.1     163.2     220.2     276.7     379.4     417.5     472.8     477.7
  
           1    0.0021   -0.0010   -0.0077    0.0260    0.0125   -0.0158    0.0006   -0.0246
           2   -0.0083   -0.0267    0.0049   -0.0036   -0.0245   -0.0308   -0.0039    0.0039
           3    0.0093    0.0164   -0.0061    0.0076    0.0081   -0.0041    0.0024    0.0034
           4    0.0014   -0.0006   -0.0083    0.0247    0.0120   -0.0169    0.0082   -0.0217
           5   -0.0107   -0.0214    0.0086    0.0132    0.0024    0.0081   -0.0134    0.0283
           6    0.0033    0.0204   -0.0134   -0.0134    0.0084    0.0164    0.0079   -0.0012
           7    0.0139   -0.0212   -0.0350    0.0014    0.0201    0.0321   -0.0051   -0.0252
           8   -0.0036   -0.0339   -0.0066   -0.0130   -0.0243   -0.0127   -0.0122   -0.0004
           9   -0.0265    0.0204    0.0363   -0.0010   -0.0056    0.0123   -0.0104   -0.0238
          10    0.0102    0.0065    0.0146   -0.0149   -0.0003    0.0195   -0.0019    0.0195
          11    0.0208    0.0127    0.0278    0.0162   -0.0126    0.0168   -0.0144   -0.0290
          12   -0.0406   -0.0228   -0.0046   -0.0156   -0.0102    0.0069   -0.0174   -0.0209
          13    0.0057    0.0009    0.0017    0.0028   -0.0174   -0.0031   -0.0278   -0.0033
          14   -0.0298    0.0007    0.0109    0.0086    0.0279   -0.0232    0.0388   -0.0246
          15    0.0207   -0.0035   -0.0161    0.0133   -0.0121   -0.0289   -0.0059    0.0131
          16   -0.0004    0.0012   -0.0009   -0.0013    0.0034   -0.0039    0.0183    0.0279
          17   -0.0298   -0.0032   -0.0154    0.0155   -0.0020    0.0349    0.0114    0.0080
          18    0.0296   -0.0047    0.0086    0.0023    0.0259   -0.0157   -0.0386   -0.0173
          19   -0.0147    0.0098   -0.0031    0.0145   -0.0176   -0.0271    0.0123   -0.0047
          20    0.0357   -0.0244    0.0213   -0.0230    0.0378   -0.0029    0.0066    0.0256
          21   -0.0033    0.0244   -0.0107   -0.0179   -0.0030    0.0132    0.0160    0.0127
          22    0.0021    0.0079    0.0094   -0.0241    0.0020    0.0133   -0.0056    0.0186
          23   -0.0149    0.0200   -0.0081   -0.0192    0.0180    0.0160   -0.0319   -0.0192
          24    0.0061   -0.0391    0.0071    0.0369   -0.0111    0.0389    0.0032    0.0106
          25   -0.0197    0.0036    0.0159   -0.0051    0.0008   -0.0065   -0.0048    0.0167
          26    0.0409    0.0279   -0.0196   -0.0202   -0.0316    0.0017    0.0235   -0.0169
          27   -0.0027    0.0062   -0.0045   -0.0085    0.0147   -0.0017    0.0232    0.0205
          28   -0.0024   -0.0054    0.0181   -0.0214   -0.0143   -0.0015    0.0103   -0.0033
          29   -0.0037    0.0476   -0.0240    0.0248    0.0043   -0.0154   -0.0174    0.0324
          30    0.0110   -0.0153   -0.0008   -0.0035   -0.0053   -0.0307    0.0293    0.0028
          31    0.0005   -0.0011    0.0047    0.0463    0.0123   -0.0354   -0.0025   -0.0197
          32    0.0147   -0.0404   -0.0213   -0.0041   -0.0415   -0.0489   -0.0154    0.0248
          33    0.0208    0.0083   -0.0155    0.0142   -0.0024   -0.0222   -0.0054    0.0166
          34    0.0053    0.0012   -0.0119    0.0400    0.0384    0.0081    0.0068   -0.0269
          35   -0.0240   -0.0143   -0.0026    0.0223   -0.0020    0.0319   -0.0016    0.0247
          36   -0.0285    0.0334   -0.0329   -0.0036   -0.0213    0.0471    0.0315   -0.0032
          37    0.0137   -0.0211   -0.0350    0.0017    0.0199    0.0318   -0.0057   -0.0261
          38    0.0062   -0.0556   -0.0361   -0.0354   -0.0171    0.0259   -0.0155    0.0136
          39   -0.0353    0.0663    0.1111    0.0015   -0.0285   -0.0113   -0.0083    0.0061
          40    0.0266   -0.0705   -0.1140   -0.0118    0.0439    0.0714   -0.0098   -0.0458
          41   -0.0284   -0.0493   -0.0044   -0.0207   -0.0367   -0.0299   -0.0203   -0.0094
          42   -0.0365   -0.0039    0.0129   -0.0097   -0.0060    0.0139   -0.0168   -0.0345
          43    0.0455    0.0049    0.0549    0.0305   -0.0324    0.0436    0.0370    0.0320
          44    0.0263    0.0089    0.0344    0.0236   -0.0213    0.0188   -0.0061   -0.0243
          45   -0.0835   -0.0624   -0.0557   -0.0739   -0.0089   -0.0511   -0.0454   -0.0005
          46   -0.0246    0.0245    0.0069   -0.0643    0.0131   -0.0156   -0.0346    0.0152
          47    0.0671    0.0525    0.0939    0.0772   -0.0288    0.0687    0.0202   -0.0442
          48   -0.0410    0.0023    0.0170   -0.0186   -0.0092    0.0071   -0.0219   -0.0285
          49   -0.0062    0.0010   -0.0041   -0.0023   -0.0006    0.0041    0.0279    0.0319
          50   -0.0549   -0.0039   -0.0386    0.0312   -0.0127    0.0501    0.0602    0.0024
          51    0.0655   -0.0024    0.0263    0.0139    0.0520   -0.0694   -0.0976   -0.0511
          52   -0.0265    0.0250   -0.0151    0.0278   -0.0420   -0.0286   -0.0000   -0.0017
          53    0.0647   -0.0593    0.0522   -0.0604    0.0960    0.0032    0.0372    0.0208
          54   -0.0083    0.0407   -0.0107   -0.0271   -0.0250    0.0153    0.0068    0.0218
          55    0.0191    0.0026   -0.0064   -0.0003   -0.0467   -0.0007   -0.0565    0.0096
          56   -0.0639   -0.0067    0.0294    0.0216    0.1067   -0.0332    0.1138   -0.0626
          57    0.0359   -0.0116   -0.0315    0.0264   -0.0347   -0.0376   -0.0369    0.0119
          58   -0.0014    0.0148    0.0171   -0.0421   -0.0066    0.0141   -0.0178   -0.0035
          59   -0.0261    0.0424   -0.0247   -0.0528    0.0410   -0.0037   -0.0453   -0.0354
          60    0.0229   -0.0720    0.0223    0.0933   -0.0333    0.0622    0.0293    0.0472
          61    0.0052   -0.0130    0.0258   -0.0518   -0.0338    0.0129    0.0409   -0.0180
          62   -0.0148    0.0881   -0.0439    0.0610    0.0459   -0.0125   -0.0598    0.0884
          63    0.0142   -0.0369    0.0076   -0.0108   -0.0214   -0.0399    0.0407   -0.0251
          64   -0.0368    0.0104    0.0222   -0.0048    0.0191    0.0138   -0.0383    0.0552
          65    0.0753    0.0464   -0.0364   -0.0556   -0.0742    0.0208    0.0870   -0.0955
          66   -0.0106    0.0089   -0.0014   -0.0082    0.0231    0.0070    0.0077    0.0388


   Root No.       9        10        11        12        13        14        15        16

                 9 A      10 A      11 A      12 A      13 A      14 A      15 A      16 A   

                 486.6     589.6     641.9     724.5     764.0     780.4     817.6     850.6
  
           1    0.0150    0.0176    0.0215   -0.0094   -0.0138    0.0117    0.0156   -0.0151
           2    0.0150    0.0231    0.0109    0.0015   -0.0051   -0.0019    0.0017   -0.0188
           3   -0.0346    0.0249   -0.0413    0.0040    0.0080    0.0028    0.0018    0.0129
           4    0.0196    0.0061    0.0233    0.0026    0.0050    0.0003   -0.0163    0.0263
           5    0.0242   -0.0249   -0.0232    0.0238    0.0146   -0.0040    0.0177   -0.0228
           6    0.0178    0.0430    0.0061    0.0014   -0.0034    0.0015   -0.0119    0.0145
           7   -0.0199   -0.0163    0.0056   -0.0064   -0.0138    0.0115    0.0065   -0.0094
           8   -0.0044    0.0158    0.0163   -0.0051    0.0069   -0.0012    0.0006    0.0209
           9   -0.0146   -0.0070    0.0067    0.0131    0.0099    0.0080   -0.0038   -0.0047
          10    0.0122   -0.0127   -0.0111   -0.0167   -0.0095   -0.0031    0.0012   -0.0032
          11   -0.0207   -0.0011    0.0175   -0.0057    0.0098    0.0145    0.0016    0.0303
          12   -0.0165   -0.0023    0.0194    0.0111    0.0063   -0.0046    0.0023   -0.0042
          13   -0.0083    0.0634   -0.0148   -0.0042    0.0015    0.0046    0.0329   -0.0203
          14   -0.0020    0.0218   -0.0294    0.0053   -0.0191    0.0134   -0.0150   -0.0209
          15   -0.0179    0.0029   -0.0083   -0.0087   -0.0009   -0.0062    0.0079   -0.0059
          16    0.0307    0.0258   -0.0006    0.0380    0.0263   -0.0011   -0.0155    0.0190
          17    0.0140    0.0001   -0.0077   -0.0054    0.0063    0.0042   -0.0107    0.0029
          18    0.0387   -0.0056   -0.0099    0.0143   -0.0057   -0.0288   -0.0078    0.0132
          19   -0.0039   -0.0623    0.0163   -0.0048    0.0114   -0.0130   -0.0084   -0.0019
          20   -0.0200   -0.0067    0.0206    0.0072   -0.0118    0.0108    0.0198    0.0096
          21    0.0109    0.0110    0.0151    0.0002    0.0003    0.0135    0.0107   -0.0132
          22    0.0130   -0.0100   -0.0115   -0.0069   -0.0029   -0.0065   -0.0004   -0.0057
          23    0.0149   -0.0248   -0.0159   -0.0197   -0.0058   -0.0039   -0.0068   -0.0046
          24    0.0141   -0.0068   -0.0102   -0.0191   -0.0219   -0.0257   -0.0018    0.0027
          25   -0.0294   -0.0026   -0.0080   -0.0066    0.0020   -0.0081   -0.0195    0.0005
          26    0.0119   -0.0168   -0.0094    0.0091   -0.0090    0.0083    0.0210    0.0120
          27    0.0094   -0.0246    0.0447    0.0001    0.0053    0.0148    0.0195   -0.0174
          28   -0.0191    0.0016   -0.0221   -0.0029    0.0026   -0.0072    0.0016    0.0081
          29   -0.0234   -0.0066    0.0011    0.0001   -0.0125    0.0035   -0.0345   -0.0028
          30   -0.0184   -0.0319   -0.0167   -0.0070   -0.0034   -0.0111   -0.0077    0.0047
          31    0.0133   -0.0237    0.0229   -0.0045   -0.0075    0.0125    0.0284   -0.0372
          32    0.0053    0.0386    0.0208   -0.0219   -0.0090   -0.0200    0.0116   -0.0084
          33   -0.0392    0.0192   -0.0351   -0.0077    0.0070   -0.0067    0.0126    0.0084
          34    0.0026    0.0015    0.0139   -0.0022   -0.0049    0.0189   -0.0117    0.0699
          35    0.0295   -0.0206   -0.0274    0.0124    0.0226    0.0047   -0.0000   -0.0174
          36    0.0424    0.0528    0.0030   -0.0191    0.0200    0.0080   -0.0486   -0.0094
          37   -0.0205   -0.0159    0.0066   -0.0053   -0.0131    0.0123    0.0071   -0.0105
          38   -0.0432   -0.0130   -0.0212    0.0342    0.0507   -0.0205   -0.0219    0.0335
          39    0.0539   -0.0010    0.0220   -0.0727   -0.0500    0.0120    0.0103    0.0309
          40   -0.0996   -0.0373   -0.0265    0.0866    0.0589    0.0042   -0.0143   -0.0381
          41    0.0173    0.0222    0.0601   -0.0073   -0.0006   -0.0045    0.0076   -0.0022
          42   -0.0261   -0.0092    0.0220    0.0383    0.0273    0.0042   -0.0058   -0.0244
          43   -0.0144    0.0186    0.0250    0.0363   -0.0078   -0.0482    0.0057   -0.0329
          44   -0.0257    0.0081    0.0265    0.0045    0.0117    0.0061    0.0031    0.0305
          45    0.0128    0.0047   -0.0002   -0.0552    0.0162    0.0474    0.0091    0.0962
          46    0.0300   -0.0308   -0.0309   -0.0448    0.0150    0.0477   -0.0024    0.0235
          47   -0.0566    0.0069    0.0551    0.0782    0.0144   -0.0404   -0.0036   -0.0593
          48   -0.0196   -0.0089    0.0224    0.0264    0.0212    0.0030   -0.0018   -0.0222
          49    0.0243    0.0345    0.0076    0.0396    0.0102   -0.0201   -0.0120    0.0275
          50   -0.0075    0.0559    0.0475    0.0135   -0.0530   -0.0742   -0.0195    0.0812
          51    0.0775   -0.0582   -0.0536    0.0063    0.1010    0.0941   -0.0377   -0.0262
          52    0.0070   -0.0954   -0.0108    0.0349   -0.0187    0.0070    0.0669    0.0262
          53   -0.0529    0.0777    0.0836   -0.0933    0.0619   -0.0371   -0.1671   -0.0631
          54   -0.0087   -0.0037   -0.0194    0.0098   -0.0210    0.0281    0.0474   -0.0140
          55   -0.0057    0.0606    0.0012    0.0146   -0.0291    0.0319   -0.0396   -0.0442
          56   -0.0009    0.0328   -0.0619   -0.0456    0.0556   -0.0528    0.1834    0.0276
          57    0.0107    0.0159    0.0337    0.0063   -0.0477    0.0363   -0.0429   -0.0728
          58   -0.0227   -0.0164    0.0152   -0.0139   -0.0255   -0.0231    0.0259   -0.0126
          59    0.0214   -0.0070    0.0050    0.0348   -0.0585   -0.1251   -0.0031   -0.0124
          60    0.0340   -0.0233   -0.0562   -0.0807    0.0617    0.1366   -0.0280    0.0192
          61    0.0036   -0.0498   -0.0108    0.0337   -0.0365    0.0367   -0.0511    0.0213
          62   -0.0534    0.0167    0.0540   -0.0716    0.1006   -0.0842    0.0972    0.0115
          63   -0.0107   -0.0195   -0.0557    0.0192   -0.0550    0.0220   -0.0631   -0.0120
          64   -0.0356    0.0268    0.0031    0.0305   -0.0460    0.0489    0.0250    0.0268
          65    0.0536    0.0214   -0.0130   -0.0702    0.1106   -0.0727   -0.0342   -0.0892
          66    0.0057   -0.0114    0.0495    0.0175   -0.0177    0.0418    0.0408   -0.0053


   Root No.      17        18        19        20        21        22        23        24

                17 A      18 A      19 A      20 A      21 A      22 A      23 A      24 A   

                 883.9     920.0     960.0     972.1     985.8     991.6    1004.9    1022.9
  
           1   -0.0118    0.0051   -0.0074    0.0116    0.0137    0.0116    0.0039   -0.0031
           2   -0.0090   -0.0059   -0.0115   -0.0010   -0.0059   -0.0057   -0.0049   -0.0048
           3    0.0320    0.0031    0.0179   -0.0091    0.0013   -0.0148   -0.0103   -0.0057
           4    0.0044   -0.0203    0.0047   -0.0071    0.0068    0.0060    0.0054   -0.0021
           5    0.0070    0.0364    0.0051    0.0126   -0.0068    0.0046    0.0143   -0.0036
           6   -0.0101   -0.0115   -0.0014   -0.0038   -0.0056    0.0049    0.0018    0.0158
           7   -0.0217    0.0394    0.0093   -0.0140   -0.0249   -0.0224   -0.0007    0.0003
           8    0.0041   -0.0023    0.0136   -0.0083    0.0026   -0.0013    0.0122   -0.0071
           9   -0.0005    0.0030   -0.0107   -0.0013   -0.0143   -0.0023    0.0063   -0.0094
          10    0.0064   -0.0101    0.0033   -0.0054   -0.0060    0.0034    0.0219   -0.0115
          11    0.0131    0.0289   -0.0083    0.0187    0.0054    0.0124   -0.0169    0.0098
          12   -0.0125   -0.0065    0.0087   -0.0006    0.0115   -0.0043   -0.0087    0.0102
          13    0.0235   -0.0135    0.0043    0.0056   -0.0137   -0.0074    0.0049    0.0118
          14    0.0200    0.0007   -0.0060   -0.0198   -0.0102    0.0183   -0.0129   -0.0053
          15   -0.0106   -0.0031   -0.0010    0.0091   -0.0001   -0.0030    0.0089    0.0052
          16   -0.0124    0.0188   -0.0048    0.0009    0.0007   -0.0111   -0.0256    0.0035
          17   -0.0105   -0.0103    0.0123   -0.0092    0.0049   -0.0031   -0.0122   -0.0057
          18    0.0060    0.0088   -0.0222    0.0039   -0.0083   -0.0101    0.0118   -0.0007
          19    0.0315   -0.0150    0.0081    0.0056   -0.0262   -0.0133   -0.0115    0.0090
          20    0.0043   -0.0080   -0.0045   -0.0215    0.0042    0.0020    0.0033    0.0323
          21   -0.0023    0.0096   -0.0008    0.0058    0.0109    0.0023    0.0028   -0.0167
          22    0.0034   -0.0167   -0.0073    0.0081    0.0167    0.0038   -0.0201    0.0114
          23   -0.0028   -0.0282   -0.0141   -0.0039    0.0100   -0.0118   -0.0082    0.0023
          24    0.0113   -0.0062    0.0091    0.0067    0.0112    0.0124   -0.0222   -0.0002
          25   -0.0134    0.0122   -0.0052   -0.0044    0.0148    0.0005    0.0064    0.0055
          26   -0.0106   -0.0151    0.0044    0.0164   -0.0203    0.0054   -0.0119   -0.0214
          27    0.0311   -0.0008    0.0045   -0.0046    0.0021   -0.0061   -0.0009    0.0021
          28   -0.0193    0.0041   -0.0056   -0.0064   -0.0016    0.0136   -0.0030   -0.0073
          29   -0.0091    0.0060    0.0049    0.0161    0.0165   -0.0135    0.0180    0.0158
          30   -0.0314    0.0043   -0.0109   -0.0051   -0.0038    0.0201    0.0001   -0.0026
          31   -0.0006    0.0355   -0.0221    0.0549    0.0788    0.0402    0.0177   -0.0927
          32   -0.0356   -0.0248    0.0125   -0.0167    0.0238   -0.0932   -0.0395   -0.0082
          33    0.0205    0.0043    0.0252   -0.0021    0.0392   -0.0541   -0.0257   -0.0385
          34    0.0256   -0.0230    0.0507   -0.0432    0.0844    0.0616    0.0893   -0.0425
          35   -0.0043    0.0316    0.0438    0.0263   -0.0319    0.0653    0.0706    0.0408
          36   -0.0497   -0.0177    0.0456    0.0540   -0.1124    0.0939    0.0586    0.1379
          37   -0.0224    0.0399    0.0078   -0.0123   -0.0233   -0.0213   -0.0013    0.0013
          38    0.0649   -0.0665    0.0136   -0.0175   -0.0268    0.0217    0.0869   -0.0685
          39   -0.0288    0.0851    0.0625   -0.0621   -0.0778   -0.0609    0.0344   -0.0285
          40    0.0298   -0.0498   -0.0580    0.0332    0.0027    0.0349    0.0164   -0.0189
          41   -0.0613   -0.0237    0.0019   -0.0176    0.0203   -0.0236    0.0256    0.0160
          42   -0.0213   -0.0344   -0.0361    0.0076    0.0039    0.0020    0.0184   -0.0020
          43   -0.0169   -0.0595    0.0760   -0.0382    0.0207    0.0174    0.0803   -0.0280
          44    0.0114    0.0220    0.0122    0.0123    0.0132    0.0198   -0.0015    0.0053
          45    0.0561    0.0755    0.0214    0.0350    0.0213    0.0504   -0.0091    0.0093
          46    0.0322   -0.0049   -0.0681    0.0234   -0.0288    0.0141    0.0760   -0.0288
          47   -0.0570   -0.0612   -0.0018   -0.0154    0.0149   -0.0277    0.0080    0.0112
          48   -0.0248   -0.0356   -0.0267    0.0017    0.0020   -0.0146    0.0287    0.0015
          49    0.0002    0.0268   -0.0282    0.0087   -0.0032   -0.0159   -0.0190    0.0065
          50    0.0367    0.0175   -0.0742   -0.0181   -0.0384   -0.0429    0.0825   -0.0464
          51   -0.0749   -0.0435    0.1308   -0.0510    0.0145    0.0212   -0.0200   -0.0253
          52    0.0257   -0.0143   -0.0083   -0.0461    0.0031   -0.0034   -0.0001    0.0520
          53    0.0115   -0.0047    0.0349    0.1077   -0.0626   -0.0227   -0.0257   -0.0811
          54   -0.0408    0.0313   -0.0163   -0.0154    0.0476    0.0080    0.0044   -0.0215
          55    0.0506    0.0011   -0.0105   -0.0391   -0.0250    0.0289   -0.0190   -0.0024
          56   -0.0487   -0.0384    0.0271    0.1035    0.0212   -0.0727    0.0513    0.0282
          57    0.0234    0.0083   -0.0351   -0.0160   -0.0078    0.0493   -0.0091   -0.0174
          58    0.0265    0.0007    0.0278    0.0437    0.0498    0.0670   -0.0354    0.0520
          59    0.0068    0.0088    0.0580   -0.0087    0.0013    0.0115   -0.0303   -0.0302
          60   -0.0189   -0.0673   -0.1080   -0.0156   -0.0027   -0.0664    0.0162    0.0076
          61    0.0020    0.0162    0.0295    0.0376    0.0588   -0.0467    0.0190   -0.0145
          62   -0.0575    0.0039   -0.0517   -0.0802   -0.0564    0.0944   -0.0538   -0.0521
          63   -0.0126   -0.0004    0.0061    0.0333    0.0113   -0.0158    0.0347    0.0438
          64   -0.0400   -0.0141    0.0103    0.0423    0.0176    0.0057   -0.0068   -0.0934
          65    0.0556    0.1093   -0.0253   -0.0760    0.1173   -0.0164    0.0520    0.0385
          66    0.0185   -0.0137    0.0117    0.0173    0.0022   -0.0034   -0.0075   -0.0437


   Root No.      25        26        27        28        29        30        31        32

                25 A      26 A      27 A      28 A      29 A      30 A      31 A      32 A   

                1040.0    1050.4    1068.6    1089.8    1102.8    1116.5    1139.1    1149.9
  
           1   -0.0005    0.0008    0.0067    0.0088    0.0043    0.0045    0.0082    0.0006
           2   -0.0040    0.0145   -0.0021    0.0131   -0.0062   -0.0117   -0.0219   -0.0052
           3    0.0215    0.0084    0.0045   -0.0019    0.0034    0.0145    0.0102    0.0089
           4    0.0004    0.0064   -0.0039    0.0056   -0.0073   -0.0114   -0.0109    0.0005
           5    0.0164   -0.0069   -0.0072   -0.0039    0.0021   -0.0065   -0.0054    0.0018
           6   -0.0009    0.0021    0.0031    0.0029    0.0012   -0.0029    0.0016    0.0017
           7    0.0029   -0.0019   -0.0038   -0.0012   -0.0041   -0.0012   -0.0007    0.0003
           8   -0.0001   -0.0111    0.0006   -0.0025   -0.0128    0.0160    0.0241    0.0037
           9   -0.0161    0.0090    0.0039    0.0130   -0.0147    0.0246   -0.0290   -0.0086
          10   -0.0052    0.0093    0.0009    0.0014    0.0174    0.0050   -0.0081   -0.0004
          11   -0.0070    0.0047   -0.0029   -0.0040    0.0078   -0.0028   -0.0028   -0.0003
          12    0.0168   -0.0139    0.0048   -0.0037    0.0063   -0.0334    0.0156    0.0035
          13   -0.0140   -0.0152   -0.0157    0.0016    0.0027   -0.0026    0.0010   -0.0066
          14    0.0093   -0.0033   -0.0030   -0.0032    0.0046   -0.0013    0.0042    0.0006
          15   -0.0122   -0.0066   -0.0018   -0.0034   -0.0039   -0.0016   -0.0046    0.0080
          16   -0.0113   -0.0045    0.0014   -0.0054   -0.0036    0.0024    0.0091   -0.0007
          17   -0.0182    0.0038    0.0011   -0.0006    0.0119   -0.0015    0.0021    0.0012
          18    0.0147   -0.0103    0.0053   -0.0010    0.0017   -0.0010    0.0006    0.0002
          19    0.0032   -0.0003    0.0117   -0.0158    0.0020    0.0060    0.0034   -0.0024
          20   -0.0083    0.0137    0.0141    0.0025   -0.0006    0.0035    0.0036   -0.0023
          21   -0.0017   -0.0060   -0.0053   -0.0036   -0.0006   -0.0041   -0.0005   -0.0094
          22    0.0086   -0.0098    0.0002   -0.0005   -0.0154    0.0042   -0.0008   -0.0026
          23    0.0099   -0.0197    0.0088    0.0053   -0.0050    0.0014    0.0003    0.0006
          24   -0.0195    0.0186   -0.0101   -0.0029   -0.0034    0.0058    0.0039    0.0013
          25   -0.0045    0.0078    0.0189   -0.0136   -0.0054   -0.0001   -0.0008    0.0023
          26    0.0077   -0.0042    0.0019   -0.0089   -0.0008   -0.0003   -0.0003   -0.0014
          27   -0.0016   -0.0051   -0.0168    0.0110    0.0022    0.0003    0.0000   -0.0023
          28    0.0059   -0.0045   -0.0162    0.0166    0.0038   -0.0025    0.0017   -0.0003
          29   -0.0122   -0.0064   -0.0142    0.0129    0.0020   -0.0029   -0.0009   -0.0021
          30   -0.0028   -0.0110   -0.0137    0.0065    0.0027   -0.0046   -0.0021    0.0012
          31    0.0265    0.0322    0.0788    0.0927   -0.0076    0.0427    0.1276   -0.0883
          32    0.0919    0.1483    0.0101    0.0114    0.0016   -0.0308   -0.0936   -0.0562
          33    0.0838    0.0939    0.0379    0.0265    0.0046    0.0191    0.0125   -0.0491
          34    0.0749   -0.0275   -0.0900   -0.0908   -0.1031    0.0110   -0.0421   -0.0388
          35    0.0753    0.0219   -0.0070   -0.0215   -0.0475    0.0200   -0.0086   -0.0124
          36    0.0685    0.0875    0.0681    0.0392   -0.0339    0.0385    0.0215   -0.0003
          37    0.0045   -0.0014   -0.0048   -0.0025    0.0015    0.0020   -0.0011    0.0008
          38   -0.0773   -0.0018    0.0467    0.0582   -0.1304   -0.0697    0.0513   -0.0227
          39   -0.0228   -0.0176    0.0180    0.0243   -0.0861   -0.0443    0.0312   -0.0101
          40   -0.0359    0.0360    0.0086    0.0274    0.0032    0.0179   -0.0540   -0.0177
          41    0.0319   -0.0103   -0.0610   -0.0693    0.0220    0.2111    0.0197    0.0115
          42   -0.0093    0.0204   -0.0258   -0.0153    0.0077    0.1397   -0.0490   -0.0100
          43    0.0378   -0.0885    0.0835    0.0279    0.1678    0.0156   -0.0401    0.0203
          44    0.0025   -0.0246    0.0227    0.0042    0.0548    0.0055   -0.0143    0.0057
          45   -0.0025   -0.0419    0.0502    0.0144    0.1102    0.0110   -0.0413    0.0075
          46   -0.0271    0.1470   -0.0810   -0.0631    0.0944   -0.0476    0.0830    0.0362
          47    0.0344    0.0057   -0.0239   -0.0325    0.0047   -0.0573    0.0770    0.0186
          48    0.0203    0.0597   -0.0462   -0.0482    0.0440   -0.0828    0.0946    0.0296
          49    0.0016   -0.0118    0.0023   -0.0058   -0.0119    0.0058    0.0120   -0.0003
          50    0.0053    0.0083    0.0192   -0.0148    0.0920   -0.0643   -0.0574   -0.0302
          51   -0.0691    0.0424    0.0011   -0.0065    0.0689   -0.0434   -0.0345   -0.0152
          52   -0.0105    0.0194    0.0266   -0.0089   -0.0004    0.0083    0.0061   -0.0043
          53    0.0197   -0.0312    0.0001   -0.0447    0.0058    0.0036    0.0067   -0.0270
          54   -0.0350    0.0147    0.0814   -0.1007    0.0098    0.0191    0.0446   -0.1267
          55    0.0063   -0.0141   -0.0167    0.0031    0.0090   -0.0008    0.0080   -0.0110
          56   -0.0514   -0.0010    0.0275   -0.0233   -0.0216   -0.0070   -0.0098    0.0585
          57   -0.0218    0.0095    0.1016   -0.0765   -0.0342   -0.0041    0.0101    0.1670
          58    0.0461   -0.0040   -0.0179   -0.0083   -0.0248   -0.1149   -0.0632   -0.0308
          59   -0.0680    0.0394   -0.0089   -0.0001    0.0089    0.0735    0.0335    0.0170
          60    0.0469   -0.0598    0.0268    0.0098   -0.0102    0.0094    0.0125    0.0036
          61    0.0327    0.0300   -0.0458    0.1247    0.0031    0.0292    0.0220    0.1409
          62    0.0334   -0.0021   -0.0161    0.0234    0.0035   -0.0009    0.0009    0.0274
          63   -0.0462   -0.0327    0.0015   -0.0554    0.0019   -0.0230   -0.0144   -0.0889
          64    0.0170    0.0235    0.0532   -0.0660   -0.0629   -0.0216   -0.0836    0.1025
          65   -0.0204    0.0262    0.0251   -0.0175   -0.0312   -0.0116   -0.0419    0.0507
          66    0.0079    0.0007   -0.0028   -0.0125   -0.0231   -0.0095   -0.0368    0.0407


   Root No.      33        34        35        36        37        38        39        40

                33 A      34 A      35 A      36 A      37 A      38 A      39 A      40 A   

                1155.2    1170.5    1200.1    1228.0    1234.6    1302.6    1341.6    1354.0
  
           1   -0.0044   -0.0048   -0.0021   -0.0085    0.0280    0.0422    0.0150   -0.0433
           2   -0.0079   -0.0038    0.0233   -0.0339   -0.0229   -0.0153    0.0136    0.0280
           3    0.0037    0.0159    0.0085   -0.0219   -0.0004    0.0175   -0.0017    0.0163
           4    0.0106    0.0050    0.0019   -0.0135    0.0148    0.0116   -0.0276    0.0691
           5   -0.0016    0.0035   -0.0121   -0.0138    0.0071    0.0255    0.0101    0.0169
           6   -0.0054   -0.0017   -0.0218   -0.0349   -0.0150    0.0030    0.0391   -0.0122
           7    0.0018    0.0012    0.0003   -0.0057   -0.0064   -0.0129   -0.0021    0.0072
           8    0.0064    0.0108    0.0079   -0.0109   -0.0095    0.0249   -0.0357   -0.0356
           9   -0.0081   -0.0034    0.0013   -0.0099   -0.0053    0.0085   -0.0190   -0.0200
          10   -0.0003    0.0012    0.0035    0.0028   -0.0080    0.0213    0.0148    0.0145
          11   -0.0008   -0.0084   -0.0003    0.0137    0.0004    0.0013    0.0085    0.0047
          12    0.0019   -0.0065    0.0083    0.0119   -0.0047    0.0121    0.0065    0.0039
          13   -0.0008   -0.0019    0.0030    0.0175    0.0010   -0.0188   -0.0023   -0.0022
          14    0.0024   -0.0001   -0.0009    0.0129    0.0100   -0.0088    0.0065   -0.0077
          15    0.0021    0.0025    0.0115   -0.0023    0.0067   -0.0123    0.0145   -0.0088
          16   -0.0016   -0.0038    0.0006    0.0119    0.0007   -0.0181   -0.0062   -0.0195
          17    0.0001    0.0013   -0.0098   -0.0110    0.0039   -0.0162   -0.0093   -0.0130
          18   -0.0001   -0.0001   -0.0007    0.0005    0.0062   -0.0133   -0.0125   -0.0087
          19   -0.0032   -0.0004   -0.0007   -0.0114   -0.0051   -0.0075    0.0176   -0.0191
          20    0.0031    0.0006    0.0013   -0.0018   -0.0029   -0.0025    0.0036   -0.0035
          21   -0.0011   -0.0032   -0.0100    0.0021   -0.0075    0.0156   -0.0064    0.0143
          22   -0.0009    0.0035    0.0114    0.0177   -0.0055    0.0109    0.0100    0.0048
          23    0.0020   -0.0014    0.0023    0.0014    0.0047   -0.0091   -0.0094   -0.0015
          24    0.0019    0.0000    0.0011    0.0014    0.0017   -0.0054   -0.0039   -0.0016
          25   -0.0014   -0.0009   -0.0094   -0.0117   -0.0117    0.0131    0.0084    0.0032
          26    0.0004   -0.0015   -0.0052   -0.0014   -0.0046    0.0060    0.0008    0.0015
          27    0.0039   -0.0027    0.0022    0.0167   -0.0000   -0.0021   -0.0144    0.0030
          28   -0.0002   -0.0035   -0.0107    0.0154   -0.0055    0.0046   -0.0224    0.0104
          29    0.0001   -0.0026   -0.0018    0.0087   -0.0004   -0.0012   -0.0094    0.0028
          30    0.0042   -0.0020    0.0023    0.0076    0.0091   -0.0045    0.0013   -0.0066
          31    0.0653    0.0462   -0.0150    0.0059   -0.1137   -0.1038    0.0204    0.0151
          32   -0.0409   -0.0899   -0.0709    0.0802    0.0550    0.0202   -0.0147   -0.0516
          33    0.0098   -0.0123   -0.0487    0.0460   -0.0086   -0.0156   -0.0148   -0.0064
          34   -0.0898   -0.0887    0.0247    0.0066   -0.0782   -0.0686    0.0421   -0.0594
          35   -0.0182   -0.0243    0.0350    0.0385   -0.0119   -0.0136   -0.0034   -0.0172
          36    0.0353    0.0077    0.0597    0.0598    0.0151   -0.0179   -0.0422    0.0124
          37    0.0026    0.0008    0.0026   -0.0086   -0.0103   -0.0139   -0.0064    0.0046
          38   -0.0102   -0.0013   -0.0741    0.0519    0.1083   -0.0024    0.0862    0.0161
          39   -0.0001    0.0012   -0.0393    0.0066    0.0361   -0.0710    0.0193    0.0228
          40   -0.0165   -0.0207   -0.0017   -0.0162   -0.0064   -0.0331   -0.0106   -0.0092
          41    0.0365    0.1030   -0.0729    0.0356    0.0496   -0.0375    0.0571    0.0675
          42    0.0028    0.0401   -0.0450    0.0131    0.0278   -0.0352    0.0285    0.0320
          43    0.0029   -0.0697   -0.0187   -0.0498    0.0252   -0.0707   -0.0659   -0.0452
          44    0.0001   -0.0333   -0.0087    0.0044    0.0131   -0.0286    0.0011    0.0030
          45   -0.0035   -0.0717   -0.0170    0.0276    0.0288   -0.0553    0.0826    0.0869
          46    0.0201   -0.0294   -0.0126   -0.0531    0.0152   -0.0468   -0.0550   -0.0453
          47    0.0155   -0.0083    0.0051    0.0218    0.0106   -0.0092    0.0723    0.0733
          48    0.0187   -0.0240    0.0016   -0.0117    0.0122   -0.0279    0.0020    0.0063
          49   -0.0013   -0.0120   -0.0005    0.0059    0.0067   -0.0227   -0.0126   -0.0162
          50   -0.0193    0.1527    0.0521    0.1293   -0.0520    0.0388    0.0433   -0.0400
          51   -0.0112    0.0978    0.0246    0.0808   -0.0473    0.0208    0.0386   -0.0385
          52   -0.0001    0.0012    0.0049   -0.0117   -0.0028   -0.0111    0.0160   -0.0164
          53   -0.0373    0.0039    0.0180   -0.0125    0.0232   -0.0056    0.0024    0.0028
          54   -0.1361    0.0289    0.1106   -0.0253    0.1204   -0.0326   -0.0396    0.0626
          55    0.0049   -0.0012    0.0009    0.0222    0.0114   -0.0160    0.0010   -0.0086
          56   -0.0519   -0.0019   -0.0239    0.0281   -0.0407   -0.0169   -0.0304    0.0279
          57   -0.1202    0.0062   -0.0863    0.0779   -0.0691   -0.0016   -0.0763    0.0597
          58   -0.0227    0.1756   -0.0767   -0.0710    0.0338   -0.0773   -0.0541   -0.0553
          59    0.0143   -0.0903    0.0452    0.0459   -0.0142    0.0329    0.0202    0.0287
          60    0.0042   -0.0256    0.0186    0.0188   -0.0055    0.0101    0.0088    0.0077
          61   -0.1288    0.0449    0.0615   -0.0029    0.0484   -0.0453    0.0381   -0.0229
          62   -0.0213    0.0054    0.0096    0.0044    0.0089   -0.0108    0.0021   -0.0012
          63    0.0847   -0.0325   -0.0425    0.0227   -0.0239    0.0263   -0.0389    0.0128
          64    0.1691    0.0069    0.0563    0.0004    0.0417   -0.0439    0.0256   -0.0419
          65    0.0832    0.0024    0.0289    0.0038    0.0206   -0.0217    0.0102   -0.0212
          66    0.0802    0.0004    0.0321    0.0243    0.0246   -0.0279   -0.0094   -0.0162


   Root No.      41        42        43        44        45        46        47        48

                41 A      42 A      43 A      44 A      45 A      46 A      47 A      48 A   

                1373.4    1393.2    1406.8    1439.4    1443.8    1847.2    1860.2    1885.6
  
           1   -0.0255   -0.0088   -0.0014    0.0142    0.0316   -0.0011   -0.0039   -0.0004
           2   -0.0180   -0.0266   -0.0038    0.0127    0.0331   -0.0059   -0.0101    0.0043
           3   -0.0225   -0.0179   -0.0006    0.0139    0.0357   -0.0121   -0.0208    0.0025
           4    0.0122    0.0071    0.0094   -0.0164   -0.0300    0.0004   -0.0017   -0.0046
           5    0.0093    0.0099    0.0114   -0.0320   -0.0075   -0.0055    0.0060   -0.0258
           6    0.0240    0.0192    0.0097   -0.0486    0.0182   -0.0201    0.0217   -0.0171
           7    0.0024   -0.0156   -0.0205   -0.0178   -0.0084    0.0003    0.0001    0.0031
           8   -0.0064    0.0343   -0.0045   -0.0119   -0.0160   -0.0021   -0.0013   -0.0028
           9    0.0030   -0.0002   -0.0351   -0.0217   -0.0163   -0.0009   -0.0001   -0.0008
          10    0.0365    0.0269   -0.0132    0.0585    0.0195   -0.0033    0.0014   -0.0318
          11    0.0194   -0.0154    0.0232    0.0076    0.0056    0.0016    0.0002    0.0097
          12    0.0306   -0.0119    0.0276    0.0235    0.0120    0.0004    0.0003    0.0006
          13    0.0135    0.0083    0.0001   -0.0048   -0.0173   -0.0526   -0.0545    0.0028
          14    0.0107    0.0065    0.0038    0.0012   -0.0285    0.0265    0.0332   -0.0012
          15    0.0076    0.0020    0.0037    0.0084   -0.0478    0.1095    0.1289   -0.0038
          16   -0.0037   -0.0061   -0.0053    0.0179    0.0038   -0.0073    0.0038   -0.0939
          17    0.0085    0.0057   -0.0132    0.0304    0.0070    0.0171   -0.0087    0.1781
          18    0.0033    0.0011   -0.0102    0.0271    0.0047    0.0077   -0.0037    0.1077
          19    0.0063    0.0047    0.0001   -0.0087    0.0111    0.0596   -0.0439   -0.0108
          20   -0.0003   -0.0010   -0.0000    0.0021   -0.0050    0.0469   -0.0377   -0.0096
          21   -0.0145   -0.0125    0.0027    0.0234   -0.0472    0.1270   -0.1077   -0.0244
          22   -0.0225   -0.0082    0.0147   -0.0489   -0.0132    0.0145   -0.0067    0.1503
          23   -0.0094   -0.0050   -0.0029    0.0029   -0.0020   -0.0143    0.0065   -0.1516
          24   -0.0113   -0.0042   -0.0005   -0.0081   -0.0037   -0.0072    0.0033   -0.0780
          25   -0.0140   -0.0135    0.0040    0.0264   -0.0554   -0.1139    0.0551    0.0170
          26   -0.0066   -0.0058    0.0010    0.0108   -0.0181   -0.0627    0.0403    0.0102
          27   -0.0053   -0.0028   -0.0041    0.0036    0.0185   -0.0963    0.0909    0.0189
          28   -0.0029    0.0022   -0.0060   -0.0142    0.0605    0.1040    0.0745   -0.0061
          29    0.0019    0.0033   -0.0025   -0.0087    0.0253    0.0022   -0.0161   -0.0012
          30    0.0084    0.0072    0.0008   -0.0075    0.0002   -0.0944   -0.1137    0.0025
          31    0.0510    0.0163   -0.0039   -0.0316   -0.0134   -0.0190   -0.0032    0.0016
          32    0.0251    0.0330   -0.0015   -0.0246   -0.0361   -0.0107   -0.0075   -0.0031
          33    0.0284    0.0230   -0.0000   -0.0228   -0.0172   -0.0193   -0.0170   -0.0004
          34   -0.0106   -0.0193   -0.0112    0.0214    0.0288    0.0068   -0.0044   -0.0150
          35   -0.0208   -0.0181   -0.0055    0.0222    0.0042    0.0013   -0.0034   -0.0192
          36   -0.0234   -0.0205   -0.0102    0.0387   -0.0027    0.0007   -0.0042   -0.0096
          37   -0.0043   -0.0006   -0.0056   -0.0129   -0.0074   -0.0003   -0.0003    0.0022
          38    0.0088   -0.1283   -0.0646   -0.0172    0.0285   -0.0005   -0.0036    0.0098
          39   -0.1119    0.0823    0.1951    0.0364    0.0341    0.0005   -0.0022    0.0114
          40   -0.0912    0.1351    0.1854    0.0626    0.0288    0.0002    0.0003   -0.0016
          41    0.0113   -0.0588    0.0154    0.0168    0.0280   -0.0004   -0.0020    0.0010
          42   -0.0243    0.0076    0.0586    0.0249    0.0222   -0.0001   -0.0006   -0.0002
          43   -0.0192   -0.0941    0.0597   -0.0642   -0.0201   -0.0036    0.0019   -0.0369
          44   -0.0148   -0.0262    0.0149   -0.0258   -0.0078    0.0013    0.0008    0.0044
          45   -0.1131    0.0951   -0.1444   -0.0146   -0.0160   -0.0002    0.0010   -0.0056
          46   -0.0198   -0.0650    0.0354   -0.0572   -0.0181   -0.0009    0.0005   -0.0114
          47   -0.0999    0.1259   -0.1477    0.0083   -0.0091   -0.0005    0.0002   -0.0055
          48   -0.0532    0.0080   -0.0288   -0.0343   -0.0138    0.0001   -0.0000   -0.0007
          49   -0.0013   -0.0057   -0.0073    0.0238    0.0035   -0.0091    0.0048   -0.1196
          50   -0.0513   -0.0187    0.0184   -0.0583   -0.0084   -0.0027    0.0028   -0.0348
          51   -0.0322   -0.0129    0.0130   -0.0391   -0.0019   -0.0047    0.0036   -0.0474
          52    0.0083    0.0055   -0.0001   -0.0098    0.0114    0.0789   -0.0599   -0.0164
          53    0.0134    0.0108    0.0017   -0.0190    0.0193    0.0256   -0.0173   -0.0075
          54    0.0538    0.0400    0.0024   -0.0661    0.0745   -0.0323    0.0447    0.0007
          55    0.0154    0.0104    0.0018   -0.0044   -0.0222   -0.0653   -0.0702    0.0032
          56    0.0067    0.0045   -0.0055   -0.0128    0.0270   -0.0335   -0.0438    0.0018
          57    0.0041    0.0088   -0.0091   -0.0260    0.0789   -0.0063   -0.0288    0.0001
          58   -0.0237    0.0084   -0.0464    0.0388    0.0026   -0.0097    0.0042   -0.0976
          59   -0.0132   -0.0149    0.0267   -0.0419   -0.0121   -0.0056    0.0025   -0.0646
          60   -0.0085   -0.0076    0.0122   -0.0222   -0.0044   -0.0047    0.0025   -0.0588
          61    0.0352    0.0185    0.0096   -0.0045   -0.0686   -0.0180   -0.0837   -0.0042
          62    0.0088    0.0057    0.0001   -0.0079    0.0033   -0.0255   -0.0516   -0.0006
          63   -0.0141   -0.0011   -0.0093   -0.0154    0.0849   -0.0396   -0.0380    0.0022
          64    0.0343    0.0267   -0.0018   -0.0361    0.0487    0.0330   -0.0799   -0.0095
          65    0.0173    0.0144   -0.0019   -0.0220    0.0359    0.0048   -0.0235   -0.0023
          66    0.0160    0.0151   -0.0074   -0.0244    0.0691   -0.0563    0.0508    0.0122


   Root No.      49        50        51        52        53        54        55        56

                49 A      50 A      51 A      52 A      53 A      54 A      55 A      56 A   

                2830.2    2866.0    2945.9    2965.7    3026.5    3039.4    3041.4    3052.3
  
           1    0.0034    0.0183   -0.0003   -0.0007   -0.0001    0.0003   -0.0002   -0.0000
           2    0.0035    0.0278   -0.0006   -0.0009    0.0003   -0.0000    0.0006   -0.0002
           3   -0.0070   -0.0521    0.0005    0.0018    0.0002    0.0001   -0.0002    0.0000
           4    0.0202   -0.0014    0.0001    0.0003    0.0000   -0.0004    0.0001   -0.0000
           5   -0.0564    0.0064   -0.0002   -0.0004   -0.0001    0.0003   -0.0000    0.0000
           6    0.0262   -0.0032    0.0001    0.0001   -0.0000   -0.0003   -0.0001    0.0002
           7   -0.0005   -0.0030   -0.0096   -0.0364   -0.0032    0.0047   -0.0198    0.0002
           8    0.0003   -0.0006   -0.0044   -0.0149    0.0026   -0.0026    0.0102   -0.0001
           9    0.0000    0.0019    0.0075    0.0250   -0.0058    0.0051   -0.0202    0.0002
          10    0.0001    0.0002    0.0077   -0.0014    0.0183   -0.0007   -0.0036    0.0001
          11    0.0000    0.0003    0.0361   -0.0105   -0.0213    0.0012    0.0050   -0.0001
          12   -0.0000   -0.0003   -0.0296    0.0073   -0.0174    0.0009    0.0024   -0.0000
          13   -0.0002   -0.0015    0.0000    0.0000   -0.0001    0.0001   -0.0006   -0.0167
          14   -0.0002   -0.0006    0.0000    0.0000    0.0000   -0.0000    0.0000   -0.0056
          15    0.0001   -0.0001    0.0000    0.0000    0.0000   -0.0000    0.0002    0.0019
          16   -0.0013    0.0002    0.0000   -0.0001   -0.0011   -0.0365   -0.0084    0.0001
          17   -0.0006    0.0001    0.0002   -0.0000    0.0000    0.0021    0.0006    0.0001
          18   -0.0006   -0.0000   -0.0000    0.0000   -0.0002   -0.0043   -0.0009    0.0002
          19   -0.0003   -0.0003   -0.0000    0.0000   -0.0000   -0.0006   -0.0002   -0.0212
          20    0.0001    0.0001   -0.0000   -0.0000   -0.0000   -0.0003   -0.0001   -0.0082
          21    0.0014    0.0001    0.0000   -0.0000    0.0000   -0.0001   -0.0000    0.0014
          22   -0.0002    0.0001    0.0000    0.0002    0.0030    0.0108    0.0014   -0.0002
          23    0.0003   -0.0000   -0.0007    0.0001    0.0044    0.0153    0.0014   -0.0004
          24    0.0004   -0.0000   -0.0005    0.0003    0.0036    0.0125    0.0013   -0.0003
          25   -0.0004    0.0001   -0.0000    0.0000    0.0000    0.0001    0.0000    0.0080
          26   -0.0005    0.0000   -0.0000   -0.0000    0.0000    0.0000    0.0000   -0.0000
          27   -0.0004    0.0000   -0.0000    0.0000   -0.0000   -0.0001   -0.0001   -0.0166
          28    0.0001   -0.0002    0.0000    0.0000   -0.0000   -0.0000    0.0001    0.0071
          29    0.0002    0.0003   -0.0000   -0.0000   -0.0000   -0.0000    0.0001    0.0084
          30   -0.0000    0.0003   -0.0000   -0.0000   -0.0000   -0.0000    0.0002    0.0133
          31   -0.0249   -0.2222    0.0024    0.0053    0.0004    0.0002   -0.0009    0.0003
          32   -0.0462   -0.3440    0.0044    0.0142    0.0001    0.0002   -0.0012    0.0008
          33    0.0831    0.6237   -0.0083   -0.0200   -0.0013   -0.0002    0.0012   -0.0035
          34   -0.2409    0.0322   -0.0005   -0.0007   -0.0001    0.0002    0.0002   -0.0005
          35    0.6846   -0.0789    0.0011    0.0024    0.0000   -0.0070   -0.0013   -0.0001
          36   -0.3248    0.0371   -0.0006   -0.0011   -0.0001    0.0015    0.0002    0.0001
          37   -0.0013    0.0233    0.0848    0.3451    0.0626   -0.0846    0.3453   -0.0037
          38    0.0009    0.0036    0.0015    0.0069    0.0023   -0.0050    0.0206   -0.0005
          39   -0.0002   -0.0005    0.0012    0.0072   -0.0063    0.0043   -0.0167    0.0001
          40    0.0002    0.0095    0.0304    0.0912   -0.0265    0.0265   -0.1048    0.0010
          41    0.0001    0.0106    0.0558    0.1708   -0.0396    0.0375   -0.1475    0.0015
          42   -0.0009   -0.0267   -0.0927   -0.3082    0.0694   -0.0667    0.2633   -0.0025
          43   -0.0002   -0.0001    0.0839   -0.0266   -0.0865    0.0070    0.0185   -0.0003
          44    0.0006    0.0010   -0.3026    0.0970    0.3815   -0.0208   -0.0855    0.0014
          45   -0.0001   -0.0001    0.0202   -0.0064   -0.0544    0.0040    0.0092   -0.0002
          46    0.0002   -0.0025   -0.1798    0.0407   -0.1325    0.0071    0.0215   -0.0004
          47    0.0001   -0.0008   -0.1300    0.0273   -0.1265    0.0065    0.0221   -0.0004
          48   -0.0000    0.0047    0.3380   -0.0823    0.2662   -0.0126   -0.0441    0.0007
          49    0.0132   -0.0014    0.0001    0.0009    0.0112    0.4287    0.0978   -0.0020
          50   -0.0045    0.0005    0.0002   -0.0001    0.0002   -0.0121   -0.0030    0.0002
          51    0.0007   -0.0002   -0.0005    0.0002    0.0018    0.0595    0.0134    0.0002
          52    0.0018   -0.0027    0.0001    0.0004    0.0001    0.0059    0.0016    0.2493
          53   -0.0017   -0.0005    0.0001    0.0001    0.0000    0.0020    0.0005    0.0953
          54    0.0006    0.0005    0.0000   -0.0000   -0.0001   -0.0017   -0.0004   -0.0255
          55    0.0017    0.0151   -0.0003   -0.0009    0.0003   -0.0005    0.0061    0.1961
          56    0.0002    0.0043    0.0000    0.0001    0.0002   -0.0002    0.0025    0.0677
          57   -0.0007   -0.0058    0.0002    0.0005    0.0000    0.0000   -0.0005   -0.0187
[...]
 EFF. MASS   7.2168

 VIBRATION   40   40A         ATOM PAIR      ENERGY CONTRIBUTION    RADIAL
 FREQ.      1353.99         C  1 -- C  2         +18.2% ( 64.6%)     93.1%
 T-DIPOLE    0.1064         C  2 -- C  7         +12.4% ( 53.3%)     40.0%
 TRAVEL      0.0748         C  2 -- C  6         +12.3% ( 53.2%)     33.6%
 RED. MASS   1.9052         C  2 -- H 12         +11.0% ( 50.2%)      0.0%
 EFF. MASS   8.9032         C  1 -- C  3         +10.1% ( 48.1%)     76.4%

 VIBRATION   41   41A         ATOM PAIR      ENERGY CONTRIBUTION    RADIAL
 FREQ.      1373.37         C  4 -- C  8         +12.7% ( 49.1%)     61.3%
 T-DIPOLE    0.0581         C  4 -- H 15         +12.2% ( 48.2%)      0.7%
 TRAVEL      0.0851         C  4 -- H 16         +12.0% ( 47.8%)      0.3%
 RED. MASS   0.8933         C  1 -- C  2          +7.9% ( 38.7%)     32.8%
 EFF. MASS   6.7756

 VIBRATION   42   42A         ATOM PAIR      ENERGY CONTRIBUTION    RADIAL
 FREQ.      1393.16         C  3 -- H 13         +12.3% ( 43.5%)      3.0%
 T-DIPOLE    0.0902         C  3 -- H 14         +11.7% ( 42.4%)      2.4%
 TRAVEL      0.0984         C  4 -- H 16         +10.2% ( 39.6%)      4.6%
 RED. MASS   0.4486         C  1 -- C  3         +10.0% ( 39.2%)     85.8%
 EFF. MASS   4.9980

 VIBRATION   43   43A         ATOM PAIR      ENERGY CONTRIBUTION    RADIAL
 FREQ.      1406.85         C  3 -- H 13         +18.9% ( 48.7%)      4.0%
 T-DIPOLE    0.0538         C  3 -- H 14         +17.4% ( 46.7%)      4.9%
 TRAVEL      0.1133         C  3 -- C  4         +13.1% ( 40.5%)     92.8%
 RED. MASS   0.4034         C  4 -- H 16         +12.4% ( 39.5%)      5.8%
 EFF. MASS   3.7355         C  4 -- H 15         +12.4% ( 39.4%)      6.5%

 VIBRATION   44   44A         ATOM PAIR      ENERGY CONTRIBUTION    RADIAL
 FREQ.      1439.43         C  4 -- C  8         +13.9% ( 57.6%)     95.7%
 T-DIPOLE    0.0679         C  2 -- C  6         +11.9% ( 53.4%)     94.9%
 TRAVEL      0.0686         C  3 -- C  4          +8.2% ( 44.3%)     60.7%
 RED. MASS   1.4417         C  2 -- C  7          +7.6% ( 42.5%)     60.8%
 EFF. MASS   9.9450

 VIBRATION   45   45A         ATOM PAIR      ENERGY CONTRIBUTION    RADIAL
 FREQ.      1443.80         C  9 -- C 10         +16.3% ( 61.5%)     99.8%
 T-DIPOLE    0.1575         C  1 -- C  5         +12.2% ( 53.1%)     99.4%
 TRAVEL      0.0673         C  5 -- C 10          +9.4% ( 46.7%)      0.7%
 RED. MASS   1.3905         C  7 -- C  9          +7.8% ( 42.4%)      2.4%
 EFF. MASS  10.3236

 VIBRATION   46   46A         ATOM PAIR      ENERGY CONTRIBUTION    RADIAL
 FREQ.      1847.19         C  7 -- C  9         +25.1% ( 74.7%)     99.1%
 T-DIPOLE    0.2687         C  5 -- C 10         +18.2% ( 63.6%)     98.5%
 TRAVEL      0.0553         C  9 -- C 10         +16.4% ( 60.4%)     98.4%
 RED. MASS   2.8750         C  9 -- H 22          +8.1% ( 42.5%)      2.1%
 EFF. MASS  11.9527

 VIBRATION   47   47A         ATOM PAIR      ENERGY CONTRIBUTION    RADIAL
 FREQ.      1860.23         C  5 -- C 10         +26.2% ( 74.9%)     99.6%
 T-DIPOLE    0.3307         C  7 -- C  9         +18.5% ( 63.0%)     99.1%
 TRAVEL      0.0555         C  9 -- C 10         +12.4% ( 51.6%)      0.7%
 RED. MASS   2.7515         C  1 -- C  5          +8.9% ( 43.6%)     52.4%
 EFF. MASS  11.7788

 VIBRATION   48   48A         ATOM PAIR      ENERGY CONTRIBUTION    RADIAL
 FREQ.      1885.64         C  6 -- C  8         +43.8% ( 97.5%)    100.0%
 T-DIPOLE    0.1241         C  2 -- C  6         +14.1% ( 55.3%)     52.6%
 TRAVEL      0.0549         C  4 -- C  8         +13.9% ( 54.9%)     51.9%
 RED. MASS   5.2806         C  6 -- H 17         +13.1% ( 53.3%)      4.6%
 EFF. MASS  11.8745         C  8 -- H 20         +12.8% ( 52.7%)      4.5%

 VIBRATION   49   49A         ATOM PAIR      ENERGY CONTRIBUTION    RADIAL
 FREQ.      2830.15         C  2 -- H 12         +95.4% ( 99.2%)    100.0%
 T-DIPOLE    0.0751         C  1 -- H 11          +1.5% ( 12.4%)    100.0%
 TRAVEL      0.1286         C  1 -- C  2          +1.0% ( 10.2%)      5.7%
 RED. MASS   0.9015         C  2 -- C  6          +1.0% ( 10.1%)      7.4%
 EFF. MASS   1.4403

 VIBRATION   50   50A         ATOM PAIR      ENERGY CONTRIBUTION    RADIAL
 FREQ.      2866.01         C  1 -- H 11         +95.1% ( 99.1%)    100.0%
 T-DIPOLE    0.0663         C  2 -- H 12          +1.4% ( 12.1%)    100.0%
 TRAVEL      0.1275         C  1 -- C  3          +1.1% ( 10.5%)      8.1%
 RED. MASS   0.8963         C  1 -- C  5          +1.0% ( 10.4%)      9.0%
 EFF. MASS   1.4469

 VIBRATION   51   51A         ATOM PAIR      ENERGY CONTRIBUTION    RADIAL
 FREQ.      2945.91         C  4 -- H 16         +55.6% ( 77.4%)     97.5%
 T-DIPOLE    0.0115         C  4 -- H 15         +35.1% ( 61.5%)     95.0%
 TRAVEL      0.1219         C  3 -- H 14          +4.4% ( 21.7%)     97.3%
 RED. MASS   0.4710         C  3 -- H 13          +2.6% ( 16.7%)     94.4%
 EFF. MASS   1.5408

 VIBRATION   52   52A         ATOM PAIR      ENERGY CONTRIBUTION    RADIAL
 FREQ.      2965.68         C  3 -- H 14         +47.5% ( 71.5%)     96.8%
 T-DIPOLE    0.0515         C  3 -- H 13         +43.2% ( 68.1%)     96.3%
 TRAVEL      0.1215         C  4 -- H 15          +3.6% ( 19.7%)     97.1%
 RED. MASS   0.4490         C  4 -- H 16          +3.3% ( 18.7%)     96.6%
 EFF. MASS   1.5404

 VIBRATION   53   53A         ATOM PAIR      ENERGY CONTRIBUTION    RADIAL
 FREQ.      3026.55         C  4 -- H 15         +56.0% ( 73.9%)     98.7%
 T-DIPOLE    0.0508         C  4 -- H 16         +36.5% ( 59.7%)     96.1%
 TRAVEL      0.1316         C  3 -- H 14          +2.6% ( 15.8%)     98.7%
 RED. MASS   0.4444         C  8 -- H 20          +2.1% ( 14.3%)    100.0%
 EFF. MASS   1.2862

 VIBRATION   54   54A         ATOM PAIR      ENERGY CONTRIBUTION    RADIAL
 FREQ.      3039.40         C  6 -- H 17         +66.1% ( 82.4%)    100.0%
 T-DIPOLE    0.2612         C  8 -- H 20         +26.8% ( 52.5%)    100.0%
 TRAVEL      0.1237         C  3 -- H 13          +2.3% ( 15.5%)     97.9%
 RED. MASS   0.4957         C  3 -- H 14          +2.1% ( 14.8%)     97.5%
 EFF. MASS   1.4504

 VIBRATION   55   55A         ATOM PAIR      ENERGY CONTRIBUTION    RADIAL
 FREQ.      3041.37         C  3 -- H 13         +48.7% ( 68.8%)     98.1%
 T-DIPOLE    0.1174         C  3 -- H 14         +41.1% ( 63.2%)     97.1%
 TRAVEL      0.1315         C  6 -- H 17          +4.3% ( 20.4%)    100.0%
 RED. MASS   0.4071         C  4 -- H 15          +3.1% ( 17.5%)     99.3%
 EFF. MASS   1.2827

 VIBRATION   56   56A         ATOM PAIR      ENERGY CONTRIBUTION    RADIAL
 FREQ.      3052.29         C  7 -- H 18         +34.1% ( 59.3%)    100.0%
 T-DIPOLE    0.2539         C  9 -- H 22         +23.1% ( 48.8%)    100.0%
 TRAVEL      0.1226         C  5 -- H 19         +20.6% ( 46.1%)    100.0%
 RED. MASS   0.2453         C 10 -- H 21         +19.8% ( 45.1%)    100.0%
 EFF. MASS   1.4709

 VIBRATION   57   57A         ATOM PAIR      ENERGY CONTRIBUTION    RADIAL
 FREQ.      3054.34         C  5 -- H 19         +38.9% ( 63.3%)    100.0%
 T-DIPOLE    0.2769         C  7 -- H 18         +32.4% ( 57.7%)    100.0%
 TRAVEL      0.1230         C 10 -- H 21         +17.9% ( 43.0%)    100.0%
 RED. MASS   0.2886         C  9 -- H 22          +8.3% ( 29.3%)     99.9%
 EFF. MASS   1.4601

 VIBRATION   58   58A         ATOM PAIR      ENERGY CONTRIBUTION    RADIAL
 FREQ.      3061.89         C  8 -- H 20         +68.0% ( 83.6%)     99.9%
 T-DIPOLE    0.2871         C  6 -- H 17         +27.0% ( 52.7%)     99.8%
 TRAVEL      0.1181         C  6 -- C  8          +2.0% ( 14.2%)     92.2%
 RED. MASS   0.5345         C  4 -- C  8          +1.1% ( 10.6%)     18.9%
 EFF. MASS   1.5785

 VIBRATION   59   59A         ATOM PAIR      ENERGY CONTRIBUTION    RADIAL
 FREQ.      3069.38         C  9 -- H 22         +27.0% ( 52.9%)     99.9%
 T-DIPOLE    0.3838         C 10 -- H 21         +26.2% ( 52.1%)     99.9%
 TRAVEL      0.1181         C  5 -- H 19         +24.8% ( 50.6%)     99.9%
 RED. MASS   0.2376         C  7 -- H 18         +18.3% ( 43.5%)     99.9%
 EFF. MASS   1.5760

 VIBRATION   60   60A         ATOM PAIR      ENERGY CONTRIBUTION    RADIAL
 FREQ.      3079.14         C  9 -- H 22         +38.5% ( 62.9%)    100.0%
 T-DIPOLE    0.3497         C 10 -- H 21         +33.0% ( 58.3%)    100.0%
 TRAVEL      0.1167         C  5 -- H 19         +12.6% ( 36.0%)     99.8%
 RED. MASS   0.2889         C  7 -- H 18         +12.2% ( 35.4%)     99.8%
 EFF. MASS   1.6077

      SYMMETRY NUMBER FOR POINT-GROUP C1  =  1


          SYSTEM IS A GROUND STATE



 InChI=1S/C10H12/c1-2-6-10-8-4-3-7-9(10)5-1/h1-3,5-7,9-10H,4,8H2


          MOLECULE IS NOT LINEAR

          THERE ARE 60 GENUINE VIBRATIONS IN THIS SYSTEM
          THIS THERMODYNAMICS CALCULATION IS LIMITED TO
          MOLECULES WHICH HAVE NO INTERNAL ROTATIONS




                    CALCULATED THERMODYNAMIC PROPERTIES
                                          *
   TEMP. (K)   PARTITION FUNCTION   H.O.F.    ENTHALPY  HEAT CAPACITY ENTROPY
                                   KCAL/MOL   CAL/MOLE    CAL/K/MOL  CAL/K/MOL


 298.00  VIB.     0.2844D+02                  3201.7156    27.1844    17.3967
         ROT.     0.5009D+06                   888.2813     2.9808    29.0613
         INT.     0.1425D+08                  4089.9969    30.1653    46.4581
         TRA.     0.1470D+28                  1480.4688     4.9680    40.5480
         TOT.                       34.639    5570.4658    35.1333    87.0060

 200.00  VIB.     0.5665D+01                  1168.5985    14.6847     9.2893
         ROT.     0.2754D+06                   596.1620     2.9808    27.8727
         INT.     0.1560D+07                  1764.7604    17.6655    37.1620
         TRA.     0.8080D+27                   993.6033     4.9680    38.5668
         TOT.                       31.827    2758.3637    22.6335    75.7288

 210.00  VIB.     0.6574D+01                  1321.1615    15.8344    10.0334
         ROT.     0.2963D+06                   625.9700     2.9808    28.0181
         INT.     0.1948D+07                  1947.1316    18.8152    38.0516
         TRA.     0.8694D+27                  1043.2834     4.9680    38.8092
         TOT.                       32.059    2990.4150    23.7833    76.8608

 220.00  VIB.     0.7658D+01                  1485.4132    17.0220    10.7973
         ROT.     0.3178D+06                   655.7781     2.9808    28.1568
         INT.     0.2433D+07                  2141.1913    20.0028    38.9541
         TRA.     0.9322D+27                  1092.9636     4.9680    39.0403
         TOT.                       32.303    3234.1549    24.9708    77.9944

 230.00  VIB.     0.8953D+01                  1661.7180    18.2445    11.5808
         ROT.     0.3397D+06                   685.5862     2.9808    28.2893
         INT.     0.3041D+07                  2347.3042    21.2253    39.8701
         TRA.     0.9965D+27                  1142.6437     4.9680    39.2612
         TOT.                       32.559    3489.9480    26.1934    79.1313

 240.00  VIB.     0.1051D+02                  1850.4090    19.4986    12.3837
         ROT.     0.3621D+06                   715.3943     2.9808    28.4161
         INT.     0.3803D+07                  2565.8033    22.4794    40.7999
         TRA.     0.1062D+28                  1192.3239     4.9680    39.4726
         TOT.                       32.827    3758.1272    27.4474    80.2725

 250.00  VIB.     0.1237D+02                  2051.7825    20.7804    13.2056
         ROT.     0.3849D+06                   745.2024     2.9808    28.5378
         INT.     0.4762D+07                  2796.9849    23.7612    41.7434
         TRA.     0.1129D+28                  1242.0041     4.9680    39.6754
         TOT.                       33.108    4038.9890    28.7292    81.4188

 260.00  VIB.     0.1462D+02                  2266.0944    22.0856    14.0460
         ROT.     0.4082D+06                   775.0105     2.9808    28.6547
         INT.     0.5968D+07                  3041.1049    25.0664    42.7007
         TRA.     0.1198D+28                  1291.6842     4.9680    39.8703
         TOT.                       33.401    4332.7891    30.0344    82.5710

 270.00  VIB.     0.1733D+02                  2493.5584    23.4101    14.9043
         ROT.     0.4320D+06                   804.8186     2.9808    28.7672
         INT.     0.7489D+07                  3298.3770    26.3909    43.6715
         TRA.     0.1267D+28                  1341.3644     4.9680    40.0578
         TOT.                       33.708    4639.7414    31.3589    83.7292

 280.00  VIB.     0.2062D+02                  2734.3451    24.7494    15.7798
         ROT.     0.4562D+06                   834.6267     2.9808    28.8756
         INT.     0.9410D+07                  3568.9718    27.7302    44.6554
         TRA.     0.1338D+28                  1391.0445     4.9680    40.2384
         TOT.                       34.029    4960.0164    32.6982    84.8939

 290.00  VIB.     0.2462D+02                  2988.5822    26.0995    16.6718
         ROT.     0.4809D+06                   864.4348     2.9808    28.9802
         INT.     0.1184D+08                  3853.0170    29.0803    45.6520
         TRA.     0.1411D+28                  1440.7247     4.9680    40.4128
         TOT.                       34.362    5293.7417    34.0483    86.0648

 300.00  VIB.     0.2949D+02                  3256.3562    27.4561    17.5795
         ROT.     0.5060D+06                   894.2429     2.9808    29.0813
         INT.     0.1492D+08                  4150.5991    30.4369    46.6608
         TRA.     0.1484D+28                  1490.4049     4.9680    40.5812
         TOT.                       34.710    5641.0040    35.4049    87.2420

 310.00  VIB.     0.3544D+02                  3537.7139    28.8156    18.5019
         ROT.     0.5315D+06                   924.0510     2.9808    29.1790
         INT.     0.1884D+08                  4461.7649    31.7964    47.6809
         TRA.     0.1559D+28                  1540.0850     4.9680    40.7441
         TOT.                       35.071    6001.8499    36.7644    88.4250

 320.00  VIB.     0.4272D+02                  3832.6652    30.1743    19.4382
         ROT.     0.5574D+06                   953.8591     2.9808    29.2737
         INT.     0.2381D+08                  4786.5243    33.1551    48.7119
         TRA.     0.1635D+28                  1589.7652     4.9680    40.9018
         TOT.                       35.445    6376.2895    38.1231    89.6137

 330.00  VIB.     0.5165D+02                  4141.1860    31.5289    20.3875
         ROT.     0.5837D+06                   983.6672     2.9808    29.3654
         INT.     0.3015D+08                  5124.8532    34.5098    49.7529
         TRA.     0.1713D+28                  1639.4454     4.9680    41.0547
         TOT.                       35.833    6764.2985    39.4778    90.8076

 340.00  VIB.     0.6263D+02                  4463.2207    32.8766    21.3488
         ROT.     0.6105D+06                  1013.4753     2.9808    29.4544
         INT.     0.3824D+08                  5476.6960    35.8574    50.8031
         TRA.     0.1791D+28                  1689.1255     4.9680    41.2030
         TOT.                       36.234    7165.8216    40.8254    92.0062

 350.00  VIB.     0.7617D+02                  4798.6861    34.2147    22.3211
         ROT.     0.6376D+06                  1043.2834     2.9808    29.5408
         INT.     0.4857D+08                  5841.9695    37.1955    51.8619
         TRA.     0.1871D+28                  1738.8057     4.9680    41.3470
         TOT.                       36.649    7580.7752    42.1635    93.2089

 360.00  VIB.     0.9290D+02                  5147.4739    35.5407    23.3036
         ROT.     0.6651D+06                  1073.0915     2.9808    29.6248
         INT.     0.6179D+08                  6220.5654    38.5215    52.9283
         TRA.     0.1951D+28                  1788.4859     4.9680    41.4870
         TOT.                       37.078    8009.0513    43.4896    94.4153

 370.00  VIB.     0.1136D+03                  5509.4540    36.8528    24.2953
         ROT.     0.6930D+06                  1102.8996     2.9808    29.7064
         INT.     0.7873D+08                  6612.3536    39.8336    54.0017
         TRA.     0.2033D+28                  1838.1660     4.9680    41.6231
         TOT.                       37.519    8450.5197    44.8016    95.6248

 380.00  VIB.     0.1393D+03                  5884.4776    38.1491    25.2953
         ROT.     0.7213D+06                  1132.7077     2.9808    29.7859
         INT.     0.1005D+09                  7017.1853    41.1300    55.0813
         TRA.     0.2116D+28                  1887.8462     4.9680    41.7556
         TOT.                       37.974    8905.0315    46.0980    96.8368

 390.00  VIB.     0.1712D+03                  6272.3796    39.4283    26.3029
         ROT.     0.7500D+06                  1162.5158     2.9808    29.8633
         INT.     0.1284D+09                  7434.8954    42.4091    56.1662
         TRA.     0.2200D+28                  1937.5263     4.9680    41.8846
         TOT.                       38.441    9372.4217    47.3771    98.0508

 400.00  VIB.     0.2109D+03                  6672.9816    40.6890    27.3170
         ROT.     0.7790D+06                  1192.3239     2.9808    29.9388
         INT.     0.1643D+09                  7865.3055    43.6698    57.2558
         TRA.     0.2285D+28                  1987.2065     4.9680    42.0104
         TOT.                       38.921    9852.5120    48.6378    99.2663

   *: NOTE: HEATS OF FORMATION ARE RELATIVE TO THE
            ELEMENTS IN THEIR STANDARD STATE AT 298K
              (=  Standard Enthalpy of Formation).

            Hvib:  Zero-point energy is not included.
                   frequencies of less than zero cm-1 are not included.
            Hrot = (3/2)RT
            Htra = (3/2)RT + pV = (5/2)RT

            Heat capacity is Cp, not Cv

          For more information, see: HTTP://OpenMOPAC.net/Manual/thermochemistry.html


           FORCE CONSTANT IN CARTESIAN COORDINATES (Millidynes/A)

    ATOM   CHEMICAL       X               Y               Z
   NUMBER   SYMBOL  FORCE CONSTANT  FORCE CONSTANT  FORCE CONSTANT

      1       C        8.058351        8.088367        9.057337
      2       C        8.344193        8.422458        8.956111
      3       C        8.640345        7.898745        8.336041
      4       C        8.955852        8.500913        8.114945
      5       C       10.450098        4.462436       12.216466
      6       C       11.151680       10.294279        5.838690
      7       C       10.219398        4.315467       12.464765
      8       C       10.973741       10.467828        5.893227
      9       C       10.425925        4.072588       13.200732
     10       C       10.533720        4.419072       12.785166
     11       H        1.063162        1.503849        3.374528
     12       H        1.027230        3.445635        1.240186
     13       H        4.995230        0.732885        0.713420
     14       H        1.035060        1.658903        3.706297
     15       H        0.925031        4.679573        0.753880
     16       H        1.449389        1.183407        3.626710
     17       H        5.007960        0.652167        0.576221
     18       H        4.495868        0.974435        0.813067
     19       H        4.604385        0.903632        0.752449
     20       H        1.616241        2.759887        1.877121
     21       H        1.405082        1.512968        3.356198
     22       H        1.442865        0.416253        4.413181

 **********************
 *                    *
 * JOB ENDED NORMALLY *
 *                    *
 **********************



 TOTAL JOB TIME:             7.59 SECONDS

 == MOPAC DONE ==
