 *******************************************************************************
 ** Site#: 14399        For non-commercial use only    Version 18.184L 64BITS **
 *******************************************************************************
 ** Cite this program as: MOPAC2016, Version: 18.184L, James J. P. Stewart,   **
 ** Stewart Computational Chemistry, web: HTTP://OpenMOPAC.net. Days left:  20**
 *******************************************************************************
 **                                                                           **
 **                                MOPAC2016                                  **
 **                                                                           **
 *******************************************************************************

                              PM3 CALCULATION RESULTS

 *******************************************************************************
 *  CALCULATION DONE:                                Thu Jun 13 15:41:06 2019  *
 *  PM3        - The PM3 Hamiltonian to be used
 *  PRECISE    - CRITERIA TO BE INCREASED BY 100 TIMES
 *  NOSYM      - POINT-GROUP SYMMETRY SET TO C1
 *  THREADS=1  - MULTI-THREADING NOT USED
 *  T=         - A TIME OF 172800.0 SECONDS REQUESTED
 *  DUMP=N     - RESTART FILE WRITTEN EVERY  7200.000 SECONDS
 *******************************************************************************
pm3  precise nosym THREADS=1
 InChI=1S/C12H18/c1-11-7-3-6-10-12(11)8-4-2-5-9-12/h2,4-5,8,11H,3,6-7,9-10H2,1H3

   ATOM   CHEMICAL          X               Y               Z
  NUMBER   SYMBOL      (ANGSTROMS)     (ANGSTROMS)     (ANGSTROMS)
 
     1       C         -0.22260000  *  -0.09500000  *  -0.52510000  *
     2       C          0.63990000  *   0.92680000  *   0.30540000  *
     3       C          0.73780000  *  -0.98780000  *  -1.36400000  *
     4       C          1.75730000  *   0.24070000  *   1.12660000  *
     5       C          2.63920000  *  -0.65260000  *   0.25090000  *
     6       C          1.79990000  *  -1.68320000  *  -0.50400000  *
     7       C         -1.12060000  *  -1.01520000  *   0.37900000  *
     8       C         -0.19280000  *   1.83390000  *   1.22860000  *
     9       C         -1.07940000  *   0.68120000  *  -1.52060000  *
    10       C         -2.46770000  *  -0.43000000  *   0.70420000  *
    11       C         -2.38150000  *   0.91010000  *  -1.32700000  *
    12       C         -3.07040000  *   0.41640000  *  -0.12850000  *
    13       H          1.15040000  *   1.60290000  *  -0.41900000  *
    14       H          2.40400000  *   1.01850000  *   1.58890000  *
    15       H          1.33100000  *  -0.35970000  *   1.95770000  *
    16       H          3.37810000  *  -1.18010000  *   0.89190000  *
    17       H          3.20290000  *  -0.02500000  *  -0.47430000  *
    18       H          2.46670000  *  -2.28060000  *  -1.16260000  *
    19       H          1.32100000  *  -2.38390000  *   0.21350000  *
    20       H          1.26550000  *  -0.36960000  *  -2.12560000  *
    21       H          0.16260000  *  -1.75810000  *  -1.92380000  *
    22       H         -0.61130000  *  -1.27520000  *   1.32750000  *
    23       H         -1.32110000  *  -1.97960000  *  -0.13630000  *
    24       H         -0.68220000  *   1.24550000  *   2.03230000  *
    25       H          0.46440000  *   2.59090000  *   1.70740000  *
    26       H         -0.96510000  *   2.38340000  *   0.65260000  *
    27       H         -0.60630000  *   1.12960000  *  -2.38670000  *
    28       H         -2.99520000  *  -0.77760000  *   1.58350000  *
    29       H         -2.92990000  *   1.51470000  *  -2.03810000  *
    30       H         -4.07460000  *   0.75870000  *   0.08560000  *
 


          CARTESIAN COORDINATES 

    NO.       ATOM           X           Y           Z

     1         C         -0.2226     -0.0950     -0.5251
     2         C          0.6399      0.9268      0.3054
     3         C          0.7378     -0.9878     -1.3640
     4         C          1.7573      0.2407      1.1266
     5         C          2.6392     -0.6526      0.2509
     6         C          1.7999     -1.6832     -0.5040
     7         C         -1.1206     -1.0152      0.3790
     8         C         -0.1928      1.8339      1.2286
     9         C         -1.0794      0.6812     -1.5206
    10         C         -2.4677     -0.4300      0.7042
    11         C         -2.3815      0.9101     -1.3270
    12         C         -3.0704      0.4164     -0.1285
    13         H          1.1504      1.6029     -0.4190
    14         H          2.4040      1.0185      1.5889
    15         H          1.3310     -0.3597      1.9577
    16         H          3.3781     -1.1801      0.8919
    17         H          3.2029     -0.0250     -0.4743
    18         H          2.4667     -2.2806     -1.1626
    19         H          1.3210     -2.3839      0.2135
    20         H          1.2655     -0.3696     -2.1256
    21         H          0.1626     -1.7581     -1.9238
    22         H         -0.6113     -1.2752      1.3275
    23         H         -1.3211     -1.9796     -0.1363
    24         H         -0.6822      1.2455      2.0323
    25         H          0.4644      2.5909      1.7074
    26         H         -0.9651      2.3834      0.6526
    27         H         -0.6063      1.1296     -2.3867
    28         H         -2.9952     -0.7776      1.5835
    29         H         -2.9299      1.5147     -2.0381
    30         H         -4.0746      0.7587      0.0856

  H: (PM3): J. J. P. STEWART, J. COMP. CHEM. 10, 209 (1989).
  C: (PM3): J. J. P. STEWART, J. COMP. CHEM. 10, 209 (1989).

           Empirical Formula: C12 H18  =    30 atoms



      MOLECULAR POINT GROUP   :   C1  


      RHF CALCULATION, NO. OF DOUBLY OCCUPIED LEVELS = 33


          Geometry optimization using EF

          DIAGONAL MATRIX USED AS START HESSIAN

 CYCLE:     1 TIME:   0.051 TIME LEFT:  2.00D  GRAD.:    66.623 HEAT:  4.602817
 CYCLE:     2 TIME:   0.082 TIME LEFT:  2.00D  GRAD.:    46.491 HEAT:  3.246957
 CYCLE:     3 TIME:   0.035 TIME LEFT:  2.00D  GRAD.:    60.750 HEAT:  2.834412
 CYCLE:     4 TIME:   0.035 TIME LEFT:  2.00D  GRAD.:    53.011 HEAT:  2.492769
 CYCLE:     5 TIME:   0.031 TIME LEFT:  2.00D  GRAD.:    51.986 HEAT:  2.399650
 CYCLE:     6 TIME:   0.039 TIME LEFT:  2.00D  GRAD.:    42.502 HEAT:  2.007107
 CYCLE:     7 TIME:   0.055 TIME LEFT:  2.00D  GRAD.:    22.729 HEAT:  1.565631
 CYCLE:     8 TIME:   0.055 TIME LEFT:  2.00D  GRAD.:    13.821 HEAT:  1.419868
 CYCLE:     9 TIME:   0.047 TIME LEFT:  2.00D  GRAD.:    18.487 HEAT:  1.339834
 CYCLE:    10 TIME:   0.035 TIME LEFT:  2.00D  GRAD.:    22.059 HEAT:  1.249593
 CYCLE:    11 TIME:   0.055 TIME LEFT:  2.00D  GRAD.:    16.924 HEAT:  1.170671
 CYCLE:    12 TIME:   0.039 TIME LEFT:  2.00D  GRAD.:    14.486 HEAT:  1.134785
 CYCLE:    13 TIME:   0.039 TIME LEFT:  2.00D  GRAD.:    18.111 HEAT:  1.123646
 CYCLE:    14 TIME:   0.031 TIME LEFT:  2.00D  GRAD.:    15.206 HEAT:  1.087815
 CYCLE:    15 TIME:   0.035 TIME LEFT:  2.00D  GRAD.:    14.492 HEAT:  1.068968
 CYCLE:    16 TIME:   0.039 TIME LEFT:  2.00D  GRAD.:    16.438 HEAT:  1.054375
 CYCLE:    17 TIME:   0.031 TIME LEFT:  2.00D  GRAD.:    14.611 HEAT:  1.026547
 CYCLE:    18 TIME:   0.039 TIME LEFT:  2.00D  GRAD.:    16.936 HEAT:  1.025016
 CYCLE:    19 TIME:   0.035 TIME LEFT:  2.00D  GRAD.:    15.123 HEAT: 0.9938373
 CYCLE:    20 TIME:   0.031 TIME LEFT:  2.00D  GRAD.:    14.404 HEAT: 0.9695966
 CYCLE:    21 TIME:   0.035 TIME LEFT:  2.00D  GRAD.:     9.458 HEAT: 0.9134126
 CYCLE:    22 TIME:   0.062 TIME LEFT:  2.00D  GRAD.:    10.126 HEAT: 0.8972784
 CYCLE:    23 TIME:   0.043 TIME LEFT:  2.00D  GRAD.:     8.872 HEAT: 0.8744737
 CYCLE:    24 TIME:   0.035 TIME LEFT:  2.00D  GRAD.:     7.584 HEAT: 0.8458216
 CYCLE:    25 TIME:   0.043 TIME LEFT:  2.00D  GRAD.:     5.199 HEAT: 0.8057414
 CYCLE:    26 TIME:   0.039 TIME LEFT:  2.00D  GRAD.:     6.907 HEAT: 0.7642282
 CYCLE:    27 TIME:   0.039 TIME LEFT:  2.00D  GRAD.:     6.904 HEAT: 0.7010814
 CYCLE:    28 TIME:   0.039 TIME LEFT:  2.00D  GRAD.:     8.270 HEAT: 0.6032182
 CYCLE:    29 TIME:   0.039 TIME LEFT:  2.00D  GRAD.:    10.518 HEAT: 0.5202146
 CYCLE:    30 TIME:   0.047 TIME LEFT:  2.00D  GRAD.:     8.563 HEAT: 0.4792815
 CYCLE:    31 TIME:   0.035 TIME LEFT:  2.00D  GRAD.:     7.567 HEAT: 0.4598408
 CYCLE:    32 TIME:   0.023 TIME LEFT:  2.00D  GRAD.:     5.638 HEAT: 0.4320169
 CYCLE:    33 TIME:   0.031 TIME LEFT:  2.00D  GRAD.:     5.663 HEAT: 0.4019411
 CYCLE:    34 TIME:   0.027 TIME LEFT:  2.00D  GRAD.:     6.822 HEAT: 0.3507285
 CYCLE:    35 TIME:   0.043 TIME LEFT:  2.00D  GRAD.:     7.290 HEAT: 0.3119575
 CYCLE:    36 TIME:   0.039 TIME LEFT:  2.00D  GRAD.:     5.713 HEAT: 0.2957919
 CYCLE:    37 TIME:   0.035 TIME LEFT:  2.00D  GRAD.:     4.745 HEAT: 0.2767458
 CYCLE:    38 TIME:   0.039 TIME LEFT:  2.00D  GRAD.:     3.653 HEAT: 0.2605368
 CYCLE:    39 TIME:   0.031 TIME LEFT:  2.00D  GRAD.:     4.404 HEAT: 0.2327248
 CYCLE:    40 TIME:   0.039 TIME LEFT:  2.00D  GRAD.:     4.872 HEAT: 0.1915068
 CYCLE:    41 TIME:   0.039 TIME LEFT:  2.00D  GRAD.:     5.343 HEAT: 0.1750357
 CYCLE:    42 TIME:   0.031 TIME LEFT:  2.00D  GRAD.:     4.874 HEAT: 0.1559985
 CYCLE:    43 TIME:   0.035 TIME LEFT:  2.00D  GRAD.:     4.032 HEAT: 0.1353538
 CYCLE:    44 TIME:   0.039 TIME LEFT:  2.00D  GRAD.:     3.407 HEAT: 0.1193532
 CYCLE:    45 TIME:   0.039 TIME LEFT:  2.00D  GRAD.:     3.243 HEAT: 0.1060593
 CYCLE:    46 TIME:   0.031 TIME LEFT:  2.00D  GRAD.:     3.468 HEAT: 0.9326743E-01
 CYCLE:    47 TIME:   0.031 TIME LEFT:  2.00D  GRAD.:     3.284 HEAT: 0.8568038E-01
 CYCLE:    48 TIME:   0.035 TIME LEFT:  2.00D  GRAD.:     2.336 HEAT: 0.7799284E-01
 CYCLE:    49 TIME:   0.047 TIME LEFT:  2.00D  GRAD.:     2.116 HEAT: 0.7285176E-01
 CYCLE:    50 TIME:   0.043 TIME LEFT:  2.00D  GRAD.:     1.818 HEAT: 0.6644834E-01
 CYCLE:    51 TIME:   0.043 TIME LEFT:  2.00D  GRAD.:     1.582 HEAT: 0.6172206E-01
 CYCLE:    52 TIME:   0.039 TIME LEFT:  2.00D  GRAD.:     1.220 HEAT: 0.5862181E-01
 CYCLE:    53 TIME:   0.039 TIME LEFT:  2.00D  GRAD.:     1.130 HEAT: 0.5580724E-01
 CYCLE:    54 TIME:   0.039 TIME LEFT:  2.00D  GRAD.:     1.459 HEAT: 0.5366897E-01
 CYCLE:    55 TIME:   0.031 TIME LEFT:  2.00D  GRAD.:     1.293 HEAT: 0.5106024E-01
 CYCLE:    56 TIME:   0.035 TIME LEFT:  2.00D  GRAD.:     1.035 HEAT: 0.4808943E-01
 CYCLE:    57 TIME:   0.031 TIME LEFT:  2.00D  GRAD.:     0.893 HEAT: 0.4494651E-01
 CYCLE:    58 TIME:   0.035 TIME LEFT:  2.00D  GRAD.:     0.973 HEAT: 0.4287256E-01
 CYCLE:    59 TIME:   0.039 TIME LEFT:  2.00D  GRAD.:     0.987 HEAT: 0.4021420E-01
 CYCLE:    60 TIME:   0.039 TIME LEFT:  2.00D  GRAD.:     1.053 HEAT: 0.3799771E-01
 CYCLE:    61 TIME:   0.031 TIME LEFT:  2.00D  GRAD.:     1.071 HEAT: 0.3572663E-01
 CYCLE:    62 TIME:   0.035 TIME LEFT:  2.00D  GRAD.:     1.095 HEAT: 0.3311718E-01
 CYCLE:    63 TIME:   0.039 TIME LEFT:  2.00D  GRAD.:     1.089 HEAT: 0.3007400E-01
 CYCLE:    64 TIME:   0.039 TIME LEFT:  2.00D  GRAD.:     0.952 HEAT: 0.2734542E-01
 CYCLE:    65 TIME:   0.039 TIME LEFT:  2.00D  GRAD.:     0.725 HEAT: 0.2528927E-01
 CYCLE:    66 TIME:   0.035 TIME LEFT:  2.00D  GRAD.:     0.625 HEAT: 0.2401793E-01
 CYCLE:    67 TIME:   0.035 TIME LEFT:  2.00D  GRAD.:     0.571 HEAT: 0.2306535E-01
 CYCLE:    68 TIME:   0.031 TIME LEFT:  2.00D  GRAD.:     0.517 HEAT: 0.2223784E-01
 CYCLE:    69 TIME:   0.039 TIME LEFT:  2.00D  GRAD.:     0.473 HEAT: 0.2152095E-01
 CYCLE:    70 TIME:   0.035 TIME LEFT:  2.00D  GRAD.:     0.468 HEAT: 0.2084891E-01
 CYCLE:    71 TIME:   0.039 TIME LEFT:  2.00D  GRAD.:     0.432 HEAT: 0.2033516E-01
 CYCLE:    72 TIME:   0.031 TIME LEFT:  2.00D  GRAD.:     0.388 HEAT: 0.1987556E-01
 CYCLE:    73 TIME:   0.035 TIME LEFT:  2.00D  GRAD.:     0.354 HEAT: 0.1954298E-01
 CYCLE:    74 TIME:   0.035 TIME LEFT:  2.00D  GRAD.:     0.343 HEAT: 0.1921904E-01
 CYCLE:    75 TIME:   0.035 TIME LEFT:  2.00D  GRAD.:     0.343 HEAT: 0.1891227E-01
 CYCLE:    76 TIME:   0.039 TIME LEFT:  2.00D  GRAD.:     0.333 HEAT: 0.1858245E-01
 CYCLE:    77 TIME:   0.039 TIME LEFT:  2.00D  GRAD.:     0.317 HEAT: 0.1828294E-01
 CYCLE:    78 TIME:   0.039 TIME LEFT:  2.00D  GRAD.:     0.317 HEAT: 0.1799691E-01
 CYCLE:    79 TIME:   0.039 TIME LEFT:  2.00D  GRAD.:     0.319 HEAT: 0.1774820E-01
 CYCLE:    80 TIME:   0.031 TIME LEFT:  2.00D  GRAD.:     0.320 HEAT: 0.1748910E-01
 CYCLE:    81 TIME:   0.035 TIME LEFT:  2.00D  GRAD.:     0.309 HEAT: 0.1724911E-01
 CYCLE:    82 TIME:   0.031 TIME LEFT:  2.00D  GRAD.:     0.300 HEAT: 0.1700477E-01
 CYCLE:    83 TIME:   0.039 TIME LEFT:  2.00D  GRAD.:     0.272 HEAT: 0.1681715E-01
 CYCLE:    84 TIME:   0.035 TIME LEFT:  2.00D  GRAD.:     0.226 HEAT: 0.1665623E-01
 CYCLE:    85 TIME:   0.039 TIME LEFT:  2.00D  GRAD.:     0.191 HEAT: 0.1653511E-01
 CYCLE:    86 TIME:   0.031 TIME LEFT:  2.00D  GRAD.:     0.170 HEAT: 0.1643928E-01
 CYCLE:    87 TIME:   0.035 TIME LEFT:  2.00D  GRAD.:     0.158 HEAT: 0.1635481E-01
 CYCLE:    88 TIME:   0.031 TIME LEFT:  2.00D  GRAD.:     0.137 HEAT: 0.1629919E-01
 CYCLE:    89 TIME:   0.039 TIME LEFT:  2.00D  GRAD.:     0.115 HEAT: 0.1626861E-01
 CYCLE:    90 TIME:   0.043 TIME LEFT:  2.00D  GRAD.:     0.099 HEAT: 0.1623909E-01
 CYCLE:    91 TIME:   0.043 TIME LEFT:  2.00D  GRAD.:     0.086 HEAT: 0.1620973E-01
 CYCLE:    92 TIME:   0.035 TIME LEFT:  2.00D  GRAD.:     0.071 HEAT: 0.1618733E-01
 CYCLE:    93 TIME:   0.043 TIME LEFT:  2.00D  GRAD.:     0.082 HEAT: 0.1616263E-01
 CYCLE:    94 TIME:   0.035 TIME LEFT:  2.00D  GRAD.:     0.061 HEAT: 0.1615221E-01
 CYCLE:    95 TIME:   0.035 TIME LEFT:  2.00D  GRAD.:     0.072 HEAT: 0.1613973E-01
 CYCLE:    96 TIME:   0.031 TIME LEFT:  2.00D  GRAD.:     0.046 HEAT: 0.1613361E-01

     GRADIENT =  0.04630  IS LESS THAN CUTOFF =  0.05000



 -------------------------------------------------------------------------------
 pm3  precise nosym THREADS=1
 InChI=1S/C12H18/c1-11-7-3-6-10-12(11)8-4-2-5-9-12/h2,4-5,8,11H,3,6-7,9-10H2,1H3



     GEOMETRY OPTIMISED USING EIGENVECTOR FOLLOWING (EF).     
     SCF FIELD WAS ACHIEVED                                   


                              PM3 CALCULATION
                                                       MOPAC2016 (Version: 18.184L)
                                                       Thu Jun 13 15:41:10 2019
                                                       No. of days remaining =  20




          FINAL HEAT OF FORMATION =          0.01613 KCAL/MOL =       0.06750 KJ/MOL


          TOTAL ENERGY            =      -1699.67251 EV
          ELECTRONIC ENERGY       =     -11314.78600 EV  POINT GROUP:     C1  
          CORE-CORE REPULSION     =       9615.11350 EV
          COSMO AREA              =        200.10 SQUARE ANGSTROMS
          COSMO VOLUME            =        224.39 CUBIC ANGSTROMS

          GRADIENT NORM           =          0.04630 = 0.00845 PER ATOM
          IONIZATION POTENTIAL    =          8.935943 EV
          HOMO LUMO ENERGIES (EV) =         -8.936  0.317
          NO. OF FILLED LEVELS    =         33
          MOLECULAR WEIGHT        =        162.2742

          MOLECULAR DIMENSIONS (Angstroms)

            Atom       Atom       Distance
            H    30    H    16     7.72228
            H    21    H    25     5.60992
            H    27    H    28     4.79499


          SCF CALCULATIONS        =        104
 
          WALL-CLOCK TIME         =          3.734 SECONDS
          COMPUTATION TIME        =          2.218 SECONDS




   ATOM   CHEMICAL          X               Y               Z
  NUMBER   SYMBOL      (ANGSTROMS)     (ANGSTROMS)     (ANGSTROMS)
 
     1       C         -0.21703123  *  -0.05894405  *  -0.50793738  *
     2       C          0.67763972  *   0.94079837  *   0.27950701  *
     3       C          0.71150427  *  -0.95106484  *  -1.36421830  *
     4       C          1.68916974  *   0.18047870  *   1.13793710  *
     5       C          2.59018055  *  -0.68884815  *   0.27801916  *
     6       C          1.76540583  *  -1.67061736  *  -0.53767718  *
     7       C         -1.04861383  *  -0.94724161  *   0.43946750  *
     8       C         -0.12278058  *   1.89972122  *   1.14344725  *
     9       C         -1.07711248  *   0.73231605  *  -1.45599861  *
    10       C         -2.45128992  *  -0.51835037  *   0.66479105  *
    11       C         -2.39268541  *   0.90850319  *  -1.28696420  *
    12       C         -3.08539325  *   0.33144918  *  -0.15169633  *
    13       H          1.23940871  *   1.54513147  *  -0.47688169  *
    14       H          2.29394560  *   0.89098479  *   1.73289715  *
    15       H          1.13631866  *  -0.44995628  *   1.87159120  *
    16       H          3.31266199  *  -1.23486568  *   0.91448590  *
    17       H          3.19997369  *  -0.05369243  *  -0.39522941  *
    18       H          2.42467722  *  -2.25962460  *  -1.20422312  *
    19       H          1.28350312  *  -2.40813169  *   0.13597755  *
    20       H          1.21441306  *  -0.32753499  *  -2.13201520  *
    21       H          0.10441164  *  -1.68731280  *  -1.92708843  *
    22       H         -0.51751323  *  -1.02267457  *   1.41763805  *
    23       H         -1.09603263  *  -1.98652601  *   0.04923408  *
    24       H         -0.67599453  *   1.37464972  *   1.93455227  *
    25       H          0.53176184  *   2.63460672  *   1.62997319  *
    26       H         -0.85851843  *   2.45243568  *   0.54340326  *
    27       H         -0.55713490  *   1.19093115  *  -2.30602146  *
    28       H         -2.96139368  *  -0.96325612  *   1.52622548  *
    29       H         -2.98363896  *   1.49851441  *  -1.99512305  *
    30       H         -4.12958119  *   0.61658824  *   0.00961599  *

                             CARTESIAN COORDINATES

   1    C       -0.217031234    -0.058944045    -0.507937377
   2    C        0.677639720     0.940798369     0.279507011
   3    C        0.711504271    -0.951064840    -1.364218303
   4    C        1.689169742     0.180478699     1.137937098
   5    C        2.590180547    -0.688848146     0.278019161
   6    C        1.765405827    -1.670617365    -0.537677184
   7    C       -1.048613828    -0.947241612     0.439467496
   8    C       -0.122780579     1.899721221     1.143447245
   9    C       -1.077112481     0.732316052    -1.455998613
  10    C       -2.451289923    -0.518350373     0.664791049
  11    C       -2.392685415     0.908503186    -1.286964200
  12    C       -3.085393246     0.331449184    -0.151696330
  13    H        1.239408713     1.545131469    -0.476881692
  14    H        2.293945598     0.890984789     1.732897148
  15    H        1.136318658    -0.449956275     1.871591203
  16    H        3.312661986    -1.234865683     0.914485903
  17    H        3.199973693    -0.053692433    -0.395229406
  18    H        2.424677219    -2.259624595    -1.204223121
  19    H        1.283503125    -2.408131686     0.135977550
  20    H        1.214413062    -0.327534989    -2.132015203
  21    H        0.104411641    -1.687312798    -1.927088429
  22    H       -0.517513231    -1.022674566     1.417638052
  23    H       -1.096032627    -1.986526008     0.049234082
  24    H       -0.675994526     1.374649724     1.934552267
  25    H        0.531761835     2.634606725     1.629973186
  26    H       -0.858518434     2.452435675     0.543403258
  27    H       -0.557134902     1.190931151    -2.306021464
  28    H       -2.961393677    -0.963256125     1.526225481
  29    H       -2.983638956     1.498514410    -1.995123051
  30    H       -4.129581189     0.616588238     0.009615994


           Empirical Formula: C12 H18  =    30 atoms



      MOLECULAR POINT GROUP   :   C1  


                  EIGENVALUES  
 -43.34747 -36.77979 -32.98291 -30.82792 -29.99304 -26.55165 -24.23334 -22.15118
 -21.05694 -20.29033 -19.00726 -17.67219 -16.79317 -16.12919 -15.68793 -15.35587
 -14.96743 -14.77489 -14.35261 -13.87011 -13.69464 -13.40119 -13.30023 -12.70112
 -12.53399 -12.40306 -11.89649 -11.71188 -11.63276 -11.33568 -11.22101 -11.06163
  -8.93594   0.31733   2.11928   3.25621   3.33401   3.46246   3.52382   3.62000
   3.70816   3.71385   3.74561   3.85222   3.90386   4.04936   4.09884   4.11416
   4.22655   4.34660   4.39169   4.44887   4.49563   4.66977   4.68064   4.84423
   4.93597   4.97155   5.07232   5.12631   5.24289   5.24727   5.32688   5.48853
   6.05602   6.27843


              NET ATOMIC CHARGES AND DIPOLE CONTRIBUTIONS

  ATOM NO.   TYPE          CHARGE      No. of ELECS.   s-Pop       p-Pop       
    1          C           0.002206        3.9978     1.18132     2.81647
    2          C          -0.069975        4.0700     1.18135     2.88863
    3          C          -0.096447        4.0964     1.16881     2.92764
    4          C          -0.107309        4.1073     1.16561     2.94170
    5          C          -0.095172        4.0952     1.15963     2.93555
    6          C          -0.099669        4.0997     1.16033     2.93934
    7          C          -0.074073        4.0741     1.15404     2.92003
    8          C          -0.121667        4.1217     1.14242     2.97924
    9          C          -0.133438        4.1334     1.20090     2.93254
   10          C          -0.126056        4.1261     1.19505     2.93100
   11          C          -0.105550        4.1055     1.17814     2.92741
   12          C          -0.121977        4.1220     1.17830     2.94368
   13          H           0.064574        0.9354     0.93543
   14          H           0.053699        0.9463     0.94630
   15          H           0.057762        0.9422     0.94224
   16          H           0.047807        0.9522     0.95219
   17          H           0.050211        0.9498     0.94979
   18          H           0.048705        0.9513     0.95129
   19          H           0.051233        0.9488     0.94877
   20          H           0.052283        0.9477     0.94772
   21          H           0.054401        0.9456     0.94560
   22          H           0.071107        0.9289     0.92889
   23          H           0.063733        0.9363     0.93627
   24          H           0.044982        0.9550     0.95502
   25          H           0.038739        0.9613     0.96126
   26          H           0.049481        0.9505     0.95052
   27          H           0.100897        0.8991     0.89910
   28          H           0.097018        0.9030     0.90298
   29          H           0.100310        0.8997     0.89969
   30          H           0.102185        0.8978     0.89782
 DIPOLE           X         Y         Z       TOTAL
 POINT-CHG.     0.342    -0.229     0.156     0.440
 HYBRID        -0.028    -0.000    -0.020     0.035
 SUM            0.313    -0.230     0.137     0.412


          ATOMIC ORBITAL ELECTRON POPULATIONS

     Atom    s        px        py        pz   
    1  C   1.18132   0.93708   0.94095   0.93844
    2  C   1.18135   0.95867   0.95735   0.97261
    3  C   1.16881   0.97009   0.98780   0.96975
    4  C   1.16561   0.97553   0.99036   0.97581
    5  C   1.15963   0.96936   0.98001   0.98618
    6  C   1.16033   0.97675   0.97297   0.98962
    7  C   1.15404   0.93749   0.98315   0.99939
    8  C   1.14242   0.99837   0.98518   0.99569
    9  C   1.20090   0.95860   0.98959   0.98435
   10  C   1.19505   0.96424   0.98427   0.98249
   11  C   1.17814   0.95429   0.99865   0.97446
   12  C   1.17830   0.98280   0.99537   0.96550
   13  H   0.93543
   14  H   0.94630
   15  H   0.94224
   16  H   0.95219
   17  H   0.94979
   18  H   0.95129
   19  H   0.94877
   20  H   0.94772
   21  H   0.94560
   22  H   0.92889
   23  H   0.93627
   24  H   0.95502
   25  H   0.96126
   26  H   0.95052
   27  H   0.89910
   28  H   0.90298
   29  H   0.89969
   30  H   0.89782
 *******************************************************************************
 ** Site#: 14399        For non-commercial use only    Version 18.184L 64BITS **
 *******************************************************************************
 ** Cite this program as: MOPAC2016, Version: 18.184L, James J. P. Stewart,   **
 ** Stewart Computational Chemistry, web: HTTP://OpenMOPAC.net. Days left:  20**
 *******************************************************************************
 **                                                                           **
 **                                MOPAC2016                                  **
 **                                                                           **
 *******************************************************************************

                              PM3 CALCULATION RESULTS

 *******************************************************************************
 *  CALCULATION DONE:                                Thu Jun 13 15:41:10 2019  *
 *  PM3        - The PM3 Hamiltonian to be used
 *  OLDGEO     - PREVIOUS GEOMETRY TO BE USED
 *  PRECISE    - CRITERIA TO BE INCREASED BY 100 TIMES
 *  NOSYM      - POINT-GROUP SYMMETRY SET TO C1
 *  THREADS=1  - MULTI-THREADING NOT USED
 *  T=         - A TIME OF 172800.0 SECONDS REQUESTED
 *  DUMP=N     - RESTART FILE WRITTEN EVERY  7200.000 SECONDS
 *  THERMO     - THERMODYNAMIC QUANTITIES TO BE CALCULATED
 *******************************************************************************
oldgeo thermo nosym precise THREADS=1  pm3
 InChI=1S/C12H18/c1-11-7-3-6-10-12(11)8-4-2-5-9-12/h2,4-5,8,11H,3,6-7,9-10H2,1H3

   ATOM   CHEMICAL          X               Y               Z
  NUMBER   SYMBOL      (ANGSTROMS)     (ANGSTROMS)     (ANGSTROMS)
 
     1       C         -0.21703123  *  -0.05894405  *  -0.50793738  *
     2       C          0.67763972  *   0.94079837  *   0.27950701  *
     3       C          0.71150427  *  -0.95106484  *  -1.36421830  *
     4       C          1.68916974  *   0.18047870  *   1.13793710  *
     5       C          2.59018055  *  -0.68884815  *   0.27801916  *
     6       C          1.76540583  *  -1.67061736  *  -0.53767718  *
     7       C         -1.04861383  *  -0.94724161  *   0.43946750  *
     8       C         -0.12278058  *   1.89972122  *   1.14344725  *
     9       C         -1.07711248  *   0.73231605  *  -1.45599861  *
    10       C         -2.45128992  *  -0.51835037  *   0.66479105  *
    11       C         -2.39268541  *   0.90850319  *  -1.28696420  *
    12       C         -3.08539325  *   0.33144918  *  -0.15169633  *
    13       H          1.23940871  *   1.54513147  *  -0.47688169  *
    14       H          2.29394560  *   0.89098479  *   1.73289715  *
    15       H          1.13631866  *  -0.44995628  *   1.87159120  *
    16       H          3.31266199  *  -1.23486568  *   0.91448590  *
    17       H          3.19997369  *  -0.05369243  *  -0.39522941  *
    18       H          2.42467722  *  -2.25962460  *  -1.20422312  *
    19       H          1.28350312  *  -2.40813169  *   0.13597755  *
    20       H          1.21441306  *  -0.32753499  *  -2.13201520  *
    21       H          0.10441164  *  -1.68731280  *  -1.92708843  *
    22       H         -0.51751323  *  -1.02267457  *   1.41763805  *
    23       H         -1.09603263  *  -1.98652601  *   0.04923408  *
    24       H         -0.67599453  *   1.37464972  *   1.93455227  *
    25       H          0.53176184  *   2.63460672  *   1.62997319  *
    26       H         -0.85851843  *   2.45243568  *   0.54340326  *
    27       H         -0.55713490  *   1.19093115  *  -2.30602146  *
    28       H         -2.96139368  *  -0.96325612  *   1.52622548  *
    29       H         -2.98363896  *   1.49851441  *  -1.99512305  *
    30       H         -4.12958119  *   0.61658824  *   0.00961599  *
 


          CARTESIAN COORDINATES 

    NO.       ATOM           X           Y           Z

     1         C         -0.2170     -0.0589     -0.5079
     2         C          0.6776      0.9408      0.2795
     3         C          0.7115     -0.9511     -1.3642
     4         C          1.6892      0.1805      1.1379
     5         C          2.5902     -0.6888      0.2780
     6         C          1.7654     -1.6706     -0.5377
     7         C         -1.0486     -0.9472      0.4395
     8         C         -0.1228      1.8997      1.1434
     9         C         -1.0771      0.7323     -1.4560
    10         C         -2.4513     -0.5184      0.6648
    11         C         -2.3927      0.9085     -1.2870
    12         C         -3.0854      0.3314     -0.1517
    13         H          1.2394      1.5451     -0.4769
    14         H          2.2939      0.8910      1.7329
    15         H          1.1363     -0.4500      1.8716
    16         H          3.3127     -1.2349      0.9145
    17         H          3.2000     -0.0537     -0.3952
    18         H          2.4247     -2.2596     -1.2042
    19         H          1.2835     -2.4081      0.1360
    20         H          1.2144     -0.3275     -2.1320
    21         H          0.1044     -1.6873     -1.9271
    22         H         -0.5175     -1.0227      1.4176
    23         H         -1.0960     -1.9865      0.0492
    24         H         -0.6760      1.3746      1.9346
    25         H          0.5318      2.6346      1.6300
    26         H         -0.8585      2.4524      0.5434
    27         H         -0.5571      1.1909     -2.3060
    28         H         -2.9614     -0.9633      1.5262
    29         H         -2.9836      1.4985     -1.9951
    30         H         -4.1296      0.6166      0.0096

  H: (PM3): J. J. P. STEWART, J. COMP. CHEM. 10, 209 (1989).
  C: (PM3): J. J. P. STEWART, J. COMP. CHEM. 10, 209 (1989).

           Empirical Formula: C12 H18  =    30 atoms



      MOLECULAR POINT GROUP   :   C1  


      RHF CALCULATION, NO. OF DOUBLY OCCUPIED LEVELS = 33



          HEAT OF FORMATION =       0.016134 KCALS/MOLE


          CARTESIAN COORDINATE DERIVATIVES

   NUMBER  ATOM         X            Y            Z

     1       C      0.001729     0.002241    -0.000403
     2       C      0.000620     0.003027    -0.002385
     3       C      0.001154     0.000850     0.001062
     4       C     -0.002584     0.000698    -0.001483
     5       C      0.001865     0.002921    -0.000826
     6       C     -0.001380     0.000195    -0.000693
     7       C      0.006777     0.000543     0.006128
     8       C      0.000734     0.004761    -0.003000
     9       C     -0.001683    -0.000235    -0.000407
    10       C      0.005443    -0.000451     0.001772
    11       C     -0.003348    -0.000941    -0.002511
    12       C      0.003733    -0.003587     0.006168
    13       H      0.006982     0.005405    -0.002909
    14       H     -0.002115    -0.001685     0.000758
    15       H     -0.008642    -0.005695    -0.002997
    16       H      0.008661     0.009620     0.002759
    17       H      0.006982     0.001277     0.001760
    18       H     -0.000446     0.003795    -0.003157
    19       H     -0.001250    -0.006219     0.002014
    20       H      0.001282     0.003265     0.000468
    21       H      0.005495     0.002214     0.008225
    22       H      0.000805    -0.001143    -0.003890
    23       H      0.002066    -0.010617     0.000615
    24       H     -0.021331    -0.009429    -0.002932
    25       H      0.005507     0.006787     0.002978
    26       H      0.008066     0.003518    -0.002197
    27       H     -0.010318    -0.004622    -0.002070
    28       H     -0.004302     0.001784     0.000844
    29       H     -0.014806    -0.003536    -0.005099
    30       H      0.004302    -0.004740     0.001409
 


          GRADIENT NORM =   0.04711


          TIME FOR SCF CALCULATION =    0.03

          TIME FOR DERIVATIVES     =    0.02

          MOLECULAR WEIGHT =  162.27



          ROTATIONAL CONSTANTS IN CM(-1)

          A =    0.05520010   B =    0.02548203   C =    0.02302807



           PRINCIPAL MOMENTS OF INERTIA IN UNITS OF 10**(-40)*GRAM-CM**2

          A =      507.1145   B =     1098.5298   C =     1215.5934


          ORIENTATION OF MOLECULE IN FORCE CALCULATION

    NO.       ATOM         X         Y         Z

     1          C      -0.2643    0.1886    0.2688
     2          C       1.2913    0.1886    0.2688
     3          C      -0.7370    1.6609    0.2688
     4          C       1.8190    0.9574   -0.9431
     5          C       1.3432    2.3997   -0.9236
     6          C      -0.1750    2.4613   -0.8952
     7          C      -0.8339   -0.5315   -0.9702
     8          C       1.8846   -1.2092    0.2981
     9          C      -0.7303   -0.4315    1.5584
    10          C      -1.2509   -1.9409   -0.7657
    11          C      -1.2881   -1.6454    1.6343
    12          C      -1.4827   -2.4553    0.4478
    13          H       1.6199    0.7221    1.1964
    14          H       2.9246    0.9173   -0.9676
    15          H       1.4673    0.4511   -1.8712
    16          H       1.7300    2.9402   -1.8087
    17          H       1.7613    2.9252   -0.0418
    18          H      -0.5117    3.5135   -0.8221
    19          H      -0.5851    2.0808   -1.8528
    20          H      -0.4357    2.1436    1.2214
    21          H      -1.8443    1.6960    0.2525
    22          H      -0.0817   -0.4782   -1.7925
    23          H      -1.7266    0.0086   -1.3523
    24          H       1.6294   -1.7819   -0.6043
    25          H       2.9796   -1.1731    0.3679
    26          H       1.5129   -1.7785    1.1611
    27          H      -0.5668    0.1654    2.4640
    28          H      -1.3941   -2.5400   -1.6716
    29          H      -1.6073   -2.0662    2.5934
    30          H      -1.8183   -3.4882    0.5826


    FIRST DERIVATIVES WILL BE USED IN THE CALCULATION OF SECOND DERIVATIVES

          ESTIMATED TIME TO COMPLETE CALCULATION =       18.28 SECONDS

    FOR POINT-GROUP C1   THERE ARE   1 UNIQUE SYMMETRY FUNCTIONS.

 STEP:   1 TIME =     0.08 SECS, INTEGRAL =      0.08 TIME LEFT: 172799.87
 STEP:   2 TIME =     0.09 SECS, INTEGRAL =      0.17 TIME LEFT: 172799.78
 STEP:   3 TIME =     0.07 SECS, INTEGRAL =      0.24 TIME LEFT: 172799.71
 STEP:   4 TIME =     0.07 SECS, INTEGRAL =      0.31 TIME LEFT: 172799.64
 STEP:   5 TIME =     0.07 SECS, INTEGRAL =      0.38 TIME LEFT: 172799.57
 STEP:   6 TIME =     0.07 SECS, INTEGRAL =      0.45 TIME LEFT: 172799.50
 STEP:   7 TIME =     0.07 SECS, INTEGRAL =      0.52 TIME LEFT: 172799.43
 STEP:   8 TIME =     0.07 SECS, INTEGRAL =      0.59 TIME LEFT: 172799.36
 STEP:   9 TIME =     0.07 SECS, INTEGRAL =      0.65 TIME LEFT: 172799.30
 STEP:  10 TIME =     0.07 SECS, INTEGRAL =      0.72 TIME LEFT: 172799.23
 STEP:  11 TIME =     0.07 SECS, INTEGRAL =      0.79 TIME LEFT: 172799.16
 STEP:  12 TIME =     0.07 SECS, INTEGRAL =      0.86 TIME LEFT: 172799.09
 STEP:  13 TIME =     0.07 SECS, INTEGRAL =      0.93 TIME LEFT: 172799.02
 STEP:  14 TIME =     0.07 SECS, INTEGRAL =      1.00 TIME LEFT: 172798.95
 STEP:  15 TIME =     0.07 SECS, INTEGRAL =      1.07 TIME LEFT: 172798.88
 STEP:  16 TIME =     0.07 SECS, INTEGRAL =      1.14 TIME LEFT: 172798.80
 STEP:  17 TIME =     0.07 SECS, INTEGRAL =      1.21 TIME LEFT: 172798.73
 STEP:  18 TIME =     0.07 SECS, INTEGRAL =      1.29 TIME LEFT: 172798.66
 STEP:  19 TIME =     0.07 SECS, INTEGRAL =      1.36 TIME LEFT: 172798.59
 STEP:  20 TIME =     0.07 SECS, INTEGRAL =      1.43 TIME LEFT: 172798.52
 STEP:  21 TIME =     0.07 SECS, INTEGRAL =      1.50 TIME LEFT: 172798.45
 STEP:  22 TIME =     0.07 SECS, INTEGRAL =      1.57 TIME LEFT: 172798.38
 STEP:  23 TIME =     0.07 SECS, INTEGRAL =      1.64 TIME LEFT: 172798.31
 STEP:  24 TIME =     0.07 SECS, INTEGRAL =      1.71 TIME LEFT: 172798.24
 STEP:  25 TIME =     0.07 SECS, INTEGRAL =      1.78 TIME LEFT: 172798.17
 STEP:  26 TIME =     0.07 SECS, INTEGRAL =      1.85 TIME LEFT: 172798.10
 STEP:  27 TIME =     0.07 SECS, INTEGRAL =      1.92 TIME LEFT: 172798.03
 STEP:  28 TIME =     0.07 SECS, INTEGRAL =      2.00 TIME LEFT: 172797.95
 STEP:  29 TIME =     0.07 SECS, INTEGRAL =      2.07 TIME LEFT: 172797.88
 STEP:  30 TIME =     0.07 SECS, INTEGRAL =      2.14 TIME LEFT: 172797.81
 STEP:  31 TIME =     0.07 SECS, INTEGRAL =      2.21 TIME LEFT: 172797.73
 STEP:  32 TIME =     0.07 SECS, INTEGRAL =      2.29 TIME LEFT: 172797.66
 STEP:  33 TIME =     0.07 SECS, INTEGRAL =      2.36 TIME LEFT: 172797.59
 STEP:  34 TIME =     0.07 SECS, INTEGRAL =      2.43 TIME LEFT: 172797.52
 STEP:  35 TIME =     0.08 SECS, INTEGRAL =      2.51 TIME LEFT: 172797.44
 STEP:  36 TIME =     0.07 SECS, INTEGRAL =      2.58 TIME LEFT: 172797.37
 STEP:  37 TIME =     0.07 SECS, INTEGRAL =      2.65 TIME LEFT: 172797.30
 STEP:  38 TIME =     0.07 SECS, INTEGRAL =      2.73 TIME LEFT: 172797.22
 STEP:  39 TIME =     0.07 SECS, INTEGRAL =      2.80 TIME LEFT: 172797.15
 STEP:  40 TIME =     0.07 SECS, INTEGRAL =      2.87 TIME LEFT: 172797.08
 STEP:  41 TIME =     0.07 SECS, INTEGRAL =      2.95 TIME LEFT: 172797.00
 STEP:  42 TIME =     0.07 SECS, INTEGRAL =      3.02 TIME LEFT: 172796.93
 STEP:  43 TIME =     0.07 SECS, INTEGRAL =      3.09 TIME LEFT: 172796.86
 STEP:  44 TIME =     0.07 SECS, INTEGRAL =      3.16 TIME LEFT: 172796.79
 STEP:  45 TIME =     0.07 SECS, INTEGRAL =      3.23 TIME LEFT: 172796.72
 STEP:  46 TIME =     0.07 SECS, INTEGRAL =      3.30 TIME LEFT: 172796.65
 STEP:  47 TIME =     0.07 SECS, INTEGRAL =      3.37 TIME LEFT: 172796.58
 STEP:  48 TIME =     0.07 SECS, INTEGRAL =      3.44 TIME LEFT: 172796.51
 STEP:  49 TIME =     0.07 SECS, INTEGRAL =      3.51 TIME LEFT: 172796.44
 STEP:  50 TIME =     0.07 SECS, INTEGRAL =      3.58 TIME LEFT: 172796.37
 STEP:  51 TIME =     0.07 SECS, INTEGRAL =      3.66 TIME LEFT: 172796.29
 STEP:  52 TIME =     0.07 SECS, INTEGRAL =      3.73 TIME LEFT: 172796.22
 STEP:  53 TIME =     0.07 SECS, INTEGRAL =      3.80 TIME LEFT: 172796.15
 STEP:  54 TIME =     0.07 SECS, INTEGRAL =      3.87 TIME LEFT: 172796.08
 STEP:  55 TIME =     0.07 SECS, INTEGRAL =      3.94 TIME LEFT: 172796.01
 STEP:  56 TIME =     0.07 SECS, INTEGRAL =      4.01 TIME LEFT: 172795.94
 STEP:  57 TIME =     0.07 SECS, INTEGRAL =      4.08 TIME LEFT: 172795.87
 STEP:  58 TIME =     0.07 SECS, INTEGRAL =      4.16 TIME LEFT: 172795.79
 STEP:  59 TIME =     0.07 SECS, INTEGRAL =      4.23 TIME LEFT: 172795.72
 STEP:  60 TIME =     0.07 SECS, INTEGRAL =      4.30 TIME LEFT: 172795.65
 STEP:  61 TIME =     0.07 SECS, INTEGRAL =      4.36 TIME LEFT: 172795.59
 STEP:  62 TIME =     0.07 SECS, INTEGRAL =      4.44 TIME LEFT: 172795.51
 STEP:  63 TIME =     0.07 SECS, INTEGRAL =      4.51 TIME LEFT: 172795.44
 STEP:  64 TIME =     0.07 SECS, INTEGRAL =      4.58 TIME LEFT: 172795.37
 STEP:  65 TIME =     0.07 SECS, INTEGRAL =      4.65 TIME LEFT: 172795.30
 STEP:  66 TIME =     0.07 SECS, INTEGRAL =      4.73 TIME LEFT: 172795.22
 STEP:  67 TIME =     0.07 SECS, INTEGRAL =      4.80 TIME LEFT: 172795.15
 STEP:  68 TIME =     0.07 SECS, INTEGRAL =      4.88 TIME LEFT: 172795.07
 STEP:  69 TIME =     0.07 SECS, INTEGRAL =      4.95 TIME LEFT: 172795.00
 STEP:  70 TIME =     0.07 SECS, INTEGRAL =      5.02 TIME LEFT: 172794.93
 STEP:  71 TIME =     0.07 SECS, INTEGRAL =      5.09 TIME LEFT: 172794.86
 STEP:  72 TIME =     0.07 SECS, INTEGRAL =      5.17 TIME LEFT: 172794.78
 STEP:  73 TIME =     0.07 SECS, INTEGRAL =      5.23 TIME LEFT: 172794.71
 STEP:  74 TIME =     0.07 SECS, INTEGRAL =      5.31 TIME LEFT: 172794.64
 STEP:  75 TIME =     0.08 SECS, INTEGRAL =      5.39 TIME LEFT: 172794.56
 STEP:  76 TIME =     0.07 SECS, INTEGRAL =      5.46 TIME LEFT: 172794.49
 STEP:  77 TIME =     0.07 SECS, INTEGRAL =      5.54 TIME LEFT: 172794.41
 STEP:  78 TIME =     0.07 SECS, INTEGRAL =      5.61 TIME LEFT: 172794.34
 STEP:  79 TIME =     0.07 SECS, INTEGRAL =      5.68 TIME LEFT: 172794.27
 STEP:  80 TIME =     0.07 SECS, INTEGRAL =      5.75 TIME LEFT: 172794.20
 STEP:  81 TIME =     0.07 SECS, INTEGRAL =      5.82 TIME LEFT: 172794.12
 STEP:  82 TIME =     0.07 SECS, INTEGRAL =      5.90 TIME LEFT: 172794.05
 STEP:  83 TIME =     0.07 SECS, INTEGRAL =      5.97 TIME LEFT: 172793.98
 STEP:  84 TIME =     0.07 SECS, INTEGRAL =      6.04 TIME LEFT: 172793.91
 STEP:  85 TIME =     0.07 SECS, INTEGRAL =      6.11 TIME LEFT: 172793.84
 STEP:  86 TIME =     0.07 SECS, INTEGRAL =      6.18 TIME LEFT: 172793.77
 STEP:  87 TIME =     0.07 SECS, INTEGRAL =      6.25 TIME LEFT: 172793.70
 STEP:  88 TIME =     0.07 SECS, INTEGRAL =      6.33 TIME LEFT: 172793.62
 STEP:  89 TIME =     0.07 SECS, INTEGRAL =      6.40 TIME LEFT: 172793.55
 STEP:  90 TIME =     0.07 SECS, INTEGRAL =      6.47 TIME LEFT: 172793.48

(To convert to Hartree/Bohr^2, multiply by (10^(-21) x N x a0^2)/(4.184 x 627.51) =  0.0642)


           FORCE MATRIX IN MILLIDYNES/ANGSTROM


                  C  1       C  2       C  3       C  4       C  5       C  6
 ------------------------------------------------------------------------------
     C    1  14.109673
     C    2   3.064733  14.138523
     C    3   3.365701   0.636819  14.220354
     C    4   0.611288   3.872427   0.061375  14.359150
     C    5   0.049987   0.651758   0.665485   4.221242  14.440488
     C    6   0.583193   0.055886   4.167485   0.683000   4.200448  14.376859
     C    7   3.506490   0.550610   0.610800   0.080611   0.008989   0.055158
     C    8   0.557545   4.220414   0.050589   0.667224   0.054373   0.002525
     C    9   4.370069   0.680307   0.727051   0.048496   0.003155   0.050859
     C   10   0.591711   0.021016   0.043586   0.003265   0.001373   0.003518
     C   11   0.764316   0.040364   0.044867   0.007703   0.001200   0.008678
     C   12   0.110045   0.019585   0.011975   0.002737   0.000914   0.002007
     H   13   0.428815   4.160682   0.036168   0.427400   0.031587   0.005904
     H   14   0.047811   0.441594   0.002789   4.501341   0.434481   0.050848
     H   15   0.024020   0.448774   0.005423   4.255601   0.444355   0.022421
     H   16   0.003899   0.049586   0.051107   0.434225   4.493835   0.435641
     H   17   0.005013   0.023211   0.017990   0.445378   4.444616   0.444984
     H   18   0.048383   0.003523   0.433597   0.051153   0.434714   4.487009
     H   19   0.014260   0.004566   0.445531   0.019356   0.443750   4.419732
     H   20   0.441343   0.026092   4.408875   0.005037   0.019913   0.440306
     H   21   0.441726   0.045845   4.467762   0.003110   0.050646   0.434494
     H   22   0.441696   0.071426   0.015248   0.111922   0.004203   0.008375
     H   23   0.447244   0.039555   0.088946   0.003611   0.001269   0.015977
     H   24   0.013394   0.468732   0.001338   0.024003   0.001628   0.000573
     H   25   0.048282   0.456200   0.008691   0.029300   0.001841   0.000929
     H   26   0.023326   0.456593   0.001989   0.049794   0.009282   0.000911
     H   27   0.432953   0.018026   0.049000   0.001844   0.000737   0.002125
     H   28   0.043597   0.003654   0.007250   0.000771   0.000507   0.000971
     H   29   0.116576   0.017089   0.014501   0.002817   0.000326   0.002675
     H   30   0.004560   0.000778   0.000588   0.000502   0.000377   0.000462


                  C  7       C  8       C  9       C 10       C 11       C 12
 ------------------------------------------------------------------------------
     C    7  14.491378
     C    8   0.048034  14.365246
     C    9   0.602840   0.059447  18.055440
     C   10   5.025313   0.021219   0.160914  18.078292
     C   11   0.124031   0.027502  10.350752   1.157371  18.450605
     C   12   0.867939   0.013504   1.126192  10.332571   5.712156  18.475777
     H   13   0.043381   0.415753   0.044677   0.002694   0.002359   0.001591
     H   14   0.006335   0.038387   0.008636   0.001417   0.001820   0.001066
     H   15   0.084106   0.024846   0.001871   0.002154   0.000818   0.001384
     H   16   0.000509   0.009505   0.001203   0.000391   0.000346   0.000316
     H   17   0.000389   0.001704   0.000417   0.000787   0.000483   0.000365
     H   18   0.003281   0.000769   0.009129   0.000597   0.002025   0.000668
     H   19   0.020443   0.000468   0.001121   0.001101   0.000515   0.000907
     H   20   0.043657   0.001441   0.062386   0.006724   0.002557   0.000908
     H   21   0.034967   0.008720   0.022205   0.001817   0.002197   0.001489
     H   22   4.205869   0.013994   0.040009   0.433292   0.010846   0.044755
     H   23   4.339133   0.002621   0.013917   0.399313   0.017417   0.035352
     H   24   0.017249   4.698159   0.003046   0.008650   0.002410   0.002817
     H   25   0.002785   4.734690   0.003583   0.001674   0.000986   0.000951
     H   26   0.003085   4.716526   0.023015   0.002669   0.012948   0.004037
     H   27   0.040428   0.002406   4.784424   0.013377   0.441057   0.125903
     H   28   0.425320   0.001149   0.011843   4.831783   0.124494   0.443870
     H   29   0.003735   0.000755   0.442791   0.047132   4.852220   0.432718
     H   30   0.117622   0.000427   0.047100   0.446519   0.433595   4.868978


                  H 13       H 14       H 15       H 16       H 17       H 18
 ------------------------------------------------------------------------------
     H   13   4.649335
     H   14   0.025650   5.108898
     H   15   0.043538   0.539977   4.916290
     H   16   0.002031   0.031578   0.028987   5.111809
     H   17   0.021616   0.029475   0.045061   0.565234   5.063272
     H   18   0.000312   0.008311   0.002115   0.029470   0.031616   5.104662
     H   19   0.000733   0.001901   0.013845   0.032312   0.045533   0.566964
     H   20   0.025288   0.000261   0.000721   0.001917   0.011502   0.033968
     H   21   0.001776   0.000298   0.000361   0.008265   0.001745   0.032033
     H   22   0.002871   0.003432   0.122092   0.000746   0.000808   0.000739
     H   23   0.006434   0.000354   0.001379   0.000391   0.000387   0.000741
     H   24   0.045298   0.002064   0.017813   0.000427   0.000441   0.000253
     H   25   0.032927   0.026199   0.001604   0.000435   0.000291   0.000279
     H   26   0.029990   0.001818   0.001489   0.001806   0.000393   0.000252
     H   27   0.016998   0.000493   0.000783   0.000439   0.000247   0.000487
     H   28   0.000889   0.000188   0.000427   0.000124   0.000151   0.000193
     H   29   0.000634   0.000585   0.000186   0.000186   0.000123   0.000525
     H   30   0.000261   0.000160   0.000290   0.000119   0.000098   0.000120


                  H 19       H 20       H 21       H 22       H 23       H 24
 ------------------------------------------------------------------------------
     H   19   5.044426
     H   20   0.045264   5.032106
     H   21   0.031303   0.564696   5.087241
     H   22   0.013267   0.002059   0.001427   4.883646
     H   23   0.026051   0.002555   0.028414   0.561547   4.937887
     H   24   0.000159   0.000456   0.000324   0.026055   0.000688   5.441408
     H   25   0.000111   0.000366   0.001692   0.000920   0.000271   0.567166
     H   26   0.000163   0.000334   0.000515   0.001028   0.000448   0.573443
     H   27   0.000752   0.028690   0.002968   0.006795   0.004877   0.000549
     H   28   0.000272   0.001476   0.000452   0.036216   0.022741   0.001045
     H   29   0.000145   0.000492   0.000382   0.000883   0.000809   0.000205
     H   30   0.000207   0.000266   0.000287   0.013060   0.016452   0.000477


                  H 25       H 26       H 27       H 28       H 29       H 30
 ------------------------------------------------------------------------------
     H   25   5.467873
     H   26   0.559187   5.445892
     H   27   0.000395   0.001733   5.166342
     H   28   0.000500   0.000469   0.009212   5.207413
     H   29   0.000291   0.001092   0.067089   0.007357   5.217531
     H   30   0.000150   0.000666   0.007254   0.064169   0.031557   5.238527


          HEAT OF FORMATION =       0.016134 KCALS/MOLE

          ZERO POINT ENERGY     169.235 KCAL/MOL


           NORMAL COORDINATE ANALYSIS (Total motion = 1 Angstrom)


   Root No.       1         2         3         4         5         6         7         8

                 1 A       2 A       3 A       4 A       5 A       6 A       7 A       8 A   

                  86.7     129.9     179.4     190.8     201.7     278.8     303.4     340.6
  
           1   -0.0153    0.0008   -0.0117    0.0025   -0.0015   -0.0040    0.0087    0.0006
           2    0.0123    0.0033    0.0028    0.0011   -0.0061   -0.0036    0.0026   -0.0015
           3    0.0019    0.0100   -0.0105    0.0076   -0.0090    0.0046   -0.0002   -0.0027
           4   -0.0154    0.0008   -0.0106    0.0023   -0.0021   -0.0009    0.0075    0.0021
           5   -0.0084    0.0072    0.0036   -0.0025    0.0030   -0.0004   -0.0066   -0.0225
           6   -0.0006    0.0080   -0.0001    0.0036   -0.0150   -0.0014   -0.0115    0.0066
           7    0.0018    0.0122   -0.0123    0.0089   -0.0002    0.0137   -0.0138   -0.0122
           8    0.0172    0.0067    0.0025    0.0029   -0.0039    0.0046   -0.0062   -0.0058
           9   -0.0002    0.0213   -0.0189    0.0117    0.0009   -0.0023   -0.0002    0.0014
          10   -0.0068   -0.0058   -0.0012    0.0026   -0.0179   -0.0016   -0.0109   -0.0086
          11   -0.0134   -0.0164   -0.0043   -0.0001   -0.0092    0.0021   -0.0119   -0.0192
          12   -0.0001   -0.0101    0.0010    0.0046   -0.0302   -0.0015   -0.0214    0.0055
          13    0.0109   -0.0076    0.0130   -0.0081    0.0128    0.0107   -0.0118   -0.0156
          14   -0.0077   -0.0163    0.0001   -0.0035    0.0002    0.0047   -0.0108   -0.0223
          15    0.0012   -0.0375    0.0131   -0.0153    0.0024    0.0177    0.0286    0.0055
          16    0.0116   -0.0068    0.0128   -0.0082    0.0144    0.0095   -0.0135   -0.0141
          17    0.0096   -0.0049    0.0084   -0.0094    0.0289   -0.0192   -0.0174    0.0008
          18   -0.0007    0.0035   -0.0043   -0.0044    0.0306   -0.0227   -0.0064    0.0102
          19   -0.0249   -0.0062   -0.0133    0.0016   -0.0053   -0.0345    0.0006    0.0118
          20    0.0149    0.0188   -0.0011    0.0064   -0.0137    0.0088    0.0146    0.0085
          21    0.0054    0.0038   -0.0075    0.0055   -0.0027    0.0122   -0.0032   -0.0138
          22   -0.0345    0.0064   -0.0063    0.0030    0.0194    0.0390   -0.0061    0.0367
          23   -0.0168    0.0111    0.0065   -0.0032    0.0142    0.0178   -0.0113   -0.0115
          24   -0.0069    0.0438    0.0234   -0.0118    0.0148   -0.0047    0.0203   -0.0081
          25   -0.0219    0.0008    0.0110   -0.0055   -0.0076   -0.0133    0.0265   -0.0227
          26    0.0142   -0.0116   -0.0022    0.0010    0.0003   -0.0042    0.0036    0.0258
          27    0.0008    0.0023   -0.0051    0.0048   -0.0073    0.0012    0.0046   -0.0007
          28    0.0337   -0.0036   -0.0398    0.0081    0.0109   -0.0129    0.0196   -0.0156
          29   -0.0037    0.0158    0.0077    0.0039   -0.0186    0.0004    0.0114    0.0206
          30    0.0000   -0.0154   -0.0012   -0.0002    0.0045    0.0003   -0.0073   -0.0047
          31    0.0127    0.0049    0.0488   -0.0097   -0.0209   -0.0123    0.0008    0.0046
          32   -0.0020   -0.0147   -0.0189    0.0025    0.0068   -0.0056    0.0158    0.0155
          33   -0.0004   -0.0123    0.0040   -0.0005   -0.0010   -0.0021   -0.0026    0.0028
          34    0.0533    0.0035    0.0092    0.0017   -0.0037    0.0013   -0.0006    0.0282
          35   -0.0132   -0.0012   -0.0063    0.0022   -0.0078   -0.0104    0.0217    0.0135
          36   -0.0000   -0.0214    0.0022   -0.0023    0.0064   -0.0015   -0.0069    0.0005
          37   -0.0069    0.0004   -0.0212    0.0032   -0.0049   -0.0089    0.0176   -0.0006
          38   -0.0154    0.0303    0.0130   -0.0100    0.0236    0.0036    0.0056   -0.0264
          39    0.0002   -0.0048   -0.0011    0.0072   -0.0253   -0.0003   -0.0214    0.0095
          40   -0.0074   -0.0056   -0.0019    0.0030   -0.0196   -0.0025   -0.0122   -0.0079
          41   -0.0272   -0.0138   -0.0181    0.0073   -0.0342   -0.0096   -0.0186   -0.0080
          42   -0.0009   -0.0128   -0.0008    0.0145   -0.0635   -0.0143   -0.0492    0.0022
          43   -0.0139   -0.0050   -0.0097    0.0138   -0.0540   -0.0201   -0.0337   -0.0021
          44   -0.0073   -0.0341    0.0026   -0.0083    0.0058    0.0122    0.0061   -0.0220
          45   -0.0008   -0.0004    0.0004    0.0045   -0.0245   -0.0004   -0.0221    0.0046
          46    0.0185   -0.0307    0.0273   -0.0177    0.0063    0.0347    0.0110   -0.0145
          47   -0.0112   -0.0417    0.0083   -0.0164    0.0085    0.0264    0.0320   -0.0245
          48    0.0024   -0.0633    0.0245   -0.0275    0.0047    0.0420    0.0655    0.0046
          49    0.0161    0.0185    0.0070   -0.0048    0.0410   -0.0174   -0.0377   -0.0104
          50   -0.0138    0.0071   -0.0142    0.0137   -0.0238   -0.0145   -0.0514   -0.0250
          51    0.0024   -0.0638    0.0245   -0.0273    0.0034    0.0425    0.0656    0.0050
          52    0.0233    0.0051    0.0184   -0.0120    0.0388   -0.0155   -0.0244    0.0037
          53    0.0134   -0.0012    0.0099   -0.0099    0.0336   -0.0246   -0.0196    0.0055
          54   -0.0025    0.0065   -0.0004   -0.0151    0.0780   -0.0659   -0.0293    0.0285
          55    0.0078   -0.0349    0.0240   -0.0155   -0.0058    0.0378    0.0071   -0.0262
          56    0.0122   -0.0051    0.0185   -0.0231    0.0756   -0.0610   -0.0357    0.0228
          57   -0.0001    0.0156   -0.0131    0.0042    0.0208   -0.0184   -0.0079    0.0069
          58    0.0070    0.0388   -0.0354    0.0304   -0.0187    0.0355   -0.0242   -0.0223
          59    0.0147    0.0058    0.0007    0.0062   -0.0217    0.0125    0.0047   -0.0048
          60   -0.0005    0.0133   -0.0108    0.0033    0.0161   -0.0133   -0.0028    0.0044
          61    0.0022    0.0122   -0.0119    0.0088   -0.0001    0.0141   -0.0144   -0.0129
          62    0.0302    0.0172    0.0019    0.0084   -0.0045    0.0205   -0.0223   -0.0195
          63   -0.0009    0.0471   -0.0447    0.0334   -0.0186    0.0149   -0.0041   -0.0031
          64   -0.0479   -0.0125   -0.0012   -0.0004   -0.0149   -0.0571   -0.0159    0.0334
          65    0.0531    0.0258   -0.0244    0.0125   -0.0095    0.0345    0.0320   -0.0263
          66   -0.0130   -0.0010    0.0016    0.0042   -0.0105   -0.0064   -0.0164    0.0034
          67   -0.0539   -0.0092    0.0025   -0.0020   -0.0129   -0.0552   -0.0147    0.0389
          68   -0.0093    0.0233    0.0125    0.0044   -0.0208    0.0030    0.0051    0.0288
          69    0.0397    0.0173   -0.0252    0.0113    0.0054    0.0520    0.0179   -0.0478
          70   -0.0517   -0.0064    0.0589    0.1569    0.0665    0.0479    0.0092    0.0421
          71   -0.0117   -0.0171    0.0165    0.0690    0.0070    0.0115   -0.0210   -0.0149
          72   -0.0054    0.0654   -0.0010   -0.1009    0.0064   -0.0030    0.0225   -0.0073
          73   -0.0335    0.0073   -0.0113   -0.0088    0.0160    0.0390   -0.0077    0.0374
          74   -0.0325    0.0170    0.0123   -0.0020    0.0343    0.0531   -0.0208    0.0216
          75   -0.0166    0.0262    0.0986    0.1720    0.0599   -0.0156    0.0470   -0.0250
          76   -0.0352    0.0215   -0.0615   -0.1370   -0.0060    0.0665   -0.0330    0.0678
          77   -0.0128    0.0370   -0.0065   -0.0761    0.0117    0.0066    0.0049   -0.0266
          78   -0.0044    0.0674   -0.0086   -0.1198    0.0022   -0.0010    0.0200   -0.0056
          79   -0.0536   -0.0015    0.0126   -0.0113   -0.0079   -0.0262    0.0572   -0.0654
          80    0.0259   -0.0214    0.0010    0.0004    0.0037   -0.0020   -0.0072    0.0510
          81   -0.0014    0.0090   -0.0075    0.0062   -0.0094    0.0019    0.0061   -0.0096
          82    0.0598   -0.0071   -0.0933    0.0184    0.0331   -0.0075    0.0431   -0.0533
          83   -0.0084    0.0288    0.0215    0.0041   -0.0301    0.0056    0.0034    0.0252
          84   -0.0008   -0.0234   -0.0021   -0.0020    0.0087   -0.0038   -0.0056   -0.0020
          85    0.0102    0.0074    0.0938   -0.0206   -0.0375   -0.0228   -0.0051   -0.0086
          86   -0.0063   -0.0273   -0.0354    0.0034    0.0207   -0.0033    0.0144    0.0170
          87   -0.0032   -0.0170    0.0118   -0.0037   -0.0004   -0.0046   -0.0053   -0.0012
          88    0.0968    0.0071    0.0070    0.0054    0.0027    0.0223   -0.0059    0.0541
          89   -0.0272   -0.0039   -0.0056    0.0006   -0.0089   -0.0172    0.0233    0.0053
          90    0.0005   -0.0335    0.0023   -0.0051    0.0139   -0.0028   -0.0079    0.0020


   Root No.       9        10        11        12        13        14        15        16

                 9 A      10 A      11 A      12 A      13 A      14 A      15 A      16 A   

                 361.4     389.0     432.8     455.7     517.9     531.3     548.3     591.1
  
           1    0.0031   -0.0021    0.0161    0.0262   -0.0060   -0.0182   -0.0084   -0.0151
           2   -0.0019    0.0100   -0.0064   -0.0019   -0.0058   -0.0224    0.0185    0.0093
           3   -0.0100    0.0283    0.0098    0.0114   -0.0024    0.0008   -0.0005    0.0190
           4    0.0030   -0.0015    0.0173    0.0257   -0.0154   -0.0231   -0.0056   -0.0144
           5   -0.0006    0.0132    0.0153   -0.0171    0.0074   -0.0222   -0.0055   -0.0224
           6   -0.0128    0.0069   -0.0108    0.0163    0.0261   -0.0235   -0.0170   -0.0233
           7    0.0298   -0.0064   -0.0138    0.0159    0.0099    0.0108   -0.0097   -0.0146
           8    0.0067    0.0108   -0.0213    0.0023    0.0009   -0.0168    0.0311    0.0182
           9    0.0203   -0.0030   -0.0032   -0.0318   -0.0007   -0.0130    0.0009    0.0110
          10   -0.0058   -0.0218    0.0221   -0.0244   -0.0301   -0.0113    0.0204   -0.0029
          11    0.0105   -0.0116    0.0106    0.0100   -0.0087    0.0167   -0.0083    0.0111
          12   -0.0131   -0.0221   -0.0153    0.0087    0.0175   -0.0022   -0.0047   -0.0019
          13   -0.0060    0.0096    0.0073   -0.0146    0.0050    0.0084   -0.0106    0.0084
          14    0.0138   -0.0050    0.0058    0.0203   -0.0008    0.0276   -0.0183    0.0195
          15    0.0121    0.0018   -0.0054   -0.0040    0.0006   -0.0099    0.0050   -0.0061
          16   -0.0071    0.0095    0.0060   -0.0120    0.0055    0.0092   -0.0104    0.0083
          17   -0.0043   -0.0039   -0.0159    0.0382    0.0011    0.0022    0.0209   -0.0018
          18   -0.0021   -0.0108    0.0100   -0.0252   -0.0066   -0.0081   -0.0114    0.0065
          19    0.0137    0.0363   -0.0045    0.0004    0.0005    0.0043    0.0039   -0.0000
          20   -0.0134    0.0002    0.0061    0.0006   -0.0085    0.0205    0.0061   -0.0182
          21   -0.0102    0.0171    0.0105    0.0227   -0.0130   -0.0230    0.0071    0.0201
          22   -0.0142   -0.0064   -0.0150    0.0073   -0.0082    0.0041    0.0055    0.0111
          23   -0.0057    0.0120    0.0045   -0.0327    0.0128   -0.0138   -0.0026   -0.0217
          24    0.0135   -0.0160    0.0019    0.0134   -0.0061    0.0079   -0.0010    0.0051
          25   -0.0149   -0.0195    0.0004    0.0020    0.0370   -0.0070    0.0139    0.0094
          26    0.0084   -0.0070   -0.0056   -0.0049   -0.0088   -0.0250   -0.0208    0.0174
          27   -0.0125    0.0174    0.0075    0.0023    0.0077    0.0210   -0.0080    0.0272
          28   -0.0131    0.0069   -0.0257   -0.0089   -0.0120    0.0140   -0.0027   -0.0072
          29   -0.0062    0.0095    0.0122    0.0003   -0.0041    0.0306    0.0059   -0.0227
          30    0.0021    0.0021    0.0008    0.0004   -0.0108    0.0098    0.0167   -0.0224
          31    0.0006    0.0007   -0.0240   -0.0042   -0.0170   -0.0156   -0.0187    0.0052
          32    0.0024   -0.0195    0.0044   -0.0048    0.0171   -0.0210   -0.0082    0.0169
          33   -0.0018    0.0018   -0.0015   -0.0088   -0.0046    0.0382   -0.0009   -0.0204
          34    0.0105   -0.0051    0.0278    0.0001    0.0219    0.0087    0.0026    0.0025
          35   -0.0095   -0.0051   -0.0116   -0.0136    0.0030    0.0214   -0.0213   -0.0000
          36    0.0053   -0.0072    0.0005   -0.0045   -0.0021    0.0065    0.0063   -0.0134
          37    0.0075    0.0202    0.0231    0.0400   -0.0200   -0.0299   -0.0041   -0.0039
          38    0.0029    0.0188    0.0226   -0.0274    0.0043   -0.0221   -0.0056   -0.0278
          39   -0.0159   -0.0054   -0.0174    0.0162    0.0295   -0.0201   -0.0165   -0.0231
          40   -0.0066   -0.0238    0.0221   -0.0258   -0.0320   -0.0110    0.0236   -0.0024
          41    0.0078   -0.0419    0.0152    0.0111   -0.0384    0.0096    0.0252    0.0090
          42   -0.0244   -0.0624   -0.0129   -0.0332   -0.0130    0.0230    0.0460    0.0221
          43   -0.0153   -0.0574    0.0226   -0.0560   -0.0622    0.0071    0.0725    0.0146
          44    0.0230   -0.0005    0.0083    0.0128   -0.0090    0.0372   -0.0180    0.0271
          45   -0.0161   -0.0150   -0.0139    0.0185    0.0283   -0.0198   -0.0174   -0.0167
          46    0.0028    0.0245   -0.0141    0.0106    0.0164    0.0046    0.0152   -0.0140
          47    0.0369    0.0115    0.0152    0.0093   -0.0223    0.0162    0.0049    0.0002
          48    0.0308    0.0188   -0.0093    0.0003   -0.0075   -0.0192    0.0312   -0.0289
          49   -0.0211    0.0072    0.0125   -0.0255    0.0105    0.0122   -0.0322    0.0270
          50   -0.0046   -0.0311    0.0093    0.0205    0.0066    0.0405   -0.0438    0.0425
          51    0.0306    0.0186   -0.0102    0.0010   -0.0069   -0.0202    0.0322   -0.0301
          52   -0.0292    0.0082   -0.0027   -0.0099    0.0016   -0.0135    0.0234   -0.0127
          53   -0.0101   -0.0032   -0.0190    0.0368   -0.0001   -0.0059    0.0323   -0.0058
          54   -0.0261   -0.0307    0.0153    0.0137   -0.0124    0.0051   -0.0101   -0.0420
          55   -0.0004    0.0211    0.0128   -0.0175    0.0096    0.0207   -0.0252    0.0278
          56   -0.0357   -0.0176   -0.0124    0.0738   -0.0048    0.0079    0.0351   -0.0496
          57    0.0077   -0.0106    0.0051   -0.0360   -0.0061   -0.0154   -0.0096    0.0156
          58    0.0970   -0.0262   -0.0676    0.0044    0.0337    0.0168    0.0075   -0.0422
          59   -0.0039    0.0263   -0.0107    0.0156   -0.0038   -0.0223    0.0318    0.0246
          60    0.0058   -0.0054    0.0074   -0.0352   -0.0054   -0.0122   -0.0052    0.0152
          61    0.0306   -0.0061   -0.0152    0.0149    0.0110    0.0113   -0.0088   -0.0145
          62    0.0317    0.0069   -0.0488   -0.0221    0.0171   -0.0024    0.0391    0.0194
          63    0.0842   -0.0261   -0.0500   -0.0336    0.0175   -0.0146    0.0160   -0.0223
          64    0.0342    0.0595   -0.0016   -0.0224    0.0172    0.0278    0.0327    0.0284
          65   -0.0497   -0.0333   -0.0052    0.0095   -0.0406    0.0078   -0.0250   -0.0236
          66    0.0056    0.0360    0.0116    0.0037    0.0003   -0.0041    0.0293    0.0449
          67    0.0383    0.0625    0.0065   -0.0096    0.0255    0.0238    0.0278    0.0150
          68    0.0032    0.0109    0.0249    0.0071    0.0116    0.0280    0.0138   -0.0166
          69   -0.0418   -0.0294    0.0106    0.0535   -0.0407   -0.0576   -0.0353   -0.0102
          70   -0.0144   -0.0130   -0.0265   -0.0014   -0.0143    0.0297    0.0211    0.0409
          71   -0.0211    0.0258    0.0050   -0.0268    0.0357   -0.0487   -0.0208   -0.0603
          72    0.0236   -0.0233    0.0046    0.0123   -0.0196    0.0239    0.0065    0.0225
          73   -0.0146   -0.0056   -0.0150    0.0073   -0.0074    0.0026    0.0050    0.0098
          74   -0.0207    0.0077   -0.0293   -0.0562    0.0205    0.0168    0.0158    0.0121
          75    0.0232   -0.0247    0.0105    0.0184   -0.0205    0.0208    0.0047    0.0183
          76   -0.0315   -0.0016   -0.0408   -0.0093    0.0086    0.0103    0.0114    0.0200
          77    0.0177   -0.0012    0.0226   -0.0262   -0.0153    0.0044    0.0046   -0.0036
          78    0.0223   -0.0230    0.0034    0.0111   -0.0181    0.0231    0.0061    0.0213
          79   -0.0452   -0.0454   -0.0255   -0.0174    0.1033    0.0204    0.0535    0.0253
          80    0.0246   -0.0111    0.0011   -0.0066   -0.0331   -0.0207   -0.0454   -0.0052
          81   -0.0176    0.0243    0.0076    0.0066    0.0118    0.0128    0.0010    0.0389
          82   -0.0406   -0.0064   -0.0563   -0.0225   -0.0141    0.0368    0.0110   -0.0117
          83   -0.0037    0.0269    0.0282    0.0188   -0.0131    0.0107    0.0109   -0.0126
          84    0.0046   -0.0077   -0.0049   -0.0096   -0.0045    0.0189    0.0110   -0.0281
          85   -0.0076    0.0084   -0.0914   -0.0250   -0.0646   -0.0145   -0.0397   -0.0014
          86    0.0135   -0.0373    0.0272    0.0022    0.0332   -0.0417    0.0097    0.0013
          87    0.0003   -0.0032   -0.0139   -0.0124   -0.0135    0.0293    0.0001   -0.0290
          88    0.0207   -0.0280    0.0887    0.0040    0.0840    0.0293    0.0413    0.0048
          89   -0.0119    0.0001   -0.0312   -0.0149   -0.0152    0.0099   -0.0347    0.0027
          90    0.0123   -0.0246    0.0008   -0.0058    0.0135   -0.0289   -0.0015    0.0140


   Root No.      17        18        19        20        21        22        23        24

                17 A      18 A      19 A      20 A      21 A      22 A      23 A      24 A   

                 616.2     733.9     766.5     812.7     835.7     869.4     894.7     924.7
  
           1   -0.0046   -0.0061   -0.0066   -0.0010   -0.0212    0.0086   -0.0008    0.0066
           2   -0.0168    0.0020   -0.0001    0.0009    0.0053   -0.0025    0.0013    0.0077
           3    0.0149    0.0046   -0.0004   -0.0030   -0.0008   -0.0035   -0.0021    0.0032
           4   -0.0109    0.0240    0.0253   -0.0033    0.0091   -0.0013   -0.0109    0.0007
           5    0.0061    0.0067    0.0072   -0.0020    0.0026   -0.0008   -0.0019   -0.0015
           6   -0.0090    0.0104    0.0103   -0.0009    0.0019   -0.0176    0.0095   -0.0135
           7    0.0190   -0.0019   -0.0175    0.0011   -0.0239   -0.0122   -0.0226    0.0138
           8   -0.0164    0.0000    0.0293   -0.0032   -0.0095    0.0031    0.0023    0.0096
           9   -0.0145   -0.0006    0.0102   -0.0022   -0.0106   -0.0114    0.0099    0.0138
          10    0.0137    0.0122    0.0157   -0.0007    0.0170    0.0052    0.0005    0.0000
          11   -0.0035    0.0034    0.0004    0.0002    0.0071   -0.0053    0.0077    0.0122
          12   -0.0069   -0.0058   -0.0053   -0.0029    0.0026    0.0098   -0.0039    0.0206
          13   -0.0082   -0.0007    0.0003   -0.0001    0.0105    0.0009    0.0143   -0.0038
          14   -0.0135    0.0010   -0.0008    0.0009    0.0033   -0.0102    0.0130   -0.0104
          15    0.0021   -0.0018   -0.0017   -0.0003    0.0041    0.0275   -0.0250   -0.0012
          16   -0.0066   -0.0023   -0.0038    0.0006   -0.0047   -0.0078    0.0024    0.0039
          17    0.0104   -0.0004    0.0164   -0.0028   -0.0166    0.0079   -0.0153   -0.0208
          18   -0.0113   -0.0006   -0.0025    0.0025   -0.0054   -0.0007   -0.0053   -0.0111
          19   -0.0014   -0.0170   -0.0046    0.0269   -0.0098    0.0183    0.0223   -0.0038
          20   -0.0129   -0.0014   -0.0147   -0.0078    0.0059   -0.0084   -0.0087   -0.0008
          21    0.0084   -0.0059   -0.0313    0.0088    0.0047    0.0130    0.0109   -0.0021
          22   -0.0088    0.0069    0.0101   -0.0002    0.0061   -0.0041   -0.0018   -0.0034
          23    0.0170   -0.0053   -0.0080   -0.0005   -0.0067    0.0093   -0.0118    0.0073
          24   -0.0034    0.0016    0.0029    0.0003    0.0009   -0.0070    0.0058   -0.0123
          25   -0.0019   -0.0185   -0.0029   -0.0327    0.0008    0.0024    0.0072   -0.0016
          26    0.0097    0.0072   -0.0171    0.0102    0.0046   -0.0061   -0.0078   -0.0039
          27    0.0378    0.0073    0.0153   -0.0136    0.0053   -0.0041   -0.0164   -0.0058
          28   -0.0038   -0.0163    0.0006    0.0109    0.0108   -0.0089   -0.0093    0.0007
          29   -0.0126   -0.0052   -0.0200    0.0007    0.0029    0.0025    0.0009   -0.0064
          30   -0.0234   -0.0090   -0.0231    0.0011    0.0071   -0.0070   -0.0070   -0.0056
          31    0.0041   -0.0083   -0.0083   -0.0338    0.0015   -0.0012    0.0041   -0.0043
          32    0.0049    0.0013   -0.0158    0.0117    0.0030   -0.0045   -0.0022   -0.0018
          33    0.0024    0.0029    0.0337    0.0003   -0.0084    0.0100    0.0078    0.0057
          34    0.0053   -0.0135    0.0161    0.0190    0.0065   -0.0078   -0.0103    0.0042
          35    0.0158    0.0089    0.0234   -0.0010   -0.0102    0.0129    0.0148    0.0056
          36   -0.0107   -0.0029    0.0006    0.0023   -0.0002   -0.0027   -0.0007    0.0005
          37   -0.0117    0.0318    0.0278    0.0020    0.0069    0.0027   -0.0197    0.0064
          38    0.0154    0.0065    0.0091    0.0002   -0.0065    0.0015   -0.0137   -0.0337
          39   -0.0129    0.0061    0.0062   -0.0039    0.0065   -0.0193    0.0188    0.0043
          40    0.0167    0.0111    0.0146   -0.0003    0.0126    0.0037   -0.0008   -0.0034
          41    0.0233    0.0051    0.0025    0.0026   -0.0365   -0.0329   -0.0149   -0.0208
          42    0.0459   -0.0439   -0.0471    0.0081   -0.0732   -0.0171    0.0028   -0.0374
          43    0.0627   -0.0157   -0.0145    0.0089   -0.0563   -0.0261   -0.0049   -0.0646
          44   -0.0137   -0.0036   -0.0073    0.0042    0.0314    0.0266    0.0087    0.0361
          45   -0.0178    0.0081    0.0097   -0.0082    0.0148    0.0021   -0.0017    0.0291
          46    0.0240   -0.0039    0.0004   -0.0042   -0.0104   -0.0408    0.0522    0.0303
          47    0.0226    0.0136    0.0030    0.0051   -0.0064   -0.0941    0.0777   -0.0296
          48    0.0397    0.0046    0.0004    0.0005   -0.0118   -0.0443    0.0326    0.0024
          49   -0.0385   -0.0065    0.0005    0.0019    0.0101    0.0515   -0.0335   -0.0645
          50   -0.0495   -0.0043   -0.0044   -0.0013    0.0323    0.0636   -0.0362    0.0222
          51    0.0404    0.0043    0.0002    0.0002   -0.0139   -0.0440    0.0296    0.0090
          52    0.0230    0.0023    0.0057   -0.0028    0.0246   -0.0094    0.0390    0.0762
          53    0.0162    0.0008    0.0230   -0.0042   -0.0110    0.0088   -0.0065   -0.0002
          54    0.0616    0.0091   -0.0579    0.0061    0.0682   -0.0257    0.0487    0.0483
          55   -0.0352   -0.0072    0.0003    0.0000   -0.0173    0.0260   -0.0397   -0.0734
          56    0.0806    0.0098   -0.0246   -0.0033    0.0610   -0.0005    0.0352    0.0434
          57   -0.0245   -0.0022    0.0113    0.0029   -0.0284   -0.0124   -0.0047   -0.0016
          58    0.0622    0.0034   -0.0170    0.0058    0.0845    0.0499    0.0138   -0.0588
          59   -0.0163    0.0005    0.0269   -0.0132   -0.0172    0.0020   -0.0013    0.0385
          60   -0.0264   -0.0023    0.0102    0.0015   -0.0379   -0.0296    0.0015    0.0207
          61    0.0197   -0.0019   -0.0164    0.0010   -0.0219   -0.0112   -0.0220    0.0126
          62   -0.0007    0.0050    0.0429    0.0014    0.0503    0.0160    0.0290   -0.0227
          63    0.0268    0.0038    0.0069    0.0017    0.0854    0.0508    0.0466   -0.0525
          64    0.0019    0.0206   -0.0270   -0.0285    0.0181   -0.0144   -0.0151   -0.0009
          65    0.0155   -0.0424    0.0233    0.0531   -0.0115    0.0153    0.0341   -0.0155
          66    0.0129    0.0248   -0.0470   -0.0356    0.0280   -0.0141   -0.0185    0.0004
          67   -0.0045    0.0227   -0.0319   -0.0305    0.0081   -0.0051   -0.0123    0.0033
          68   -0.0094    0.0256   -0.0345   -0.0413    0.0014   -0.0089   -0.0197    0.0040
          69    0.0202   -0.0564    0.0051    0.0905   -0.0430    0.0653    0.0745   -0.0104
          70   -0.0056   -0.0153   -0.0190    0.0029   -0.0006    0.0106    0.0107    0.0265
          71    0.0131    0.0124    0.0171   -0.0009   -0.0050   -0.0228    0.0002   -0.0605
          72   -0.0019   -0.0040   -0.0056   -0.0002    0.0016    0.0102   -0.0054    0.0246
          73   -0.0091    0.0080    0.0113   -0.0004    0.0066   -0.0054   -0.0015   -0.0059
          74    0.0229   -0.0450   -0.0556    0.0070   -0.0232    0.0182    0.0241    0.0210
          75   -0.0020   -0.0031   -0.0029    0.0007    0.0005    0.0109   -0.0070    0.0250
          76   -0.0081   -0.0100   -0.0098    0.0038   -0.0006   -0.0160    0.0322   -0.0279
          77    0.0196   -0.0048   -0.0100   -0.0029   -0.0037    0.0432   -0.0482    0.0742
          78   -0.0014   -0.0052   -0.0069    0.0002    0.0002    0.0108   -0.0044    0.0232
          79   -0.0147    0.0611   -0.0200    0.2073    0.0229   -0.0331   -0.0367   -0.0036
          80    0.0129   -0.0317   -0.0002   -0.0907   -0.0091    0.0196    0.0247   -0.0059
          81    0.0374    0.0187    0.0070    0.0097    0.0103   -0.0149   -0.0298   -0.0042
          82   -0.0192    0.1373   -0.0902   -0.1744   -0.0297    0.0251    0.0140   -0.0108
          83   -0.0097   -0.0617   -0.0332    0.0634    0.0270   -0.0023   -0.0041   -0.0138
          84   -0.0226    0.0041   -0.0007   -0.0110   -0.0025   -0.0090   -0.0071    0.0009
          85   -0.0070    0.1247   -0.0641    0.1594   -0.0236    0.0066   -0.0082    0.0117
          86   -0.0221   -0.0674   -0.0222   -0.0695    0.0126   -0.0115    0.0193   -0.0081
          87   -0.0127    0.0173    0.0132    0.0287   -0.0127    0.0096    0.0129    0.0085
          88   -0.0066    0.1315   -0.0427    0.0062   -0.0663    0.0785    0.0909   -0.0096
          89    0.0208   -0.0363    0.0409    0.0028    0.0125   -0.0150   -0.0165    0.0104
          90    0.0002    0.0127   -0.0050   -0.0019   -0.0076   -0.0046    0.0078    0.0036


   Root No.      25        26        27        28        29        30        31        32

                25 A      26 A      27 A      28 A      29 A      30 A      31 A      32 A   

                 933.6     944.4     965.9     979.5     990.4    1004.0    1014.1    1047.3
  
           1   -0.0067    0.0061    0.0071    0.0031   -0.0175    0.0036   -0.0080    0.0088
           2   -0.0012   -0.0009   -0.0100   -0.0015   -0.0040    0.0026   -0.0186   -0.0137
           3   -0.0068   -0.0036   -0.0020    0.0003   -0.0086   -0.0020   -0.0106   -0.0023
           4    0.0062   -0.0134    0.0026   -0.0007    0.0028    0.0056   -0.0044    0.0093
           5    0.0036   -0.0066    0.0028   -0.0010    0.0007    0.0018   -0.0024   -0.0010
           6    0.0024    0.0040   -0.0063   -0.0013    0.0008    0.0090   -0.0056   -0.0030
           7    0.0016    0.0122   -0.0200   -0.0033    0.0092   -0.0068    0.0004   -0.0149
           8   -0.0032   -0.0030   -0.0112   -0.0006   -0.0042   -0.0010    0.0044   -0.0095
           9   -0.0072    0.0037    0.0133    0.0018   -0.0051   -0.0107   -0.0001    0.0085
          10   -0.0149    0.0392   -0.0037    0.0013    0.0095    0.0001    0.0056   -0.0082
          11    0.0002   -0.0073   -0.0096   -0.0006    0.0002    0.0056    0.0075    0.0152
          12   -0.0025   -0.0032    0.0134    0.0020    0.0059    0.0007    0.0027   -0.0008
          13   -0.0060    0.0047    0.0223    0.0035   -0.0069   -0.0073   -0.0088    0.0004
          14   -0.0016    0.0067    0.0083    0.0009   -0.0031   -0.0036   -0.0071   -0.0114
          15    0.0008   -0.0021   -0.0183   -0.0028   -0.0081   -0.0073   -0.0020   -0.0002
          16    0.0084   -0.0199   -0.0138   -0.0026    0.0005    0.0092    0.0059    0.0090
          17   -0.0038    0.0184    0.0221    0.0017    0.0085    0.0011    0.0027    0.0096
          18    0.0063   -0.0018   -0.0058   -0.0005    0.0079    0.0099    0.0019   -0.0062
          19   -0.0214   -0.0067   -0.0050    0.0182    0.0004    0.0019    0.0113   -0.0096
          20   -0.0050   -0.0010    0.0015   -0.0046   -0.0051   -0.0016   -0.0066    0.0031
          21    0.0533    0.0127    0.0029   -0.0024    0.0103   -0.0034    0.0075    0.0018
          22    0.0044   -0.0183    0.0080   -0.0003    0.0060   -0.0136    0.0080   -0.0137
          23   -0.0002   -0.0019    0.0073    0.0020    0.0032   -0.0006    0.0005   -0.0014
          24   -0.0013    0.0069   -0.0138   -0.0040   -0.0075   -0.0109    0.0066    0.0076
          25   -0.0032   -0.0011    0.0023   -0.0367   -0.0054    0.0059    0.0108   -0.0085
          26   -0.0138   -0.0023    0.0007    0.0170    0.0064   -0.0023    0.0004    0.0061
          27   -0.0438   -0.0050    0.0017   -0.0031    0.0031    0.0055    0.0086    0.0019
          28    0.0028    0.0011    0.0013   -0.0333    0.0154   -0.0063   -0.0132    0.0112
          29   -0.0069   -0.0010    0.0022    0.0090    0.0064    0.0041    0.0139   -0.0030
          30   -0.0233   -0.0043    0.0019   -0.0028    0.0054    0.0019    0.0052    0.0006
          31   -0.0045   -0.0034   -0.0077    0.0298    0.0166   -0.0085   -0.0115    0.0070
          32   -0.0050   -0.0000    0.0058   -0.0138   -0.0050    0.0027    0.0086   -0.0013
          33    0.0257    0.0044   -0.0040    0.0061   -0.0002   -0.0023   -0.0045    0.0008
          34    0.0242    0.0079    0.0066    0.0159   -0.0206    0.0088    0.0137   -0.0082
          35    0.0323    0.0059   -0.0027   -0.0059    0.0067   -0.0028   -0.0092   -0.0003
          36   -0.0052   -0.0015   -0.0001    0.0012   -0.0043    0.0004   -0.0014   -0.0014
          37    0.0042   -0.0450   -0.0018    0.0110   -0.0262    0.0241   -0.0611    0.0376
          38    0.0089   -0.0127   -0.0094   -0.0074   -0.0236   -0.0651    0.0178    0.0058
          39   -0.0003    0.0184    0.0033   -0.0013    0.0245    0.0413    0.0020   -0.0168
          40   -0.0120    0.0332   -0.0039    0.0010    0.0075    0.0009    0.0037   -0.0056
          41    0.0420   -0.0758   -0.0619   -0.0135   -0.0051    0.0628    0.0004    0.0835
          42    0.0347   -0.0952    0.0426    0.0038   -0.0463   -0.0417   -0.0297   -0.0173
          43    0.0295   -0.0509   -0.0030   -0.0034   -0.0277   -0.0073   -0.0258   -0.0009
          44   -0.0279    0.0156   -0.0275    0.0027   -0.0222   -0.0574    0.0298    0.0232
          45   -0.0025    0.0156    0.0227    0.0018    0.0307    0.0377    0.0010   -0.0080
          46   -0.0160   -0.0027    0.1132    0.0164   -0.0017   -0.0382   -0.0001    0.0720
          47    0.0062    0.0154    0.0034    0.0002    0.0198    0.0422   -0.0094   -0.0695
          48    0.0010    0.0009    0.0203    0.0028    0.0094    0.0073    0.0003   -0.0061
          49    0.0122   -0.0105   -0.0050   -0.0041   -0.0227    0.0225   -0.0431   -0.0286
          50   -0.0163    0.0143   -0.0282   -0.0018   -0.0250   -0.0531    0.0081    0.0134
          51    0.0016   -0.0011    0.0171    0.0025    0.0128    0.0090    0.0056   -0.0003
          52   -0.0015   -0.0631   -0.0448   -0.0025   -0.0190    0.0036    0.0545    0.0925
          53   -0.0072    0.0062    0.0131    0.0018    0.0042    0.0005    0.0214    0.0398
          54    0.0059   -0.0301   -0.0476   -0.0057   -0.0268   -0.0136   -0.0404   -0.0761
          55    0.0265   -0.0220   -0.0022   -0.0070   -0.0072    0.0368   -0.0335   -0.0082
          56   -0.0092   -0.0192   -0.0200   -0.0032   -0.0381   -0.0217   -0.0246   -0.0157
          57    0.0002    0.0131    0.0066    0.0034    0.0283    0.0062    0.0287    0.0114
          58    0.0137   -0.0310    0.0024   -0.0019   -0.0038    0.0315   -0.0079    0.0055
          59   -0.0207    0.0031   -0.0260   -0.0078   -0.0510   -0.0250   -0.0445   -0.0494
          60   -0.0017    0.0131    0.0138    0.0049    0.0224   -0.0100    0.0267    0.0220
          61    0.0028    0.0093   -0.0221   -0.0039    0.0105   -0.0047    0.0030   -0.0144
[...]
 FREQ.      1850.86         C 10 -- C 12         +27.4% ( 78.0%)     99.3%
 T-DIPOLE    0.3760         C 11 -- C 12         +16.6% ( 60.6%)     97.6%
 TRAVEL      0.0552         C  9 -- C 11         +16.4% ( 60.2%)     98.1%
 RED. MASS   3.0435         C 12 -- H 30          +8.8% ( 44.2%)      2.3%
 EFF. MASS  11.9445

 VIBRATION   66   66A         ATOM PAIR      ENERGY CONTRIBUTION    RADIAL
 FREQ.      1865.44         C  9 -- C 11         +28.2% ( 77.7%)     99.8%
 T-DIPOLE    0.3835         C 10 -- C 12         +16.6% ( 59.6%)     98.7%
 TRAVEL      0.0554         C 11 -- C 12         +12.4% ( 51.5%)      2.0%
 RED. MASS   2.8754         C  1 -- C  9          +9.5% ( 45.2%)     52.4%
 EFF. MASS  11.7829

 VIBRATION   67   67A         ATOM PAIR      ENERGY CONTRIBUTION    RADIAL
 FREQ.      2860.09         C  2 -- H 13         +96.0% ( 99.6%)    100.0%
 T-DIPOLE    0.0277         C  2 -- C  4          +1.1% ( 10.4%)      8.7%
 TRAVEL      0.1278         C  2 -- C  8          +1.0% ( 10.3%)      8.7%
 RED. MASS   0.9148         C  1 -- C  2          +1.0% ( 10.3%)      7.3%
 EFF. MASS   1.4429

 VIBRATION   68   68A         ATOM PAIR      ENERGY CONTRIBUTION    RADIAL
 FREQ.      2895.52         C  7 -- H 22         +60.8% ( 80.9%)     97.9%
 T-DIPOLE    0.1324         C  7 -- H 23         +30.1% ( 56.9%)     93.8%
 TRAVEL      0.1235         C  4 -- H 15          +5.8% ( 24.9%)     98.9%
 RED. MASS   0.4970         C  7 -- C 10          +1.1% ( 10.7%)      1.0%
 EFF. MASS   1.5264

 VIBRATION   69   69A         ATOM PAIR      ENERGY CONTRIBUTION    RADIAL
 FREQ.      2924.35         C  4 -- H 15         +73.6% ( 88.4%)     99.1%
 T-DIPOLE    0.0282         C  4 -- H 14         +14.6% ( 39.3%)     87.3%
 TRAVEL      0.1238         C  7 -- H 23          +4.5% ( 21.9%)     97.4%
 RED. MASS   0.5935         C  7 -- H 22          +2.8% ( 17.1%)     95.3%
 EFF. MASS   1.5053

 VIBRATION   70   70A         ATOM PAIR      ENERGY CONTRIBUTION    RADIAL
 FREQ.      2946.42         C  3 -- H 20         +38.3% ( 64.4%)     97.7%
 T-DIPOLE    0.0111         C  6 -- H 19         +22.3% ( 49.1%)     97.8%
 TRAVEL      0.1215         C  3 -- H 21         +21.9% ( 48.6%)     94.5%
 RED. MASS   0.2801         C  6 -- H 18         +11.6% ( 35.4%)     94.0%
 EFF. MASS   1.5499

 VIBRATION   71   71A         ATOM PAIR      ENERGY CONTRIBUTION    RADIAL
 FREQ.      2954.55         C  6 -- H 19         +23.3% ( 50.1%)     97.6%
 T-DIPOLE    0.0178         C  3 -- H 20         +19.4% ( 45.7%)     97.4%
 TRAVEL      0.1219         C  5 -- H 17         +15.4% ( 40.7%)     97.6%
 RED. MASS   0.1818         C  6 -- H 18         +14.7% ( 39.8%)     95.0%
 EFF. MASS   1.5365         C  3 -- H 21         +14.5% ( 39.6%)     95.7%

 VIBRATION   72   72A         ATOM PAIR      ENERGY CONTRIBUTION    RADIAL
 FREQ.      2963.34         C  5 -- H 17         +38.9% ( 64.6%)     97.4%
 T-DIPOLE    0.0101         C  5 -- H 16         +29.0% ( 55.8%)     95.7%
 TRAVEL      0.1217         C  6 -- H 19         +14.1% ( 38.8%)     97.3%
 RED. MASS   0.2902         C  6 -- H 18         +11.3% ( 34.8%)     96.0%
 EFF. MASS   1.5361

 VIBRATION   73   73A         ATOM PAIR      ENERGY CONTRIBUTION    RADIAL
 FREQ.      2983.95         C  7 -- H 23         +64.7% ( 79.3%)     99.1%
 T-DIPOLE    0.1403         C  7 -- H 22         +32.5% ( 56.2%)     95.2%
 TRAVEL      0.1328         C  7 -- C 10          +0.6% (  7.8%)     18.9%
 RED. MASS   0.5133         C  1 -- C  7          +0.6% (  7.8%)     26.5%
 EFF. MASS   1.2822

 VIBRATION   74   74A         ATOM PAIR      ENERGY CONTRIBUTION    RADIAL
 FREQ.      3020.44         C  4 -- H 14         +80.6% ( 89.3%)     99.8%
 T-DIPOLE    0.0313         C  4 -- H 15         +13.9% ( 37.0%)     82.7%
 TRAVEL      0.1303         C  5 -- H 17          +2.0% ( 14.0%)     97.7%
 RED. MASS   0.6394         C  5 -- H 16          +1.8% ( 13.2%)     97.5%
 EFF. MASS   1.3150

 VIBRATION   75   75A         ATOM PAIR      ENERGY CONTRIBUTION    RADIAL
 FREQ.      3028.12         C  3 -- H 21         +48.3% ( 68.5%)     98.7%
 T-DIPOLE    0.0350         C  3 -- H 20         +30.9% ( 54.8%)     96.0%
 TRAVEL      0.1320         C  6 -- H 18          +9.8% ( 30.9%)     98.3%
 RED. MASS   0.3401         C  6 -- H 19          +8.2% ( 28.2%)     96.9%
 EFF. MASS   1.2775

 VIBRATION   76   76A         ATOM PAIR      ENERGY CONTRIBUTION    RADIAL
 FREQ.      3035.45         C  6 -- H 18         +33.2% ( 56.8%)     98.8%
 T-DIPOLE    0.0388         C  6 -- H 19         +20.2% ( 44.3%)     95.8%
 TRAVEL      0.1320         C  5 -- H 16         +14.7% ( 37.8%)     98.3%
 RED. MASS   0.2004         C  5 -- H 17         +11.8% ( 33.9%)     96.9%
 EFF. MASS   1.2748         C  3 -- H 21         +11.4% ( 33.2%)     99.0%

 VIBRATION   77   77A         ATOM PAIR      ENERGY CONTRIBUTION    RADIAL
 FREQ.      3040.05         C  9 -- H 27         +80.8% ( 91.2%)    100.0%
 T-DIPOLE    0.2729         C 11 -- H 29         +16.0% ( 40.6%)     99.9%
 TRAVEL      0.1226         C  9 -- C 11          +1.2% ( 11.1%)      8.3%
 RED. MASS   0.6653         C  1 -- C  9          +1.1% ( 10.7%)     15.6%
 EFF. MASS   1.4746

 VIBRATION   78   78A         ATOM PAIR      ENERGY CONTRIBUTION    RADIAL
 FREQ.      3041.77         C  5 -- H 16         +41.9% ( 63.8%)     98.7%
 T-DIPOLE    0.0193         C  5 -- H 17         +25.2% ( 49.5%)     95.7%
 TRAVEL      0.1315         C  6 -- H 18         +18.4% ( 42.3%)     99.0%
 RED. MASS   0.2769         C  6 -- H 19          +8.7% ( 29.1%)     94.5%
 EFF. MASS   1.2824

 VIBRATION   79   79A         ATOM PAIR      ENERGY CONTRIBUTION    RADIAL
 FREQ.      3052.47         C 10 -- H 28         +68.2% ( 83.8%)    100.0%
 T-DIPOLE    0.2459         C 12 -- H 30         +27.4% ( 53.1%)    100.0%
 TRAVEL      0.1226         C 10 -- C 12          +1.1% ( 10.8%)      3.1%
 RED. MASS   0.5285         C 11 -- H 29          +1.0% ( 10.2%)     99.8%
 EFF. MASS   1.4689

 VIBRATION   80   80A         ATOM PAIR      ENERGY CONTRIBUTION    RADIAL
 FREQ.      3064.38         C 11 -- H 29         +62.3% ( 80.2%)    100.0%
 T-DIPOLE    0.3304         C  9 -- H 27         +12.6% ( 36.1%)     99.7%
 TRAVEL      0.1185         C 10 -- H 28         +11.3% ( 34.1%)     99.9%
 RED. MASS   0.4263         C 12 -- H 30         +10.3% ( 32.6%)     99.8%
 EFF. MASS   1.5671

 VIBRATION   81   81A         ATOM PAIR      ENERGY CONTRIBUTION    RADIAL
 FREQ.      3071.51         C  8 -- H 24         +58.5% ( 79.0%)     98.2%
 T-DIPOLE    0.0423         C  8 -- H 26         +37.5% ( 63.2%)     94.9%
 TRAVEL      0.1208         C  8 -- H 25          +2.9% ( 17.5%)     35.1%
 RED. MASS   0.5130         C  2 -- C  8          +1.0% ( 10.4%)      0.0%
 EFF. MASS   1.5049

 VIBRATION   82   82A         ATOM PAIR      ENERGY CONTRIBUTION    RADIAL
 FREQ.      3077.76         C 12 -- H 30         +59.2% ( 78.0%)    100.0%
 T-DIPOLE    0.3711         C 11 -- H 29         +17.5% ( 42.5%)    100.0%
 TRAVEL      0.1170         C 10 -- H 28         +17.2% ( 42.1%)     99.8%
 RED. MASS   0.4113         C  9 -- H 27          +2.4% ( 15.6%)     99.6%
 EFF. MASS   1.5993

 VIBRATION   83   83A         ATOM PAIR      ENERGY CONTRIBUTION    RADIAL
 FREQ.      3080.16         C  8 -- H 25         +60.8% ( 80.4%)     98.6%
 T-DIPOLE    0.0276         C  8 -- H 26         +29.2% ( 55.8%)     92.3%
 TRAVEL      0.1204         C  8 -- H 24          +8.9% ( 30.8%)     70.4%
 RED. MASS   0.4932         C  2 -- C  8          +1.0% ( 10.5%)      0.0%
 EFF. MASS   1.5094

 VIBRATION   84   84A         ATOM PAIR      ENERGY CONTRIBUTION    RADIAL
 FREQ.      3172.14         C  8 -- H 25         +35.9% ( 57.7%)     97.4%
 T-DIPOLE    0.0428         C  8 -- H 26         +32.3% ( 54.7%)     96.9%
 TRAVEL      0.1368         C  8 -- H 24         +31.5% ( 54.0%)     96.8%
 RED. MASS   0.3279         C  2 -- C  8          +0.3% (  5.0%)     99.7%
 EFF. MASS   1.1351

      SYMMETRY NUMBER FOR POINT-GROUP C1  =  1


          SYSTEM IS A GROUND STATE



 InChI=1S/C12H18/c1-11-7-3-6-10-12(11)8-4-2-5-9-12/h2,4-5,8,11H,3,6-7,9-10H2,1H3


          MOLECULE IS NOT LINEAR

          THERE ARE 84 GENUINE VIBRATIONS IN THIS SYSTEM
          THIS THERMODYNAMICS CALCULATION IS LIMITED TO
          MOLECULES WHICH HAVE NO INTERNAL ROTATIONS




                    CALCULATED THERMODYNAMIC PROPERTIES
                                          *
   TEMP. (K)   PARTITION FUNCTION   H.O.F.    ENTHALPY  HEAT CAPACITY ENTROPY
                                   KCAL/MOL   CAL/MOLE    CAL/K/MOL  CAL/K/MOL


 298.00  VIB.     0.2188D+03                  4891.3471    38.8584    27.1213
         ROT.     0.9283D+06                   888.2813     2.9808    30.2873
         INT.     0.2031D+09                  5779.6284    41.8392    57.4085
         TRA.     0.1998D+28                  1480.4688     4.9680    41.1588
         TOT.                        0.016    7260.0972    46.8073    98.5673

 200.00  VIB.     0.1728D+02                  1900.8219    22.6473    15.1668
         ROT.     0.5104D+06                   596.1620     2.9808    29.0986
         INT.     0.8820D+07                  2496.9839    25.6281    44.2654
         TRA.     0.1099D+28                   993.6033     4.9680    39.1777
         TOT.                       -3.753    3490.5871    30.5961    83.4431

 210.00  VIB.     0.2200D+02                  2134.7968    24.1542    16.3081
         ROT.     0.5492D+06                   625.9700     2.9808    29.2440
         INT.     0.1208D+08                  2760.7668    27.1350    45.5521
         TRA.     0.1182D+28                  1043.2834     4.9680    39.4201
         TOT.                       -3.440    3804.0503    32.1030    84.9722

 220.00  VIB.     0.2813D+02                  2384.0361    25.7002    17.4673
         ROT.     0.5888D+06                   655.7781     2.9808    29.3827
         INT.     0.1656D+08                  3039.8143    28.6810    46.8500
         TRA.     0.1268D+28                  1092.9636     4.9680    39.6512
         TOT.                       -3.111    4132.7778    33.6490    86.5012

 230.00  VIB.     0.3611D+02                  2648.9287    27.2846    18.6445
         ROT.     0.6294D+06                   685.5862     2.9808    29.5152
         INT.     0.2273D+08                  3334.5149    30.2654    48.1597
         TRA.     0.1355D+28                  1142.6437     4.9680    39.8720
         TOT.                       -2.767    4477.1586    35.2335    88.0317

 240.00  VIB.     0.4656D+02                  2929.8514    28.9058    19.8399
         ROT.     0.6709D+06                   715.3943     2.9808    29.6420
         INT.     0.3124D+08                  3645.2457    31.8866    49.4819
         TRA.     0.1444D+28                  1192.3239     4.9680    40.0835
         TOT.                       -2.406    4837.5696    36.8547    89.5654

 250.00  VIB.     0.6025D+02                  3227.1589    30.5611    21.0533
         ROT.     0.7133D+06                   745.2024     2.9808    29.7637
         INT.     0.4298D+08                  3972.3614    33.5419    50.8170
         TRA.     0.1536D+28                  1242.0041     4.9680    40.2863
         TOT.                       -2.030    5214.3654    38.5099    91.1033

 260.00  VIB.     0.7828D+02                  3541.1752    32.2470    22.2847
         ROT.     0.7565D+06                   775.0105     2.9808    29.8806
         INT.     0.5922D+08                  4316.1858    35.2278    52.1653
         TRA.     0.1629D+28                  1291.6842     4.9680    40.4811
         TOT.                       -1.636    5607.8700    40.1958    92.6465

 270.00  VIB.     0.1021D+03                  3872.1870    33.9595    23.5337
         ROT.     0.8006D+06                   804.8186     2.9808    29.9931
         INT.     0.8172D+08                  4677.0056    36.9403    53.5269
         TRA.     0.1724D+28                  1341.3644     4.9680    40.6686
         TOT.                       -1.226    6018.3700    41.9083    94.1955

 280.00  VIB.     0.1336D+03                  4220.4389    35.6943    24.8000
         ROT.     0.8455D+06                   834.6267     2.9808    30.1015
         INT.     0.1130D+09                  5055.0656    38.6751    54.9016
         TRA.     0.1820D+28                  1391.0445     4.9680    40.8493
         TOT.                       -0.798    6446.1102    43.6431    95.7509

 290.00  VIB.     0.1755D+03                  4586.1311    37.4468    26.0831
         ROT.     0.8912D+06                   864.4348     2.9808    30.2061
         INT.     0.1564D+09                  5450.5660    40.4276    56.2893
         TRA.     0.1919D+28                  1440.7247     4.9680    41.0236
         TOT.                       -0.353    6891.2907    45.3956    97.3129

 300.00  VIB.     0.2313D+03                  4969.4178    39.2124    27.3824
         ROT.     0.9377D+06                   894.2429     2.9808    30.3072
         INT.     0.2169D+09                  5863.6608    42.1932    57.6896
         TRA.     0.2019D+28                  1490.4049     4.9680    41.1921
         TOT.                        0.110    7354.0656    47.1612    98.8816

 310.00  VIB.     0.3059D+03                  5370.4073    40.9866    28.6970
         ROT.     0.9849D+06                   924.0510     2.9808    30.4049
         INT.     0.3013D+09                  6294.4583    43.9674    59.1020
         TRA.     0.2120D+28                  1540.0850     4.9680    41.3550
         TOT.                        0.591    7834.5433    48.9354   100.4569

 320.00  VIB.     0.4059D+03                  5789.1627    42.7649    30.0264
         ROT.     0.1033D+07                   953.8591     2.9808    30.4996
         INT.     0.4193D+09                  6743.0218    45.7457    60.5260
         TRA.     0.2224D+28                  1589.7652     4.9680    41.5127
         TOT.                        1.089    8332.7870    50.7137   102.0387

 330.00  VIB.     0.5403D+03                  6225.7046    44.5432    31.3696
         ROT.     0.1082D+07                   983.6672     2.9808    30.5913
         INT.     0.5845D+09                  7209.3718    47.5240    61.9609
         TRA.     0.2329D+28                  1639.4454     4.9680    41.6656
         TOT.                        1.605    8848.8172    52.4920   103.6264

 340.00  VIB.     0.7215D+03                  6680.0127    46.3175    32.7257
         ROT.     0.1131D+07                  1013.4753     2.9808    30.6803
         INT.     0.8163D+09                  7693.4880    49.2983    63.4059
         TRA.     0.2436D+28                  1689.1255     4.9680    41.8139
         TOT.                        2.139    9382.6135    54.2663   105.2198

 350.00  VIB.     0.9665D+03                  7152.0293    48.0843    34.0938
         ROT.     0.1182D+07                  1043.2834     2.9808    30.7667
         INT.     0.1142D+10                  8195.3127    51.0651    64.8605
         TRA.     0.2544D+28                  1738.8057     4.9680    41.9579
         TOT.                        2.690    9934.1184    56.0331   106.8184

 360.00  VIB.     0.1298D+04                  7641.6625    49.8403    35.4730
         ROT.     0.1233D+07                  1073.0915     2.9808    30.8507
         INT.     0.1601D+10                  8714.7540    52.8211    66.3237
         TRA.     0.2654D+28                  1788.4859     4.9680    42.0979
         TOT.                        3.259   10503.2398    57.7891   108.4215

 370.00  VIB.     0.1749D+04                  8148.7891    51.5825    36.8624
         ROT.     0.1284D+07                  1102.8996     2.9808    30.9323
         INT.     0.2247D+10                  9251.6887    54.5633    67.7947
         TRA.     0.2765D+28                  1838.1660     4.9680    42.2340
         TOT.                        3.846   11089.8548    59.5314   110.0287

 380.00  VIB.     0.2364D+04                  8673.2587    53.3085    38.2610
         ROT.     0.1337D+07                  1132.7077     2.9808    31.0118
         INT.     0.3160D+10                  9805.9664    56.2893    69.2728
         TRA.     0.2878D+28                  1887.8462     4.9680    42.3665
         TOT.                        4.450   11693.8126    61.2573   111.6392

 390.00  VIB.     0.3202D+04                  9214.8964    55.0158    39.6678
         ROT.     0.1390D+07                  1162.5158     2.9808    31.0893
         INT.     0.4450D+10                 10377.4122    57.9966    70.7570
         TRA.     0.2992D+28                  1937.5263     4.9680    42.4955
         TOT.                        5.071   12314.9386    62.9646   113.2526

 400.00  VIB.     0.4349D+04                  9773.5064    56.7026    41.0820
         ROT.     0.1444D+07                  1192.3239     2.9808    31.1647
         INT.     0.6278D+10                 10965.8303    59.6834    72.2467
         TRA.     0.3108D+28                  1987.2065     4.9680    42.6213
         TOT.                        5.709   12953.0368    64.6515   114.8680

   *: NOTE: HEATS OF FORMATION ARE RELATIVE TO THE
            ELEMENTS IN THEIR STANDARD STATE AT 298K
              (=  Standard Enthalpy of Formation).

            Hvib:  Zero-point energy is not included.
                   frequencies of less than zero cm-1 are not included.
            Hrot = (3/2)RT
            Htra = (3/2)RT + pV = (5/2)RT

            Heat capacity is Cp, not Cv

          For more information, see: HTTP://OpenMOPAC.net/Manual/thermochemistry.html


           FORCE CONSTANT IN CARTESIAN COORDINATES (Millidynes/A)

    ATOM   CHEMICAL       X               Y               Z
   NUMBER   SYMBOL  FORCE CONSTANT  FORCE CONSTANT  FORCE CONSTANT

      1       C        7.363892        8.154055        8.810931
      2       C        7.480551        8.608624        8.347560
      3       C        8.597001        7.633230        8.363884
      4       C        8.766032        8.232011        7.841313
      5       C        8.185167        8.389098        8.417826
      6       C        8.172744        8.559684        8.151564
      7       C        8.110342        8.968806        7.938990
      8       C        8.422966        8.165371        8.287838
      9       C        4.897961       13.185254        9.032760
     10       C        3.147836        9.536623       14.396368
     11       C        4.467750       12.843467       10.423504
     12       C        3.183451       10.505941       14.075255
     13       H        1.099623        1.598090        3.342519
     14       H        5.003133        0.745280        0.698949
     15       H        1.246734        1.586479        3.538458
     16       H        1.217544        1.681068        3.548567
     17       H        1.296971        1.626065        3.480869
     18       H        1.094467        4.603537        0.742652
     19       H        1.279701        1.277020        3.845153
     20       H        1.062413        1.569246        3.778246
     21       H        4.976243        0.738075        0.715305
     22       H        2.728449        0.746287        2.864916
     23       H        3.451953        1.662539        1.120252
     24       H        0.954013        1.912397        3.893063
     25       H        5.344899        0.748407        0.684491
     26       H        1.241327        1.893984        3.614643
     27       H        0.513437        1.965383        3.755385
     28       H        0.459665        2.058871        3.735265
     29       H        0.791209        1.336892        4.131910
     30       H        0.801487        4.657840        0.821097

 **********************
 *                    *
 * JOB ENDED NORMALLY *
 *                    *
 **********************



 TOTAL JOB TIME:            14.91 SECONDS

 == MOPAC DONE ==
