 *******************************************************************************
 ** Site#: 14399        For non-commercial use only    Version 18.184L 64BITS **
 *******************************************************************************
 ** Cite this program as: MOPAC2016, Version: 18.184L, James J. P. Stewart,   **
 ** Stewart Computational Chemistry, web: HTTP://OpenMOPAC.net. Days left:  20**
 *******************************************************************************
 **                                                                           **
 **                                MOPAC2016                                  **
 **                                                                           **
 *******************************************************************************

                              PM3 CALCULATION RESULTS

 *******************************************************************************
 *  CALCULATION DONE:                                Thu Jun 13 15:58:22 2019  *
 *  PM3        - The PM3 Hamiltonian to be used
 *  PRECISE    - CRITERIA TO BE INCREASED BY 100 TIMES
 *  NOSYM      - POINT-GROUP SYMMETRY SET TO C1
 *  THREADS=1  - MULTI-THREADING NOT USED
 *  T=         - A TIME OF 172800.0 SECONDS REQUESTED
 *  DUMP=N     - RESTART FILE WRITTEN EVERY  7200.000 SECONDS
 *******************************************************************************
pm3  precise nosym THREADS=1
 InChI=1S/C10H10/c1-3-6-10-8-5-4-7-9(10)2/h5,8H,1-2,4,7H2

   ATOM   CHEMICAL          X               Y               Z
  NUMBER   SYMBOL      (ANGSTROMS)     (ANGSTROMS)     (ANGSTROMS)
 
     1       C         -1.95170000  *  -0.44040000  *  -0.67590000  *
     2       C         -2.47690000  *   0.53280000  *   0.38870000  *
     3       C         -0.47150000  *  -0.23510000  *  -0.89010000  *
     4       C          0.36070000  *   0.00750000  *   0.31890000  *
     5       C         -1.64180000  *   0.48780000  *   1.64360000  *
     6       C         -0.31930000  *   0.28820000  *   1.59880000  *
     7       C          0.04460000  *  -0.27450000  *  -2.12590000  *
     8       C          4.24800000  *  -0.19900000  *   0.23550000  *
     9       C          1.66820000  *  -0.06190000  *   0.29130000  *
    10       C          2.94790000  *  -0.12980000  *   0.26400000  *
    11       H         -2.52580000  *  -0.29680000  *  -1.61760000  *
    12       H         -2.45760000  *   1.56780000  *  -0.01590000  *
    13       H         -2.11790000  *  -1.48290000  *  -0.32740000  *
    14       H         -3.52940000  *   0.27830000  *   0.63660000  *
    15       H         -2.11860000  *   0.67220000  *   2.59810000  *
    16       H          0.25150000  *   0.32130000  *   2.51980000  *
    17       H         -0.58710000  *  -0.45850000  *  -2.98590000  *
    18       H          1.10120000  *  -0.12170000  *  -2.30350000  *
    19       H          4.76230000  *  -0.31850000  *  -0.70830000  *
    20       H          4.81310000  *  -0.13680000  *   1.15540000  *
 


          CARTESIAN COORDINATES 

    NO.       ATOM           X           Y           Z

     1         C         -1.9517     -0.4404     -0.6759
     2         C         -2.4769      0.5328      0.3887
     3         C         -0.4715     -0.2351     -0.8901
     4         C          0.3607      0.0075      0.3189
     5         C         -1.6418      0.4878      1.6436
     6         C         -0.3193      0.2882      1.5988
     7         C          0.0446     -0.2745     -2.1259
     8         C          4.2480     -0.1990      0.2355
     9         C          1.6682     -0.0619      0.2913
    10         C          2.9479     -0.1298      0.2640
    11         H         -2.5258     -0.2968     -1.6176
    12         H         -2.4576      1.5678     -0.0159
    13         H         -2.1179     -1.4829     -0.3274
    14         H         -3.5294      0.2783      0.6366
    15         H         -2.1186      0.6722      2.5981
    16         H          0.2515      0.3213      2.5198
    17         H         -0.5871     -0.4585     -2.9859
    18         H          1.1012     -0.1217     -2.3035
    19         H          4.7623     -0.3185     -0.7083
    20         H          4.8131     -0.1368      1.1554

  H: (PM3): J. J. P. STEWART, J. COMP. CHEM. 10, 209 (1989).
  C: (PM3): J. J. P. STEWART, J. COMP. CHEM. 10, 209 (1989).

           Empirical Formula: C10 H10  =    20 atoms



      MOLECULAR POINT GROUP   :   C1  


      RHF CALCULATION, NO. OF DOUBLY OCCUPIED LEVELS = 25


          Geometry optimization using EF

          DIAGONAL MATRIX USED AS START HESSIAN

 CYCLE:     1 TIME:   0.027 TIME LEFT:  2.00D  GRAD.:    89.220 HEAT:  102.4886
 CYCLE:     2 TIME:   0.051 TIME LEFT:  2.00D  GRAD.:   120.268 HEAT:  102.3605
 CYCLE:     3 TIME:   0.023 TIME LEFT:  2.00D  GRAD.:    73.459 HEAT:  101.5413
 CYCLE:     4 TIME:   0.023 TIME LEFT:  2.00D  GRAD.:    64.693 HEAT:  101.1004
 CYCLE:     5 TIME:   0.027 TIME LEFT:  2.00D  GRAD.:    44.770 HEAT:  100.7229
 CYCLE:     6 TIME:   0.023 TIME LEFT:  2.00D  GRAD.:    41.462 HEAT:  100.6141
 CYCLE:     7 TIME:   0.020 TIME LEFT:  2.00D  GRAD.:    27.088 HEAT:  100.4630
 CYCLE:     8 TIME:   0.023 TIME LEFT:  2.00D  GRAD.:    36.861 HEAT:  100.4233
 CYCLE:     9 TIME:   0.031 TIME LEFT:  2.00D  GRAD.:    16.149 HEAT:  100.2521
 CYCLE:    10 TIME:   0.027 TIME LEFT:  2.00D  GRAD.:    11.220 HEAT:  100.1982
 CYCLE:    11 TIME:   0.023 TIME LEFT:  2.00D  GRAD.:     7.243 HEAT:  100.1398
 CYCLE:    12 TIME:   0.023 TIME LEFT:  2.00D  GRAD.:     8.787 HEAT:  100.0845
 CYCLE:    13 TIME:   0.023 TIME LEFT:  2.00D  GRAD.:    18.265 HEAT:  100.0822
 CYCLE:    14 TIME:   0.027 TIME LEFT:  2.00D  GRAD.:    18.033 HEAT:  100.0557
 CYCLE:    15 TIME:   0.031 TIME LEFT:  2.00D  GRAD.:     8.439 HEAT:  99.99977
 CYCLE:    16 TIME:   0.027 TIME LEFT:  2.00D  GRAD.:     5.284 HEAT:  99.98453
 CYCLE:    17 TIME:   0.020 TIME LEFT:  2.00D  GRAD.:     6.385 HEAT:  99.97209
 CYCLE:    18 TIME:   0.023 TIME LEFT:  2.00D  GRAD.:     9.736 HEAT:  99.96113
 CYCLE:    19 TIME:   0.023 TIME LEFT:  2.00D  GRAD.:     6.943 HEAT:  99.93684
 CYCLE:    20 TIME:   0.031 TIME LEFT:  2.00D  GRAD.:     9.311 HEAT:  99.93224
 CYCLE:    21 TIME:   0.020 TIME LEFT:  2.00D  GRAD.:     4.661 HEAT:  99.91115
 CYCLE:    22 TIME:   0.023 TIME LEFT:  2.00D  GRAD.:     4.024 HEAT:  99.89651
 CYCLE:    23 TIME:   0.023 TIME LEFT:  2.00D  GRAD.:     4.131 HEAT:  99.88161
 CYCLE:    24 TIME:   0.023 TIME LEFT:  2.00D  GRAD.:     4.884 HEAT:  99.86910
 CYCLE:    25 TIME:   0.023 TIME LEFT:  2.00D  GRAD.:     4.148 HEAT:  99.86279
 CYCLE:    26 TIME:   0.023 TIME LEFT:  2.00D  GRAD.:     2.229 HEAT:  99.85791
 CYCLE:    27 TIME:   0.020 TIME LEFT:  2.00D  GRAD.:     2.064 HEAT:  99.85585
 CYCLE:    28 TIME:   0.023 TIME LEFT:  2.00D  GRAD.:     1.737 HEAT:  99.85259
 CYCLE:    29 TIME:   0.027 TIME LEFT:  2.00D  GRAD.:     1.902 HEAT:  99.84820
 CYCLE:    30 TIME:   0.023 TIME LEFT:  2.00D  GRAD.:     2.249 HEAT:  99.84291
 CYCLE:    31 TIME:   0.023 TIME LEFT:  2.00D  GRAD.:     1.810 HEAT:  99.83719
 CYCLE:    32 TIME:   0.023 TIME LEFT:  2.00D  GRAD.:     1.585 HEAT:  99.83146
 CYCLE:    33 TIME:   0.023 TIME LEFT:  2.00D  GRAD.:     1.349 HEAT:  99.82598
 CYCLE:    34 TIME:   0.035 TIME LEFT:  2.00D  GRAD.:     0.957 HEAT:  99.82437
 CYCLE:    35 TIME:   0.023 TIME LEFT:  2.00D  GRAD.:     0.672 HEAT:  99.82329
 CYCLE:    36 TIME:   0.023 TIME LEFT:  2.00D  GRAD.:     0.683 HEAT:  99.82246
 CYCLE:    37 TIME:   0.020 TIME LEFT:  2.00D  GRAD.:     0.542 HEAT:  99.82187
 CYCLE:    38 TIME:   0.023 TIME LEFT:  2.00D  GRAD.:     0.530 HEAT:  99.82124
 CYCLE:    39 TIME:   0.023 TIME LEFT:  2.00D  GRAD.:     0.740 HEAT:  99.82009
 CYCLE:    40 TIME:   0.023 TIME LEFT:  2.00D  GRAD.:     0.910 HEAT:  99.81860
 CYCLE:    41 TIME:   0.023 TIME LEFT:  2.00D  GRAD.:     0.933 HEAT:  99.81659
 CYCLE:    42 TIME:   0.023 TIME LEFT:  2.00D  GRAD.:     0.773 HEAT:  99.81552
 CYCLE:    43 TIME:   0.023 TIME LEFT:  2.00D  GRAD.:     0.879 HEAT:  99.81326
 CYCLE:    44 TIME:   0.020 TIME LEFT:  2.00D  GRAD.:     0.888 HEAT:  99.81214
 CYCLE:    45 TIME:   0.023 TIME LEFT:  2.00D  GRAD.:     0.716 HEAT:  99.81047
 CYCLE:    46 TIME:   0.023 TIME LEFT:  2.00D  GRAD.:     0.709 HEAT:  99.80909
 CYCLE:    47 TIME:   0.023 TIME LEFT:  2.00D  GRAD.:     0.785 HEAT:  99.80774
 CYCLE:    48 TIME:   0.023 TIME LEFT:  2.00D  GRAD.:     0.964 HEAT:  99.80587
 CYCLE:    49 TIME:   0.023 TIME LEFT:  2.00D  GRAD.:     0.947 HEAT:  99.80396
 CYCLE:    50 TIME:   0.020 TIME LEFT:  2.00D  GRAD.:     0.870 HEAT:  99.80169
 CYCLE:    51 TIME:   0.023 TIME LEFT:  2.00D  GRAD.:     0.833 HEAT:  99.79993
 CYCLE:    52 TIME:   0.023 TIME LEFT:  2.00D  GRAD.:     0.816 HEAT:  99.79805
 CYCLE:    53 TIME:   0.023 TIME LEFT:  2.00D  GRAD.:     0.789 HEAT:  99.79634
 CYCLE:    54 TIME:   0.023 TIME LEFT:  2.00D  GRAD.:     0.735 HEAT:  99.79470
 CYCLE:    55 TIME:   0.023 TIME LEFT:  2.00D  GRAD.:     0.705 HEAT:  99.79354
 CYCLE:    56 TIME:   0.023 TIME LEFT:  2.00D  GRAD.:     0.782 HEAT:  99.79213
 CYCLE:    57 TIME:   0.020 TIME LEFT:  2.00D  GRAD.:     0.839 HEAT:  99.79036
 CYCLE:    58 TIME:   0.023 TIME LEFT:  2.00D  GRAD.:     0.889 HEAT:  99.78796
 CYCLE:    59 TIME:   0.023 TIME LEFT:  2.00D  GRAD.:     0.981 HEAT:  99.78504
 CYCLE:    60 TIME:   0.023 TIME LEFT:  2.00D  GRAD.:     0.776 HEAT:  99.78299
 CYCLE:    61 TIME:   0.023 TIME LEFT:  2.00D  GRAD.:     0.701 HEAT:  99.78135
 CYCLE:    62 TIME:   0.023 TIME LEFT:  2.00D  GRAD.:     0.768 HEAT:  99.77997
 CYCLE:    63 TIME:   0.020 TIME LEFT:  2.00D  GRAD.:     0.880 HEAT:  99.77792
 CYCLE:    64 TIME:   0.023 TIME LEFT:  2.00D  GRAD.:     1.139 HEAT:  99.77503
 CYCLE:    65 TIME:   0.023 TIME LEFT:  2.00D  GRAD.:     1.230 HEAT:  99.77162
 CYCLE:    66 TIME:   0.023 TIME LEFT:  2.00D  GRAD.:     1.329 HEAT:  99.76584
 CYCLE:    67 TIME:   0.023 TIME LEFT:  2.00D  GRAD.:     0.936 HEAT:  99.76326
 CYCLE:    68 TIME:   0.023 TIME LEFT:  2.00D  GRAD.:     0.819 HEAT:  99.76018
 CYCLE:    69 TIME:   0.023 TIME LEFT:  2.00D  GRAD.:     0.692 HEAT:  99.75930
 CYCLE:    70 TIME:   0.020 TIME LEFT:  2.00D  GRAD.:     0.571 HEAT:  99.75814
 CYCLE:    71 TIME:   0.023 TIME LEFT:  2.00D  GRAD.:     0.485 HEAT:  99.75732
 CYCLE:    72 TIME:   0.023 TIME LEFT:  2.00D  GRAD.:     0.470 HEAT:  99.75669
 CYCLE:    73 TIME:   0.023 TIME LEFT:  2.00D  GRAD.:     0.343 HEAT:  99.75620
 CYCLE:    74 TIME:   0.023 TIME LEFT:  2.00D  GRAD.:     0.219 HEAT:  99.75594
 CYCLE:    75 TIME:   0.023 TIME LEFT:  2.00D  GRAD.:     0.183 HEAT:  99.75578
 CYCLE:    76 TIME:   0.020 TIME LEFT:  2.00D  GRAD.:     0.115 HEAT:  99.75571
 CYCLE:    77 TIME:   0.023 TIME LEFT:  2.00D  GRAD.:     0.097 HEAT:  99.75565
 CYCLE:    78 TIME:   0.023 TIME LEFT:  2.00D  GRAD.:     0.082 HEAT:  99.75565
 CYCLE:    79 TIME:   0.023 TIME LEFT:  2.00D  GRAD.:     0.110 HEAT:  99.75562
 CYCLE:    80 TIME:   0.023 TIME LEFT:  2.00D  GRAD.:     0.091 HEAT:  99.75559
 CYCLE:    81 TIME:   0.023 TIME LEFT:  2.00D  GRAD.:     0.086 HEAT:  99.75552
 CYCLE:    82 TIME:   0.023 TIME LEFT:  2.00D  GRAD.:     0.086 HEAT:  99.75546
 CYCLE:    83 TIME:   0.020 TIME LEFT:  2.00D  GRAD.:     0.081 HEAT:  99.75544
 CYCLE:    84 TIME:   0.023 TIME LEFT:  2.00D  GRAD.:     0.081 HEAT:  99.75542
 CYCLE:    85 TIME:   0.023 TIME LEFT:  2.00D  GRAD.:     0.107 HEAT:  99.75539
 CYCLE:    86 TIME:   0.023 TIME LEFT:  2.00D  GRAD.:     0.104 HEAT:  99.75537
 CYCLE:    87 TIME:   0.023 TIME LEFT:  2.00D  GRAD.:     0.171 HEAT:  99.75534
 CYCLE:    88 TIME:   0.023 TIME LEFT:  2.00D  GRAD.:     0.096 HEAT:  99.75530
 CYCLE:    89 TIME:   0.023 TIME LEFT:  2.00D  GRAD.:     0.082 HEAT:  99.75529
 CYCLE:    90 TIME:   0.020 TIME LEFT:  2.00D  GRAD.:     0.068 HEAT:  99.75527
 CYCLE:    91 TIME:   0.023 TIME LEFT:  2.00D  GRAD.:     0.097 HEAT:  99.75525
 CYCLE:    92 TIME:   0.023 TIME LEFT:  2.00D  GRAD.:     0.075 HEAT:  99.75524
 CYCLE:    93 TIME:   0.023 TIME LEFT:  2.00D  GRAD.:     0.069 HEAT:  99.75522
 CYCLE:    94 TIME:   0.023 TIME LEFT:  2.00D  GRAD.:     0.022 HEAT:  99.75521

     GRADIENT =  0.02235  IS LESS THAN CUTOFF =  0.05000



 -------------------------------------------------------------------------------
 pm3  precise nosym THREADS=1
 InChI=1S/C10H10/c1-3-6-10-8-5-4-7-9(10)2/h5,8H,1-2,4,7H2



     GEOMETRY OPTIMISED USING EIGENVECTOR FOLLOWING (EF).     
     SCF FIELD WAS ACHIEVED                                   


                              PM3 CALCULATION
                                                       MOPAC2016 (Version: 18.184L)
                                                       Thu Jun 13 15:58:24 2019
                                                       No. of days remaining =  20




          FINAL HEAT OF FORMATION =         99.75521 KCAL/MOL =     417.37580 KJ/MOL


          TOTAL ENERGY            =      -1335.40514 EV
          ELECTRONIC ENERGY       =      -6775.38600 EV  POINT GROUP:     C1  
          CORE-CORE REPULSION     =       5439.98086 EV
          COSMO AREA              =        186.43 SQUARE ANGSTROMS
          COSMO VOLUME            =        183.32 CUBIC ANGSTROMS

          GRADIENT NORM           =          0.02235 = 0.00500 PER ATOM
          IONIZATION POTENTIAL    =          8.396059 EV
          HOMO LUMO ENERGIES (EV) =         -8.396 -0.786
          NO. OF FILLED LEVELS    =         25
          MOLECULAR WEIGHT        =        130.1890

          MOLECULAR DIMENSIONS (Angstroms)

            Atom       Atom       Distance
            H    19    H    14     8.41884
            H    17    H    16     5.57976
            H    13    H    12     2.86601


          SCF CALCULATIONS        =        104
 
          WALL-CLOCK TIME         =          2.293 SECONDS
          COMPUTATION TIME        =          0.907 SECONDS




   ATOM   CHEMICAL          X               Y               Z
  NUMBER   SYMBOL      (ANGSTROMS)     (ANGSTROMS)     (ANGSTROMS)
 
     1       C         -1.90651478  *  -0.49788864  *  -0.63912561  *
     2       C         -2.51615577  *   0.41581711  *   0.41406389  *
     3       C         -0.46242917  *  -0.19151290  *  -0.88331208  *
     4       C          0.35858231  *   0.02713793  *   0.31248397  *
     5       C         -1.64497818  *   0.56335532  *   1.60791631  *
     6       C         -0.32054143  *   0.37952313  *   1.55596641  *
     7       C          0.04319242  *  -0.13380278  *  -2.11917092  *
     8       C          4.23296393  *  -0.29333375  *   0.24666748  *
     9       C          1.67674734  *  -0.07805522  *   0.28413934  *
    10       C          2.93364474  *  -0.18376670  *   0.26589976  *
    11       H         -2.48835658  *  -0.42814275  *  -1.57942582  *
    12       H         -2.70233586  *   1.42505075  *  -0.00643719  *
    13       H         -1.98146110  *  -1.55558719  *  -0.31453739  *
    14       H         -3.50849221  *   0.02679754  *   0.71542209  *
    15       H         -2.13549316  *   0.84924949  *   2.54473308  *
    16       H          0.30512055  *   0.49973469  *   2.44760666  *
    17       H         -0.56085825  *  -0.28643571  *  -3.00894518  *
    18       H          1.09339023  *   0.06795784  *  -2.31180974  *
    19       H          4.77749812  *  -0.55476775  *  -0.65610356  *
    20       H          4.83994240  *  -0.12948683  *   1.13243558  *

                             CARTESIAN COORDINATES

   1    C       -1.906514785    -0.497888639    -0.639125606
   2    C       -2.516155770     0.415817110     0.414063885
   3    C       -0.462429172    -0.191512897    -0.883312084
   4    C        0.358582313     0.027137932     0.312483970
   5    C       -1.644978179     0.563355322     1.607916309
   6    C       -0.320541433     0.379523134     1.555966415
   7    C        0.043192415    -0.133802782    -2.119170921
   8    C        4.232963933    -0.293333747     0.246667484
   9    C        1.676747339    -0.078055223     0.284139339
  10    C        2.933644741    -0.183766701     0.265899756
  11    H       -2.488356582    -0.428142750    -1.579425816
  12    H       -2.702335856     1.425050753    -0.006437185
  13    H       -1.981461104    -1.555587188    -0.314537394
  14    H       -3.508492211     0.026797542     0.715422089
  15    H       -2.135493162     0.849249491     2.544733075
  16    H        0.305120549     0.499734693     2.447606657
  17    H       -0.560858248    -0.286435709    -3.008945180
  18    H        1.093390233     0.067957840    -2.311809742
  19    H        4.777498120    -0.554767745    -0.656103555
  20    H        4.839942398    -0.129486834     1.132435579


           Empirical Formula: C10 H10  =    20 atoms



      MOLECULAR POINT GROUP   :   C1  


                  EIGENVALUES  
 -40.27435 -33.97151 -32.15914 -30.60805 -26.33139 -24.46720 -22.37153 -20.19498
 -18.41707 -17.06118 -16.76268 -16.39564 -15.64526 -15.13985 -14.84180 -14.21228
 -13.75056 -13.44870 -13.00736 -12.18615 -12.01729 -11.09115 -10.03329  -9.98983
  -8.39606  -0.78641   0.94862   1.12691   1.60550   2.62467   3.14645   3.23575
   3.34582   3.39813   3.70539   3.78829   3.88537   4.00347   4.11107   4.26683
   4.48564   4.57726   4.71560   4.93324   5.04700   5.36226   5.56658   5.94905
   6.03183   6.96733


              NET ATOMIC CHARGES AND DIPOLE CONTRIBUTIONS

  ATOM NO.   TYPE          CHARGE      No. of ELECS.   s-Pop       p-Pop       
    1          C          -0.053114        4.0531     1.14724     2.90587
    2          C          -0.061040        4.0610     1.14596     2.91508
    3          C          -0.077174        4.0772     1.18196     2.89522
    4          C           0.081079        3.9189     1.13253     2.78640
    5          C          -0.124117        4.1241     1.19595     2.92816
    6          C          -0.109857        4.1099     1.17902     2.93084
    7          C          -0.146298        4.1463     1.18325     2.96305
    8          C          -0.071456        4.0715     1.14817     2.92329
    9          C          -0.135973        4.1360     1.16230     2.97367
   10          C          -0.099197        4.0992     1.16408     2.93512
   11          H           0.055040        0.9450     0.94496
   12          H           0.061362        0.9386     0.93864
   13          H           0.059621        0.9404     0.94038
   14          H           0.054845        0.9452     0.94516
   15          H           0.099366        0.9006     0.90063
   16          H           0.107520        0.8925     0.89248
   17          H           0.083311        0.9167     0.91669
   18          H           0.090110        0.9099     0.90989
   19          H           0.092892        0.9071     0.90711
   20          H           0.093080        0.9069     0.90692
 DIPOLE           X         Y         Z       TOTAL
 POINT-CHG.    -0.554     0.025    -0.030     0.556
 HYBRID         0.078    -0.007     0.001     0.078
 SUM           -0.477     0.018    -0.029     0.478


          ATOMIC ORBITAL ELECTRON POPULATIONS

     Atom    s        px        py        pz   
    1  C   1.14724   0.92799   0.99074   0.98714
    2  C   1.14596   0.97209   0.99526   0.94773
    3  C   1.18196   0.95138   1.00504   0.93879
    4  C   1.13253   0.88094   0.97633   0.92913
    5  C   1.19595   0.95682   0.99076   0.98058
    6  C   1.17902   0.95225   1.01724   0.96135
    7  C   1.18325   1.00844   1.00189   0.95272
    8  C   1.14817   0.90997   1.00801   1.00531
    9  C   1.16230   0.92420   1.01982   1.02966
   10  C   1.16408   0.93122   1.00215   1.00175
   11  H   0.94496
   12  H   0.93864
   13  H   0.94038
   14  H   0.94516
   15  H   0.90063
   16  H   0.89248
   17  H   0.91669
   18  H   0.90989
   19  H   0.90711
   20  H   0.90692
 *******************************************************************************
 ** Site#: 14399        For non-commercial use only    Version 18.184L 64BITS **
 *******************************************************************************
 ** Cite this program as: MOPAC2016, Version: 18.184L, James J. P. Stewart,   **
 ** Stewart Computational Chemistry, web: HTTP://OpenMOPAC.net. Days left:  20**
 *******************************************************************************
 **                                                                           **
 **                                MOPAC2016                                  **
 **                                                                           **
 *******************************************************************************

                              PM3 CALCULATION RESULTS

 *******************************************************************************
 *  CALCULATION DONE:                                Thu Jun 13 15:58:25 2019  *
 *  PM3        - The PM3 Hamiltonian to be used
 *  OLDGEO     - PREVIOUS GEOMETRY TO BE USED
 *  PRECISE    - CRITERIA TO BE INCREASED BY 100 TIMES
 *  NOSYM      - POINT-GROUP SYMMETRY SET TO C1
 *  THREADS=1  - MULTI-THREADING NOT USED
 *  T=         - A TIME OF 172800.0 SECONDS REQUESTED
 *  DUMP=N     - RESTART FILE WRITTEN EVERY  7200.000 SECONDS
 *  THERMO     - THERMODYNAMIC QUANTITIES TO BE CALCULATED
 *******************************************************************************
oldgeo thermo nosym precise THREADS=1  pm3
 InChI=1S/C10H10/c1-3-6-10-8-5-4-7-9(10)2/h5,8H,1-2,4,7H2

   ATOM   CHEMICAL          X               Y               Z
  NUMBER   SYMBOL      (ANGSTROMS)     (ANGSTROMS)     (ANGSTROMS)
 
     1       C         -1.90651478  *  -0.49788864  *  -0.63912561  *
     2       C         -2.51615577  *   0.41581711  *   0.41406389  *
     3       C         -0.46242917  *  -0.19151290  *  -0.88331208  *
     4       C          0.35858231  *   0.02713793  *   0.31248397  *
     5       C         -1.64497818  *   0.56335532  *   1.60791631  *
     6       C         -0.32054143  *   0.37952313  *   1.55596641  *
     7       C          0.04319242  *  -0.13380278  *  -2.11917092  *
     8       C          4.23296393  *  -0.29333375  *   0.24666748  *
     9       C          1.67674734  *  -0.07805522  *   0.28413934  *
    10       C          2.93364474  *  -0.18376670  *   0.26589976  *
    11       H         -2.48835658  *  -0.42814275  *  -1.57942582  *
    12       H         -2.70233586  *   1.42505075  *  -0.00643719  *
    13       H         -1.98146110  *  -1.55558719  *  -0.31453739  *
    14       H         -3.50849221  *   0.02679754  *   0.71542209  *
    15       H         -2.13549316  *   0.84924949  *   2.54473308  *
    16       H          0.30512055  *   0.49973469  *   2.44760666  *
    17       H         -0.56085825  *  -0.28643571  *  -3.00894518  *
    18       H          1.09339023  *   0.06795784  *  -2.31180974  *
    19       H          4.77749812  *  -0.55476775  *  -0.65610356  *
    20       H          4.83994240  *  -0.12948683  *   1.13243558  *
 


          CARTESIAN COORDINATES 

    NO.       ATOM           X           Y           Z

     1         C         -1.9065     -0.4979     -0.6391
     2         C         -2.5162      0.4158      0.4141
     3         C         -0.4624     -0.1915     -0.8833
     4         C          0.3586      0.0271      0.3125
     5         C         -1.6450      0.5634      1.6079
     6         C         -0.3205      0.3795      1.5560
     7         C          0.0432     -0.1338     -2.1192
     8         C          4.2330     -0.2933      0.2467
     9         C          1.6767     -0.0781      0.2841
    10         C          2.9336     -0.1838      0.2659
    11         H         -2.4884     -0.4281     -1.5794
    12         H         -2.7023      1.4251     -0.0064
    13         H         -1.9815     -1.5556     -0.3145
    14         H         -3.5085      0.0268      0.7154
    15         H         -2.1355      0.8492      2.5447
    16         H          0.3051      0.4997      2.4476
    17         H         -0.5609     -0.2864     -3.0089
    18         H          1.0934      0.0680     -2.3118
    19         H          4.7775     -0.5548     -0.6561
    20         H          4.8399     -0.1295      1.1324

  H: (PM3): J. J. P. STEWART, J. COMP. CHEM. 10, 209 (1989).
  C: (PM3): J. J. P. STEWART, J. COMP. CHEM. 10, 209 (1989).

           Empirical Formula: C10 H10  =    20 atoms



      MOLECULAR POINT GROUP   :   C1  


      RHF CALCULATION, NO. OF DOUBLY OCCUPIED LEVELS = 25



          HEAT OF FORMATION =      99.755211 KCALS/MOLE


          CARTESIAN COORDINATE DERIVATIVES

   NUMBER  ATOM         X            Y            Z

     1       C      0.002560    -0.000040     0.002550
     2       C      0.000261    -0.004933    -0.002412
     3       C      0.000226     0.002211    -0.005864
     4       C      0.005667    -0.005083    -0.000751
     5       C      0.004383    -0.005965     0.002901
     6       C     -0.006025     0.002146     0.001159
     7       C     -0.004108     0.002255    -0.003153
     8       C     -0.002500     0.009681     0.002291
     9       C     -0.000068     0.009218    -0.001260
    10       C      0.003976    -0.006836     0.004480
    11       H     -0.002578     0.000245     0.000957
    12       H     -0.001092     0.007057     0.001410
    13       H     -0.001505    -0.003150    -0.002352
    14       H      0.001894    -0.001623    -0.002895
    15       H      0.000359    -0.001026     0.000893
    16       H      0.000660    -0.000427     0.001852
    17       H      0.006285     0.000145     0.005873
    18       H     -0.005798     0.001413    -0.004946
    19       H     -0.003279    -0.005047    -0.003737
    20       H      0.000682    -0.000242     0.003003
 


          GRADIENT NORM =   0.02908


          TIME FOR SCF CALCULATION =    0.03

          TIME FOR DERIVATIVES     =    0.01

          MOLECULAR WEIGHT =  130.19



          ROTATIONAL CONSTANTS IN CM(-1)

          A =    0.09319383   B =    0.02811834   C =    0.02212019



           PRINCIPAL MOMENTS OF INERTIA IN UNITS OF 10**(-40)*GRAM-CM**2

          A =      300.3716   B =      995.5343   C =     1265.4854


          ORIENTATION OF MOLECULE IN FORCE CALCULATION

    NO.       ATOM         X         Y         Z

     1          C       0.0425   -2.1620    0.7414
     2          C       1.5642   -2.1620    0.7414
     3          C      -0.5211   -0.7759    0.7414
     4          C       0.1089    0.1733   -0.1827
     5          C       2.1300   -1.2020   -0.2406
     6          C       1.4531   -0.1289   -0.6657
     7          C      -1.5443   -0.4347    1.5307
     8          C      -1.6812    3.4226   -1.3467
     9          C      -0.5020    1.2799   -0.5720
    10          C      -1.0816    2.3336   -0.9529
    11          H      -0.3333   -2.7399    1.6088
    12          H       1.9538   -1.9004    1.7463
    13          H      -0.3379   -2.6857   -0.1590
    14          H       1.9368   -3.1835    0.5299
    15          H       3.1466   -1.4016   -0.5967
    16          H       1.8917    0.5708   -1.3862
    17          H      -2.0098   -1.1302    2.2231
    18          H      -1.9772    0.5620    1.5277
    19          H      -2.6812    3.6847   -1.0130
    20          H      -1.2130    4.1256   -2.0297


    FIRST DERIVATIVES WILL BE USED IN THE CALCULATION OF SECOND DERIVATIVES

          ESTIMATED TIME TO COMPLETE CALCULATION =        9.38 SECONDS

    FOR POINT-GROUP C1   THERE ARE   1 UNIQUE SYMMETRY FUNCTIONS.

 STEP:   1 TIME =     0.05 SECS, INTEGRAL =      0.05 TIME LEFT: 172799.91
 STEP:   2 TIME =     0.05 SECS, INTEGRAL =      0.10 TIME LEFT: 172799.86
 STEP:   3 TIME =     0.05 SECS, INTEGRAL =      0.14 TIME LEFT: 172799.82
 STEP:   4 TIME =     0.04 SECS, INTEGRAL =      0.19 TIME LEFT: 172799.77
 STEP:   5 TIME =     0.05 SECS, INTEGRAL =      0.23 TIME LEFT: 172799.73
 STEP:   6 TIME =     0.05 SECS, INTEGRAL =      0.28 TIME LEFT: 172799.68
 STEP:   7 TIME =     0.05 SECS, INTEGRAL =      0.33 TIME LEFT: 172799.63
 STEP:   8 TIME =     0.05 SECS, INTEGRAL =      0.38 TIME LEFT: 172799.59
 STEP:   9 TIME =     0.05 SECS, INTEGRAL =      0.42 TIME LEFT: 172799.54
 STEP:  10 TIME =     0.04 SECS, INTEGRAL =      0.46 TIME LEFT: 172799.50
 STEP:  11 TIME =     0.05 SECS, INTEGRAL =      0.51 TIME LEFT: 172799.45
 STEP:  12 TIME =     0.05 SECS, INTEGRAL =      0.56 TIME LEFT: 172799.40
 STEP:  13 TIME =     0.05 SECS, INTEGRAL =      0.61 TIME LEFT: 172799.36
 STEP:  14 TIME =     0.05 SECS, INTEGRAL =      0.65 TIME LEFT: 172799.31
 STEP:  15 TIME =     0.04 SECS, INTEGRAL =      0.70 TIME LEFT: 172799.27
 STEP:  16 TIME =     0.05 SECS, INTEGRAL =      0.75 TIME LEFT: 172799.21
 STEP:  17 TIME =     0.05 SECS, INTEGRAL =      0.80 TIME LEFT: 172799.16
 STEP:  18 TIME =     0.05 SECS, INTEGRAL =      0.84 TIME LEFT: 172799.12
 STEP:  19 TIME =     0.04 SECS, INTEGRAL =      0.89 TIME LEFT: 172799.07
 STEP:  20 TIME =     0.05 SECS, INTEGRAL =      0.93 TIME LEFT: 172799.03
 STEP:  21 TIME =     0.04 SECS, INTEGRAL =      0.98 TIME LEFT: 172798.98
 STEP:  22 TIME =     0.05 SECS, INTEGRAL =      1.02 TIME LEFT: 172798.94
 STEP:  23 TIME =     0.05 SECS, INTEGRAL =      1.07 TIME LEFT: 172798.89
 STEP:  24 TIME =     0.04 SECS, INTEGRAL =      1.11 TIME LEFT: 172798.85
 STEP:  25 TIME =     0.05 SECS, INTEGRAL =      1.16 TIME LEFT: 172798.80
 STEP:  26 TIME =     0.05 SECS, INTEGRAL =      1.21 TIME LEFT: 172798.75
 STEP:  27 TIME =     0.04 SECS, INTEGRAL =      1.25 TIME LEFT: 172798.71
 STEP:  28 TIME =     0.05 SECS, INTEGRAL =      1.30 TIME LEFT: 172798.66
 STEP:  29 TIME =     0.05 SECS, INTEGRAL =      1.34 TIME LEFT: 172798.62
 STEP:  30 TIME =     0.04 SECS, INTEGRAL =      1.39 TIME LEFT: 172798.57
 STEP:  31 TIME =     0.05 SECS, INTEGRAL =      1.43 TIME LEFT: 172798.53
 STEP:  32 TIME =     0.04 SECS, INTEGRAL =      1.48 TIME LEFT: 172798.48
 STEP:  33 TIME =     0.06 SECS, INTEGRAL =      1.54 TIME LEFT: 172798.43
 STEP:  34 TIME =     0.05 SECS, INTEGRAL =      1.58 TIME LEFT: 172798.38
 STEP:  35 TIME =     0.05 SECS, INTEGRAL =      1.63 TIME LEFT: 172798.33
 STEP:  36 TIME =     0.04 SECS, INTEGRAL =      1.67 TIME LEFT: 172798.29
 STEP:  37 TIME =     0.05 SECS, INTEGRAL =      1.72 TIME LEFT: 172798.24
 STEP:  38 TIME =     0.05 SECS, INTEGRAL =      1.77 TIME LEFT: 172798.20
 STEP:  39 TIME =     0.05 SECS, INTEGRAL =      1.81 TIME LEFT: 172798.15
 STEP:  40 TIME =     0.05 SECS, INTEGRAL =      1.86 TIME LEFT: 172798.10
 STEP:  41 TIME =     0.05 SECS, INTEGRAL =      1.91 TIME LEFT: 172798.05
 STEP:  42 TIME =     0.05 SECS, INTEGRAL =      1.95 TIME LEFT: 172798.01
 STEP:  43 TIME =     0.05 SECS, INTEGRAL =      2.00 TIME LEFT: 172797.96
 STEP:  44 TIME =     0.05 SECS, INTEGRAL =      2.05 TIME LEFT: 172797.91
 STEP:  45 TIME =     0.05 SECS, INTEGRAL =      2.09 TIME LEFT: 172797.87
 STEP:  46 TIME =     0.04 SECS, INTEGRAL =      2.14 TIME LEFT: 172797.82
 STEP:  47 TIME =     0.05 SECS, INTEGRAL =      2.18 TIME LEFT: 172797.78
 STEP:  48 TIME =     0.05 SECS, INTEGRAL =      2.23 TIME LEFT: 172797.73
 STEP:  49 TIME =     0.05 SECS, INTEGRAL =      2.28 TIME LEFT: 172797.68
 STEP:  50 TIME =     0.05 SECS, INTEGRAL =      2.32 TIME LEFT: 172797.64
 STEP:  51 TIME =     0.05 SECS, INTEGRAL =      2.37 TIME LEFT: 172797.59
 STEP:  52 TIME =     0.04 SECS, INTEGRAL =      2.41 TIME LEFT: 172797.55
 STEP:  53 TIME =     0.05 SECS, INTEGRAL =      2.46 TIME LEFT: 172797.50
 STEP:  54 TIME =     0.05 SECS, INTEGRAL =      2.51 TIME LEFT: 172797.45
 STEP:  55 TIME =     0.05 SECS, INTEGRAL =      2.55 TIME LEFT: 172797.41
 STEP:  56 TIME =     0.05 SECS, INTEGRAL =      2.60 TIME LEFT: 172797.36
 STEP:  57 TIME =     0.05 SECS, INTEGRAL =      2.65 TIME LEFT: 172797.31
 STEP:  58 TIME =     0.05 SECS, INTEGRAL =      2.70 TIME LEFT: 172797.27
 STEP:  59 TIME =     0.05 SECS, INTEGRAL =      2.74 TIME LEFT: 172797.22
 STEP:  60 TIME =     0.05 SECS, INTEGRAL =      2.79 TIME LEFT: 172797.17

(To convert to Hartree/Bohr^2, multiply by (10^(-21) x N x a0^2)/(4.184 x 627.51) =  0.0642)


           FORCE MATRIX IN MILLIDYNES/ANGSTROM


                  C  1       C  2       C  3       C  4       C  5       C  6
 ------------------------------------------------------------------------------
     C    1  14.685746
     C    2   4.127443  14.716975
     C    3   4.668860   0.675410  18.576897
     C    4   0.653744   0.102749   5.004508  18.881850
     C    5   0.695987   5.019541   0.064775   1.103656  18.032636
     C    6   0.066087   0.856553   0.699224   5.247372  10.339520  18.424292
     C    7   0.810810   0.043727  10.411236   0.984074   0.008731   0.054554
     C    8   0.004047   0.003167   0.062607   0.333845   0.027710   0.074823
     C    9   0.049037   0.016084   1.090833   9.848986   0.163916   1.249875
     C   10   0.011528   0.008930   0.195268   1.400774   0.076943   0.211797
     H   11   4.464548   0.429523   0.450971   0.043989   0.050881   0.004131
     H   12   0.445023   4.411214   0.008694   0.016498   0.407710   0.029632
     H   13   4.427808   0.446881   0.415375   0.014746   0.010297   0.005036
     H   14   0.428123   4.470336   0.049658   0.009100   0.435368   0.046714
     H   15   0.041454   0.426597   0.005386   0.118870   4.840380   0.439989
     H   16   0.005304   0.117103   0.040490   0.445553   0.440256   4.834218
     H   17   0.084525   0.009001   0.472877   0.121163   0.001455   0.010228
     H   18   0.122484   0.015810   0.475333   0.087226   0.001986   0.004993
     H   19   0.001757   0.002474   0.045015   0.009423   0.003571   0.043253
     H   20   0.001146   0.002108   0.040921   0.009997   0.003467   0.043886


                  C  7       C  8       C  9       C 10       H 11       H 12
 ------------------------------------------------------------------------------
     C    7  17.883819
     C    8   0.021338  17.755350
     C    9   0.140082   1.399264  24.557457
     C   10   0.064300  10.982130  11.838115  24.623634
     H   11   0.055861   0.000383   0.007821   0.001535   5.071310
     H   12   0.001526   0.000963   0.004572   0.001990   0.034025   5.009477
     H   13   0.030507   0.000344   0.002626   0.001036   0.560477   0.044920
     H   14   0.008405   0.000506   0.001976   0.001164   0.026465   0.567215
     H   15   0.002184   0.000964   0.008111   0.005615   0.006794   0.015611
     H   16   0.007586   0.001619   0.035133   0.006074   0.001033   0.015758
     H   17   5.088922   0.000982   0.009655   0.003742   0.030019   0.000505
     H   18   5.084971   0.001920   0.016420   0.008174   0.003158   0.000480
     H   19   0.003759   5.046199   0.037653   0.474036   0.000291   0.000324
     H   20   0.003576   5.047086   0.041744   0.473702   0.000181   0.000339


                  H 13       H 14       H 15       H 16       H 17       H 18
 ------------------------------------------------------------------------------
     H   13   5.015632
     H   14   0.035002   5.066408
     H   15   0.001514   0.036297   5.209794
     H   16   0.000509   0.011536   0.065416   5.201035
     H   17   0.010661   0.001587   0.000378   0.001697   5.472146
     H   18   0.016015   0.002602   0.000366   0.001185   0.403665   5.461504
     H   19   0.000230   0.000245   0.003104   0.000516   0.001768   0.001505
     H   20   0.000327   0.000178   0.003238   0.000825   0.001071   0.001574


                  H 19       H 20
 ------------------------------
     H   19   5.412524
     H   20   0.399231   5.413562


          HEAT OF FORMATION =      99.755211 KCALS/MOLE

          ZERO POINT ENERGY     103.240 KCAL/MOL


           NORMAL COORDINATE ANALYSIS (Total motion = 1 Angstrom)


   Root No.       1         2         3         4         5         6         7         8

                 1 A       2 A       3 A       4 A       5 A       6 A       7 A       8 A   

                  61.4      97.0     137.7     177.8     304.7     311.8     372.2     391.1
  
           1   -0.0207    0.0162    0.0064   -0.0049   -0.0000    0.0034   -0.0130   -0.0064
           2   -0.0035   -0.0115    0.0095   -0.0038   -0.0142   -0.0042   -0.0005   -0.0299
           3   -0.0382    0.0026    0.0342   -0.0347    0.0083    0.0155   -0.0138    0.0166
           4   -0.0206    0.0163    0.0059   -0.0051    0.0015    0.0025   -0.0066   -0.0071
           5   -0.0294    0.0112   -0.0183    0.0253   -0.0127   -0.0128    0.0343    0.0112
           6   -0.0320   -0.0148   -0.0305    0.0299   -0.0047   -0.0025   -0.0251    0.0042
           7    0.0062   -0.0071    0.0042   -0.0021   -0.0033   -0.0093   -0.0268   -0.0092
           8    0.0073   -0.0204    0.0087   -0.0023   -0.0166   -0.0060   -0.0112   -0.0296
           9    0.0099    0.0179    0.0133   -0.0053   -0.0276   -0.0057    0.0198   -0.0321
          10    0.0089   -0.0308    0.0161    0.0082   -0.0143   -0.0227   -0.0065   -0.0066
          11    0.0139   -0.0042    0.0153    0.0080   -0.0184   -0.0029   -0.0347   -0.0043
          12    0.0182    0.0195    0.0292    0.0114   -0.0346   -0.0147    0.0152   -0.0062
          13    0.0027   -0.0098   -0.0045   -0.0082    0.0094   -0.0028    0.0142   -0.0207
          14    0.0043    0.0254   -0.0129   -0.0144    0.0222    0.0132    0.0382   -0.0084
          15    0.0143   -0.0155   -0.0298   -0.0126    0.0338    0.0223   -0.0103   -0.0239
          16    0.0174   -0.0314    0.0059   -0.0074   -0.0102   -0.0212   -0.0096    0.0117
          17    0.0226    0.0180    0.0077   -0.0163   -0.0117   -0.0106    0.0166    0.0323
          18    0.0369    0.0013    0.0073   -0.0203   -0.0215   -0.0066   -0.0149    0.0290
          19    0.0307   -0.0048   -0.0359    0.0049    0.0218    0.0024   -0.0236    0.0259
          20    0.0106   -0.0446   -0.0039   -0.0130    0.0280   -0.0338    0.0406    0.0091
          21    0.0395    0.0313   -0.0320    0.0076   -0.0144    0.0218    0.0036   -0.0045
          22   -0.0168    0.0608   -0.0145   -0.0147   -0.0005   -0.0279    0.0156   -0.0043
          23   -0.0194    0.0220   -0.0212   -0.0184   -0.0058    0.0044   -0.0421    0.0001
          24   -0.0340   -0.0480   -0.0261   -0.0251   -0.0218   -0.0002    0.0168   -0.0012
          25    0.0021   -0.0330    0.0199    0.0237   -0.0031    0.0245    0.0107   -0.0040
          26    0.0055   -0.0041    0.0206    0.0260    0.0121    0.0260   -0.0328    0.0012
          27    0.0062    0.0227    0.0368    0.0390    0.0327   -0.0126    0.0174    0.0030
          28   -0.0068    0.0064    0.0084    0.0139   -0.0116    0.0626    0.0535    0.0147
          29   -0.0060    0.0070    0.0062    0.0149    0.0158    0.0418   -0.0244    0.0097
          30   -0.0123   -0.0066    0.0151    0.0232    0.0554   -0.0316   -0.0044   -0.0031
          31   -0.0346    0.0355    0.0375   -0.0367    0.0100    0.0173    0.0048    0.0182
          32   -0.0284   -0.0230    0.0390   -0.0387    0.0150    0.0132   -0.0276    0.0155
          33   -0.0609    0.0034    0.0678   -0.0722    0.0324    0.0339   -0.0252    0.0585
          34   -0.0210    0.0242    0.0532   -0.0519    0.0098    0.0197   -0.0169   -0.0160
          35   -0.0818    0.0112   -0.0472    0.0991   -0.0674   -0.0581    0.0336    0.0830
          36   -0.0182   -0.0179   -0.0412    0.0287    0.0061    0.0024   -0.0209   -0.0098
          37   -0.0269    0.0142   -0.0382    0.0411   -0.0094   -0.0097   -0.0098   -0.0112
          38    0.0365   -0.0122   -0.0145    0.0258   -0.0463   -0.0261    0.0163   -0.0927
          39   -0.0588    0.0038    0.0667   -0.0711    0.0312    0.0338   -0.0249    0.0565
          40   -0.0370    0.0290   -0.0248    0.0285   -0.0032   -0.0077    0.0062    0.0256
          41   -0.0262    0.0180   -0.0226    0.0220   -0.0035   -0.0072    0.0403    0.0114
          42   -0.0768   -0.0251   -0.0653    0.1081   -0.0605   -0.0503   -0.0303    0.0653
          43    0.0087   -0.0115   -0.0164   -0.0215    0.0381    0.0132    0.0264   -0.0374
          44    0.0113    0.0430   -0.0242   -0.0404    0.0639    0.0444    0.0589   -0.0346
          45    0.0274   -0.0302   -0.0578   -0.0351    0.0911    0.0498    0.0147   -0.0567
          46    0.0358   -0.0505    0.0047   -0.0207   -0.0093   -0.0215   -0.0429    0.0373
          47    0.0433    0.0295    0.0160   -0.0382   -0.0191   -0.0181    0.0375    0.0702
          48    0.0682    0.0007    0.0144   -0.0494   -0.0279   -0.0146   -0.0149    0.0814
          49    0.0313    0.0142   -0.0565    0.0033    0.0242    0.0430   -0.0630    0.0271
          50    0.0045   -0.0586   -0.0084   -0.0266    0.0646   -0.0497    0.0771    0.0376
          51    0.0338    0.0302   -0.0505   -0.0070    0.0232    0.0341    0.0124    0.0244
          52    0.0516   -0.0214   -0.0510    0.0130    0.0439   -0.0270    0.0209    0.0607
          53    0.0197   -0.0519   -0.0104   -0.0095    0.0383   -0.0473    0.0610    0.0246
          54    0.0718    0.0446   -0.0544    0.0347   -0.0409    0.0386   -0.0257   -0.0056
          55   -0.0249    0.0616   -0.0241   -0.0242   -0.0106   -0.0341    0.0156   -0.0301
          56   -0.0293    0.0711   -0.0353   -0.0339    0.0216   -0.0899   -0.0906   -0.0511
          57   -0.0506   -0.0842   -0.0441   -0.0415   -0.0748    0.0585    0.0557   -0.0380
          58   -0.0176    0.1108   -0.0253   -0.0312    0.0302   -0.1293   -0.0355   -0.0034
          59   -0.0211   -0.0129   -0.0315   -0.0325   -0.0499    0.0573   -0.0168    0.0396
          60   -0.0363   -0.0497   -0.0441   -0.0510   -0.0468   -0.0140    0.0092    0.0404


   Root No.       9        10        11        12        13        14        15        16

                 9 A      10 A      11 A      12 A      13 A      14 A      15 A      16 A   

                 448.5     506.7     528.9     571.8     616.5     623.6     681.0     706.7
  
           1    0.0285   -0.0191   -0.0056   -0.0118   -0.0011   -0.0006   -0.0168   -0.0094
           2   -0.0196   -0.0279   -0.0042   -0.0011    0.0290   -0.0207   -0.0292   -0.0096
           3   -0.0167    0.0103    0.0038    0.0091   -0.0024    0.0047    0.0004   -0.0093
           4    0.0315   -0.0239   -0.0056   -0.0256   -0.0078   -0.0088   -0.0136   -0.0037
           5   -0.0279    0.0050    0.0009   -0.0022   -0.0000   -0.0028    0.0077    0.0091
           6    0.0125    0.0019    0.0007    0.0092    0.0019    0.0042   -0.0284   -0.0051
           7    0.0179    0.0293    0.0063    0.0664   -0.0013    0.0220    0.0172   -0.0211
           8   -0.0174   -0.0097   -0.0008    0.0204    0.0153   -0.0086   -0.0079   -0.0133
           9    0.0169   -0.0039   -0.0022    0.0378   -0.0196    0.0231    0.0382   -0.0225
          10   -0.0173    0.0220    0.0129    0.0118    0.0011   -0.0063   -0.0013    0.0252
          11    0.0088    0.0181    0.0125    0.0001   -0.0079   -0.0035   -0.0059    0.0296
          12    0.0221    0.0184    0.0171   -0.0162   -0.0262    0.0009    0.0015    0.0491
          13   -0.0108   -0.0186   -0.0032   -0.0310    0.0089   -0.0392    0.0451    0.0260
          14   -0.0106    0.0208    0.0119    0.0064   -0.0136    0.0167   -0.0088    0.0067
          15    0.0047    0.0149    0.0112    0.0056   -0.0026    0.0024   -0.0099    0.0096
          16   -0.0267    0.0003   -0.0087    0.0120    0.0188   -0.0157    0.0101    0.0085
          17   -0.0127    0.0156   -0.0066    0.0246   -0.0031    0.0237   -0.0250   -0.0053
          18    0.0182   -0.0268   -0.0252   -0.0222   -0.0031   -0.0052   -0.0025    0.0069
          19    0.0045    0.0211    0.0071    0.0152    0.0053    0.0043   -0.0078    0.0007
          20    0.0362   -0.0111   -0.0010   -0.0141   -0.0036   -0.0037   -0.0012   -0.0002
          21   -0.0252   -0.0183   -0.0017   -0.0204   -0.0036   -0.0054    0.0056    0.0009
          22   -0.0091    0.0044    0.0034    0.0005    0.0088    0.0021   -0.0141   -0.0027
          23    0.0169    0.0029    0.0015   -0.0108   -0.0024   -0.0079    0.0257    0.0042
          24   -0.0024    0.0058    0.0073   -0.0083    0.0040    0.0063   -0.0089   -0.0035
          25   -0.0288   -0.0029    0.0068   -0.0654   -0.0406    0.0607   -0.0023   -0.0227
          26    0.0057    0.0067    0.0096   -0.0480    0.0019    0.0198    0.0107   -0.0201
          27    0.0156    0.0258    0.0207   -0.0216    0.0778   -0.0239    0.0002   -0.0263
          28    0.0091   -0.0076   -0.0105    0.0472    0.0063   -0.0163   -0.0114    0.0078
          29    0.0148   -0.0176   -0.0189    0.0354   -0.0171   -0.0165    0.0172    0.0144
          30   -0.0282   -0.0331   -0.0295    0.0441   -0.0385    0.0033   -0.0086    0.0143
          31   -0.0066   -0.0083   -0.0024   -0.0447   -0.0169   -0.0256    0.0301    0.0163
          32   -0.0590    0.0037    0.0067   -0.0302    0.0289   -0.0635   -0.0307    0.0226
          33   -0.0605    0.0375    0.0129   -0.0249   -0.0092   -0.0359    0.0211    0.0250
          34    0.0288   -0.0375   -0.0032   -0.0304   -0.0028   -0.0102   -0.0736   -0.0236
          35   -0.0344   -0.0002   -0.0330   -0.0013    0.0018   -0.0034    0.1165   -0.0272
          36    0.0145    0.0089    0.0081    0.0110   -0.0004    0.0047   -0.0308    0.0113
          37    0.0630   -0.0397   -0.0123   -0.0269   -0.0056    0.0076   -0.0713   -0.0232
          38    0.0281   -0.0594   -0.0149    0.0623    0.0445    0.0358   -0.0288   -0.0585
          39   -0.0599    0.0383    0.0131   -0.0223   -0.0105   -0.0330    0.0246    0.0258
          40    0.0418    0.0013   -0.0079   -0.0179   -0.0339    0.0175    0.0338   -0.0048
          41   -0.0227    0.0170    0.0067    0.0015   -0.0122    0.0099    0.0060    0.0141
          42    0.0042   -0.0110   -0.0339    0.0059    0.0145   -0.0105    0.0771   -0.0331
          43   -0.0218   -0.0112   -0.0026   -0.0294    0.0153   -0.0410    0.0909   -0.0145
          44    0.0018    0.0149    0.0086   -0.0151   -0.0218    0.0206    0.0433   -0.0575
          45   -0.0342    0.0389    0.0143    0.0219    0.0196   -0.0038    0.0911   -0.0709
          46   -0.0346   -0.0097   -0.0389    0.0303    0.0463   -0.0109    0.0193   -0.0718
          47   -0.0241   -0.0121   -0.0513    0.0185    0.0160    0.0334    0.0066   -0.1036
          48    0.0021   -0.0591   -0.0868   -0.0160    0.0329    0.0067    0.0339   -0.1373
          49   -0.0521   -0.0315   -0.0145    0.0035    0.1621    0.1077   -0.0280    0.0967
          50    0.0908   -0.0301   -0.0119   -0.0416    0.0235    0.0669    0.0283    0.0575
          51   -0.0115   -0.0730   -0.0271   -0.0556    0.1299    0.1340    0.0209    0.1229
          52    0.0475    0.0623    0.0284   -0.0428   -0.1398   -0.1229   -0.0292   -0.0534
          53    0.0567    0.0066    0.0082   -0.0402   -0.0675   -0.0589   -0.0098   -0.0234
          54   -0.0942    0.0203    0.0236   -0.0595   -0.1090   -0.1880   -0.0699   -0.0801
          55   -0.0044    0.0667   -0.0913   -0.0482    0.0210    0.0056   -0.0214   -0.0029
          56   -0.0089    0.0718   -0.1234   -0.1064   -0.0261    0.0282    0.0246    0.0010
          57    0.0344    0.1398   -0.1797   -0.0779    0.0611   -0.0147   -0.0273   -0.0009
          58   -0.0474   -0.0503    0.1117   -0.0237   -0.0251    0.0453   -0.0114   -0.0228
          59    0.0410   -0.0451    0.1463    0.0248    0.0315   -0.0270    0.0416   -0.0090
          60   -0.0033   -0.0808    0.2306    0.0130    0.0171    0.0156    0.0079   -0.0310


   Root No.      17        18        19        20        21        22        23        24

                17 A      18 A      19 A      20 A      21 A      22 A      23 A      24 A   

                 787.2     831.8     878.1     930.0     935.0     953.1     978.9     999.0
  
           1   -0.0078    0.0103   -0.0083   -0.0205   -0.0003   -0.0038    0.0000    0.0155
           2   -0.0222   -0.0102    0.0169   -0.0330    0.0001   -0.0179   -0.0009   -0.0071
           3    0.0227    0.0105    0.0251    0.0351    0.0011   -0.0260   -0.0010   -0.0180
           4   -0.0012    0.0122   -0.0242    0.0085    0.0007    0.0058   -0.0001   -0.0114
           5    0.0120   -0.0185    0.0484   -0.0046   -0.0026    0.0200    0.0015    0.0289
           6    0.0151    0.0106    0.0085   -0.0035   -0.0002    0.0183    0.0009   -0.0016
           7   -0.0141   -0.0333    0.0114   -0.0011   -0.0008    0.0042   -0.0003   -0.0018
           8   -0.0188   -0.0087   -0.0195    0.0090    0.0002    0.0080    0.0002   -0.0013
           9    0.0182   -0.0124   -0.0137   -0.0102   -0.0011    0.0090   -0.0002    0.0049
          10    0.0055    0.0337   -0.0040   -0.0001   -0.0000    0.0038    0.0010   -0.0037
          11   -0.0191    0.0246    0.0027    0.0006   -0.0003    0.0027    0.0012   -0.0048
          12   -0.0246    0.0298    0.0234    0.0035    0.0006    0.0080    0.0019   -0.0061
          13    0.0150   -0.0293    0.0181    0.0172    0.0012    0.0071   -0.0008   -0.0264
          14    0.0050   -0.0125   -0.0122    0.0037   -0.0004    0.0026   -0.0012   -0.0236
          15   -0.0014   -0.0160   -0.0221   -0.0124   -0.0006    0.0046   -0.0012   -0.0091
          16    0.0441    0.0155   -0.0219   -0.0074    0.0027   -0.0134    0.0001    0.0122
          17    0.0206    0.0056   -0.0283   -0.0017    0.0019   -0.0239   -0.0003    0.0066
          18   -0.0176   -0.0512    0.0112    0.0143   -0.0010   -0.0230    0.0004    0.0254
          19   -0.0180   -0.0207    0.0263    0.0019   -0.0006   -0.0010    0.0006    0.0105
          20   -0.0027    0.0040   -0.0202    0.0389    0.0021    0.0192    0.0013    0.0193
          21    0.0165    0.0129   -0.0173   -0.0220   -0.0010    0.0039    0.0007    0.0160
          22   -0.0108   -0.0017   -0.0027    0.0015   -0.0701   -0.0011   -0.0389    0.0000
          23    0.0205    0.0056    0.0029    0.0000   -0.0207    0.0017   -0.0495    0.0014
          24   -0.0076   -0.0023   -0.0002   -0.0005    0.0478    0.0004   -0.0777    0.0006
          25   -0.0000   -0.0120    0.0018   -0.0005   -0.0152   -0.0017   -0.0023    0.0007
          26    0.0065   -0.0101   -0.0017    0.0001   -0.0048   -0.0019   -0.0029    0.0006
          27    0.0099   -0.0095   -0.0069   -0.0005    0.0102   -0.0011   -0.0043    0.0024
          28   -0.0081    0.0010   -0.0004   -0.0009    0.0636    0.0004    0.0141   -0.0005
          29    0.0110    0.0059    0.0022   -0.0006    0.0196    0.0010    0.0178   -0.0001
          30   -0.0083    0.0026    0.0005    0.0009   -0.0435   -0.0004    0.0278   -0.0008
          31   -0.0395   -0.0229   -0.0595   -0.0736   -0.0032    0.0367    0.0008    0.0743
          32   -0.0978   -0.0373   -0.0367   -0.1196   -0.0018    0.0306    0.0012   -0.0046
          33   -0.0433   -0.0238   -0.0343   -0.0473   -0.0015    0.0261    0.0008    0.0089
          34    0.0390    0.0572    0.0715    0.0310    0.0007   -0.0311    0.0029    0.0634
          35   -0.0851    0.0014   -0.0544    0.0223    0.0030   -0.0958   -0.0035   -0.0035
          36    0.0219   -0.0117   -0.0054   -0.0203   -0.0016    0.0613    0.0009   -0.0232
          37    0.0492    0.0793    0.0488    0.0330    0.0014   -0.0068    0.0040    0.0676
          38    0.0348   -0.0044    0.0754    0.0431    0.0030   -0.1111   -0.0071   -0.0844
          39   -0.0371   -0.0233   -0.0367   -0.0340   -0.0013    0.0311    0.0009    0.0046
          40   -0.0334    0.0190   -0.1367    0.0341    0.0001    0.0289   -0.0009   -0.0309
          41    0.0176   -0.0193    0.0286    0.0046   -0.0043    0.0489    0.0024    0.0351
          42   -0.0815    0.0191   -0.1008    0.0004    0.0071   -0.0885   -0.0050   -0.0747
          43   -0.0351    0.0647    0.0485    0.0259    0.0032   -0.0303    0.0023    0.0282
          44   -0.1111    0.0980    0.0183    0.0521   -0.0003   -0.0507    0.0024   -0.0004
          45   -0.0829    0.1884    0.0486   -0.0154    0.0048   -0.0734    0.0057    0.1329
          46    0.0338    0.1007   -0.0139   -0.0574    0.0003    0.0740    0.0002    0.0034
          47   -0.0125    0.0738    0.0469   -0.0075   -0.0042    0.0995   -0.0012   -0.1003
          48   -0.0566    0.0661    0.0903   -0.0222   -0.0083    0.1502   -0.0004   -0.0814
          49   -0.0602    0.0117    0.0067    0.1566    0.0093    0.0225    0.0000   -0.0366
          50    0.0273    0.0372    0.0155   -0.1174   -0.0056   -0.0391   -0.0025   -0.0476
          51    0.0185    0.0690    0.0018   -0.0699   -0.0018   -0.0365   -0.0034   -0.0816
          52    0.0184   -0.0036    0.0848   -0.1295   -0.0059   -0.0935   -0.0066   -0.1049
          53    0.0143    0.0126    0.0045   -0.0219   -0.0004   -0.0215   -0.0019   -0.0311
          54    0.0030    0.0279   -0.0552    0.1514    0.0098    0.0128   -0.0013   -0.0408
          55   -0.0081   -0.0064   -0.0035    0.0014   -0.0485   -0.0043    0.1559   -0.0014
          56    0.0313   -0.0023    0.0087   -0.0060    0.3238    0.0018    0.1973    0.0006
          57   -0.0048   -0.0089   -0.0068    0.0041   -0.1794   -0.0088    0.3127   -0.0027
          58   -0.0211   -0.0115   -0.0003   -0.0051    0.2675    0.0004    0.1581   -0.0043
          59    0.0292    0.0091   -0.0011    0.0019   -0.2559    0.0010    0.2026   -0.0016
          60   -0.0072   -0.0057   -0.0031   -0.0028    0.0265    0.0004    0.3168   -0.0056


   Root No.      25        26        27        28        29        30        31        32

                25 A      26 A      27 A      28 A      29 A      30 A      31 A      32 A   

                1012.6    1037.8    1071.3    1073.9    1109.8    1138.7    1162.2    1203.4
  
           1    0.0253    0.0103   -0.0207   -0.0189    0.0304   -0.0060    0.0061    0.0052
           2    0.0005    0.0052   -0.0081   -0.0136    0.0084    0.0219    0.0090    0.0033
           3   -0.0021    0.0197    0.0133   -0.0072    0.0296   -0.0019    0.0028   -0.0015
           4   -0.0156   -0.0085    0.0187    0.0008   -0.0301    0.0051   -0.0126    0.0160
           5    0.0208   -0.0038    0.0134    0.0035   -0.0083   -0.0007    0.0034    0.0031
           6   -0.0202   -0.0291   -0.0029   -0.0119   -0.0308   -0.0107   -0.0043   -0.0040
           7    0.0063   -0.0187   -0.0043    0.0141    0.0011    0.0007   -0.0006    0.0014
           8   -0.0031   -0.0104    0.0140    0.0178    0.0089   -0.0102   -0.0086   -0.0289
           9    0.0120   -0.0202   -0.0098    0.0124   -0.0020   -0.0003    0.0044    0.0092
          10    0.0008    0.0064    0.0051   -0.0009   -0.0071    0.0122    0.0174   -0.0333
          11   -0.0023    0.0099    0.0205    0.0111    0.0093   -0.0402   -0.0145   -0.0011
          12    0.0001    0.0083   -0.0167   -0.0111   -0.0026    0.0190    0.0006    0.0197
          13   -0.0206   -0.0017   -0.0102    0.0043    0.0087   -0.0177   -0.0095    0.0076
          14   -0.0055    0.0146   -0.0119    0.0089   -0.0002   -0.0031    0.0033    0.0125
          15    0.0236    0.0372   -0.0052    0.0180   -0.0053    0.0121    0.0023   -0.0145
          16   -0.0009   -0.0086   -0.0026   -0.0069   -0.0033    0.0052   -0.0007   -0.0039
          17   -0.0118   -0.0158   -0.0130   -0.0101   -0.0020   -0.0042   -0.0062    0.0133
          18    0.0026   -0.0143    0.0170    0.0031    0.0020    0.0010    0.0055   -0.0075
          19   -0.0239    0.0236   -0.0002   -0.0139   -0.0018    0.0065   -0.0003    0.0045
          20   -0.0004    0.0092   -0.0133   -0.0095   -0.0014    0.0015    0.0026    0.0096
          21   -0.0314    0.0215    0.0095   -0.0031    0.0027   -0.0050   -0.0005   -0.0078
          22   -0.0014    0.0008    0.0065    0.0043    0.0038   -0.0130   -0.0056    0.0014
          23    0.0022   -0.0018   -0.0120   -0.0079   -0.0069    0.0236    0.0103   -0.0026
          24   -0.0011    0.0004    0.0045    0.0029    0.0025   -0.0085   -0.0038    0.0009
          25    0.0004   -0.0027   -0.0088   -0.0045   -0.0033    0.0140    0.0055    0.0025
          26   -0.0010   -0.0011    0.0063    0.0049    0.0055   -0.0225   -0.0125    0.0064
          27    0.0008   -0.0020    0.0007    0.0001   -0.0017    0.0073    0.0052   -0.0057
          28   -0.0004    0.0007    0.0022    0.0012    0.0004   -0.0001    0.0010   -0.0021
          29    0.0008   -0.0001   -0.0022   -0.0015   -0.0007   -0.0004   -0.0014    0.0016
          30   -0.0002    0.0005    0.0002    0.0003    0.0002    0.0004    0.0004    0.0001
          31    0.1429    0.0455   -0.0383   -0.1239   -0.0710   -0.1218    0.0232   -0.1268
          32   -0.0708   -0.0726   -0.0352    0.0564    0.0112    0.1172   -0.0041    0.1030
          33    0.0002   -0.0192   -0.0137   -0.0065   -0.0121    0.0088    0.0022    0.0087
          34   -0.0095    0.0384   -0.0258    0.1715   -0.2409    0.0220   -0.0705   -0.0388
          35    0.0414    0.1025   -0.0055    0.0904   -0.0306    0.0508   -0.0121   -0.0283
          36   -0.0272   -0.0742    0.0181   -0.1032    0.0570   -0.0318    0.0215    0.0256
          37   -0.0266    0.0088   -0.0684    0.1374    0.2497    0.0106    0.0698   -0.0533
          38    0.0436    0.0808    0.0557   -0.1376   -0.0722    0.0237   -0.0274    0.0395
          39   -0.0051   -0.0246   -0.0024   -0.0032   -0.0172   -0.0084   -0.0036    0.0027
          40    0.0146   -0.0031    0.1896   -0.0275    0.0801    0.1474   -0.0875   -0.0375
          41    0.0379   -0.0132    0.1006   -0.0093    0.0295    0.0653   -0.0285   -0.0243
          42   -0.0488    0.0309   -0.1106    0.0010   -0.0211   -0.0674    0.0262    0.0343
          43   -0.0338   -0.0530    0.0038   -0.0201    0.0073   -0.0200   -0.0213    0.0157
          44   -0.0842   -0.0864    0.0789   -0.0142   -0.0688   -0.0339    0.2473   -0.0805
          45    0.0300   -0.0526   -0.0198   -0.0402    0.0283    0.0231   -0.1601    0.0542
          46    0.0747    0.0798    0.0946    0.0534   -0.0244   -0.0381    0.1333    0.2088
          47   -0.0449   -0.0020   -0.0893   -0.0357    0.0120    0.0223   -0.0984   -0.1294
          48    0.0194    0.0546    0.0041    0.0163    0.0032    0.0020   -0.0018   -0.0148
          49    0.1221   -0.0722   -0.0539    0.0015   -0.0161    0.0260    0.0108    0.0354
          50    0.0202   -0.0406    0.0314    0.0401    0.0106   -0.0221   -0.0080   -0.0283
          51    0.0874   -0.0937    0.0172    0.0581    0.0054   -0.0151   -0.0033   -0.0238
          52    0.0790   -0.0685    0.0314    0.0278    0.0060   -0.0037   -0.0078   -0.0237
          53    0.0438   -0.0313    0.0016    0.0099    0.0027   -0.0044   -0.0011   -0.0040
          54    0.1353   -0.0879   -0.0404    0.0196    0.0027    0.0006    0.0057    0.0264
          55   -0.0013    0.0016    0.0073    0.0038    0.0039   -0.0140   -0.0061    0.0016
          56    0.0054   -0.0033   -0.0339   -0.0246   -0.0252    0.1071    0.0596   -0.0305
          57   -0.0025    0.0033    0.0187    0.0106    0.0136   -0.0609   -0.0349    0.0191
          58   -0.0029    0.0032    0.0282    0.0198    0.0209   -0.0910   -0.0522    0.0273
          59    0.0061   -0.0039   -0.0298   -0.0182   -0.0199    0.0838    0.0460   -0.0225
          60    0.0015    0.0002    0.0037    0.0047    0.0027   -0.0080   -0.0033    0.0003


   Root No.      33        34        35        36        37        38        39        40

                33 A      34 A      35 A      36 A      37 A      38 A      39 A      40 A   

                1281.0    1295.2    1351.9    1359.6    1390.2    1400.1    1433.8    1502.7
  
           1    0.0178    0.0319   -0.0268   -0.0246   -0.0141   -0.0439    0.0327    0.0157
           2    0.0015   -0.0252    0.0140    0.0169    0.0377   -0.0233   -0.0269   -0.0590
           3   -0.0044    0.0018   -0.0015    0.0048    0.0001    0.0016   -0.0037    0.0075
           4   -0.0170    0.0015   -0.0261    0.0350    0.0161    0.0476   -0.0432    0.0128
           5   -0.0004    0.0119   -0.0123    0.0203   -0.0269   -0.0049   -0.0340    0.0264
           6    0.0040   -0.0049    0.0100   -0.0268    0.0228    0.0028    0.0393   -0.0211
           7    0.0007    0.0106    0.0129    0.0060    0.0072    0.0008   -0.0026    0.0058
           8   -0.0259   -0.0010   -0.0122    0.0037   -0.0030    0.0028    0.0486    0.1163
           9    0.0068   -0.0135   -0.0041   -0.0063   -0.0041    0.0015   -0.0218   -0.0491
          10    0.0039    0.0140   -0.0167    0.0294   -0.0217    0.0127    0.0351   -0.0956
          11   -0.0078    0.0120   -0.0009   -0.0254   -0.0072   -0.0005   -0.0348   -0.0472
          12    0.0037   -0.0142    0.0099    0.0006    0.0159   -0.0066    0.0031    0.0772
          13   -0.0043   -0.0045    0.0145   -0.0199    0.0060   -0.0075    0.0223   -0.0106
          14   -0.0124    0.0007    0.0039    0.0061   -0.0014    0.0030    0.0398   -0.0303
          15    0.0122    0.0018   -0.0091    0.0040   -0.0028   -0.0005   -0.0383    0.0268
          16    0.0200   -0.0097   -0.0003   -0.0144    0.0063   -0.0083   -0.0483    0.0590
          17   -0.0063   -0.0059    0.0063   -0.0045    0.0083    0.0009    0.0120    0.0008
          18   -0.0062    0.0088   -0.0047    0.0114   -0.0090    0.0042    0.0170   -0.0296
          19   -0.0000    0.0006    0.0159    0.0077    0.0138   -0.0014   -0.0068    0.0158
          20    0.0069   -0.0003   -0.0037   -0.0057   -0.0040   -0.0019   -0.0052   -0.0174
          21   -0.0019    0.0012   -0.0131   -0.0046   -0.0110    0.0011    0.0094   -0.0071
          22   -0.0091    0.0050    0.0015   -0.0158   -0.0005   -0.0017   -0.0194   -0.0084
          23    0.0166   -0.0091   -0.0029    0.0287    0.0008    0.0033    0.0354    0.0145
          24   -0.0059    0.0033    0.0011   -0.0104   -0.0002   -0.0012   -0.0128   -0.0050
          25   -0.0025   -0.0018    0.0014    0.0064    0.0026    0.0003    0.0122    0.0110
          26    0.0055   -0.0008    0.0019   -0.0143    0.0001   -0.0023   -0.0262   -0.0117
          27   -0.0023    0.0013   -0.0021    0.0060   -0.0015    0.0013    0.0107    0.0018
          28   -0.0074    0.0035    0.0000   -0.0033   -0.0005    0.0000    0.0004    0.0001
          29    0.0134   -0.0055   -0.0008    0.0065    0.0001    0.0003   -0.0002   -0.0028
          30   -0.0048    0.0017    0.0005   -0.0025    0.0002   -0.0002   -0.0000    0.0019
          31   -0.0380   -0.0880    0.1269   -0.0037    0.0129    0.1146    0.0194   -0.0013
          32    0.0828    0.0427    0.0245   -0.0703   -0.1272    0.1169    0.0046   -0.0039
          33    0.0229   -0.0046    0.0619   -0.0402   -0.0857    0.1428    0.0100    0.0293
          34    0.0058   -0.0358    0.0803   -0.0224   -0.0708   -0.1125    0.0341   -0.0111
          35    0.0532    0.0236   -0.0637   -0.0900    0.1661    0.1141    0.0580   -0.0334
          36   -0.0218    0.0038   -0.0104    0.0309   -0.0098    0.0196   -0.0195    0.0065
          37   -0.0148   -0.0737    0.0858    0.0079   -0.0183    0.1260   -0.0270   -0.0016
          38    0.0482    0.0480    0.0467   -0.0558   -0.1140    0.1192    0.0246    0.0458
          39   -0.0155    0.0029   -0.0589    0.0283    0.0774   -0.1313   -0.0068   -0.0392
          40    0.0072   -0.0787    0.1155   -0.0156   -0.0512   -0.1212    0.0176   -0.0487
          41    0.0254   -0.0110    0.0227   -0.0314    0.0025   -0.0303    0.0129   -0.0098
          42   -0.0589   -0.0207    0.0552    0.1038   -0.1647   -0.1122   -0.0635    0.0311
          43   -0.0110   -0.0048    0.0149   -0.0180    0.0083   -0.0037    0.0264   -0.0151
          44    0.0850   -0.0099    0.0023   -0.0407   -0.0053   -0.0354   -0.0620    0.0693
          45   -0.0583    0.0098   -0.0113    0.0413    0.0010    0.0314    0.0282   -0.0425
          46   -0.0530   -0.0324    0.0377   -0.0047    0.0268   -0.0061    0.0844    0.0271
          47    0.0433    0.0091   -0.0186   -0.0137   -0.0040   -0.0005   -0.0806    0.0223
          48   -0.0038    0.0106   -0.0066    0.0118   -0.0101    0.0050    0.0112   -0.0310
          49   -0.0046   -0.1252   -0.0802   -0.0475   -0.0447    0.0065   -0.0145   -0.0526
          50    0.0072    0.1288    0.1011    0.0572    0.0605   -0.0062    0.0034    0.0620
          51   -0.0015    0.0560    0.0331    0.0242    0.0161    0.0022    0.0114    0.0206
          52   -0.0406   -0.1212   -0.0914   -0.0410   -0.0459    0.0072    0.0281    0.0264
          53   -0.0102   -0.0467   -0.0468   -0.0251   -0.0283    0.0013    0.0112   -0.0101
          54    0.0419    0.1271    0.0985    0.0415    0.0513   -0.0110   -0.0311   -0.0203
          55   -0.0111    0.0063    0.0019   -0.0190   -0.0006   -0.0021   -0.0237   -0.0106
          56   -0.1358    0.0553    0.0082   -0.0744   -0.0017   -0.0059   -0.0497   -0.0130
          57    0.0922   -0.0378   -0.0060    0.0567    0.0014    0.0048    0.0429    0.0124
          58    0.1364   -0.0564   -0.0089    0.0838    0.0022    0.0070    0.0635    0.0201
          59   -0.0920    0.0361    0.0046   -0.0435   -0.0012   -0.0030   -0.0228   -0.0046
          60   -0.0102    0.0048    0.0014   -0.0143   -0.0003   -0.0016   -0.0169   -0.0062


   Root No.      41        42        43        44        45        46        47        48

                41 A      42 A      43 A      44 A      45 A      46 A      47 A      48 A   

                1852.8    1861.7    1898.5    2358.7    2942.8    2953.5    3024.6    3030.5
  
           1    0.0091   -0.0127   -0.0020   -0.0002    0.0013   -0.0008    0.0129   -0.0104
           2   -0.0086    0.0162    0.0004   -0.0014    0.0008    0.0001    0.0185   -0.0158
           3   -0.0045    0.0031    0.0008    0.0008    0.0283   -0.0327   -0.0014    0.0028
           4   -0.0029   -0.0026   -0.0007    0.0001   -0.0018   -0.0010    0.0114    0.0119
           5   -0.0167   -0.0098   -0.0052    0.0006   -0.0222   -0.0199   -0.0124   -0.0151
           6    0.0124    0.0085    0.0038   -0.0004   -0.0238   -0.0201    0.0104    0.0102
           7   -0.0870    0.1177   -0.0047    0.0045   -0.0004    0.0001   -0.0003   -0.0001
           8    0.0304   -0.0350   -0.0187    0.0001    0.0002   -0.0001    0.0004   -0.0002
           9    0.0651   -0.0899    0.0140   -0.0040    0.0002   -0.0002    0.0000    0.0001
          10    0.0075   -0.0191   -0.0829   -0.0446   -0.0000    0.0000    0.0001    0.0000
          11   -0.0134   -0.0189    0.1434    0.0820    0.0003   -0.0002   -0.0002    0.0001
          12    0.0029    0.0234   -0.0479   -0.0289   -0.0000    0.0000    0.0001   -0.0001
          13   -0.0498   -0.0395   -0.0146    0.0045   -0.0005   -0.0006   -0.0024   -0.0040
          14    0.1094    0.0843    0.0369   -0.0069    0.0004    0.0002    0.0003    0.0008
          15   -0.0528   -0.0402   -0.0188    0.0027   -0.0000    0.0000    0.0010    0.0014
          16    0.0783    0.0633    0.0459   -0.0069    0.0001    0.0001   -0.0000    0.0002
          17   -0.0960   -0.0780   -0.0448    0.0060   -0.0001   -0.0001    0.0001    0.0003
          18    0.0287    0.0232    0.0075   -0.0011   -0.0001   -0.0001   -0.0001   -0.0003
          19    0.0706   -0.0907    0.0013   -0.0037    0.0001   -0.0001    0.0002   -0.0001
          20   -0.0235    0.0302    0.0020    0.0015   -0.0001    0.0001    0.0001   -0.0001
          21   -0.0546    0.0701   -0.0029    0.0023    0.0000   -0.0000   -0.0001    0.0001
          22    0.0146    0.0086   -0.0591    0.0438   -0.0000    0.0000    0.0000    0.0000
          23   -0.0265   -0.0157    0.1074   -0.0795    0.0000   -0.0000    0.0000   -0.0000
          24    0.0095    0.0057   -0.0388    0.0287   -0.0000    0.0000   -0.0000    0.0000
          25   -0.0159   -0.0090    0.0601    0.1307    0.0001   -0.0000   -0.0001   -0.0000
          26    0.0223    0.0161   -0.1099   -0.2367   -0.0001    0.0000    0.0001    0.0000
          27   -0.0055   -0.0065    0.0395    0.0850    0.0000   -0.0000   -0.0000   -0.0000
          28   -0.0150   -0.0088    0.0630   -0.1324   -0.0000    0.0000    0.0000    0.0000
          29    0.0277    0.0154   -0.1146    0.2407    0.0000   -0.0000   -0.0000   -0.0000
          30   -0.0101   -0.0054    0.0413   -0.0870   -0.0000    0.0000    0.0000    0.0000
          31   -0.0081    0.0298    0.0006   -0.0002    0.0652   -0.0816   -0.0790    0.0748
          32    0.0168   -0.0260   -0.0011   -0.0032    0.1010   -0.1253   -0.1257    0.1127
          33    0.0062   -0.0084    0.0038    0.0019   -0.1449    0.1797    0.2139   -0.1911
          34   -0.0037   -0.0025   -0.0007    0.0004    0.0968    0.0841   -0.0646   -0.0668
          35    0.0013   -0.0002   -0.0001   -0.0002    0.0650    0.0526   -0.0607   -0.0643
          36    0.0040    0.0035    0.0005   -0.0014    0.2533    0.2069   -0.1820   -0.1879
          37   -0.0023    0.0039    0.0004   -0.0001   -0.0814    0.0940   -0.0724    0.0581
          38   -0.0084    0.0082   -0.0009    0.0003   -0.1148    0.1247   -0.0982    0.0776
          39    0.0034   -0.0034    0.0010    0.0003   -0.1960    0.2117   -0.1977    0.1594
          40   -0.0093   -0.0066   -0.0020    0.0003   -0.0752   -0.0705   -0.0683   -0.0841
          41   -0.0188   -0.0093   -0.0055    0.0005    0.1995    0.1855    0.2095    0.2432
          42    0.0145    0.0136    0.0054   -0.0004    0.0369    0.0342    0.0565    0.0653
          43   -0.0627   -0.0504   -0.0175    0.0097    0.0071    0.0047    0.0258    0.0472
          44   -0.0122   -0.0078   -0.0031   -0.0018   -0.0026   -0.0022   -0.0059   -0.0100
          45    0.0411    0.0313    0.0124   -0.0027   -0.0027   -0.0017   -0.0079   -0.0156
          46   -0.0487   -0.0388   -0.0418   -0.0023   -0.0001   -0.0004   -0.0001   -0.0018
          47   -0.0293   -0.0269    0.0111    0.0089    0.0000   -0.0005    0.0003   -0.0020
          48    0.0452    0.0380    0.0148   -0.0040   -0.0005    0.0001   -0.0001    0.0024
          49    0.0095   -0.0145    0.0060   -0.0008    0.0009   -0.0010   -0.0014    0.0015
          50    0.0615   -0.0767   -0.0050   -0.0036    0.0007   -0.0005   -0.0010    0.0013
          51   -0.0321    0.0419   -0.0077    0.0013   -0.0014    0.0013    0.0013   -0.0016
          52    0.0062   -0.0089    0.0003   -0.0005    0.0010   -0.0011   -0.0001    0.0002
          53   -0.0661    0.0852    0.0014    0.0060   -0.0016    0.0018    0.0007   -0.0009
          54    0.0198   -0.0245    0.0025   -0.0009    0.0002   -0.0001    0.0002   -0.0001
          55    0.0198    0.0125   -0.0844    0.0770    0.0001   -0.0000   -0.0001   -0.0002
          56    0.0009    0.0017   -0.0027   -0.0253   -0.0000    0.0000    0.0000    0.0000
          57   -0.0115   -0.0057    0.0437   -0.0222   -0.0000   -0.0000    0.0000    0.0001
          58   -0.0154   -0.0099    0.0629   -0.0311   -0.0000    0.0000    0.0000    0.0001
          59   -0.0090   -0.0062    0.0417   -0.0578   -0.0001    0.0000    0.0000    0.0001
          60    0.0143    0.0074   -0.0581    0.0523    0.0001   -0.0000   -0.0000   -0.0001


   Root No.      49        50        51        52        53        54

                49 A      50 A      51 A      52 A      53 A      54 A   

                3048.4    3067.9    3119.2    3130.4    3134.6    3139.4
  
           1    0.0006    0.0006   -0.0000   -0.0000   -0.0003    0.0002
           2    0.0008    0.0008   -0.0000   -0.0000   -0.0000   -0.0005
           3   -0.0003   -0.0005   -0.0000   -0.0000    0.0005   -0.0001
           4   -0.0019   -0.0021    0.0000    0.0000    0.0001    0.0000
           5    0.0026    0.0032   -0.0000   -0.0000   -0.0001   -0.0001
           6   -0.0010   -0.0014    0.0000   -0.0000   -0.0000   -0.0000
           7   -0.0003    0.0004   -0.0001   -0.0000   -0.0047   -0.0016
           8   -0.0000   -0.0000   -0.0000    0.0000    0.0015    0.0011
           9    0.0002   -0.0002    0.0001    0.0000    0.0036    0.0010
          10   -0.0001    0.0007   -0.0003   -0.0000    0.0001   -0.0005
          11    0.0000   -0.0007    0.0004   -0.0000   -0.0002   -0.0000
          12    0.0000    0.0001   -0.0002    0.0000    0.0000    0.0004
          13   -0.0296   -0.0372    0.0001   -0.0000    0.0000   -0.0000
          14    0.0054    0.0112    0.0000    0.0000    0.0000    0.0000
          15    0.0107    0.0103   -0.0001    0.0000   -0.0000    0.0000
          16    0.0153   -0.0103    0.0002   -0.0000    0.0001    0.0000
          17    0.0243   -0.0250    0.0000   -0.0000    0.0001   -0.0000
          18   -0.0250    0.0230   -0.0001    0.0000   -0.0001   -0.0000
          19    0.0000   -0.0000    0.0005    0.0002    0.0350    0.0130
          20   -0.0000   -0.0000   -0.0003   -0.0003   -0.0308    0.0556
          21   -0.0000    0.0000   -0.0003   -0.0001   -0.0195   -0.0336
          22   -0.0000   -0.0001   -0.0218   -0.0515    0.0006   -0.0001
          23    0.0000    0.0002    0.0387   -0.0159   -0.0004   -0.0001
          24    0.0000   -0.0001   -0.0137    0.0359   -0.0001    0.0001
          25    0.0003   -0.0004    0.0000   -0.0002   -0.0001   -0.0000
          26   -0.0001    0.0004   -0.0000   -0.0000    0.0002   -0.0001
          27   -0.0001   -0.0001   -0.0000    0.0001   -0.0001    0.0001
          28    0.0000    0.0001    0.0034   -0.0004    0.0001   -0.0000
          29   -0.0000   -0.0001   -0.0062   -0.0000   -0.0000    0.0000
          30    0.0000    0.0001    0.0022    0.0002   -0.0000    0.0000
          31   -0.0037   -0.0031    0.0000   -0.0000    0.0019    0.0026
          32   -0.0055   -0.0048    0.0001   -0.0000    0.0028    0.0004
          33    0.0093    0.0079   -0.0001   -0.0000   -0.0044   -0.0036
          34    0.0076    0.0078   -0.0002   -0.0000   -0.0001   -0.0000
          35    0.0084    0.0089   -0.0001   -0.0000   -0.0001   -0.0001
          36    0.0244    0.0250   -0.0003   -0.0000   -0.0000   -0.0000
          37   -0.0024   -0.0014    0.0001   -0.0000   -0.0005    0.0005
          38   -0.0031   -0.0018    0.0001   -0.0000   -0.0005    0.0003
          39   -0.0065   -0.0041    0.0002   -0.0000   -0.0006    0.0013
          40    0.0127    0.0133   -0.0001   -0.0000   -0.0002   -0.0002
          41   -0.0427   -0.0447    0.0004    0.0000    0.0005    0.0005
          42   -0.0091   -0.0092    0.0001   -0.0000    0.0002    0.0001
          43    0.3554    0.4089   -0.0017    0.0001   -0.0003    0.0002
          44   -0.0660   -0.0801    0.0003    0.0000    0.0001   -0.0000
          45   -0.1272   -0.1434    0.0006   -0.0000    0.0001   -0.0001
          46   -0.1833    0.1522   -0.0009    0.0001   -0.0003    0.0000
          47   -0.2841    0.2437   -0.0013    0.0002   -0.0006    0.0000
          48    0.2955   -0.2508    0.0014   -0.0001    0.0006   -0.0000
          49    0.0001   -0.0002   -0.0020   -0.0004   -0.1257   -0.2654
          50    0.0002   -0.0003   -0.0032   -0.0007   -0.2107   -0.3911
          51   -0.0001    0.0003    0.0029    0.0005    0.1960    0.3927
          52    0.0001   -0.0004   -0.0028   -0.0018   -0.2355    0.1298
          53   -0.0003    0.0008    0.0067    0.0042    0.5583   -0.2780
          54    0.0000    0.0000   -0.0001   -0.0000   -0.0068   -0.0079
          55   -0.0002    0.0015    0.4309    0.4231   -0.0089    0.0002
          56    0.0000   -0.0003   -0.1019   -0.1160    0.0022   -0.0001
          57    0.0001   -0.0005   -0.1503   -0.1374    0.0031   -0.0000
          58    0.0001   -0.0009   -0.2086    0.1967    0.0016    0.0007
          59    0.0002   -0.0013   -0.2899    0.3065    0.0019    0.0010
          60   -0.0002    0.0012    0.2891   -0.2945   -0.0020   -0.0010


           MASS-WEIGHTED COORDINATE ANALYSIS (NORMAL COORDINATES)


   Root No.       1         2         3         4         5         6         7         8

                 1 A       2 A       3 A       4 A       5 A       6 A       7 A       8 A   

                  61.4      97.0     137.7     177.8     304.7     311.8     372.2     391.1
  
           1   -0.1614    0.1116    0.0506   -0.0410   -0.0003    0.0255   -0.0913   -0.0563
           2   -0.0273   -0.0796    0.0755   -0.0313   -0.1107   -0.0313   -0.0037   -0.2625
           3   -0.2975    0.0183    0.2729   -0.2889    0.0649    0.1152   -0.0964    0.1460
           4   -0.1604    0.1123    0.0473   -0.0421    0.0116    0.0190   -0.0459   -0.0621
           5   -0.2290    0.0776   -0.1459    0.2110   -0.0988   -0.0951    0.2404    0.0983
           6   -0.2491   -0.1022   -0.2429    0.2488   -0.0364   -0.0187   -0.1758    0.0371
           7    0.0483   -0.0492    0.0332   -0.0178   -0.0259   -0.0695   -0.1877   -0.0806
           8    0.0569   -0.1405    0.0690   -0.0190   -0.1294   -0.0445   -0.0787   -0.2601
           9    0.0768    0.1232    0.1063   -0.0445   -0.2148   -0.0425    0.1390   -0.2824
          10    0.0691   -0.2127    0.1285    0.0684   -0.1111   -0.1694   -0.0458   -0.0576
          11    0.1083   -0.0287    0.1215    0.0667   -0.1430   -0.0212   -0.2431   -0.0382
          12    0.1420    0.1344    0.2323    0.0950   -0.2692   -0.1093    0.1065   -0.0545
          13    0.0207   -0.0677   -0.0358   -0.0679    0.0731   -0.0209    0.0995   -0.1818
          14    0.0334    0.1754   -0.1024   -0.1203    0.1726    0.0986    0.2678   -0.0740
          15    0.1114   -0.1072   -0.2374   -0.1047    0.2631    0.1659   -0.0725   -0.2104
          16    0.1356   -0.2168    0.0467   -0.0613   -0.0795   -0.1575   -0.0671    0.1032
          17    0.1759    0.1242    0.0617   -0.1357   -0.0913   -0.0791    0.1165    0.2840
          18    0.2870    0.0093    0.0579   -0.1686   -0.1675   -0.0494   -0.1047    0.2548
          19    0.2388   -0.0328   -0.2862    0.0404    0.1694    0.0177   -0.1658    0.2272
          20    0.0826   -0.3077   -0.0307   -0.1078    0.2176   -0.2514    0.2848    0.0798
          21    0.3078    0.2162   -0.2547    0.0635   -0.1117    0.1621    0.0249   -0.0395
          22   -0.1310    0.4190   -0.1153   -0.1223   -0.0040   -0.2081    0.1096   -0.0378
          23   -0.1506    0.1515   -0.1692   -0.1530   -0.0453    0.0330   -0.2949    0.0012
          24   -0.2646   -0.3309   -0.2083   -0.2093   -0.1697   -0.0013    0.1178   -0.0101
          25    0.0161   -0.2275    0.1585    0.1974   -0.0239    0.1824    0.0752   -0.0354
          26    0.0432   -0.0286    0.1638    0.2163    0.0944    0.1934   -0.2298    0.0103
          27    0.0479    0.1567    0.2929    0.3247    0.2544   -0.0941    0.1219    0.0264
          28   -0.0532    0.0445    0.0666    0.1160   -0.0900    0.4658    0.3747    0.1290
          29   -0.0466    0.0482    0.0497    0.1239    0.1229    0.3110   -0.1710    0.0848
          30   -0.0960   -0.0457    0.1204    0.1930    0.4306   -0.2355   -0.0311   -0.0269
          31   -0.0781    0.0709    0.0865   -0.0885    0.0225    0.0373    0.0098    0.0464
          32   -0.0640   -0.0459    0.0900   -0.0932    0.0338    0.0285   -0.0560    0.0396
          33   -0.1372    0.0068    0.1564   -0.1741    0.0730    0.0731   -0.0512    0.1491
          34   -0.0474    0.0483    0.1228   -0.1251    0.0221    0.0425   -0.0343   -0.0407
          35   -0.1845    0.0224   -0.1089    0.2389   -0.1518   -0.1253    0.0682    0.2114
          36   -0.0410   -0.0357   -0.0950    0.0692    0.0138    0.0052   -0.0425   -0.0249
          37   -0.0607    0.0284   -0.0883    0.0992   -0.0212   -0.0209   -0.0199   -0.0286
          38    0.0822   -0.0243   -0.0334    0.0623   -0.1043   -0.0564    0.0332   -0.2360
          39   -0.1326    0.0077    0.1539   -0.1716    0.0703    0.0730   -0.0507    0.1438
          40   -0.0833    0.0580   -0.0573    0.0688   -0.0071   -0.0166    0.0125    0.0651
          41   -0.0590    0.0360   -0.0521    0.0531   -0.0080   -0.0156    0.0818    0.0289
          42   -0.1731   -0.0502   -0.1508    0.2606   -0.1363   -0.1085   -0.0616    0.1663
          43    0.0195   -0.0230   -0.0378   -0.0519    0.0857    0.0285    0.0535   -0.0952
          44    0.0255    0.0860   -0.0558   -0.0974    0.1438    0.0957    0.1196   -0.0881
[...]
 EFF. MASS   3.5992

 VIBRATION   33   33A         ATOM PAIR      ENERGY CONTRIBUTION    RADIAL
 FREQ.      1280.98         C  8 -- H 20         +15.0% ( 44.9%)      1.8%
 T-DIPOLE    0.1136         C  8 -- H 19         +14.9% ( 44.8%)      1.9%
 TRAVEL      0.1198         C  5 -- H 15          +8.3% ( 33.5%)      0.6%
 RED. MASS   0.2407         C  6 -- H 16          +6.3% ( 29.1%)      1.8%
 EFF. MASS   3.6691

 VIBRATION   34   34A         ATOM PAIR      ENERGY CONTRIBUTION    RADIAL
 FREQ.      1295.22         C  1 -- H 11         +14.0% ( 43.2%)      0.1%
 T-DIPOLE    0.0421         C  7 -- H 17         +13.5% ( 42.4%)      0.1%
 TRAVEL      0.1212         C  1 -- H 13         +12.6% ( 40.9%)      0.0%
 RED. MASS   0.4042         C  7 -- H 18         +12.3% ( 40.5%)      0.1%
 EFF. MASS   3.5414

 VIBRATION   35   35A         ATOM PAIR      ENERGY CONTRIBUTION    RADIAL
 FREQ.      1351.92         C  1 -- H 11         +13.1% ( 41.4%)      0.2%
 T-DIPOLE    0.1092         C  2 -- H 14         +11.7% ( 39.2%)      0.1%
 TRAVEL      0.1156         C  7 -- H 18         +11.5% ( 38.9%)      1.7%
 RED. MASS   0.2769         C  7 -- H 17         +10.3% ( 36.8%)      3.2%
 EFF. MASS   3.7336

 VIBRATION   36   36A         ATOM PAIR      ENERGY CONTRIBUTION    RADIAL
 FREQ.      1359.61         C  1 -- C  2         +10.1% ( 45.4%)     77.8%
 T-DIPOLE    0.0366         C  2 -- H 14          +9.8% ( 44.8%)      0.2%
 TRAVEL      0.0831         C  2 -- H 12          +9.0% ( 42.9%)      0.9%
 RED. MASS   0.8026         C  4 -- C  6          +9.0% ( 42.8%)     94.1%
 EFF. MASS   7.1788

 VIBRATION   37   37A         ATOM PAIR      ENERGY CONTRIBUTION    RADIAL
 FREQ.      1390.24         C  2 -- H 12         +15.3% ( 45.5%)      4.5%
 T-DIPOLE    0.1406         C  2 -- H 14         +13.7% ( 43.1%)      7.5%
 TRAVEL      0.1074         C  1 -- H 11         +13.7% ( 43.1%)      2.7%
 RED. MASS   0.4247         C  1 -- C  2         +11.9% ( 40.1%)     16.3%
 EFF. MASS   4.2086         C  1 -- H 13         +11.8% ( 39.9%)      2.7%

 VIBRATION   38   38A         ATOM PAIR      ENERGY CONTRIBUTION    RADIAL
 FREQ.      1400.12         C  1 -- H 13         +19.1% ( 49.9%)      4.5%
 T-DIPOLE    0.1121         C  1 -- H 11         +18.7% ( 49.2%)      5.7%
 TRAVEL      0.1105         C  1 -- C  2         +17.3% ( 47.4%)     96.1%
 RED. MASS   0.5625         C  2 -- H 14         +13.9% ( 42.6%)      3.8%
 EFF. MASS   3.9422         C  2 -- H 12         +13.4% ( 41.6%)      3.5%

 VIBRATION   39   39A         ATOM PAIR      ENERGY CONTRIBUTION    RADIAL
 FREQ.      1433.82         C  2 -- C  5         +13.5% ( 57.1%)     97.5%
 T-DIPOLE    0.1501         C  4 -- C  6         +10.3% ( 49.7%)     88.8%
 TRAVEL      0.0675         C  3 -- C  4          +8.4% ( 44.9%)     31.8%
 RED. MASS   1.2624         C  1 -- C  2          +7.5% ( 42.6%)     75.1%
 EFF. MASS  10.3321

 VIBRATION   40   40A         ATOM PAIR      ENERGY CONTRIBUTION    RADIAL
 FREQ.      1502.71         C  3 -- C  4         +26.7% ( 77.3%)     98.9%
 T-DIPOLE    0.4684         C  4 -- C  6         +17.3% ( 62.3%)     74.8%
 TRAVEL      0.0625         C  1 -- C  3         +14.6% ( 57.1%)     81.1%
 RED. MASS   3.0994         C  4 -- C  9         +10.5% ( 48.5%)      0.0%
 EFF. MASS  11.4943

 VIBRATION   41   41A         ATOM PAIR      ENERGY CONTRIBUTION    RADIAL
 FREQ.      1852.76         C  5 -- C  6         +25.9% ( 75.3%)    100.0%
 T-DIPOLE    0.4968         C  3 -- C  7         +16.9% ( 60.7%)    100.0%
 TRAVEL      0.0553         C  2 -- C  5          +8.7% ( 43.5%)     51.0%
 RED. MASS   2.6285         C  5 -- H 15          +7.9% ( 41.6%)      4.6%
 EFF. MASS  11.8972

 VIBRATION   42   42A         ATOM PAIR      ENERGY CONTRIBUTION    RADIAL
 FREQ.      1861.70         C  3 -- C  7         +27.8% ( 77.9%)    100.0%
 T-DIPOLE    0.4050         C  5 -- C  6         +15.4% ( 58.0%)    100.0%
 TRAVEL      0.0552         C  3 -- C  4         +11.8% ( 50.8%)     45.0%
 RED. MASS   2.8693         C  1 -- C  3         +11.1% ( 49.3%)     33.0%
 EFF. MASS  11.8875

 VIBRATION   43   43A         ATOM PAIR      ENERGY CONTRIBUTION    RADIAL
 FREQ.      1898.47         C  4 -- C  9         +28.1% ( 75.8%)    100.0%
 T-DIPOLE    0.7235         C  8 -- C 10         +23.3% ( 68.9%)    100.0%
 TRAVEL      0.0545         C  4 -- C  6         +12.2% ( 50.0%)     35.2%
 RED. MASS   2.6660         C  3 -- C  4         +10.4% ( 46.1%)     33.6%
 EFF. MASS  11.9421

 VIBRATION   44   44A         ATOM PAIR      ENERGY CONTRIBUTION    RADIAL
 FREQ.      2358.67         C  9 -- C 10         +49.7% ( 90.6%)    100.0%
 T-DIPOLE    1.3265         C  8 -- C 10         +23.3% ( 62.0%)    100.0%
 TRAVEL      0.0489         C  4 -- C  9         +22.2% ( 60.6%)    100.0%
 RED. MASS   4.8276         C  3 -- C  4          +1.2% ( 14.4%)     23.2%
 EFF. MASS  11.9644

 VIBRATION   45   45A         ATOM PAIR      ENERGY CONTRIBUTION    RADIAL
 FREQ.      2942.77         C  2 -- H 12         +34.2% ( 60.8%)     97.4%
 T-DIPOLE    0.0513         C  1 -- H 13         +25.7% ( 52.7%)     97.4%
 TRAVEL      0.1217         C  2 -- H 14         +21.5% ( 48.2%)     94.9%
 RED. MASS   0.2766         C  1 -- H 11         +16.3% ( 42.0%)     94.9%
 EFF. MASS   1.5466

 VIBRATION   46   46A         ATOM PAIR      ENERGY CONTRIBUTION    RADIAL
 FREQ.      2953.47         C  1 -- H 13         +30.9% ( 57.6%)     97.1%
 T-DIPOLE    0.0692         C  1 -- H 11         +25.0% ( 51.7%)     96.0%
 TRAVEL      0.1219         C  2 -- H 12         +23.4% ( 50.1%)     97.2%
 RED. MASS   0.2676         C  2 -- H 14         +18.5% ( 44.6%)     95.9%
 EFF. MASS   1.5355

 VIBRATION   47   47A         ATOM PAIR      ENERGY CONTRIBUTION    RADIAL
 FREQ.      3024.63         C  1 -- H 11         +31.3% ( 55.2%)     98.3%
 T-DIPOLE    0.0602         C  1 -- H 13         +24.5% ( 48.8%)     96.8%
 TRAVEL      0.1319         C  2 -- H 14         +23.9% ( 48.3%)     98.4%
 RED. MASS   0.2478         C  2 -- H 12         +18.6% ( 42.5%)     96.8%
 EFF. MASS   1.2811

 VIBRATION   48   48A         ATOM PAIR      ENERGY CONTRIBUTION    RADIAL
 FREQ.      3030.53         C  2 -- H 14         +34.0% ( 57.5%)     98.8%
 T-DIPOLE    0.1092         C  1 -- H 11         +26.4% ( 50.6%)     98.7%
 TRAVEL      0.1318         C  2 -- H 12         +20.6% ( 44.7%)     95.9%
 RED. MASS   0.2513         C  1 -- H 13         +16.3% ( 39.8%)     96.0%
 EFF. MASS   1.2805

 VIBRATION   49   49A         ATOM PAIR      ENERGY CONTRIBUTION    RADIAL
 FREQ.      3048.38         C  6 -- H 16         +56.1% ( 76.0%)    100.0%
 T-DIPOLE    0.3199         C  5 -- H 15         +40.8% ( 64.8%)    100.0%
 TRAVEL      0.1230         C  5 -- C  6          +1.1% ( 10.7%)      0.4%
 RED. MASS   0.4689         C  4 -- C  6          +0.8% (  8.9%)     20.7%
 EFF. MASS   1.4615

 VIBRATION   50   50A         ATOM PAIR      ENERGY CONTRIBUTION    RADIAL
 FREQ.      3067.91         C  5 -- H 15         +54.6% ( 75.0%)     99.9%
 T-DIPOLE    0.3539         C  6 -- H 16         +41.0% ( 64.9%)     99.9%
 TRAVEL      0.1177         C  5 -- C  6          +2.0% ( 14.4%)     99.2%
 RED. MASS   0.4671         C  2 -- C  5          +0.9% (  9.6%)     17.9%
 EFF. MASS   1.5868

 VIBRATION   51   51A         ATOM PAIR      ENERGY CONTRIBUTION    RADIAL
 FREQ.      3119.25         C  8 -- H 19         +50.0% ( 70.8%)     95.4%
 T-DIPOLE    0.5410         C  8 -- H 20         +48.3% ( 69.6%)     95.0%
 TRAVEL      0.1246         C  8 -- C 10          +1.6% ( 12.7%)    100.0%
 RED. MASS   0.4856
 EFF. MASS   1.3916

 VIBRATION   52   52A         ATOM PAIR      ENERGY CONTRIBUTION    RADIAL
 FREQ.      3130.42         C  8 -- H 20         +50.2% ( 72.5%)     97.2%
 T-DIPOLE    0.2328         C  8 -- H 19         +48.5% ( 71.3%)     97.0%
 TRAVEL      0.1161         C  8 -- C 10          +1.2% ( 11.3%)      0.0%
 RED. MASS   0.5344
 EFF. MASS   1.5985

 VIBRATION   53   53A         ATOM PAIR      ENERGY CONTRIBUTION    RADIAL
 FREQ.      3134.57         C  7 -- H 18         +78.2% ( 88.6%)     98.6%
 T-DIPOLE    0.2653         C  7 -- H 17         +20.3% ( 45.2%)     82.2%
 TRAVEL      0.1238         C  3 -- C  7          +1.5% ( 12.1%)     86.7%
 RED. MASS   0.6353
 EFF. MASS   1.4034

 VIBRATION   54   54A         ATOM PAIR      ENERGY CONTRIBUTION    RADIAL
 FREQ.      3139.39         C  7 -- H 17         +77.1% ( 89.8%)     99.3%
 T-DIPOLE    0.2250         C  7 -- H 18         +21.6% ( 47.5%)     90.3%
 TRAVEL      0.1163         C  3 -- C  7          +1.3% ( 11.8%)      7.1%
 RED. MASS   0.6753
 EFF. MASS   1.5872

      SYMMETRY NUMBER FOR POINT-GROUP C1  =  1


          SYSTEM IS A GROUND STATE



 InChI=1S/C10H10/c1-3-6-10-8-5-4-7-9(10)2/h5,8H,1-2,4,7H2


          MOLECULE IS NOT LINEAR

          THERE ARE 54 GENUINE VIBRATIONS IN THIS SYSTEM
          THIS THERMODYNAMICS CALCULATION IS LIMITED TO
          MOLECULES WHICH HAVE NO INTERNAL ROTATIONS




                    CALCULATED THERMODYNAMIC PROPERTIES
                                          *
   TEMP. (K)   PARTITION FUNCTION   H.O.F.    ENTHALPY  HEAT CAPACITY ENTROPY
                                   KCAL/MOL   CAL/MOLE    CAL/K/MOL  CAL/K/MOL


 298.00  VIB.     0.1751D+03                  4001.3273    29.7575    23.6918
         ROT.     0.6939D+06                   888.2813     2.9808    29.7090
         INT.     0.1215D+09                  4889.6086    32.7383    53.4008
         TRA.     0.1436D+28                  1480.4688     4.9680    40.5022
         TOT.                       99.755    6370.0774    37.7063    93.9030

 200.00  VIB.     0.2074D+02                  1650.9012    18.2780    14.2798
         ROT.     0.3815D+06                   596.1620     2.9808    28.5204
         INT.     0.7913D+07                  2247.0632    21.2589    42.8001
         TRA.     0.7896D+27                   993.6033     4.9680    38.5210
         TOT.                       96.626    3240.6664    26.2269    81.3211

 210.00  VIB.     0.2555D+02                  1839.3625    19.4167    15.1990
         ROT.     0.4105D+06                   625.9700     2.9808    28.6658
         INT.     0.1049D+08                  2465.3326    22.3975    43.8648
         TRA.     0.8496D+27                  1043.2834     4.9680    38.7634
         TOT.                       96.894    3508.6160    27.3655    82.6282

 220.00  VIB.     0.3156D+02                  2039.2808    20.5691    16.1288
         ROT.     0.4402D+06                   655.7781     2.9808    28.8045
         INT.     0.1389D+08                  2695.0589    23.5499    44.9333
         TRA.     0.9110D+27                  1092.9636     4.9680    38.9945
         TOT.                       97.173    3788.0225    28.5179    83.9278

 230.00  VIB.     0.3905D+02                  2250.7823    21.7329    17.0688
         ROT.     0.4705D+06                   685.5862     2.9808    28.9370
         INT.     0.1837D+08                  2936.3685    24.7137    46.0058
         TRA.     0.9738D+27                  1142.6437     4.9680    39.2154
         TOT.                       97.464    4079.0123    29.6818    85.2211

 240.00  VIB.     0.4842D+02                  2473.9697    22.9058    18.0185
         ROT.     0.5016D+06                   715.3943     2.9808    29.0638
         INT.     0.2429D+08                  3189.3640    25.8866    47.0823
         TRA.     0.1038D+28                  1192.3239     4.9680    39.4268
         TOT.                       97.767    4381.6879    30.8547    86.5091

 250.00  VIB.     0.6017D+02                  2708.9207    24.0852    18.9775
         ROT.     0.5332D+06                   745.2024     2.9808    29.1855
         INT.     0.3208D+08                  3454.1231    27.0660    48.1630
         TRA.     0.1103D+28                  1242.0041     4.9680    39.6296
         TOT.                       98.081    4696.1272    32.0341    87.7926

 260.00  VIB.     0.7490D+02                  2955.6875    25.2686    19.9452
         ROT.     0.5655D+06                   775.0105     2.9808    29.3024
         INT.     0.4236D+08                  3730.6980    28.2494    49.2476
         TRA.     0.1170D+28                  1291.6842     4.9680    39.8245
         TOT.                       98.408    5022.3823    33.2174    89.0720

 270.00  VIB.     0.9342D+02                  3214.2968    26.4533    20.9210
         ROT.     0.5985D+06                   804.8186     2.9808    29.4149
         INT.     0.5591D+08                  4019.1155    29.4341    50.3359
         TRA.     0.1239D+28                  1341.3644     4.9680    40.0120
         TOT.                       98.746    5360.4799    34.4021    90.3479

 280.00  VIB.     0.1167D+03                  3484.7503    27.6370    21.9045
         ROT.     0.6320D+06                   834.6267     2.9808    29.5233
         INT.     0.7378D+08                  4319.3770    30.6178    51.4278
         TRA.     0.1308D+28                  1391.0445     4.9680    40.1926
         TOT.                       99.096    5710.4216    35.5858    91.6204

 290.00  VIB.     0.1461D+03                  3767.0254    28.8173    22.8949
         ROT.     0.6662D+06                   864.4348     2.9808    29.6279
         INT.     0.9735D+08                  4631.4602    31.7981    52.5228
         TRA.     0.1379D+28                  1440.7247     4.9680    40.3670
         TOT.                       99.457    6072.1849    36.7661    92.8898

 300.00  VIB.     0.1832D+03                  4061.0768    29.9919    23.8916
         ROT.     0.7009D+06                   894.2429     2.9808    29.7290
         INT.     0.1284D+09                  4955.3197    32.9727    53.6206
         TRA.     0.1451D+28                  1490.4049     4.9680    40.5354
         TOT.                       99.831    6445.7246    37.9407    94.1560

 310.00  VIB.     0.2301D+03                  4366.8378    31.1589    24.8941
         ROT.     0.7363D+06                   924.0510     2.9808    29.8267
         INT.     0.1694D+09                  5290.8888    34.1397    54.7208
         TRA.     0.1524D+28                  1540.0850     4.9680    40.6983
         TOT.                      100.216    6830.9738    39.1077    95.4191

 320.00  VIB.     0.2895D+03                  4684.2222    32.3163    25.9017
         ROT.     0.7722D+06                   953.8591     2.9808    29.9214
         INT.     0.2235D+09                  5638.0813    35.2971    55.8230
         TRA.     0.1598D+28                  1589.7652     4.9680    40.8560
         TOT.                      100.613    7227.8465    40.2651    96.6791

 330.00  VIB.     0.3646D+03                  5013.1262    33.4625    26.9137
         ROT.     0.8087D+06                   983.6672     2.9808    30.0131
         INT.     0.2949D+09                  5996.7934    36.4433    56.9268
         TRA.     0.1674D+28                  1639.4454     4.9680    41.0089
         TOT.                      101.021    7636.2388    41.4113    97.9357

 340.00  VIB.     0.4600D+03                  5353.4301    34.5960    27.9295
         ROT.     0.8457D+06                  1013.4753     2.9808    30.1021
         INT.     0.3890D+09                  6366.9054    37.5768    58.0316
         TRA.     0.1750D+28                  1689.1255     4.9680    41.1572
         TOT.                      101.441    8056.0309    42.5449    99.1888

 350.00  VIB.     0.5811D+03                  5705.0003    35.7156    28.9485
         ROT.     0.8833D+06                  1043.2834     2.9808    30.1885
         INT.     0.5133D+09                  6748.2838    38.6964    59.1370
         TRA.     0.1828D+28                  1738.8057     4.9680    41.3012
         TOT.                      101.872    8487.0894    43.6644   100.4382

 360.00  VIB.     0.7351D+03                  6067.6915    36.8201    29.9702
         ROT.     0.9214D+06                  1073.0915     2.9808    30.2724
         INT.     0.6773D+09                  7140.7830    39.8009    60.2426
         TRA.     0.1907D+28                  1788.4859     4.9680    41.4412
         TOT.                      102.314    8929.2689    44.7689   101.6838

 370.00  VIB.     0.9309D+03                  6441.3480    37.9085    30.9939
         ROT.     0.9601D+06                  1102.8996     2.9808    30.3541
         INT.     0.8937D+09                  7544.2476    40.8893    61.3480
         TRA.     0.1987D+28                  1838.1660     4.9680    41.5773
         TOT.                      102.768    9382.4136    45.8573   102.9253

 380.00  VIB.     0.1180D+04                  6825.8056    38.9802    32.0191
         ROT.     0.9993D+06                  1132.7077     2.9808    30.4336
         INT.     0.1179D+10                  7958.5133    41.9610    62.4527
         TRA.     0.2068D+28                  1887.8462     4.9680    41.7098
         TOT.                      103.231    9846.3594    46.9290   104.1625

 390.00  VIB.     0.1498D+04                  7220.8933    40.0344    33.0453
         ROT.     0.1039D+07                  1162.5158     2.9808    30.5110
         INT.     0.1556D+10                  8383.4091    43.0153    63.5564
         TRA.     0.2150D+28                  1937.5263     4.9680    41.8388
         TOT.                      103.706   10320.9354    47.9833   105.3952

 400.00  VIB.     0.1903D+04                  7626.4349    41.0709    34.0720
         ROT.     0.1079D+07                  1192.3239     2.9808    30.5865
         INT.     0.2054D+10                  8818.7588    44.0517    64.6585
         TRA.     0.2233D+28                  1987.2065     4.9680    41.9646
         TOT.                      104.191   10805.9653    49.0197   106.6231

   *: NOTE: HEATS OF FORMATION ARE RELATIVE TO THE
            ELEMENTS IN THEIR STANDARD STATE AT 298K
              (=  Standard Enthalpy of Formation).

            Hvib:  Zero-point energy is not included.
                   frequencies of less than zero cm-1 are not included.
            Hrot = (3/2)RT
            Htra = (3/2)RT + pV = (5/2)RT

            Heat capacity is Cp, not Cv

          For more information, see: HTTP://OpenMOPAC.net/Manual/thermochemistry.html


           FORCE CONSTANT IN CARTESIAN COORDINATES (Millidynes/A)

    ATOM   CHEMICAL       X               Y               Z
   NUMBER   SYMBOL  FORCE CONSTANT  FORCE CONSTANT  FORCE CONSTANT

      1       C        8.314614        8.819516        8.268590
      2       C        8.326591        8.872832        8.242549
      3       C       10.459983        9.587168        8.065915
      4       C       10.166226       12.191590        6.013414
      5       C       10.242134       10.924418        5.921062
      6       C       10.141366       11.244906        6.151709
      7       C        9.697152        9.072921        7.659522
      8       C        8.972856       11.734641        5.106555
      9       C        6.688105       17.507993        3.638043
     10       C        6.451717       17.559995        3.571348
     11       H        1.196186        1.815677        3.409262
     12       H        1.182439        0.931882        4.134941
     13       H        1.167614        1.533644        3.571858
     14       H        1.185382        4.321733        0.856633
     15       H        4.474462        0.789336        0.992332
     16       H        1.424093        2.412666        2.422504
     17       H        1.415370        2.617373        2.428888
     18       H        1.297820        4.635103        0.512255
     19       H        4.599504        0.801998        0.870443
     20       H        1.466119        2.510719        2.302653

 **********************
 *                    *
 * JOB ENDED NORMALLY *
 *                    *
 **********************



 TOTAL JOB TIME:             8.28 SECONDS

 == MOPAC DONE ==
