 *******************************************************************************
 ** Site#: 14399        For non-commercial use only    Version 18.184L 64BITS **
 *******************************************************************************
 ** Cite this program as: MOPAC2016, Version: 18.184L, James J. P. Stewart,   **
 ** Stewart Computational Chemistry, web: HTTP://OpenMOPAC.net. Days left:  20**
 *******************************************************************************
 **                                                                           **
 **                                MOPAC2016                                  **
 **                                                                           **
 *******************************************************************************

                              PM3 CALCULATION RESULTS

 *******************************************************************************
 *  CALCULATION DONE:                                Thu Jun 13 15:45:52 2019  *
 *  PM3        - The PM3 Hamiltonian to be used
 *  PRECISE    - CRITERIA TO BE INCREASED BY 100 TIMES
 *  NOSYM      - POINT-GROUP SYMMETRY SET TO C1
 *  THREADS=1  - MULTI-THREADING NOT USED
 *  T=         - A TIME OF 172800.0 SECONDS REQUESTED
 *  DUMP=N     - RESTART FILE WRITTEN EVERY  7200.000 SECONDS
 *******************************************************************************
pm3  precise nosym THREADS=1
 InChI=1S/C10H8/c1-2-6-10-8-4-3-7-9(10)5-1/h1-8H

   ATOM   CHEMICAL          X               Y               Z
  NUMBER   SYMBOL      (ANGSTROMS)     (ANGSTROMS)     (ANGSTROMS)
 
     1       C          0.05050000  *  -0.70260000  *   0.07770000  *
     2       C         -0.05050000  *   0.70260000  *  -0.07770000  *
     3       C         -1.11010000  *  -1.46290000  *   0.28930000  *
     4       C         -1.31010000  *   1.31880000  *  -0.01840000  *
     5       C          1.31010000  *  -1.31880000  *   0.01840000  *
     6       C          1.11010000  *   1.46290000  *  -0.28930000  *
     7       C         -2.35840000  *  -0.83610000  *   0.34610000  *
     8       C         -2.45810000  *   0.54950000  *   0.19290000  *
     9       C          2.45810000  *  -0.54950000  *  -0.19290000  *
    10       C          2.35840000  *   0.83610000  *  -0.34610000  *
    11       H         -3.25120000  *  -1.42600000  *   0.50940000  *
    12       H         -3.42760000  *   1.02850000  *   0.23800000  *
    13       H         -1.05200000  *  -2.53800000  *   0.41020000  *
    14       H         -1.40640000  *   2.39170000  *  -0.13510000  *
    15       H          1.40640000  *  -2.39170000  *   0.13510000  *
    16       H          1.05200000  *   2.53800000  *  -0.41020000  *
    17       H          3.42760000  *  -1.02850000  *  -0.23800000  *
    18       H          3.25120000  *   1.42600000  *  -0.50940000  *
 


          CARTESIAN COORDINATES 

    NO.       ATOM           X           Y           Z

     1         C          0.0505     -0.7026      0.0777
     2         C         -0.0505      0.7026     -0.0777
     3         C         -1.1101     -1.4629      0.2893
     4         C         -1.3101      1.3188     -0.0184
     5         C          1.3101     -1.3188      0.0184
     6         C          1.1101      1.4629     -0.2893
     7         C         -2.3584     -0.8361      0.3461
     8         C         -2.4581      0.5495      0.1929
     9         C          2.4581     -0.5495     -0.1929
    10         C          2.3584      0.8361     -0.3461
    11         H         -3.2512     -1.4260      0.5094
    12         H         -3.4276      1.0285      0.2380
    13         H         -1.0520     -2.5380      0.4102
    14         H         -1.4064      2.3917     -0.1351
    15         H          1.4064     -2.3917      0.1351
    16         H          1.0520      2.5380     -0.4102
    17         H          3.4276     -1.0285     -0.2380
    18         H          3.2512      1.4260     -0.5094

  H: (PM3): J. J. P. STEWART, J. COMP. CHEM. 10, 209 (1989).
  C: (PM3): J. J. P. STEWART, J. COMP. CHEM. 10, 209 (1989).

           Empirical Formula: C10 H8  =    18 atoms



      MOLECULAR POINT GROUP   :   C1  


      RHF CALCULATION, NO. OF DOUBLY OCCUPIED LEVELS = 24


          Geometry optimization using EF

          DIAGONAL MATRIX USED AS START HESSIAN

 CYCLE:     1 TIME:   0.020 TIME LEFT:  2.00D  GRAD.:   128.392 HEAT:  43.74637
 CYCLE:     2 TIME:   0.039 TIME LEFT:  2.00D  GRAD.:   142.762 HEAT:  43.71832
 CYCLE:     3 TIME:   0.027 TIME LEFT:  2.00D  GRAD.:   102.438 HEAT:  42.29781
 CYCLE:     4 TIME:   0.027 TIME LEFT:  2.00D  GRAD.:    45.804 HEAT:  40.99266
 CYCLE:     5 TIME:   0.023 TIME LEFT:  2.00D  GRAD.:    32.779 HEAT:  40.87738
 CYCLE:     6 TIME:   0.023 TIME LEFT:  2.00D  GRAD.:    27.704 HEAT:  40.72044
 CYCLE:     7 TIME:   0.023 TIME LEFT:  2.00D  GRAD.:    24.112 HEAT:  40.67356
 CYCLE:     8 TIME:   0.039 TIME LEFT:  2.00D  GRAD.:     8.378 HEAT:  40.58261
 CYCLE:     9 TIME:   0.031 TIME LEFT:  2.00D  GRAD.:     3.627 HEAT:  40.56964
 CYCLE:    10 TIME:   0.023 TIME LEFT:  2.00D  GRAD.:     3.233 HEAT:  40.56780
 CYCLE:    11 TIME:   0.039 TIME LEFT:  2.00D  GRAD.:     3.572 HEAT:  40.56586
 CYCLE:    12 TIME:   0.027 TIME LEFT:  2.00D  GRAD.:     2.810 HEAT:  40.56429
 CYCLE:    13 TIME:   0.031 TIME LEFT:  2.00D  GRAD.:     2.422 HEAT:  40.56298
 CYCLE:    14 TIME:   0.027 TIME LEFT:  2.00D  GRAD.:     1.220 HEAT:  40.56213
 CYCLE:    15 TIME:   0.027 TIME LEFT:  2.00D  GRAD.:     1.611 HEAT:  40.56207
 CYCLE:    16 TIME:   0.027 TIME LEFT:  2.00D  GRAD.:     0.234 HEAT:  40.56137
 CYCLE:    17 TIME:   0.027 TIME LEFT:  2.00D  GRAD.:     0.329 HEAT:  40.56135
 CYCLE:    18 TIME:   0.023 TIME LEFT:  2.00D  GRAD.:     0.180 HEAT:  40.56129
 CYCLE:    19 TIME:   0.023 TIME LEFT:  2.00D  GRAD.:     0.563 HEAT:  40.56131
 CYCLE:    20 TIME:   0.031 TIME LEFT:  2.00D  GRAD.:     0.194 HEAT:  40.56124
 CYCLE:    21 TIME:   0.020 TIME LEFT:  2.00D  GRAD.:     0.217 HEAT:  40.56122
 CYCLE:    22 TIME:   0.023 TIME LEFT:  2.00D  GRAD.:     0.166 HEAT:  40.56120
 CYCLE:    23 TIME:   0.023 TIME LEFT:  2.00D  GRAD.:     0.238 HEAT:  40.56121
 CYCLE:    24 TIME:   0.020 TIME LEFT:  2.00D  GRAD.:     0.106 HEAT:  40.56120
 CYCLE:    25 TIME:   0.023 TIME LEFT:  2.00D  GRAD.:     0.225 HEAT:  40.56120
 CYCLE:    26 TIME:   0.023 TIME LEFT:  2.00D  GRAD.:     0.032 HEAT:  40.56119

     GRADIENT =  0.03171  IS LESS THAN CUTOFF =  0.05000



 -------------------------------------------------------------------------------
 pm3  precise nosym THREADS=1
 InChI=1S/C10H8/c1-2-6-10-8-4-3-7-9(10)5-1/h1-8H



     GEOMETRY OPTIMISED USING EIGENVECTOR FOLLOWING (EF).     
     SCF FIELD WAS ACHIEVED                                   


                              PM3 CALCULATION
                                                       MOPAC2016 (Version: 18.184L)
                                                       Thu Jun 13 15:45:53 2019
                                                       No. of days remaining =  20




          FINAL HEAT OF FORMATION =         40.56119 KCAL/MOL =     169.70803 KJ/MOL


          TOTAL ENERGY            =      -1307.30668 EV
          ELECTRONIC ENERGY       =      -6640.17953 EV  POINT GROUP:     C1  
          CORE-CORE REPULSION     =       5332.87285 EV
          COSMO AREA              =        164.91 SQUARE ANGSTROMS
          COSMO VOLUME            =        163.30 CUBIC ANGSTROMS

          GRADIENT NORM           =          0.03171 = 0.00747 PER ATOM
          IONIZATION POTENTIAL    =          8.835683 EV
          HOMO LUMO ENERGIES (EV) =         -8.836 -0.408
          NO. OF FILLED LEVELS    =         24
          MOLECULAR WEIGHT        =        128.1732

          MOLECULAR DIMENSIONS (Angstroms)

            Atom       Atom       Distance
            H    18    H    11     7.19296
            H    15    H    14     5.53527
            H    16    H    13     0.00029


          SCF CALCULATIONS        =         31
 
          WALL-CLOCK TIME         =          0.746 SECONDS
          COMPUTATION TIME        =          0.318 SECONDS




   ATOM   CHEMICAL          X               Y               Z
  NUMBER   SYMBOL      (ANGSTROMS)     (ANGSTROMS)     (ANGSTROMS)
 
     1       C          0.05024534  *  -0.69892935  *   0.07730340  *
     2       C         -0.05024293  *   0.69893316  *  -0.07731134  *
     3       C         -1.12959369  *  -1.46180670  *   0.29118549  *
     4       C         -1.32924931  *   1.31545623  *  -0.01601079  *
     5       C          1.32924948  *  -1.31545857  *   0.01602231  *
     6       C          1.12958713  *   1.46180985  *  -0.29117361  *
     7       C         -2.34945973  *  -0.84408615  *   0.34616276  *
     8       C         -2.45027881  *   0.55841304  *   0.19100696  *
     9       C          2.45027900  *  -0.55841817  *  -0.19101613  *
    10       C          2.34946407  *   0.84408674  *  -0.34616761  *
    11       H         -3.26138497  *  -1.42728779  *   0.51076109  *
    12       H         -3.43791602  *   1.02861759  *   0.23901240  *
    13       H         -1.04321885  *  -2.54768649  *   0.41036094  *
    14       H         -1.39910788  *   2.40230349  *  -0.13715009  *
    15       H          1.39910829  *  -2.40230157  *   0.13714800  *
    16       H          1.04321918  *   2.54768479  *  -0.41035660  *
    17       H          3.43791450  *  -1.02861794  *  -0.23901659  *
    18       H          3.26138383  *   1.42728765  *  -0.51076408  *

                             CARTESIAN COORDINATES

   1    C        0.050245342    -0.698929353     0.077303398
   2    C       -0.050242927     0.698933159    -0.077311337
   3    C       -1.129593693    -1.461806701     0.291185487
   4    C       -1.329249309     1.315456228    -0.016010790
   5    C        1.329249479    -1.315458567     0.016022305
   6    C        1.129587134     1.461809852    -0.291173611
   7    C       -2.349459728    -0.844086146     0.346162756
   8    C       -2.450278809     0.558413039     0.191006961
   9    C        2.450278995    -0.558418167    -0.191016131
  10    C        2.349464067     0.844086739    -0.346167609
  11    H       -3.261384966    -1.427287794     0.510761088
  12    H       -3.437916017     1.028617591     0.239012398
  13    H       -1.043218853    -2.547686488     0.410360939
  14    H       -1.399107879     2.402303487    -0.137150089
  15    H        1.399108294    -2.402301574     0.137147998
  16    H        1.043219182     2.547684791    -0.410356599
  17    H        3.437914500    -1.028617942    -0.239016591
  18    H        3.261383835     1.427287646    -0.510764083


           Empirical Formula: C10 H8  =    18 atoms



      MOLECULAR POINT GROUP   :   C1  


                  EIGENVALUES  
 -41.06089 -35.72229 -31.50183 -28.48358 -27.39898 -22.24448 -21.66500 -21.37094
 -18.05053 -17.45452 -17.08845 -15.68801 -15.15871 -15.02042 -14.46942 -13.95826
 -13.79856 -13.03443 -12.42984 -12.10821 -11.97292 -10.67719  -9.43558  -8.83568
  -0.40754   0.06465   1.08177   2.00465   3.05994   3.22056   3.23718   3.36450
   3.38635   3.48563   3.68240   3.82000   3.83061   4.06447   4.73210   4.76144
   4.91747   4.91900   5.29244   5.47120   5.69836   5.85449   6.34362   6.44883


              NET ATOMIC CHARGES AND DIPOLE CONTRIBUTIONS

  ATOM NO.   TYPE          CHARGE      No. of ELECS.   s-Pop       p-Pop       
    1          C          -0.036972        4.0370     1.16299     2.87398
    2          C          -0.036971        4.0370     1.16298     2.87399
    3          C          -0.087911        4.0879     1.17824     2.90967
    4          C          -0.087917        4.0879     1.17824     2.90967
    5          C          -0.087915        4.0879     1.17824     2.90967
    6          C          -0.087912        4.0879     1.17824     2.90967
    7          C          -0.101029        4.1010     1.17899     2.92204
    8          C          -0.101035        4.1010     1.17899     2.92204
    9          C          -0.101036        4.1010     1.17900     2.92204
   10          C          -0.101028        4.1010     1.17900     2.92203
   11          H           0.102628        0.8974     0.89737
   12          H           0.102624        0.8974     0.89738
   13          H           0.104806        0.8952     0.89519
   14          H           0.104806        0.8952     0.89519
   15          H           0.104805        0.8952     0.89519
   16          H           0.104805        0.8952     0.89519
   17          H           0.102624        0.8974     0.89738
   18          H           0.102628        0.8974     0.89737
 DIPOLE           X         Y         Z       TOTAL
 POINT-CHG.    -0.000    -0.000    -0.000     0.000
 HYBRID         0.000     0.000    -0.000     0.000
 SUM            0.000    -0.000    -0.000     0.000


          ATOMIC ORBITAL ELECTRON POPULATIONS

     Atom    s        px        py        pz   
    1  C   1.16299   0.94000   0.93620   0.99779
    2  C   1.16298   0.94000   0.93620   0.99779
    3  C   1.17824   0.93280   0.97892   0.99795
    4  C   1.17824   0.93060   0.98074   0.99833
    5  C   1.17824   0.93060   0.98074   0.99833
    6  C   1.17824   0.93280   0.97892   0.99796
    7  C   1.17899   0.96999   0.95147   1.00058
    8  C   1.17899   0.97510   0.94724   0.99970
    9  C   1.17900   0.97510   0.94724   0.99970
   10  C   1.17900   0.96998   0.95147   1.00058
   11  H   0.89737
   12  H   0.89738
   13  H   0.89519
   14  H   0.89519
   15  H   0.89519
   16  H   0.89519
   17  H   0.89738
   18  H   0.89737
 *******************************************************************************
 ** Site#: 14399        For non-commercial use only    Version 18.184L 64BITS **
 *******************************************************************************
 ** Cite this program as: MOPAC2016, Version: 18.184L, James J. P. Stewart,   **
 ** Stewart Computational Chemistry, web: HTTP://OpenMOPAC.net. Days left:  20**
 *******************************************************************************
 **                                                                           **
 **                                MOPAC2016                                  **
 **                                                                           **
 *******************************************************************************

                              PM3 CALCULATION RESULTS

 *******************************************************************************
 *  CALCULATION DONE:                                Thu Jun 13 15:45:53 2019  *
 *  PM3        - The PM3 Hamiltonian to be used
 *  OLDGEO     - PREVIOUS GEOMETRY TO BE USED
 *  PRECISE    - CRITERIA TO BE INCREASED BY 100 TIMES
 *  NOSYM      - POINT-GROUP SYMMETRY SET TO C1
 *  THREADS=1  - MULTI-THREADING NOT USED
 *  T=         - A TIME OF 172800.0 SECONDS REQUESTED
 *  DUMP=N     - RESTART FILE WRITTEN EVERY  7200.000 SECONDS
 *  THERMO     - THERMODYNAMIC QUANTITIES TO BE CALCULATED
 *******************************************************************************
oldgeo thermo nosym precise THREADS=1  pm3
 InChI=1S/C10H8/c1-2-6-10-8-4-3-7-9(10)5-1/h1-8H

   ATOM   CHEMICAL          X               Y               Z
  NUMBER   SYMBOL      (ANGSTROMS)     (ANGSTROMS)     (ANGSTROMS)
 
     1       C          0.05024534  *  -0.69892935  *   0.07730340  *
     2       C         -0.05024293  *   0.69893316  *  -0.07731134  *
     3       C         -1.12959369  *  -1.46180670  *   0.29118549  *
     4       C         -1.32924931  *   1.31545623  *  -0.01601079  *
     5       C          1.32924948  *  -1.31545857  *   0.01602231  *
     6       C          1.12958713  *   1.46180985  *  -0.29117361  *
     7       C         -2.34945973  *  -0.84408615  *   0.34616276  *
     8       C         -2.45027881  *   0.55841304  *   0.19100696  *
     9       C          2.45027900  *  -0.55841817  *  -0.19101613  *
    10       C          2.34946407  *   0.84408674  *  -0.34616761  *
    11       H         -3.26138497  *  -1.42728779  *   0.51076109  *
    12       H         -3.43791602  *   1.02861759  *   0.23901240  *
    13       H         -1.04321885  *  -2.54768649  *   0.41036094  *
    14       H         -1.39910788  *   2.40230349  *  -0.13715009  *
    15       H          1.39910829  *  -2.40230157  *   0.13714800  *
    16       H          1.04321918  *   2.54768479  *  -0.41035660  *
    17       H          3.43791450  *  -1.02861794  *  -0.23901659  *
    18       H          3.26138383  *   1.42728765  *  -0.51076408  *
 


          CARTESIAN COORDINATES 

    NO.       ATOM           X           Y           Z

     1         C          0.0502     -0.6989      0.0773
     2         C         -0.0502      0.6989     -0.0773
     3         C         -1.1296     -1.4618      0.2912
     4         C         -1.3292      1.3155     -0.0160
     5         C          1.3292     -1.3155      0.0160
     6         C          1.1296      1.4618     -0.2912
     7         C         -2.3495     -0.8441      0.3462
     8         C         -2.4503      0.5584      0.1910
     9         C          2.4503     -0.5584     -0.1910
    10         C          2.3495      0.8441     -0.3462
    11         H         -3.2614     -1.4273      0.5108
    12         H         -3.4379      1.0286      0.2390
    13         H         -1.0432     -2.5477      0.4104
    14         H         -1.3991      2.4023     -0.1372
    15         H          1.3991     -2.4023      0.1371
    16         H          1.0432      2.5477     -0.4104
    17         H          3.4379     -1.0286     -0.2390
    18         H          3.2614      1.4273     -0.5108

  H: (PM3): J. J. P. STEWART, J. COMP. CHEM. 10, 209 (1989).
  C: (PM3): J. J. P. STEWART, J. COMP. CHEM. 10, 209 (1989).

           Empirical Formula: C10 H8  =    18 atoms



      MOLECULAR POINT GROUP   :   C1  


      RHF CALCULATION, NO. OF DOUBLY OCCUPIED LEVELS = 24



          HEAT OF FORMATION =      40.561194 KCALS/MOLE


          CARTESIAN COORDINATE DERIVATIVES

   NUMBER  ATOM         X            Y            Z

     1       C     -0.022888    -0.006249    -0.000608
     2       C      0.030207    -0.000493    -0.003009
     3       C      0.001365    -0.007570     0.006028
     4       C     -0.004166    -0.019765     0.004459
     5       C     -0.003092     0.019117    -0.002633
     6       C      0.004123     0.029450    -0.003589
     7       C      0.017452     0.001764    -0.005535
     8       C     -0.026002     0.002165     0.002431
     9       C      0.016183    -0.004143     0.000367
    10       C     -0.013874    -0.018359     0.004353
    11       H      0.002949     0.001972     0.001954
    12       H      0.001445    -0.001499    -0.000447
    13       H     -0.004485    -0.001104    -0.003979
    14       H      0.002121     0.001127    -0.002362
    15       H      0.001886    -0.001754     0.001441
    16       H      0.001120     0.000715     0.003818
    17       H      0.000263     0.003688    -0.000286
    18       H     -0.004608     0.000937    -0.002403
 


          GRADIENT NORM =   0.07264


          TIME FOR SCF CALCULATION =    0.02

          TIME FOR DERIVATIVES     =    0.01

          MOLECULAR WEIGHT =  128.17



          ROTATIONAL CONSTANTS IN CM(-1)

          A =    0.10435425   B =    0.04141882   C =    0.02965040



           PRINCIPAL MOMENTS OF INERTIA IN UNITS OF 10**(-40)*GRAM-CM**2

          A =      268.2476   B =      675.8467   C =      944.0942


          ORIENTATION OF MOLECULE IN FORCE CALCULATION

    NO.       ATOM         X         Y         Z

     1          C      -0.7050   -0.0000   -0.0000
     2          C       0.7050   -0.0000   -0.0000
     3          C      -1.4007    1.2393   -0.0000
     4          C       1.4006    1.2393   -0.0000
     5          C      -1.4007   -1.2393    0.0000
     6          C       1.4007   -1.2392    0.0000
     7          C      -0.7074    2.4191   -0.0000
     8          C       0.7073    2.4191   -0.0000
     9          C      -0.7073   -2.4191    0.0000
    10          C       0.7074   -2.4191    0.0000
    11          H      -1.2386    3.3765    0.0000
    12          H       1.2386    3.3764   -0.0000
    13          H      -2.4965    1.2309   -0.0001
    14          H       2.4964    1.2310   -0.0001
    15          H      -2.4964   -1.2310    0.0001
    16          H       2.4965   -1.2309    0.0001
    17          H      -1.2386   -3.3764    0.0001
    18          H       1.2386   -3.3765   -0.0000


    FIRST DERIVATIVES WILL BE USED IN THE CALCULATION OF SECOND DERIVATIVES

          ESTIMATED TIME TO COMPLETE CALCULATION =        7.59 SECONDS

    FOR POINT-GROUP C1   THERE ARE   1 UNIQUE SYMMETRY FUNCTIONS.

 STEP:   1 TIME =     0.07 SECS, INTEGRAL =      0.07 TIME LEFT: 172799.89
 STEP:   2 TIME =     0.05 SECS, INTEGRAL =      0.12 TIME LEFT: 172799.84
 STEP:   3 TIME =     0.04 SECS, INTEGRAL =      0.16 TIME LEFT: 172799.80
 STEP:   4 TIME =     0.04 SECS, INTEGRAL =      0.20 TIME LEFT: 172799.77
 STEP:   5 TIME =     0.04 SECS, INTEGRAL =      0.23 TIME LEFT: 172799.73
 STEP:   6 TIME =     0.04 SECS, INTEGRAL =      0.27 TIME LEFT: 172799.70
 STEP:   7 TIME =     0.04 SECS, INTEGRAL =      0.30 TIME LEFT: 172799.66
 STEP:   8 TIME =     0.04 SECS, INTEGRAL =      0.34 TIME LEFT: 172799.62
 STEP:   9 TIME =     0.04 SECS, INTEGRAL =      0.38 TIME LEFT: 172799.59
 STEP:  10 TIME =     0.04 SECS, INTEGRAL =      0.41 TIME LEFT: 172799.55
 STEP:  11 TIME =     0.06 SECS, INTEGRAL =      0.47 TIME LEFT: 172799.49
 STEP:  12 TIME =     0.04 SECS, INTEGRAL =      0.52 TIME LEFT: 172799.45
 STEP:  13 TIME =     0.04 SECS, INTEGRAL =      0.56 TIME LEFT: 172799.41
 STEP:  14 TIME =     0.04 SECS, INTEGRAL =      0.60 TIME LEFT: 172799.37
 STEP:  15 TIME =     0.04 SECS, INTEGRAL =      0.63 TIME LEFT: 172799.33
 STEP:  16 TIME =     0.04 SECS, INTEGRAL =      0.67 TIME LEFT: 172799.30
 STEP:  17 TIME =     0.04 SECS, INTEGRAL =      0.71 TIME LEFT: 172799.25
 STEP:  18 TIME =     0.04 SECS, INTEGRAL =      0.75 TIME LEFT: 172799.22
 STEP:  19 TIME =     0.04 SECS, INTEGRAL =      0.79 TIME LEFT: 172799.18
 STEP:  20 TIME =     0.04 SECS, INTEGRAL =      0.82 TIME LEFT: 172799.14
 STEP:  21 TIME =     0.04 SECS, INTEGRAL =      0.86 TIME LEFT: 172799.11
 STEP:  22 TIME =     0.04 SECS, INTEGRAL =      0.89 TIME LEFT: 172799.07
 STEP:  23 TIME =     0.04 SECS, INTEGRAL =      0.93 TIME LEFT: 172799.04
 STEP:  24 TIME =     0.04 SECS, INTEGRAL =      0.96 TIME LEFT: 172799.00
 STEP:  25 TIME =     0.04 SECS, INTEGRAL =      1.00 TIME LEFT: 172798.96
 STEP:  26 TIME =     0.04 SECS, INTEGRAL =      1.04 TIME LEFT: 172798.93
 STEP:  27 TIME =     0.04 SECS, INTEGRAL =      1.08 TIME LEFT: 172798.89
 STEP:  28 TIME =     0.04 SECS, INTEGRAL =      1.11 TIME LEFT: 172798.85
 STEP:  29 TIME =     0.04 SECS, INTEGRAL =      1.15 TIME LEFT: 172798.81
 STEP:  30 TIME =     0.04 SECS, INTEGRAL =      1.19 TIME LEFT: 172798.77
 STEP:  31 TIME =     0.04 SECS, INTEGRAL =      1.23 TIME LEFT: 172798.74
 STEP:  32 TIME =     0.05 SECS, INTEGRAL =      1.28 TIME LEFT: 172798.69
 STEP:  33 TIME =     0.05 SECS, INTEGRAL =      1.32 TIME LEFT: 172798.64
 STEP:  34 TIME =     0.04 SECS, INTEGRAL =      1.37 TIME LEFT: 172798.60
 STEP:  35 TIME =     0.04 SECS, INTEGRAL =      1.40 TIME LEFT: 172798.56
 STEP:  36 TIME =     0.04 SECS, INTEGRAL =      1.44 TIME LEFT: 172798.52
 STEP:  37 TIME =     0.04 SECS, INTEGRAL =      1.48 TIME LEFT: 172798.49
 STEP:  38 TIME =     0.04 SECS, INTEGRAL =      1.51 TIME LEFT: 172798.45
 STEP:  39 TIME =     0.04 SECS, INTEGRAL =      1.55 TIME LEFT: 172798.42
 STEP:  40 TIME =     0.04 SECS, INTEGRAL =      1.58 TIME LEFT: 172798.38
 STEP:  41 TIME =     0.04 SECS, INTEGRAL =      1.62 TIME LEFT: 172798.35
 STEP:  42 TIME =     0.04 SECS, INTEGRAL =      1.66 TIME LEFT: 172798.31
 STEP:  43 TIME =     0.04 SECS, INTEGRAL =      1.69 TIME LEFT: 172798.27
 STEP:  44 TIME =     0.04 SECS, INTEGRAL =      1.73 TIME LEFT: 172798.24
 STEP:  45 TIME =     0.04 SECS, INTEGRAL =      1.76 TIME LEFT: 172798.20
 STEP:  46 TIME =     0.04 SECS, INTEGRAL =      1.80 TIME LEFT: 172798.17
 STEP:  47 TIME =     0.04 SECS, INTEGRAL =      1.83 TIME LEFT: 172798.13
 STEP:  48 TIME =     0.04 SECS, INTEGRAL =      1.87 TIME LEFT: 172798.10
 STEP:  49 TIME =     0.04 SECS, INTEGRAL =      1.90 TIME LEFT: 172798.06
 STEP:  50 TIME =     0.04 SECS, INTEGRAL =      1.94 TIME LEFT: 172798.03
 STEP:  51 TIME =     0.04 SECS, INTEGRAL =      1.98 TIME LEFT: 172797.99
 STEP:  52 TIME =     0.04 SECS, INTEGRAL =      2.01 TIME LEFT: 172797.95
 STEP:  53 TIME =     0.04 SECS, INTEGRAL =      2.05 TIME LEFT: 172797.91
 STEP:  54 TIME =     0.04 SECS, INTEGRAL =      2.10 TIME LEFT: 172797.87

(To convert to Hartree/Bohr^2, multiply by (10^(-21) x N x a0^2)/(4.184 x 627.51) =  0.0642)


           FORCE MATRIX IN MILLIDYNES/ANGSTROM


                  C  1       C  2       C  3       C  4       C  5       C  6
 ------------------------------------------------------------------------------
     C    1  18.346887
     C    2   6.614216  18.319526
     C    3   5.915546   1.586180  17.641589
     C    4   1.576478   5.901649   1.364928  17.642604
     C    5   5.918005   1.583860   1.376163   0.444674  17.647451
     C    6   1.587109   5.888236   0.458672   1.390003   1.377271  17.611829
     C    7   1.940282   1.204385   8.194136   2.112537   0.509537   0.446911
     C    8   1.191685   1.955258   2.113508   8.194071   0.432979   0.523262
     C    9   1.917363   1.180210   0.491642   0.413814   8.212470   2.102119
     C   10   1.184616   1.946346   0.430127   0.506457   2.104825   8.192372
     H   11   0.104227   0.006088   0.434816   0.069229   0.007991   0.007672
     H   12   0.006030   0.104062   0.069130   0.434812   0.007650   0.007938
     H   13   0.443923   0.066144   4.830000   0.010800   0.041129   0.008657
     H   14   0.065838   0.443704   0.010782   4.829974   0.008539   0.041100
     H   15   0.443955   0.066140   0.041090   0.008613   4.830222   0.010803
     H   16   0.065819   0.443721   0.008486   0.041163   0.010802   4.829921
     H   17   0.104150   0.006083   0.007933   0.007660   0.434698   0.069291
     H   18   0.005990   0.104128   0.007650   0.007944   0.069274   0.435133


                  C  7       C  8       C  9       C 10       H 11       H 12
 ------------------------------------------------------------------------------
     C    7  17.577803
     C    8   6.235050  17.576365
     C    9   0.387865   0.367335  17.634989
     C   10   0.381961   0.402120   6.255552  17.592451
     H   11   4.862463   0.435562   0.005034   0.001561   5.224670
     H   12   0.435694   4.862481   0.001545   0.004957   0.034745   5.224697
     H   13   0.437307   0.104357   0.002929   0.002615   0.050635   0.006875
     H   14   0.104340   0.437384   0.002528   0.002761   0.006885   0.050589
     H   15   0.002776   0.002610   0.436420   0.104236   0.001670   0.000627
     H   16   0.002593   0.002803   0.104225   0.437264   0.000634   0.001666
     H   17   0.004996   0.001525   4.863135   0.435303   0.000570   0.000779
     H   18   0.001500   0.005008   0.435455   4.862744   0.000785   0.000558


                  H 13       H 14       H 15       H 16       H 17       H 18
 ------------------------------------------------------------------------------
     H   13   5.203519
     H   14   0.008133   5.203593
     H   15   0.026457   0.002355   5.203733
     H   16   0.002354   0.026451   0.008128   5.203633
     H   17   0.001671   0.000618   0.050641   0.006883   5.224791
     H   18   0.000613   0.001673   0.006886   0.050636   0.034769   5.224840


          HEAT OF FORMATION =      40.561194 KCALS/MOLE

          ZERO POINT ENERGY      92.206 KCAL/MOL


           NORMAL COORDINATE ANALYSIS (Total motion = 1 Angstrom)


   Root No.       1         2         3         4         5         6         7         8

                 1 A       2 A       3 A       4 A       5 A       6 A       7 A       8 A   

                 162.1     164.4     339.1     395.2     432.5     466.6     523.6     524.3
  
           1   -0.0000   -0.0000    0.0000    0.0583    0.0001   -0.0000    0.0001    0.0032
           2   -0.0000    0.0000    0.0000    0.0000   -0.0000   -0.0000    0.0509   -0.0019
           3    0.0026    0.0557   -0.0001   -0.0000    0.0394    0.0689    0.0000   -0.0000
           4    0.0000   -0.0000    0.0000    0.0583    0.0001   -0.0000   -0.0002   -0.0032
           5    0.0000   -0.0000    0.0000   -0.0001    0.0000    0.0000   -0.0509    0.0019
           6    0.0026    0.0557   -0.0001    0.0001   -0.0392    0.0691    0.0000   -0.0000
           7    0.0000   -0.0000    0.0000    0.0106    0.0000    0.0000   -0.0305    0.0447
           8   -0.0000    0.0000   -0.0000   -0.0318   -0.0000    0.0000    0.0477    0.0356
           9   -0.0449    0.0286   -0.0490   -0.0000    0.0192   -0.0319   -0.0000    0.0000
          10    0.0000    0.0000    0.0000    0.0106    0.0000   -0.0000   -0.0337   -0.0423
          11    0.0000   -0.0000    0.0000    0.0318    0.0000    0.0000   -0.0451    0.0390
          12    0.0474    0.0234   -0.0490    0.0000   -0.0192   -0.0319    0.0000    0.0000
          13   -0.0000   -0.0000    0.0000    0.0107    0.0000    0.0000    0.0335    0.0418
          14   -0.0000    0.0000    0.0000    0.0319    0.0000   -0.0000    0.0449   -0.0393
          15    0.0474    0.0234    0.0490   -0.0000    0.0192   -0.0319    0.0000    0.0000
          16   -0.0000    0.0000    0.0000    0.0106    0.0000   -0.0000    0.0306   -0.0442
          17    0.0000    0.0000   -0.0000   -0.0319   -0.0000    0.0000   -0.0477   -0.0359
          18   -0.0450    0.0287    0.0490    0.0000   -0.0193   -0.0318   -0.0000    0.0000
          19    0.0000    0.0000   -0.0000   -0.0353   -0.0000    0.0000   -0.0357    0.0026
          20   -0.0000    0.0000    0.0000   -0.0108   -0.0000    0.0000    0.0487    0.0688
          21   -0.0388   -0.0467    0.0235    0.0000   -0.0438    0.0119    0.0000   -0.0000
          22    0.0000    0.0000   -0.0000   -0.0353   -0.0000    0.0000   -0.0358    0.0001
          23    0.0000   -0.0000    0.0000    0.0108    0.0000    0.0000   -0.0436    0.0722
          24    0.0342   -0.0509    0.0236   -0.0001    0.0438    0.0118   -0.0000   -0.0000
          25   -0.0000    0.0000   -0.0000   -0.0352   -0.0000   -0.0000    0.0358   -0.0004
          26   -0.0000   -0.0000    0.0000    0.0109    0.0000   -0.0000    0.0436   -0.0719
          27    0.0342   -0.0509   -0.0235    0.0001   -0.0438    0.0119   -0.0000   -0.0000
          28   -0.0000    0.0000   -0.0000   -0.0352   -0.0000    0.0000    0.0359   -0.0022
          29    0.0000   -0.0000   -0.0000   -0.0109   -0.0000    0.0000   -0.0485   -0.0685
          30   -0.0388   -0.0467   -0.0235   -0.0001    0.0439    0.0117    0.0000   -0.0000
          31   -0.0000    0.0000   -0.0000   -0.0643   -0.0001    0.0000    0.0048   -0.0245
          32   -0.0000    0.0000   -0.0000   -0.0273   -0.0000    0.0000    0.0709    0.0543
          33   -0.0826   -0.0994    0.0573    0.0001   -0.1431   -0.0091    0.0001   -0.0000
          34    0.0000    0.0000   -0.0000   -0.0643   -0.0001    0.0000    0.0065    0.0241
          35    0.0000   -0.0000    0.0000    0.0273    0.0000    0.0000   -0.0668    0.0595
          36    0.0728   -0.1082    0.0575   -0.0002    0.1428   -0.0093   -0.0001    0.0000
          37    0.0000   -0.0000    0.0000    0.0104    0.0000    0.0000   -0.0303    0.0444
          38   -0.0000    0.0000   -0.0000   -0.0797   -0.0001    0.0000    0.0269    0.0388
          39   -0.0863    0.0485   -0.1201   -0.0000    0.0241   -0.1626   -0.0001    0.0000
          40    0.0000    0.0000   -0.0000    0.0105    0.0000   -0.0000   -0.0335   -0.0421
          41    0.0000    0.0000    0.0000    0.0797    0.0001   -0.0000   -0.0241    0.0407
          42    0.0904    0.0383   -0.1201    0.0000   -0.0244   -0.1626    0.0000    0.0000
          43   -0.0000   -0.0000    0.0000    0.0105    0.0000   -0.0000    0.0333    0.0416
          44   -0.0000   -0.0000    0.0000    0.0798    0.0001   -0.0000    0.0239   -0.0409
          45    0.0904    0.0385    0.1202   -0.0001    0.0241   -0.1626    0.0000    0.0000
          46   -0.0000    0.0000    0.0000    0.0105    0.0000   -0.0000    0.0304   -0.0440
          47    0.0000   -0.0000   -0.0000   -0.0798   -0.0001    0.0000   -0.0266   -0.0389
          48   -0.0863    0.0486    0.1201   -0.0000   -0.0246   -0.1624   -0.0001    0.0000
          49    0.0000    0.0000   -0.0000   -0.0644   -0.0001    0.0000   -0.0061   -0.0238
          50   -0.0000   -0.0000    0.0000    0.0275    0.0000   -0.0000    0.0666   -0.0595
          51    0.0729   -0.1084   -0.0573    0.0002   -0.1431   -0.0090   -0.0001   -0.0000
          52   -0.0000    0.0000   -0.0000   -0.0644   -0.0001    0.0000   -0.0045    0.0242
          53    0.0000    0.0000   -0.0000   -0.0275   -0.0000    0.0000   -0.0707   -0.0544
          54   -0.0826   -0.0995   -0.0573   -0.0002    0.1432   -0.0096    0.0001    0.0000


   Root No.       9        10        11        12        13        14        15        16

                 9 A      10 A      11 A      12 A      13 A      14 A      15 A      16 A   

                 546.2     638.8     745.3     752.0     801.7     810.7     852.0     912.4
  
           1    0.0000    0.0000   -0.0000   -0.0000   -0.0000   -0.0165   -0.0000   -0.0252
           2   -0.0000    0.0472   -0.0000    0.0000    0.0000    0.0003    0.0000    0.0001
           3    0.0000   -0.0000   -0.0712   -0.0000    0.0218   -0.0000    0.0000   -0.0007
           4    0.0000   -0.0000   -0.0000    0.0000   -0.0000   -0.0165   -0.0000    0.0252
           5    0.0000    0.0471   -0.0000    0.0000    0.0000    0.0002   -0.0000    0.0001
           6    0.0001    0.0000    0.0712    0.0001    0.0217   -0.0000   -0.0000    0.0007
           7    0.0000   -0.0741   -0.0000   -0.0000   -0.0000   -0.0239   -0.0000   -0.0475
           8   -0.0000    0.0101   -0.0000    0.0000   -0.0000   -0.0302   -0.0000    0.0288
           9   -0.0289   -0.0000    0.0018    0.0131   -0.0123    0.0000    0.0210    0.0004
          10    0.0000    0.0741   -0.0000    0.0000   -0.0000   -0.0238   -0.0000    0.0476
          11    0.0000    0.0100    0.0000    0.0000    0.0000    0.0301    0.0000    0.0288
          12    0.0288   -0.0000   -0.0018    0.0131   -0.0123    0.0000   -0.0211   -0.0004
          13   -0.0000    0.0744   -0.0000    0.0000   -0.0000   -0.0236   -0.0000   -0.0475
          14   -0.0000    0.0098    0.0000   -0.0000    0.0000    0.0301    0.0000   -0.0289
          15    0.0289    0.0000    0.0018   -0.0132   -0.0122    0.0000   -0.0211    0.0004
          16   -0.0000   -0.0743   -0.0000   -0.0000   -0.0000   -0.0236    0.0000    0.0475
          17    0.0000    0.0098   -0.0000    0.0000   -0.0000   -0.0304   -0.0000   -0.0289
          18   -0.0289   -0.0000   -0.0018   -0.0132   -0.0123    0.0000    0.0211   -0.0004
          19    0.0000   -0.0057    0.0000    0.0000    0.0000    0.0356    0.0000   -0.0037
          20   -0.0000   -0.0336   -0.0000   -0.0000   -0.0000   -0.0692   -0.0000    0.0113
          21    0.0316    0.0000   -0.0187    0.0124   -0.0163    0.0000    0.0149    0.0004
          22    0.0000    0.0056    0.0000   -0.0000    0.0000    0.0354    0.0000    0.0037
          23    0.0000   -0.0337    0.0000   -0.0000    0.0000    0.0692    0.0000    0.0112
          24   -0.0316   -0.0000    0.0187    0.0123   -0.0162    0.0000   -0.0150   -0.0004
          25   -0.0000    0.0056    0.0000   -0.0000    0.0000    0.0353    0.0000   -0.0038
          26   -0.0000   -0.0340    0.0000   -0.0000    0.0000    0.0691    0.0000   -0.0112
          27   -0.0316   -0.0000   -0.0187   -0.0124   -0.0162    0.0000   -0.0150    0.0004
          28   -0.0000   -0.0056    0.0000    0.0000    0.0000    0.0356    0.0000    0.0038
          29    0.0000   -0.0340   -0.0000   -0.0000   -0.0000   -0.0691   -0.0000   -0.0112
          30    0.0316    0.0000    0.0187   -0.0124   -0.0162    0.0000    0.0150   -0.0004
          31   -0.0000    0.0419   -0.0000    0.0000   -0.0000   -0.0170   -0.0000    0.0511
          32   -0.0000   -0.0067   -0.0000    0.0000   -0.0001   -0.0993   -0.0000    0.0440
          33    0.1139    0.0000   -0.0150   -0.1280    0.1497   -0.0002   -0.0769   -0.0023
          34   -0.0000   -0.0418   -0.0000   -0.0000   -0.0000   -0.0172    0.0000   -0.0512
          35    0.0000   -0.0070    0.0000   -0.0000    0.0001    0.0993    0.0000    0.0439
          36   -0.1137   -0.0000    0.0155   -0.1279    0.1496   -0.0002    0.0771    0.0022
          37    0.0000   -0.0738   -0.0000    0.0000   -0.0000   -0.0247    0.0000   -0.0492
          38   -0.0000    0.0112    0.0000    0.0000    0.0000    0.0042    0.0000    0.0899
          39   -0.0759   -0.0000    0.1789   -0.0960    0.0614   -0.0002   -0.1367   -0.0015
          40    0.0000    0.0737   -0.0000   -0.0000   -0.0000   -0.0245    0.0000    0.0493
          41    0.0000    0.0111   -0.0000    0.0000    0.0000   -0.0042   -0.0000    0.0899
          42    0.0757    0.0000   -0.1785   -0.0962    0.0614   -0.0001    0.1370    0.0015
          43   -0.0000    0.0741   -0.0000    0.0000   -0.0000   -0.0244    0.0000   -0.0492
          44   -0.0000    0.0111    0.0000    0.0000   -0.0000   -0.0039    0.0000   -0.0900
          45    0.0757    0.0000    0.1785    0.0965    0.0609   -0.0002    0.1370   -0.0015
          46   -0.0000   -0.0740    0.0000   -0.0000   -0.0000   -0.0244    0.0000    0.0492
          47    0.0000    0.0110   -0.0000    0.0000   -0.0000    0.0040   -0.0000   -0.0898
          48   -0.0758   -0.0000   -0.1788    0.0962    0.0610    0.0000   -0.1370    0.0015
          49    0.0000   -0.0420   -0.0000    0.0000   -0.0000   -0.0173    0.0000    0.0512
          50   -0.0000   -0.0072    0.0000   -0.0000    0.0001    0.0992    0.0000   -0.0440
          51   -0.1137   -0.0000   -0.0154    0.1285    0.1491   -0.0002    0.0771   -0.0023
          52   -0.0000    0.0420   -0.0000   -0.0000   -0.0000   -0.0173    0.0000   -0.0511
          53    0.0000   -0.0071   -0.0000   -0.0000   -0.0001   -0.0994   -0.0000   -0.0440
          54    0.1137    0.0000    0.0151    0.1285    0.1492   -0.0002   -0.0771    0.0022


   Root No.      17        18        19        20        21        22        23        24

                17 A      18 A      19 A      20 A      21 A      22 A      23 A      24 A   

                 912.6     920.2     954.8     981.7    1003.4    1020.6    1087.6    1115.3
  
           1    0.0003   -0.0000   -0.0000    0.0000   -0.0000   -0.0000   -0.0000    0.0024
           2   -0.0000    0.0213    0.0000    0.0000    0.0000    0.0000   -0.0057   -0.0001
           3   -0.0375    0.0000    0.0000    0.0160    0.0001    0.0233    0.0000    0.0000
           4   -0.0003    0.0001    0.0000   -0.0000   -0.0000   -0.0000    0.0000   -0.0024
           5   -0.0000   -0.0217    0.0000    0.0000    0.0000   -0.0000   -0.0057   -0.0001
           6    0.0375   -0.0000    0.0000    0.0160   -0.0001   -0.0233   -0.0000    0.0000
           7    0.0006   -0.0564   -0.0000    0.0000    0.0000   -0.0000    0.0080   -0.0193
           8   -0.0004    0.0050    0.0000   -0.0000   -0.0000    0.0000    0.0024    0.0023
           9    0.0195   -0.0000    0.0239   -0.0286    0.0206   -0.0266    0.0000   -0.0000
          10   -0.0006   -0.0563    0.0000   -0.0000    0.0000    0.0000   -0.0080    0.0193
          11   -0.0004   -0.0047    0.0000   -0.0000   -0.0000    0.0000    0.0024    0.0023
          12   -0.0195    0.0000    0.0238   -0.0286   -0.0205    0.0265    0.0000   -0.0000
          13    0.0006    0.0564   -0.0000    0.0000   -0.0000    0.0000   -0.0079   -0.0193
          14    0.0004    0.0049   -0.0000    0.0000   -0.0000   -0.0000    0.0024   -0.0023
          15    0.0195   -0.0000   -0.0239   -0.0285   -0.0207   -0.0264   -0.0000   -0.0000
          16   -0.0006    0.0564   -0.0000   -0.0000   -0.0000    0.0000    0.0079    0.0194
          17    0.0004   -0.0047   -0.0000    0.0000   -0.0000    0.0000    0.0025   -0.0022
          18   -0.0194   -0.0000   -0.0239   -0.0285    0.0208    0.0263    0.0000   -0.0000
          19    0.0000    0.0269   -0.0000    0.0000   -0.0000   -0.0000    0.0146   -0.0197
          20   -0.0001   -0.0379    0.0000   -0.0000    0.0000   -0.0000   -0.0130    0.0162
          21    0.0198   -0.0000   -0.0183    0.0161   -0.0329    0.0294   -0.0000    0.0000
          22   -0.0000    0.0271   -0.0000   -0.0000    0.0000    0.0000   -0.0146    0.0197
          23   -0.0001    0.0379   -0.0000   -0.0000    0.0000    0.0000   -0.0130    0.0162
          24   -0.0198    0.0000   -0.0183    0.0162    0.0329   -0.0293   -0.0000    0.0000
          25    0.0000   -0.0269    0.0000    0.0000    0.0000    0.0000   -0.0146   -0.0197
          26    0.0001   -0.0381    0.0000    0.0000    0.0000   -0.0000   -0.0129   -0.0163
          27    0.0198   -0.0000    0.0184    0.0161    0.0331    0.0291    0.0000    0.0000
          28   -0.0001   -0.0273    0.0000    0.0000    0.0000   -0.0000    0.0145    0.0197
          29    0.0001    0.0381   -0.0000    0.0000   -0.0000    0.0000   -0.0129   -0.0162
          30   -0.0198    0.0000    0.0183    0.0161   -0.0331   -0.0291   -0.0000   -0.0000
          31   -0.0006    0.0500   -0.0000   -0.0000   -0.0000   -0.0000    0.0798   -0.0866
          32   -0.0005   -0.0258   -0.0000   -0.0000   -0.0000   -0.0000    0.0227   -0.0196
          33   -0.1155    0.0001    0.0934   -0.0721    0.1220   -0.0966    0.0000   -0.0000
          34    0.0007    0.0500    0.0000   -0.0000   -0.0000    0.0000   -0.0797    0.0864
          35   -0.0006    0.0259   -0.0000   -0.0000    0.0000    0.0000    0.0226   -0.0195
          36    0.1154   -0.0000    0.0938   -0.0726   -0.1220    0.0966    0.0000   -0.0000
          37    0.0006   -0.0578    0.0000    0.0000    0.0000   -0.0000    0.0084   -0.0212
          38   -0.0011    0.0549   -0.0000   -0.0000   -0.0000    0.0000    0.1365   -0.1126
          39   -0.0765   -0.0000   -0.1139    0.1253   -0.0737    0.0871   -0.0000    0.0000
          40   -0.0006   -0.0577    0.0000   -0.0000    0.0000   -0.0000   -0.0084    0.0213
          41   -0.0011   -0.0547   -0.0000    0.0000    0.0000   -0.0000    0.1365   -0.1127
          42    0.0769   -0.0000   -0.1138    0.1254    0.0734   -0.0868   -0.0000    0.0000
          43    0.0006    0.0578   -0.0000    0.0000   -0.0000    0.0000   -0.0083   -0.0212
          44    0.0011    0.0546   -0.0000   -0.0000   -0.0000   -0.0000    0.1361    0.1131
          45   -0.0765    0.0000    0.1143    0.1250    0.0742    0.0864    0.0000    0.0000
          46   -0.0006    0.0579   -0.0000   -0.0000    0.0000    0.0000    0.0083    0.0213
          47    0.0011   -0.0549   -0.0000    0.0000    0.0000   -0.0000    0.1361    0.1136
          48    0.0764    0.0000    0.1143    0.1250   -0.0744   -0.0863    0.0000    0.0000
          49   -0.0007   -0.0499    0.0000   -0.0000    0.0000   -0.0000   -0.0797   -0.0872
          50    0.0005   -0.0261   -0.0000    0.0000   -0.0000    0.0000    0.0227    0.0198
          51   -0.1153   -0.0000   -0.0938   -0.0721   -0.1227   -0.0956   -0.0000    0.0000
          52    0.0006   -0.0501   -0.0000    0.0000   -0.0000   -0.0000    0.0793    0.0864
          53    0.0006    0.0262   -0.0000    0.0000   -0.0000   -0.0000    0.0225    0.0195
          54    0.1154   -0.0000   -0.0937   -0.0720    0.1228    0.0956   -0.0000   -0.0000


   Root No.      25        26        27        28        29        30        31        32

                25 A      26 A      27 A      28 A      29 A      30 A      31 A      32 A   

                1124.1    1127.8    1156.4    1158.0    1186.7    1232.1    1302.7    1412.4
  
           1    0.0145   -0.0001   -0.0001   -0.0088    0.0000    0.0249   -0.0001    0.0633
           2    0.0001    0.0045   -0.0014    0.0000    0.0218   -0.0001    0.0741   -0.0000
           3    0.0000    0.0000   -0.0000   -0.0000   -0.0000   -0.0000   -0.0000    0.0000
           4    0.0144   -0.0001    0.0001    0.0088    0.0000    0.0249    0.0002    0.0629
           5    0.0000   -0.0045   -0.0014   -0.0000   -0.0225   -0.0001    0.0743   -0.0000
           6    0.0000   -0.0000   -0.0000   -0.0000    0.0000    0.0000   -0.0000    0.0000
           7   -0.0180    0.0056    0.0023    0.0001   -0.0009   -0.0049    0.0227   -0.0430
           8   -0.0055    0.0067   -0.0004   -0.0006    0.0119   -0.0082   -0.0089    0.0300
           9   -0.0000   -0.0000    0.0000    0.0000   -0.0000   -0.0000    0.0000   -0.0000
          10   -0.0179    0.0057   -0.0023   -0.0001   -0.0008   -0.0049   -0.0230   -0.0430
          11    0.0055   -0.0067   -0.0004   -0.0006   -0.0117    0.0083   -0.0093   -0.0299
          12    0.0000    0.0000    0.0000    0.0000    0.0000    0.0000    0.0000   -0.0000
          13   -0.0181   -0.0055   -0.0023    0.0002    0.0009   -0.0049   -0.0228   -0.0430
          14    0.0055    0.0066   -0.0004    0.0007    0.0119    0.0083   -0.0088   -0.0299
          15   -0.0000   -0.0000   -0.0000    0.0000   -0.0000   -0.0000    0.0000    0.0000
          16   -0.0180   -0.0054    0.0023   -0.0002    0.0008   -0.0049    0.0232   -0.0430
          17   -0.0056   -0.0066   -0.0004    0.0006   -0.0117   -0.0083   -0.0096    0.0300
          18    0.0000   -0.0000   -0.0000    0.0000    0.0000   -0.0000    0.0000    0.0000
          19    0.0014   -0.0013    0.0027    0.0008    0.0126   -0.0111    0.0529    0.0222
          20   -0.0030   -0.0025    0.0025   -0.0029   -0.0018   -0.0065   -0.0174    0.0138
          21    0.0000    0.0000   -0.0000   -0.0000    0.0000   -0.0000   -0.0000    0.0000
          22    0.0014   -0.0013   -0.0027   -0.0008    0.0130   -0.0110   -0.0525    0.0225
          23    0.0031    0.0025    0.0025   -0.0029    0.0018    0.0065   -0.0176   -0.0140
          24    0.0000   -0.0000   -0.0000   -0.0000   -0.0000    0.0000   -0.0000   -0.0000
          25    0.0014    0.0013   -0.0027    0.0009   -0.0126   -0.0110   -0.0520    0.0221
          26    0.0030   -0.0026    0.0026    0.0029   -0.0018    0.0065   -0.0177   -0.0139
          27    0.0000    0.0000    0.0000   -0.0000    0.0000    0.0000   -0.0000    0.0000
          28    0.0015    0.0013    0.0027   -0.0009   -0.0130   -0.0111    0.0515    0.0225
          29   -0.0031    0.0025    0.0026    0.0028    0.0018   -0.0065   -0.0170    0.0139
          30   -0.0000   -0.0000   -0.0000   -0.0000   -0.0000   -0.0000   -0.0000   -0.0000
          31    0.1291   -0.1087    0.1296   -0.1253   -0.0796    0.0465   -0.0196   -0.0820
          32    0.0670   -0.0613    0.0735   -0.0736   -0.0538    0.0260   -0.0636   -0.0427
          33    0.0000   -0.0000    0.0000    0.0000   -0.0000    0.0000   -0.0000   -0.0000
          34    0.1292   -0.1085   -0.1296    0.1253   -0.0799    0.0465    0.0177   -0.0821
          35   -0.0670    0.0613    0.0735   -0.0736    0.0542   -0.0260   -0.0626    0.0428
          36    0.0000    0.0000    0.0000    0.0000    0.0000   -0.0000    0.0000   -0.0000
          37   -0.0184    0.0050    0.0036   -0.0007   -0.0004   -0.0050    0.0265   -0.0471
          38   -0.0716    0.1125   -0.0904    0.1001   -0.1178    0.1619   -0.0646   -0.0011
          39    0.0000    0.0000   -0.0000   -0.0000    0.0000    0.0000    0.0000   -0.0000
          40   -0.0184    0.0050   -0.0036    0.0006   -0.0003   -0.0050   -0.0269   -0.0472
          41    0.0712   -0.1125   -0.0905    0.1003    0.1180   -0.1617   -0.0628    0.0016
          42   -0.0000   -0.0000   -0.0000   -0.0000   -0.0000   -0.0000    0.0000    0.0000
          43   -0.0185   -0.0049   -0.0036   -0.0005    0.0004   -0.0050   -0.0267   -0.0472
          44    0.0731    0.1121   -0.0933   -0.0974   -0.1177   -0.1617   -0.0631    0.0009
          45    0.0000    0.0000    0.0000   -0.0000   -0.0000    0.0000   -0.0000   -0.0000
          46   -0.0184   -0.0048    0.0036    0.0005    0.0003   -0.0050    0.0271   -0.0472
          47   -0.0724   -0.1116   -0.0935   -0.0975    0.1182    0.1617   -0.0597   -0.0018
          48   -0.0000    0.0000   -0.0000   -0.0000    0.0000   -0.0000   -0.0000   -0.0000
          49    0.1303    0.1072   -0.1334   -0.1212    0.0796    0.0465    0.0185   -0.0820
          50   -0.0678   -0.0606    0.0757    0.0713   -0.0538   -0.0259   -0.0628    0.0426
          51   -0.0000   -0.0000    0.0000    0.0000    0.0000   -0.0000    0.0000   -0.0000
          52    0.1305    0.1072    0.1335    0.1215    0.0798    0.0465   -0.0170   -0.0822
          53    0.0677    0.0606    0.0757    0.0714    0.0542    0.0261   -0.0609   -0.0430
          54    0.0000    0.0000    0.0000    0.0000    0.0000    0.0000   -0.0000   -0.0000


   Root No.      33        34        35        36        37        38        39        40

                33 A      34 A      35 A      36 A      37 A      38 A      39 A      40 A   

                1476.0    1489.2    1594.1    1597.3    1680.7    1779.2    1798.3    1830.9
  
           1    0.0036   -0.0327    0.0030   -0.1110    0.0008    0.1076   -0.0148   -0.0001
           2   -0.0253   -0.0024    0.0848    0.0037   -0.0723    0.0002   -0.0001    0.0823
           3    0.0000    0.0000   -0.0000   -0.0000    0.0000   -0.0000   -0.0000   -0.0000
           4   -0.0038    0.0329   -0.0030    0.1115   -0.0009   -0.1074   -0.0158    0.0002
           5   -0.0267   -0.0025   -0.0841   -0.0050   -0.0720   -0.0003   -0.0002   -0.0816
           6    0.0000   -0.0000    0.0000   -0.0000   -0.0000    0.0000   -0.0000    0.0000
           7    0.0189    0.0024    0.0357   -0.0049   -0.0364   -0.0367   -0.0199   -0.0082
           8    0.0633    0.0380    0.0034   -0.0783    0.0155   -0.0273   -0.0777   -0.0801
           9   -0.0000    0.0000    0.0000    0.0000    0.0000    0.0000    0.0000   -0.0000
          10   -0.0182   -0.0026    0.0354    0.0082    0.0363    0.0369   -0.0196   -0.0082
          11    0.0637    0.0379    0.0000   -0.0786    0.0156   -0.0279    0.0778    0.0796
          12   -0.0000   -0.0000   -0.0000    0.0000    0.0000   -0.0000   -0.0000   -0.0000
          13   -0.0187   -0.0000   -0.0353   -0.0080    0.0362   -0.0369   -0.0201    0.0084
          14    0.0700   -0.0279   -0.0010    0.0790    0.0155    0.0273    0.0782   -0.0805
          15   -0.0000    0.0000    0.0000   -0.0000   -0.0000    0.0000   -0.0000    0.0000
          16    0.0184   -0.0002   -0.0358    0.0043   -0.0362    0.0372   -0.0195    0.0081
          17    0.0709   -0.0276   -0.0042    0.0794    0.0150    0.0289   -0.0771    0.0793
          18   -0.0000    0.0000   -0.0000   -0.0000    0.0000   -0.0000    0.0000   -0.0000
          19   -0.0115    0.0476   -0.0302    0.0279    0.0730    0.0667    0.0342    0.0260
          20   -0.0432   -0.0140   -0.0470    0.0442    0.0261    0.0346    0.0594    0.0450
          21    0.0000   -0.0000   -0.0000    0.0000   -0.0000   -0.0000   -0.0000    0.0000
          22    0.0110   -0.0475   -0.0290   -0.0308   -0.0730   -0.0670    0.0339    0.0257
          23   -0.0426   -0.0140    0.0450    0.0488    0.0261    0.0352   -0.0593   -0.0448
          24    0.0000    0.0000    0.0000   -0.0000   -0.0000    0.0000    0.0000    0.0000
          25   -0.0001    0.0488    0.0287    0.0302   -0.0731    0.0674    0.0348   -0.0265
          26   -0.0450    0.0077   -0.0445   -0.0485    0.0260   -0.0348   -0.0598    0.0454
          27    0.0000   -0.0000   -0.0000    0.0000    0.0000   -0.0000    0.0000   -0.0000
          28    0.0003   -0.0487    0.0305   -0.0272    0.0732   -0.0680    0.0333   -0.0253
          29   -0.0456    0.0076    0.0475   -0.0444    0.0265   -0.0359    0.0589   -0.0446
          30    0.0000    0.0000    0.0000    0.0000   -0.0000    0.0000    0.0000   -0.0000
          31   -0.0039   -0.0223    0.0726    0.0108   -0.0278   -0.0197   -0.0508   -0.0333
          32   -0.0465   -0.0593    0.0037    0.0423   -0.0297   -0.0107    0.0221    0.0192
          33    0.0000    0.0000   -0.0000   -0.0000    0.0000    0.0000   -0.0000    0.0000
          34    0.0056    0.0221    0.0731   -0.0038    0.0277    0.0202   -0.0506   -0.0333
          35   -0.0471   -0.0592   -0.0057    0.0420   -0.0297   -0.0105   -0.0223   -0.0191
          36    0.0000   -0.0000    0.0000   -0.0000    0.0000    0.0000   -0.0000   -0.0000
          37    0.0232    0.0036    0.0431   -0.0109   -0.0435   -0.0429   -0.0284   -0.0126
          38   -0.0534   -0.0961    0.0124   -0.0114   -0.0356    0.0277    0.0261    0.0364
          39   -0.0000   -0.0000    0.0000   -0.0000    0.0000   -0.0000    0.0000   -0.0000
          40   -0.0224   -0.0038    0.0425    0.0149    0.0434    0.0432   -0.0281   -0.0126
          41   -0.0544   -0.0962   -0.0113   -0.0127   -0.0356    0.0278   -0.0259   -0.0363
          42    0.0000    0.0000   -0.0000   -0.0000    0.0000    0.0000    0.0000    0.0000
          43   -0.0232    0.0006   -0.0423   -0.0146    0.0433   -0.0432   -0.0286    0.0128
          44   -0.0746    0.0871    0.0118    0.0121   -0.0362   -0.0275   -0.0261    0.0365
          45    0.0000   -0.0000   -0.0000   -0.0000   -0.0000   -0.0000    0.0000    0.0000
          46    0.0228   -0.0008   -0.0432    0.0101   -0.0433    0.0436   -0.0279    0.0124
          47   -0.0763    0.0869   -0.0119    0.0108   -0.0360   -0.0280    0.0257   -0.0361
          48   -0.0000   -0.0000    0.0000   -0.0000   -0.0000    0.0000   -0.0000   -0.0000
          49    0.0098   -0.0213   -0.0731    0.0040    0.0276   -0.0198   -0.0510    0.0335
          50   -0.0593    0.0521    0.0061   -0.0422   -0.0298    0.0110   -0.0221    0.0191
          51   -0.0000    0.0000    0.0000   -0.0000   -0.0000    0.0000   -0.0000   -0.0000
          52   -0.0103    0.0210   -0.0726   -0.0112   -0.0278    0.0206   -0.0506    0.0333
          53   -0.0604    0.0517   -0.0034   -0.0431   -0.0294    0.0104    0.0222   -0.0191
          54   -0.0000    0.0000   -0.0000   -0.0000   -0.0000    0.0000    0.0000    0.0000


   Root No.      41        42        43        44        45        46        47        48

                41 A      42 A      43 A      44 A      45 A      46 A      47 A      48 A   

                3050.6    3051.4    3052.5    3053.9    3064.2    3065.0    3076.1    3076.2
  
           1    0.0004    0.0000   -0.0000    0.0000   -0.0003    0.0000    0.0000   -0.0001
           2   -0.0000    0.0002    0.0000    0.0008    0.0000    0.0006    0.0009    0.0004
           3    0.0000    0.0000   -0.0000    0.0000    0.0000   -0.0000   -0.0000   -0.0000
           4    0.0004    0.0000    0.0000    0.0000   -0.0003    0.0000   -0.0000    0.0001
           5    0.0000   -0.0002    0.0000    0.0008   -0.0000   -0.0006    0.0009    0.0004
           6   -0.0000    0.0000   -0.0000    0.0000   -0.0000    0.0000    0.0000   -0.0000
           7   -0.0112    0.0101    0.0136    0.0128    0.0096    0.0097    0.0103   -0.0040
           8   -0.0000   -0.0001    0.0001   -0.0001    0.0009    0.0007    0.0012   -0.0006
           9   -0.0000    0.0000    0.0000    0.0000    0.0000    0.0000    0.0000   -0.0000
          10   -0.0112    0.0099   -0.0137   -0.0128    0.0096    0.0097   -0.0103    0.0040
          11    0.0000    0.0001    0.0001   -0.0001   -0.0009   -0.0007    0.0013   -0.0006
          12    0.0000   -0.0000    0.0000    0.0000   -0.0000   -0.0000    0.0000   -0.0000
          13   -0.0106   -0.0105    0.0133   -0.0133    0.0091   -0.0101   -0.0045   -0.0102
          14    0.0000   -0.0001   -0.0001   -0.0001   -0.0009    0.0007    0.0004    0.0013
          15    0.0000    0.0000   -0.0000    0.0000   -0.0000    0.0000    0.0000    0.0000
          16   -0.0107   -0.0107   -0.0131    0.0132    0.0091   -0.0101    0.0045    0.0102
          17   -0.0000    0.0001   -0.0001   -0.0001    0.0009   -0.0007    0.0004    0.0013
          18   -0.0000   -0.0000   -0.0000    0.0000    0.0000   -0.0000    0.0000    0.0000
          19    0.0046   -0.0046   -0.0036   -0.0036    0.0046    0.0041    0.0092   -0.0040
          20   -0.0079    0.0080    0.0052    0.0054   -0.0105   -0.0095   -0.0172    0.0074
          21   -0.0000    0.0000    0.0000    0.0000   -0.0000   -0.0000   -0.0000    0.0000
          22    0.0046   -0.0045    0.0036    0.0037    0.0046    0.0041   -0.0092    0.0040
          23    0.0079   -0.0080    0.0054    0.0054    0.0104    0.0095   -0.0172    0.0074
          24   -0.0000    0.0000   -0.0000    0.0000   -0.0000   -0.0000    0.0000   -0.0000
          25    0.0043    0.0048   -0.0035    0.0038    0.0044   -0.0043   -0.0038   -0.0094
          26    0.0074    0.0084   -0.0052    0.0056    0.0100   -0.0099   -0.0071   -0.0175
          27   -0.0000   -0.0000    0.0000   -0.0000   -0.0000    0.0000    0.0000    0.0000
          28    0.0043    0.0048    0.0034   -0.0037    0.0044   -0.0043    0.0038    0.0094
          29   -0.0074   -0.0085   -0.0050    0.0055   -0.0100    0.0100   -0.0071   -0.0175
          30   -0.0000   -0.0000   -0.0000    0.0000   -0.0000    0.0000   -0.0000   -0.0000
          31   -0.0523    0.0529    0.0382    0.0389   -0.0612   -0.0552   -0.1039    0.0447
          32    0.0938   -0.0950   -0.0659   -0.0672    0.1128    0.1019    0.1856   -0.0798
          33    0.0000   -0.0000   -0.0000   -0.0000    0.0000    0.0000    0.0000   -0.0000
          34   -0.0523    0.0523   -0.0390   -0.0391   -0.0611   -0.0551    0.1039   -0.0448
          35   -0.0939    0.0941   -0.0673   -0.0676   -0.1127   -0.1017    0.1857   -0.0799
          36    0.0000   -0.0000    0.0000    0.0000    0.0000    0.0000   -0.0000    0.0000
          37    0.1290   -0.1167   -0.1567   -0.1481   -0.1065   -0.1078   -0.1086    0.0421
          38   -0.0005   -0.0001    0.0003   -0.0005   -0.0009   -0.0014   -0.0017    0.0004
          39    0.0000   -0.0000   -0.0000   -0.0000   -0.0000   -0.0000   -0.0000    0.0000
          40    0.1292   -0.1144    0.1580    0.1483   -0.1066   -0.1080    0.1087   -0.0422
          41    0.0005    0.0001    0.0003   -0.0005    0.0009    0.0013   -0.0017    0.0004
          42   -0.0000    0.0000   -0.0000   -0.0000    0.0000    0.0000   -0.0000    0.0000
          43    0.1214    0.1211   -0.1536    0.1540   -0.1011    0.1130    0.0478    0.1071
          44    0.0005   -0.0000   -0.0003   -0.0005    0.0008   -0.0014   -0.0009   -0.0014
          45   -0.0000   -0.0000    0.0000   -0.0000    0.0000   -0.0000   -0.0000   -0.0000
          46    0.1232    0.1244    0.1505   -0.1530   -0.1009    0.1128   -0.0477   -0.1069
          47   -0.0005    0.0000   -0.0003   -0.0005   -0.0008    0.0014   -0.0009   -0.0014
          48    0.0000    0.0000    0.0000   -0.0000   -0.0000    0.0000   -0.0000   -0.0000
          49   -0.0491   -0.0550    0.0379   -0.0405   -0.0585    0.0579    0.0427    0.1057
          50   -0.0881   -0.0988    0.0655   -0.0700   -0.1078    0.1069    0.0763    0.1888
          51    0.0000    0.0000   -0.0000    0.0000    0.0000   -0.0000   -0.0000   -0.0000
          52   -0.0495   -0.0557   -0.0364    0.0400   -0.0586    0.0580   -0.0427   -0.1057
          53    0.0888    0.1002    0.0628   -0.0690    0.1080   -0.1071    0.0763    0.1888
          54    0.0000    0.0000    0.0000   -0.0000    0.0000   -0.0000    0.0000    0.0000


           MASS-WEIGHTED COORDINATE ANALYSIS (NORMAL COORDINATES)


   Root No.       1         2         3         4         5         6         7         8

                 1 A       2 A       3 A       4 A       5 A       6 A       7 A       8 A   

                 162.1     164.4     339.1     395.2     432.5     466.6     523.6     524.3
  
           1   -0.0000   -0.0000    0.0001    0.4067    0.0005   -0.0000    0.0003    0.0169
           2   -0.0000    0.0000    0.0000    0.0003   -0.0000   -0.0000    0.2774   -0.0099
           3    0.0190    0.3690   -0.0004   -0.0002    0.2835    0.4540    0.0001   -0.0000
           4    0.0000   -0.0000    0.0001    0.4065    0.0005   -0.0001   -0.0013   -0.0169
           5    0.0000   -0.0000    0.0000   -0.0004    0.0000    0.0001   -0.2774    0.0104
           6    0.0191    0.3690   -0.0005    0.0004   -0.2823    0.4549    0.0000   -0.0001
           7    0.0000   -0.0000    0.0001    0.0738    0.0001    0.0001   -0.1659    0.2373
           8   -0.0000    0.0000   -0.0001   -0.2216   -0.0003    0.0000    0.2600    0.1890
           9   -0.3298    0.1899   -0.3675   -0.0001    0.1379   -0.2102   -0.0002    0.0000
          10    0.0000    0.0000    0.0000    0.0739    0.0001   -0.0000   -0.1833   -0.2247
          11    0.0000   -0.0000    0.0000    0.2220    0.0003    0.0000   -0.2457    0.2074
          12    0.3481    0.1548   -0.3676    0.0002   -0.1382   -0.2103    0.0001    0.0000
          13   -0.0000   -0.0000    0.0000    0.0743    0.0001    0.0000    0.1824    0.2223
          14   -0.0000    0.0000    0.0001    0.2225    0.0003   -0.0001    0.2444   -0.2091
          15    0.3478    0.1553    0.3677   -0.0003    0.1381   -0.2103    0.0001    0.0000
          16   -0.0000    0.0000    0.0000    0.0742    0.0001   -0.0001    0.1665   -0.2351
          17    0.0000    0.0000   -0.0001   -0.2226   -0.0002    0.0000   -0.2598   -0.1908
          18   -0.3301    0.1904    0.3674    0.0001   -0.1389   -0.2097   -0.0002    0.0000
          19    0.0000    0.0000   -0.0001   -0.2463   -0.0003    0.0001   -0.1942    0.0136
          20   -0.0000    0.0000    0.0000   -0.0754   -0.0001    0.0000    0.2653    0.3655
          21   -0.2847   -0.3095    0.1762    0.0003   -0.3150    0.0781    0.0001   -0.0000
          22    0.0000    0.0000   -0.0001   -0.2460   -0.0003    0.0000   -0.1949    0.0007
          23    0.0000   -0.0000    0.0000    0.0753    0.0001    0.0001   -0.2376    0.3839
          24    0.2511   -0.3374    0.1769   -0.0004    0.3153    0.0777   -0.0001   -0.0000
          25   -0.0000    0.0000   -0.0001   -0.2454   -0.0003   -0.0000    0.1948   -0.0022
          26   -0.0000   -0.0000    0.0000    0.0760    0.0001   -0.0001    0.2375   -0.3823
          27    0.2512   -0.3375   -0.1762    0.0004   -0.3152    0.0785   -0.0001   -0.0000
          28   -0.0000    0.0000   -0.0000   -0.2457   -0.0003    0.0000    0.1953   -0.0120
          29    0.0000   -0.0000   -0.0000   -0.0761   -0.0001    0.0000   -0.2642   -0.3640
          30   -0.2846   -0.3097   -0.1762   -0.0004    0.3156    0.0771    0.0001   -0.0000
          31   -0.0000    0.0000   -0.0001   -0.1299   -0.0002    0.0000    0.0075   -0.0378
          32   -0.0000    0.0000   -0.0000   -0.0551   -0.0001    0.0000    0.1119    0.0837
          33   -0.1757   -0.1908    0.1246    0.0003   -0.2983   -0.0174    0.0001   -0.0000
          34    0.0000    0.0000   -0.0000   -0.1299   -0.0002    0.0000    0.0103    0.0371
          35    0.0000   -0.0000    0.0000    0.0551    0.0001    0.0000   -0.1054    0.0916
          36    0.1548   -0.2079    0.1251   -0.0004    0.2977   -0.0177   -0.0001    0.0000
          37    0.0000   -0.0000    0.0000    0.0211    0.0000    0.0000   -0.0477    0.0684
          38   -0.0000    0.0000   -0.0001   -0.1611   -0.0002    0.0000    0.0424    0.0598
          39   -0.1836    0.0931   -0.2612   -0.0000    0.0502   -0.3103   -0.0001    0.0001
          40    0.0000    0.0000   -0.0000    0.0211    0.0000   -0.0000   -0.0528   -0.0648
          41    0.0000    0.0000    0.0000    0.1610    0.0002   -0.0000   -0.0380    0.0627
          42    0.1924    0.0737   -0.2611    0.0001   -0.0508   -0.3103    0.0000    0.0001
          43   -0.0000   -0.0000    0.0000    0.0213    0.0000   -0.0000    0.0525    0.0641
          44   -0.0000   -0.0000    0.0000    0.1611    0.0002   -0.0000    0.0377   -0.0629
          45    0.1922    0.0739    0.2613   -0.0002    0.0502   -0.3102    0.0000    0.0000
          46   -0.0000    0.0000    0.0000    0.0212    0.0000   -0.0000    0.0479   -0.0678
          47    0.0000   -0.0000   -0.0001   -0.1611   -0.0002    0.0000   -0.0420   -0.0599
          48   -0.1837    0.0934    0.2612   -0.0000   -0.0512   -0.3099   -0.0001    0.0000
          49    0.0000    0.0000   -0.0000   -0.1300   -0.0002    0.0000   -0.0097   -0.0367
          50   -0.0000   -0.0000    0.0000    0.0555    0.0001   -0.0000    0.1050   -0.0917
          51    0.1551   -0.2082   -0.1246    0.0004   -0.2983   -0.0171   -0.0001   -0.0000
          52   -0.0000    0.0000   -0.0000   -0.1300   -0.0001    0.0000   -0.0071    0.0373
          53    0.0000    0.0000   -0.0000   -0.0555   -0.0001    0.0000   -0.1115   -0.0838
          54   -0.1757   -0.1910   -0.1246   -0.0003    0.2984   -0.0184    0.0002    0.0000


   Root No.       9        10        11        12        13        14        15        16

                 9 A      10 A      11 A      12 A      13 A      14 A      15 A      16 A   

                 546.2     638.8     745.3     752.0     801.7     810.7     852.0     912.4
  
           1    0.0000    0.0002   -0.0000   -0.0000   -0.0001   -0.0891   -0.0000   -0.1820
           2   -0.0002    0.2558   -0.0000    0.0000    0.0000    0.0016    0.0000    0.0005
           3    0.0001   -0.0000   -0.4764   -0.0002    0.2044   -0.0001    0.0003   -0.0053
           4    0.0000   -0.0002   -0.0000    0.0000   -0.0000   -0.0892   -0.0000    0.1819
           5    0.0001    0.2552   -0.0000    0.0000    0.0000    0.0008   -0.0000    0.0008
           6    0.0006    0.0000    0.4765    0.0010    0.2039   -0.0003   -0.0001    0.0053
           7    0.0002   -0.4016   -0.0000   -0.0000   -0.0001   -0.1294   -0.0001   -0.3422
           8   -0.0001    0.0547   -0.0000    0.0000   -0.0002   -0.1634   -0.0000    0.2075
           9   -0.2479   -0.0001    0.0117    0.1318   -0.1158    0.0001    0.2008    0.0026
          10    0.0001    0.4012   -0.0000    0.0000   -0.0001   -0.1286   -0.0000    0.3428
          11    0.0001    0.0539    0.0000    0.0000    0.0001    0.1624    0.0000    0.2074
          12    0.2474   -0.0000   -0.0120    0.1317   -0.1156    0.0001   -0.2013   -0.0029
          13   -0.0002    0.4032   -0.0000    0.0000   -0.0001   -0.1277   -0.0000   -0.3426
          14   -0.0001    0.0532    0.0000   -0.0000    0.0002    0.1625    0.0000   -0.2082
          15    0.2475    0.0001    0.0119   -0.1322   -0.1149    0.0001   -0.2013    0.0027
          16   -0.0001   -0.4026   -0.0000   -0.0000   -0.0001   -0.1277    0.0000    0.3423
          17    0.0001    0.0531   -0.0000    0.0000   -0.0001   -0.1642   -0.0001   -0.2080
          18   -0.2476   -0.0000   -0.0118   -0.1321   -0.1151    0.0001    0.2012   -0.0028
          19    0.0001   -0.0309    0.0001    0.0000    0.0002    0.1926    0.0000   -0.0266
          20   -0.0001   -0.1819   -0.0001   -0.0000   -0.0003   -0.3740   -0.0000    0.0813
          21    0.2712    0.0000   -0.1252    0.1242   -0.1531    0.0002    0.1427    0.0028
          22    0.0001    0.0304    0.0001   -0.0000    0.0002    0.1914    0.0000    0.0263
          23    0.0001   -0.1828    0.0001   -0.0000    0.0003    0.3741    0.0001    0.0807
          24   -0.2711   -0.0000    0.1248    0.1237   -0.1524    0.0001   -0.1429   -0.0027
          25   -0.0001    0.0306    0.0000   -0.0000    0.0002    0.1907    0.0000   -0.0272
          26   -0.0001   -0.1845    0.0001   -0.0000    0.0003    0.3736    0.0001   -0.0810
          27   -0.2707   -0.0000   -0.1249   -0.1249   -0.1522    0.0002   -0.1432    0.0028
          28   -0.0001   -0.0305    0.0000    0.0000    0.0002    0.1927    0.0000    0.0273
          29    0.0001   -0.1843   -0.0001   -0.0000   -0.0003   -0.3734   -0.0001   -0.0808
          30    0.2708    0.0000    0.1251   -0.1245   -0.1525    0.0001    0.1431   -0.0027
          31   -0.0000    0.0658   -0.0000    0.0000   -0.0000   -0.0267   -0.0000    0.1067
          32   -0.0001   -0.0105   -0.0000    0.0000   -0.0002   -0.1556   -0.0000    0.0918
          33    0.2830    0.0000   -0.0291   -0.3720    0.4071   -0.0004   -0.2128   -0.0048
          34   -0.0000   -0.0656   -0.0000   -0.0000   -0.0000   -0.0269    0.0000   -0.1068
          35    0.0001   -0.0109    0.0001   -0.0000    0.0002    0.1555    0.0000    0.0917
          36   -0.2826   -0.0000    0.0300   -0.3717    0.4065   -0.0004    0.2133    0.0046
          37    0.0001   -0.1158   -0.0000    0.0000   -0.0001   -0.0387    0.0000   -0.1027
          38   -0.0000    0.0176    0.0000    0.0000    0.0000    0.0066    0.0000    0.1877
          39   -0.1886   -0.0000    0.3467   -0.2792    0.1670   -0.0002   -0.3784   -0.0030
          40    0.0000    0.1157   -0.0000   -0.0000   -0.0000   -0.0384    0.0000    0.1029
          41    0.0000    0.0174   -0.0000    0.0000    0.0000   -0.0066   -0.0000    0.1878
          42    0.1879    0.0000   -0.3459   -0.2796    0.1668   -0.0001    0.3792    0.0032
          43   -0.0000    0.1163   -0.0000    0.0000   -0.0000   -0.0381    0.0000   -0.1028
          44   -0.0000    0.0174    0.0000    0.0000   -0.0000   -0.0062    0.0000   -0.1879
          45    0.1880    0.0000    0.3459    0.2805    0.1655   -0.0003    0.3792   -0.0031
          46   -0.0000   -0.1161    0.0000   -0.0000   -0.0000   -0.0381    0.0000    0.1027
          47    0.0000    0.0172   -0.0000    0.0000   -0.0000    0.0063   -0.0000   -0.1876
          48   -0.1884   -0.0001   -0.3464    0.2796    0.1659    0.0000   -0.3791    0.0032
          49    0.0000   -0.0659   -0.0000    0.0000   -0.0000   -0.0271    0.0000    0.1068
          50   -0.0000   -0.0113    0.0000   -0.0000    0.0001    0.1554    0.0000   -0.0920
          51   -0.2825   -0.0001   -0.0298    0.3735    0.4053   -0.0004    0.2135   -0.0048
          52   -0.0000    0.0659   -0.0000   -0.0000   -0.0000   -0.0270    0.0000   -0.1068
          53    0.0000   -0.0112   -0.0000   -0.0000   -0.0002   -0.1556   -0.0000   -0.0919
          54    0.2824    0.0000    0.0292    0.3735    0.4055   -0.0004   -0.2133    0.0047


   Root No.      17        18        19        20        21        22        23        24

                17 A      18 A      19 A      20 A      21 A      22 A      23 A      24 A   

                 912.6     920.2     954.8     981.7    1003.4    1020.6    1087.6    1115.3
  
           1    0.0029   -0.0001   -0.0000    0.0000   -0.0000   -0.0000   -0.0001    0.0227
           2   -0.0000    0.1332    0.0000    0.0000    0.0000    0.0000   -0.0556   -0.0009
           3   -0.3376    0.0000    0.0001    0.1468    0.0007    0.2051    0.0000    0.0000
           4   -0.0028    0.0004    0.0000   -0.0000   -0.0000   -0.0000    0.0001   -0.0228
           5   -0.0000   -0.1354    0.0000    0.0000    0.0000   -0.0000   -0.0554   -0.0007
           6    0.3377   -0.0000    0.0004    0.1468   -0.0010   -0.2048   -0.0000    0.0000
           7    0.0053   -0.3521   -0.0000    0.0001    0.0000   -0.0000    0.0780   -0.1823
           8   -0.0032    0.0310    0.0000   -0.0001   -0.0000    0.0000    0.0239    0.0220
           9    0.1752   -0.0000    0.2281   -0.2628    0.1812   -0.2338    0.0000   -0.0000
          10   -0.0054   -0.3516    0.0001   -0.0001    0.0000    0.0000   -0.0781    0.1825
          11   -0.0033   -0.0295    0.0000   -0.0001   -0.0000    0.0000    0.0239    0.0219
          12   -0.1758    0.0000    0.2279   -0.2631   -0.1804    0.2331    0.0000   -0.0000
          13    0.0054    0.3522   -0.0001    0.0001   -0.0000    0.0000   -0.0770   -0.1822
          14    0.0032    0.0303   -0.0000    0.0000   -0.0000   -0.0000    0.0238   -0.0215
          15    0.1752   -0.0000   -0.2288   -0.2622   -0.1825   -0.2320   -0.0000   -0.0000
          16   -0.0053    0.3525   -0.0000   -0.0001   -0.0000    0.0000    0.0776    0.1828
          17    0.0033   -0.0292   -0.0000    0.0000   -0.0000    0.0000    0.0240   -0.0210
          18   -0.1750   -0.0000   -0.2288   -0.2622    0.1829    0.2318    0.0000   -0.0000
          19    0.0004    0.1680   -0.0000    0.0000   -0.0000   -0.0000    0.1435   -0.1864
          20   -0.0013   -0.2369    0.0001   -0.0000    0.0000   -0.0000   -0.1271    0.1528
          21    0.1781   -0.0000   -0.1749    0.1481   -0.2893    0.2583   -0.0000    0.0000
          22   -0.0004    0.1694   -0.0000   -0.0001    0.0000    0.0000   -0.1435    0.1865
          23   -0.0013    0.2368   -0.0000   -0.0000    0.0000    0.0000   -0.1271    0.1526
          24   -0.1779    0.0000   -0.1754    0.1491    0.2890   -0.2581   -0.0000    0.0000
          25    0.0004   -0.1683    0.0000    0.0000    0.0000    0.0000   -0.1426   -0.1858
          26    0.0012   -0.2382    0.0000    0.0001    0.0000   -0.0000   -0.1268   -0.1536
          27    0.1779   -0.0000    0.1756    0.1481    0.2911    0.2559    0.0000    0.0000
          28   -0.0005   -0.1704    0.0000    0.0000    0.0000   -0.0000    0.1424    0.1857
          29    0.0013    0.2379   -0.0000    0.0000   -0.0000    0.0000   -0.1263   -0.1529
          30   -0.1781    0.0000    0.1754    0.1479   -0.2913   -0.2558   -0.0000   -0.0000
          31   -0.0017    0.0904   -0.0000   -0.0000   -0.0000   -0.0000    0.2265   -0.2369
          32   -0.0014   -0.0467   -0.0000   -0.0000   -0.0000   -0.0000    0.0643   -0.0535
          33   -0.3012    0.0001    0.2588   -0.1921    0.3109   -0.2462    0.0001   -0.0000
          34    0.0017    0.0905    0.0000   -0.0000   -0.0000    0.0000   -0.2263    0.2363
          35   -0.0014    0.0469   -0.0000   -0.0000    0.0000    0.0000    0.0642   -0.0533
          36    0.3011   -0.0001    0.2597   -0.1935   -0.3109    0.2462    0.0001   -0.0000
          37    0.0016   -0.1046    0.0000    0.0000    0.0000   -0.0000    0.0237   -0.0581
          38   -0.0029    0.0993   -0.0001   -0.0000   -0.0000    0.0000    0.3874   -0.3079
          39   -0.1995   -0.0000   -0.3154    0.3338   -0.1879    0.2219   -0.0000    0.0000
          40   -0.0016   -0.1045    0.0000   -0.0000    0.0000   -0.0000   -0.0238    0.0582
          41   -0.0030   -0.0990   -0.0000    0.0000    0.0000   -0.0000    0.3873   -0.3083
          42    0.2005   -0.0000   -0.3152    0.3342    0.1871   -0.2213   -0.0000    0.0000
          43    0.0016    0.1047   -0.0000    0.0000   -0.0000    0.0000   -0.0234   -0.0581
          44    0.0030    0.0988   -0.0001   -0.0000   -0.0000   -0.0000    0.3861    0.3094
          45   -0.1996    0.0001    0.3164    0.3331    0.1892    0.2203    0.0001    0.0000
          46   -0.0016    0.1048   -0.0000   -0.0000    0.0000    0.0000    0.0236    0.0582
          47    0.0029   -0.0994   -0.0000    0.0000    0.0000   -0.0000    0.3863    0.3107
          48    0.1994    0.0001    0.3165    0.3331   -0.1896   -0.2201    0.0000    0.0000
          49   -0.0017   -0.0904    0.0000   -0.0000    0.0000   -0.0000   -0.2261   -0.2385
          50    0.0014   -0.0472   -0.0000    0.0000   -0.0000    0.0000    0.0643    0.0543
          51   -0.3007   -0.0000   -0.2598   -0.1920   -0.3127   -0.2438   -0.0001    0.0000
          52    0.0017   -0.0907   -0.0000    0.0000   -0.0000   -0.0001    0.2250    0.2364
          53    0.0014    0.0473   -0.0000    0.0000   -0.0000   -0.0000    0.0639    0.0533
          54    0.3011   -0.0000   -0.2595   -0.1919    0.3129    0.2436   -0.0000   -0.0000


   Root No.      25        26        27        28        29        30        31        32

                25 A      26 A      27 A      28 A      29 A      30 A      31 A      32 A   

                1124.1    1127.8    1156.4    1158.0    1186.7    1232.1    1302.7    1412.4
  
           1    0.1386   -0.0007   -0.0013   -0.0867    0.0002    0.2274   -0.0007    0.3978
           2    0.0005    0.0458   -0.0140    0.0003    0.2184   -0.0007    0.4385   -0.0002
           3    0.0000    0.0000   -0.0000   -0.0000   -0.0000   -0.0000   -0.0000    0.0000
           4    0.1381   -0.0008    0.0014    0.0867    0.0001    0.2271    0.0015    0.3951
           5    0.0001   -0.0457   -0.0139   -0.0000   -0.2247   -0.0005    0.4396   -0.0002
           6    0.0000   -0.0000   -0.0000   -0.0000    0.0000    0.0000   -0.0000    0.0000
           7   -0.1722    0.0571    0.0225    0.0013   -0.0093   -0.0446    0.1341   -0.2700
           8   -0.0525    0.0678   -0.0037   -0.0062    0.1193   -0.0750   -0.0528    0.1886
           9   -0.0000   -0.0000    0.0000    0.0000   -0.0000   -0.0000    0.0000   -0.0000
          10   -0.1716    0.0574   -0.0225   -0.0014   -0.0081   -0.0444   -0.1359   -0.2704
          11    0.0524   -0.0677   -0.0037   -0.0062   -0.1166    0.0756   -0.0553   -0.1876
          12    0.0000    0.0000    0.0000    0.0000    0.0000    0.0000    0.0000   -0.0000
          13   -0.1730   -0.0556   -0.0225    0.0021    0.0091   -0.0444   -0.1350   -0.2703
          14    0.0528    0.0671   -0.0035    0.0065    0.1194    0.0755   -0.0523   -0.1878
          15   -0.0000   -0.0000   -0.0000    0.0000   -0.0000   -0.0000    0.0000    0.0000
          16   -0.1720   -0.0551    0.0225   -0.0023    0.0080   -0.0448    0.1374   -0.2702
          17   -0.0534   -0.0673   -0.0035    0.0063   -0.1168   -0.0753   -0.0569    0.1887
          18    0.0000   -0.0000   -0.0000    0.0000    0.0000   -0.0000    0.0000    0.0000
          19    0.0135   -0.0133    0.0265    0.0083    0.1259   -0.1014    0.3128    0.1392
          20   -0.0292   -0.0254    0.0243   -0.0287   -0.0179   -0.0595   -0.1031    0.0867
          21    0.0000    0.0000   -0.0000   -0.0000    0.0000   -0.0000   -0.0000    0.0000
          22    0.0137   -0.0131   -0.0266   -0.0082    0.1301   -0.1004   -0.3108    0.1411
          23    0.0296    0.0255    0.0244   -0.0287    0.0178    0.0594   -0.1039   -0.0878
          24    0.0000   -0.0000   -0.0000   -0.0000   -0.0000    0.0000   -0.0000   -0.0000
          25    0.0131    0.0129   -0.0264    0.0090   -0.1258   -0.1003   -0.3080    0.1391
          26    0.0286   -0.0261    0.0250    0.0282   -0.0179    0.0595   -0.1047   -0.0872
          27    0.0000    0.0000    0.0000   -0.0000    0.0000    0.0000   -0.0000    0.0000
          28    0.0142    0.0133    0.0264   -0.0090   -0.1302   -0.1012    0.3048    0.1412
          29   -0.0292    0.0256    0.0251    0.0278    0.0178   -0.0592   -0.1006    0.0871
          30   -0.0000   -0.0000   -0.0000   -0.0000   -0.0000   -0.0000   -0.0000   -0.0000
          31    0.3580   -0.3186    0.3647   -0.3568   -0.2306    0.1229   -0.0336   -0.1492
          32    0.1858   -0.1798    0.2067   -0.2096   -0.1559    0.0688   -0.1091   -0.0777
          33    0.0000   -0.0000    0.0000    0.0000   -0.0000    0.0000   -0.0000   -0.0000
          34    0.3582   -0.3182   -0.3648    0.3569   -0.2316    0.1229    0.0304   -0.1494
          35   -0.1857    0.1797    0.2068   -0.2096    0.1572   -0.0687   -0.1073    0.0778
          36    0.0000    0.0000    0.0000    0.0000    0.0000   -0.0000    0.0000   -0.0000
          37   -0.0511    0.0147    0.0101   -0.0019   -0.0011   -0.0133    0.0455   -0.0858
          38   -0.1986    0.3299   -0.2542    0.2851   -0.3414    0.4280   -0.1108   -0.0019
          39    0.0000    0.0000   -0.0000   -0.0000    0.0000    0.0000    0.0000   -0.0000
          40   -0.0510    0.0148   -0.0101    0.0018   -0.0008   -0.0132   -0.0461   -0.0859
          41    0.1975   -0.3299   -0.2547    0.2857    0.3420   -0.4275   -0.1077    0.0029
[...]
 EFF. MASS   1.3079

 VIBRATION   29   29A         ATOM PAIR      ENERGY CONTRIBUTION    RADIAL
 FREQ.      1186.75         C  1 -- C  2          +9.9% ( 38.9%)      0.0%
 T-DIPOLE    0.0003         C  3 -- H 13          +9.4% ( 37.9%)      0.0%
 TRAVEL      0.1406         C  5 -- H 15          +9.3% ( 37.9%)      0.0%
 RED. MASS   0.1603         C  6 -- H 16          +9.3% ( 37.9%)      0.0%
 EFF. MASS   2.8750

 VIBRATION   30   30A         ATOM PAIR      ENERGY CONTRIBUTION    RADIAL
 FREQ.      1232.13         C  3 -- H 13         +13.6% ( 42.4%)      0.5%
 T-DIPOLE    0.0452         C  4 -- H 14         +13.6% ( 42.3%)      0.5%
 TRAVEL      0.1505         C  5 -- H 15         +13.6% ( 42.3%)      0.5%
 RED. MASS   0.2125         C  6 -- H 16         +13.6% ( 42.3%)      0.5%
 EFF. MASS   2.4161

 VIBRATION   31   31A         ATOM PAIR      ENERGY CONTRIBUTION    RADIAL
 FREQ.      1302.67         C  1 -- C  2         +11.9% ( 58.6%)     80.5%
 T-DIPOLE    0.3865         C  7 -- C  8         +10.5% ( 55.1%)    100.0%
 TRAVEL      0.0669         C  9 -- C 10         +10.2% ( 54.3%)    100.0%
 RED. MASS   1.4579         C  2 -- C  6          +9.4% ( 52.1%)     94.2%
 EFF. MASS  11.5720

 VIBRATION   32   32A         ATOM PAIR      ENERGY CONTRIBUTION    RADIAL
 FREQ.      1412.44         C  1 -- C  3         +12.5% ( 53.5%)     50.2%
 T-DIPOLE    0.5921         C  1 -- C  5         +12.5% ( 53.5%)     50.0%
 TRAVEL      0.0666         C  2 -- C  6         +12.4% ( 53.3%)     50.3%
 RED. MASS   1.1974         C  2 -- C  4         +12.4% ( 53.3%)     50.0%
 EFF. MASS  10.7689

 VIBRATION   33   33A         ATOM PAIR      ENERGY CONTRIBUTION    RADIAL
 FREQ.      1475.97         C  6 -- C 10         +10.6% ( 54.5%)     86.4%
 T-DIPOLE    0.4793         C  5 -- C  9         +10.4% ( 54.0%)     86.9%
 TRAVEL      0.0633         C  3 -- C  7          +9.5% ( 51.5%)     93.7%
 RED. MASS   1.3634         C  4 -- C  8          +9.4% ( 51.2%)     93.2%
 EFF. MASS  11.4053

 VIBRATION   34   34A         ATOM PAIR      ENERGY CONTRIBUTION    RADIAL
 FREQ.      1489.22         C  9 -- C 10         +12.5% ( 51.4%)    100.0%
 T-DIPOLE    0.0315         C  7 -- C  8         +12.3% ( 51.1%)    100.0%
 TRAVEL      0.0679         C  3 -- C  7          +6.8% ( 38.0%)     10.1%
 RED. MASS   0.9188         C  4 -- C  8          +6.8% ( 37.9%)     10.2%
 EFF. MASS   9.8331

 VIBRATION   35   35A         ATOM PAIR      ENERGY CONTRIBUTION    RADIAL
 FREQ.      1594.15         C  1 -- C  2         +15.9% ( 60.2%)      0.1%
 T-DIPOLE    0.0022         C  1 -- C  5          +9.0% ( 45.3%)     99.2%
 TRAVEL      0.0607         C  2 -- C  4          +8.9% ( 44.9%)     99.3%
 RED. MASS   1.5205         C  1 -- C  3          +8.8% ( 44.7%)     98.3%
 EFF. MASS  11.4791

 VIBRATION   36   36A         ATOM PAIR      ENERGY CONTRIBUTION    RADIAL
 FREQ.      1597.27         C  1 -- C  2         +16.3% ( 64.0%)     99.8%
 T-DIPOLE    0.0027         C  2 -- C  6          +9.4% ( 48.7%)     85.4%
 TRAVEL      0.0594         C  1 -- C  3          +9.2% ( 48.2%)     84.7%
 RED. MASS   1.5349         C  2 -- C  4          +9.1% ( 47.9%)     81.9%
 EFF. MASS  11.9703

 VIBRATION   37   37A         ATOM PAIR      ENERGY CONTRIBUTION    RADIAL
 FREQ.      1680.66         C  9 -- C 10         +11.6% ( 48.9%)    100.0%
 T-DIPOLE    0.3163         C  7 -- C  8         +11.5% ( 48.6%)    100.0%
 TRAVEL      0.0585         C  1 -- C  2          +6.4% ( 36.3%)     98.0%
 RED. MASS   1.4010         C  1 -- C  3          +6.2% ( 35.8%)     98.8%
 EFF. MASS  11.7199

 VIBRATION   38   38A         ATOM PAIR      ENERGY CONTRIBUTION    RADIAL
 FREQ.      1779.15         C  1 -- C  2         +17.1% ( 58.8%)    100.0%
 T-DIPOLE    0.0033         C  9 -- C 10          +7.4% ( 38.7%)    100.0%
 TRAVEL      0.0565         C  2 -- C  6          +7.4% ( 38.6%)      9.4%
 RED. MASS   1.6155         C  1 -- C  5          +7.4% ( 38.6%)     10.3%
 EFF. MASS  11.8926

 VIBRATION   39   39A         ATOM PAIR      ENERGY CONTRIBUTION    RADIAL
 FREQ.      1798.27         C  5 -- C  9         +10.9% ( 46.6%)     97.7%
 T-DIPOLE    0.3792         C  3 -- C  7         +10.8% ( 46.2%)     97.6%
 TRAVEL      0.0564         C  4 -- C  8         +10.7% ( 46.1%)     97.5%
 RED. MASS   1.4103         C  6 -- C 10         +10.5% ( 45.7%)     97.4%
 EFF. MASS  11.8037

 VIBRATION   40   40A         ATOM PAIR      ENERGY CONTRIBUTION    RADIAL
 FREQ.      1830.93         C  1 -- C  5          +9.3% ( 43.1%)     71.4%
 T-DIPOLE    0.0032         C  1 -- C  3          +9.2% ( 43.0%)     71.7%
 TRAVEL      0.0558         C  2 -- C  4          +9.0% ( 42.6%)     71.5%
 RED. MASS   1.3198         C  2 -- C  6          +9.0% ( 42.5%)     71.7%
 EFF. MASS  11.8326

 VIBRATION   41   41A         ATOM PAIR      ENERGY CONTRIBUTION    RADIAL
 FREQ.      3050.56         C  4 -- H 14         +15.2% ( 39.6%)    100.0%
 T-DIPOLE    0.3367         C  3 -- H 13         +15.2% ( 39.6%)    100.0%
 TRAVEL      0.1216         C  6 -- H 16         +13.8% ( 37.8%)    100.0%
 RED. MASS   0.1207         C  5 -- H 15         +13.4% ( 37.2%)    100.0%
 EFF. MASS   1.4948         C  8 -- H 12         +10.5% ( 33.0%)    100.0%
                            C  7 -- H 11         +10.5% ( 33.0%)    100.0%

 VIBRATION   42   42A         ATOM PAIR      ENERGY CONTRIBUTION    RADIAL
 FREQ.      3051.42         C  6 -- H 16         +14.2% ( 38.3%)    100.0%
 T-DIPOLE    0.0100         C  5 -- H 15         +13.4% ( 37.3%)    100.0%
 TRAVEL      0.1219         C  3 -- H 13         +12.5% ( 35.9%)    100.0%
 RED. MASS   0.1173         C 10 -- H 18         +12.1% ( 35.3%)    100.0%
 EFF. MASS   1.4873         C  4 -- H 14         +12.0% ( 35.2%)    100.0%
                            C  9 -- H 17         +11.7% ( 34.8%)    100.0%
                            C  7 -- H 11         +10.9% ( 33.5%)    100.0%
                            C  8 -- H 12         +10.6% ( 33.2%)    100.0%

 VIBRATION   43   43A         ATOM PAIR      ENERGY CONTRIBUTION    RADIAL
 FREQ.      3052.54         C  4 -- H 14         +20.5% ( 46.0%)    100.0%
 T-DIPOLE    0.0054         C  3 -- H 13         +20.1% ( 45.6%)    100.0%
 TRAVEL      0.1217         C  5 -- H 15         +19.4% ( 44.7%)    100.0%
 RED. MASS   0.1607         C  6 -- H 16         +18.6% ( 43.8%)    100.0%
 EFF. MASS   1.4917

 VIBRATION   44   44A         ATOM PAIR      ENERGY CONTRIBUTION    RADIAL
 FREQ.      3053.94         C  5 -- H 15         +19.9% ( 45.3%)    100.0%
 T-DIPOLE    0.2944         C  6 -- H 16         +19.6% ( 45.0%)    100.0%
 TRAVEL      0.1218         C  4 -- H 14         +18.4% ( 43.6%)    100.0%
 RED. MASS   0.1543         C  3 -- H 13         +18.4% ( 43.5%)    100.0%
 EFF. MASS   1.4873

 VIBRATION   45   45A         ATOM PAIR      ENERGY CONTRIBUTION    RADIAL
 FREQ.      3064.22         C  7 -- H 11         +15.0% ( 39.4%)     99.9%
 T-DIPOLE    0.6455         C  8 -- H 12         +15.0% ( 39.3%)     99.9%
 TRAVEL      0.1192         C 10 -- H 18         +13.7% ( 37.7%)     99.9%
 RED. MASS   0.1207         C  9 -- H 17         +13.7% ( 37.6%)     99.9%
 EFF. MASS   1.5487         C  4 -- H 14         +10.3% ( 32.7%)    100.0%
                            C  3 -- H 13         +10.3% ( 32.6%)    100.0%

 VIBRATION   46   46A         ATOM PAIR      ENERGY CONTRIBUTION    RADIAL
 FREQ.      3065.03         C 10 -- H 18         +13.6% ( 37.5%)     99.9%
 T-DIPOLE    0.0156         C  9 -- H 17         +13.6% ( 37.5%)     99.9%
 TRAVEL      0.1192         C  7 -- H 11         +12.3% ( 35.7%)     99.9%
 RED. MASS   0.1172         C  8 -- H 12         +12.3% ( 35.6%)     99.9%
 EFF. MASS   1.5477         C  5 -- H 15         +11.7% ( 34.7%)    100.0%
                            C  6 -- H 16         +11.7% ( 34.7%)    100.0%
                            C  4 -- H 14         +10.7% ( 33.2%)    100.0%
                            C  3 -- H 13         +10.7% ( 33.2%)    100.0%

 VIBRATION   47   47A         ATOM PAIR      ENERGY CONTRIBUTION    RADIAL
 FREQ.      3076.11         C  8 -- H 12         +32.6% ( 57.9%)    100.0%
 T-DIPOLE    0.5913         C  7 -- H 11         +32.5% ( 57.8%)    100.0%
 TRAVEL      0.1173         C  4 -- H 14          +8.5% ( 29.6%)     99.9%
 RED. MASS   0.2333         C  3 -- H 13          +8.5% ( 29.6%)     99.9%
 EFF. MASS   1.5941

 VIBRATION   48   48A         ATOM PAIR      ENERGY CONTRIBUTION    RADIAL
 FREQ.      3076.22         C  9 -- H 17         +33.0% ( 58.2%)    100.0%
 T-DIPOLE    0.2432         C 10 -- H 18         +33.0% ( 58.2%)    100.0%
 TRAVEL      0.1174         C  5 -- H 15          +8.1% ( 28.9%)     99.9%
 RED. MASS   0.2380         C  6 -- H 16          +8.1% ( 28.8%)     99.9%
 EFF. MASS   1.5916

      SYMMETRY NUMBER FOR POINT-GROUP C1  =  1


          SYSTEM IS A GROUND STATE



 InChI=1S/C10H8/c1-2-6-10-8-4-3-7-9(10)5-1/h1-8H


          MOLECULE IS NOT LINEAR

          THERE ARE 48 GENUINE VIBRATIONS IN THIS SYSTEM
          THIS THERMODYNAMICS CALCULATION IS LIMITED TO
          MOLECULES WHICH HAVE NO INTERNAL ROTATIONS




                    CALCULATED THERMODYNAMIC PROPERTIES
                                          *
   TEMP. (K)   PARTITION FUNCTION   H.O.F.    ENTHALPY  HEAT CAPACITY ENTROPY
                                   KCAL/MOL   CAL/MOLE    CAL/K/MOL  CAL/K/MOL


 298.00  VIB.     0.1039D+02                  2585.7912    22.9485    13.3290
         ROT.     0.4667D+06                   888.2813     2.9808    28.9207
         INT.     0.4849D+07                  3474.0725    25.9293    42.2497
         TRA.     0.1403D+28                  1480.4688     4.9680    40.4556
         TOT.                       40.561    4954.5413    30.8973    82.7053

 200.00  VIB.     0.2931D+01                   873.4666    12.1620     6.5043
         ROT.     0.2566D+06                   596.1620     2.9808    27.7320
         INT.     0.7521D+06                  1469.6286    15.1428    34.2363
         TRA.     0.7713D+27                   993.6033     4.9680    38.4745
         TOT.                       38.070    2463.2318    20.1108    72.7108

 210.00  VIB.     0.3278D+01                  1000.2536    13.1994     7.1227
         ROT.     0.2761D+06                   625.9700     2.9808    27.8775
         INT.     0.9051D+06                  1626.2237    16.1803    35.0002
         TRA.     0.8299D+27                  1043.2834     4.9680    38.7169
         TOT.                       38.276    2669.5071    21.1483    73.7171

 220.00  VIB.     0.3683D+01                  1137.5308    14.2595     7.7611
         ROT.     0.2960D+06                   655.7781     2.9808    28.0161
         INT.     0.1090D+07                  1793.3090    17.2403    35.7772
         TRA.     0.8899D+27                  1092.9636     4.9680    38.9480
         TOT.                       38.493    2886.2725    22.2083    74.7253

 230.00  VIB.     0.4153D+01                  1285.5082    15.3389     8.4187
         ROT.     0.3165D+06                   685.5862     2.9808    28.1486
         INT.     0.1314D+07                  1971.0944    18.3198    36.5674
         TRA.     0.9512D+27                  1142.6437     4.9680    39.1689
         TOT.                       38.720    3113.7382    23.2878    75.7362

 240.00  VIB.     0.4703D+01                  1444.3638    16.4346     9.0946
         ROT.     0.3373D+06                   715.3943     2.9808    28.2755
         INT.     0.1586D+07                  2159.7581    19.4154    37.3701
         TRA.     0.1014D+28                  1192.3239     4.9680    39.3803
         TOT.                       38.959    3352.0820    24.3834    76.7504

 250.00  VIB.     0.5345D+01                  1614.2434    17.5432     9.7880
         ROT.     0.3586D+06                   745.2024     2.9808    28.3972
         INT.     0.1917D+07                  2359.4458    20.5240    38.1851
         TRA.     0.1078D+28                  1242.0041     4.9680    39.5831
         TOT.                       39.208    3601.4499    25.4920    77.7682

 260.00  VIB.     0.6098D+01                  1795.2607    18.6616    10.4978
         ROT.     0.3803D+06                   775.0105     2.9808    28.5141
         INT.     0.2320D+07                  2570.2712    21.6424    39.0119
         TRA.     0.1143D+28                  1291.6842     4.9680    39.7779
         TOT.                       39.469    3861.9555    26.6104    78.7898

 270.00  VIB.     0.6983D+01                  1987.4981    19.7867    11.2232
         ROT.     0.4025D+06                   804.8186     2.9808    28.6266
         INT.     0.2811D+07                  2792.3168    22.7675    39.8497
         TRA.     0.1210D+28                  1341.3644     4.9680    39.9654
         TOT.                       39.740    4133.6812    27.7356    79.8152

 280.00  VIB.     0.8024D+01                  2191.0080    20.9156    11.9632
         ROT.     0.4251D+06                   834.6267     2.9808    28.7350
         INT.     0.3411D+07                  3025.6348    23.8964    40.6981
         TRA.     0.1278D+28                  1391.0445     4.9680    40.1461
         TOT.                       40.023    4416.6793    28.8645    80.8443

 290.00  VIB.     0.9251D+01                  2405.8141    22.0455    12.7168
         ROT.     0.4480D+06                   864.4348     2.9808    28.8396
         INT.     0.4145D+07                  3270.2490    25.0263    41.5564
         TRA.     0.1347D+28                  1440.7247     4.9680    40.3205
         TOT.                       40.318    4710.9737    29.9944    81.8769

 300.00  VIB.     0.1070D+02                  2631.9135    23.1739    13.4832
         ROT.     0.4714D+06                   894.2429     2.9808    28.9406
         INT.     0.5044D+07                  3526.1565    26.1547    42.4239
         TRA.     0.1417D+28                  1490.4049     4.9680    40.4889
         TOT.                       40.623    5016.5613    31.1227    82.9127

 310.00  VIB.     0.1242D+02                  2869.2785    24.2983    14.2614
         ROT.     0.4952D+06                   924.0510     2.9808    29.0384
         INT.     0.6148D+07                  3793.3296    27.2791    43.2998
         TRA.     0.1488D+28                  1540.0850     4.9680    40.6518
         TOT.                       40.940    5333.4146    32.2471    83.9516

 320.00  VIB.     0.1445D+02                  3117.8588    25.4166    15.0506
         ROT.     0.5193D+06                   953.8591     2.9808    29.1330
         INT.     0.7504D+07                  4071.7179    28.3974    44.1836
         TRA.     0.1561D+28                  1589.7652     4.9680    40.8095
         TOT.                       41.268    5661.4831    33.3654    84.9931

 330.00  VIB.     0.1687D+02                  3377.5835    26.5269    15.8497
         ROT.     0.5439D+06                   983.6672     2.9808    29.2247
         INT.     0.9173D+07                  4361.2508    29.5077    45.0744
         TRA.     0.1635D+28                  1639.4454     4.9680    40.9624
         TOT.                       41.607    6000.6961    34.4757    86.0368

 340.00  VIB.     0.1974D+02                  3648.3635    27.6274    16.6580
         ROT.     0.5688D+06                  1013.4753     2.9808    29.3137
         INT.     0.1123D+08                  4661.8388    30.6082    45.9717
         TRA.     0.1710D+28                  1689.1255     4.9680    41.1107
         TOT.                       41.958    6350.9643    35.5762    87.0824

 350.00  VIB.     0.2317D+02                  3930.0932    28.7166    17.4746
         ROT.     0.5940D+06                  1043.2834     2.9808    29.4001
         INT.     0.1377D+08                  4973.3766    31.6974    46.8747
         TRA.     0.1786D+28                  1738.8057     4.9680    41.2547
         TOT.                       42.319    6712.1823    36.6654    88.1294

 360.00  VIB.     0.2727D+02                  4222.6528    29.7931    18.2986
         ROT.     0.6197D+06                  1073.0915     2.9808    29.4841
         INT.     0.1690D+08                  5295.7443    32.7740    47.7828
         TRA.     0.1863D+28                  1788.4859     4.9680    41.3947
         TOT.                       42.691    7084.2301    37.7420    89.1774

 370.00  VIB.     0.3216D+02                  4525.9102    30.8560    19.1295
         ROT.     0.6457D+06                  1102.8996     2.9808    29.5658
         INT.     0.2077D+08                  5628.8098    33.8368    48.6953
         TRA.     0.1941D+28                  1838.1660     4.9680    41.5308
         TOT.                       43.074    7466.9758    38.8048    90.2260

 380.00  VIB.     0.3803D+02                  4839.7227    31.9040    19.9663
         ROT.     0.6720D+06                  1132.7077     2.9808    29.6453
         INT.     0.2556D+08                  5972.4304    34.8848    49.6116
         TRA.     0.2020D+28                  1887.8462     4.9680    41.6633
         TOT.                       43.467    7860.2766    39.8528    91.2748

 390.00  VIB.     0.4507D+02                  5163.9387    32.9365    20.8084
         ROT.     0.6987D+06                  1162.5158     2.9808    29.7227
         INT.     0.3149D+08                  6326.4545    35.9173    50.5311
         TRA.     0.2100D+28                  1937.5263     4.9680    41.7923
         TOT.                       43.871    8263.9808    40.8854    92.3234

 400.00  VIB.     0.5352D+02                  5498.3992    33.9528    21.6551
         ROT.     0.7258D+06                  1192.3239     2.9808    29.7982
         INT.     0.3884D+08                  6690.7231    36.9336    51.4533
         TRA.     0.2182D+28                  1987.2065     4.9680    41.9181
         TOT.                       44.285    8677.9296    41.9016    93.3714

   *: NOTE: HEATS OF FORMATION ARE RELATIVE TO THE
            ELEMENTS IN THEIR STANDARD STATE AT 298K
              (=  Standard Enthalpy of Formation).

            Hvib:  Zero-point energy is not included.
                   frequencies of less than zero cm-1 are not included.
            Hrot = (3/2)RT
            Htra = (3/2)RT + pV = (5/2)RT

            Heat capacity is Cp, not Cv

          For more information, see: HTTP://OpenMOPAC.net/Manual/thermochemistry.html


           FORCE CONSTANT IN CARTESIAN COORDINATES (Millidynes/A)

    ATOM   CHEMICAL       X               Y               Z
   NUMBER   SYMBOL  FORCE CONSTANT  FORCE CONSTANT  FORCE CONSTANT

      1       C       12.599992       13.067704        2.661501
      2       C       12.616434       13.013406        2.661181
      3       C       11.923640       12.702945        2.321956
      4       C       11.923278       12.705340        2.318589
      5       C       11.923709       12.711728        2.318395
      6       C       11.923217       12.662452        2.318676
      7       C       11.658422       12.915557        2.311691
      8       C       11.656923       12.915116        2.310869
      9       C       11.724533       12.931381        2.310790
     10       C       11.662257       12.931140        2.310670
     11       H        1.799219        4.118586        0.353474
     12       H        1.799387        4.118445        0.353828
     13       H        5.132951        0.778030        0.351633
     14       H        5.133028        0.778027        0.351637
     15       H        5.133178        0.777970        0.351630
     16       H        5.133073        0.777980        0.351666
     17       H        1.799378        4.118528        0.353466
     18       H        1.799268        4.118688        0.353447

 **********************
 *                    *
 * JOB ENDED NORMALLY *
 *                    *
 **********************



 TOTAL JOB TIME:             4.21 SECONDS

 == MOPAC DONE ==
