 *******************************************************************************
 ** Site#: 14399        For non-commercial use only    Version 18.184L 64BITS **
 *******************************************************************************
 ** Cite this program as: MOPAC2016, Version: 18.184L, James J. P. Stewart,   **
 ** Stewart Computational Chemistry, web: HTTP://OpenMOPAC.net. Days left:  20**
 *******************************************************************************
 **                                                                           **
 **                                MOPAC2016                                  **
 **                                                                           **
 *******************************************************************************

                              PM3 CALCULATION RESULTS

 *******************************************************************************
 *  CALCULATION DONE:                                Thu Jun 13 19:02:55 2019  *
 *  PM3        - The PM3 Hamiltonian to be used
 *  PRECISE    - CRITERIA TO BE INCREASED BY 100 TIMES
 *  NOSYM      - POINT-GROUP SYMMETRY SET TO C1
 *  THREADS=1  - MULTI-THREADING NOT USED
 *  T=         - A TIME OF 172800.0 SECONDS REQUESTED
 *  DUMP=N     - RESTART FILE WRITTEN EVERY  7200.000 SECONDS
 *******************************************************************************
pm3  precise nosym THREADS=1
 InChI=1S/C7H10/c1-7-5-3-2-4-6-7/h2,6-7H,3,5H2,1H3

   ATOM   CHEMICAL          X               Y               Z
  NUMBER   SYMBOL      (ANGSTROMS)     (ANGSTROMS)     (ANGSTROMS)
 
     1       C          0.74870000  *   0.12790000  *   0.42240000  *
     2       C         -0.17320000  *  -1.01830000  *  -0.17360000  *
     3       C         -1.72190000  *  -0.72160000  *  -0.07030000  *
     4       C          2.18750000  *  -0.02360000  *  -0.07310000  *
     5       C          0.22690000  *   1.51990000  *   0.09610000  *
     6       C         -2.06140000  *   0.72990000  *  -0.35250000  *
     7       C         -1.02670000  *   1.47240000  *  -0.18240000  *
     8       H          0.75320000  *   0.02310000  *   1.52990000  *
     9       H          0.05190000  *  -1.98060000  *   0.33460000  *
    10       H          0.06920000  *  -1.14830000  *  -1.25160000  *
    11       H         -2.26880000  *  -1.37020000  *  -0.78690000  *
    12       H         -2.07120000  *  -0.97110000  *   0.95470000  *
    13       H          2.83980000  *   0.73670000  *   0.40750000  *
    14       H          2.57540000  *  -1.03120000  *   0.18810000  *
    15       H          2.23640000  *   0.10650000  *  -1.17570000  *
    16       H          0.70300000  *   2.42660000  *   0.44560000  *
    17       H         -3.06880000  *   1.12180000  *  -0.31280000  *
 


          CARTESIAN COORDINATES 

    NO.       ATOM           X           Y           Z

     1         C          0.7487      0.1279      0.4224
     2         C         -0.1732     -1.0183     -0.1736
     3         C         -1.7219     -0.7216     -0.0703
     4         C          2.1875     -0.0236     -0.0731
     5         C          0.2269      1.5199      0.0961
     6         C         -2.0614      0.7299     -0.3525
     7         C         -1.0267      1.4724     -0.1824
     8         H          0.7532      0.0231      1.5299
     9         H          0.0519     -1.9806      0.3346
    10         H          0.0692     -1.1483     -1.2516
    11         H         -2.2688     -1.3702     -0.7869
    12         H         -2.0712     -0.9711      0.9547
    13         H          2.8398      0.7367      0.4075
    14         H          2.5754     -1.0312      0.1881
    15         H          2.2364      0.1065     -1.1757
    16         H          0.7030      2.4266      0.4456
    17         H         -3.0688      1.1218     -0.3128

  H: (PM3): J. J. P. STEWART, J. COMP. CHEM. 10, 209 (1989).
  C: (PM3): J. J. P. STEWART, J. COMP. CHEM. 10, 209 (1989).

           Empirical Formula: C7 H10  =    17 atoms



      MOLECULAR POINT GROUP   :   C1  


      RHF CALCULATION, NO. OF DOUBLY OCCUPIED LEVELS = 19


          Geometry optimization using EF

          DIAGONAL MATRIX USED AS START HESSIAN

 CYCLE:     1 TIME:   0.023 TIME LEFT:  2.00D  GRAD.:   147.923 HEAT:  100.9480
 CYCLE:     2 TIME:   0.031 TIME LEFT:  2.00D  GRAD.:   174.687 HEAT:  97.72588
 CYCLE:     3 TIME:   0.016 TIME LEFT:  2.00D  GRAD.:   140.364 HEAT:  90.78030
 CYCLE:     4 TIME:   0.031 TIME LEFT:  2.00D  GRAD.:   158.162 HEAT:  88.55505
 CYCLE:     5 TIME:   0.023 TIME LEFT:  2.00D  GRAD.:   109.281 HEAT:  84.19869
 CYCLE:     6 TIME:   0.031 TIME LEFT:  2.00D  GRAD.:   102.375 HEAT:  82.10874
 CYCLE:     7 TIME:   0.023 TIME LEFT:  2.00D  GRAD.:    70.689 HEAT:  80.09480
 CYCLE:     8 TIME:   0.023 TIME LEFT:  2.00D  GRAD.:   107.004 HEAT:  79.98960
 CYCLE:     9 TIME:   0.023 TIME LEFT:  2.00D  GRAD.:   132.117 HEAT:  79.98187
 CYCLE:    10 TIME:   0.023 TIME LEFT:  2.00D  GRAD.:   121.781 HEAT:  79.05893
 CYCLE:    11 TIME:   0.023 TIME LEFT:  2.00D  GRAD.:   106.149 HEAT:  77.15647
 CYCLE:    12 TIME:   0.031 TIME LEFT:  2.00D  GRAD.:    52.540 HEAT:  74.72576
 CYCLE:    13 TIME:   0.031 TIME LEFT:  2.00D  GRAD.:    58.645 HEAT:  74.46564
 CYCLE:    14 TIME:   0.016 TIME LEFT:  2.00D  GRAD.:    38.144 HEAT:  72.97303
 CYCLE:    15 TIME:   0.023 TIME LEFT:  2.00D  GRAD.:    41.841 HEAT:  72.17818
 CYCLE:    16 TIME:   0.031 TIME LEFT:  2.00D  GRAD.:    34.834 HEAT:  70.85908
 CYCLE:    17 TIME:   0.016 TIME LEFT:  2.00D  GRAD.:    46.835 HEAT:  69.94937
 CYCLE:    18 TIME:   0.031 TIME LEFT:  2.00D  GRAD.:    52.146 HEAT:  69.12169
 CYCLE:    19 TIME:   0.023 TIME LEFT:  2.00D  GRAD.:    49.537 HEAT:  68.30061
 CYCLE:    20 TIME:   0.023 TIME LEFT:  2.00D  GRAD.:    40.015 HEAT:  67.58105
 CYCLE:    21 TIME:   0.023 TIME LEFT:  2.00D  GRAD.:    42.989 HEAT:  67.43019
 CYCLE:    22 TIME:   0.023 TIME LEFT:  2.00D  GRAD.:    33.677 HEAT:  67.11720
 CYCLE:    23 TIME:   0.016 TIME LEFT:  2.00D  GRAD.:    34.592 HEAT:  66.80471
 CYCLE:    24 TIME:   0.023 TIME LEFT:  2.00D  GRAD.:    20.919 HEAT:  66.38041
 CYCLE:    25 TIME:   0.023 TIME LEFT:  2.00D  GRAD.:    16.399 HEAT:  66.16473
 CYCLE:    26 TIME:   0.023 TIME LEFT:  2.00D  GRAD.:    18.105 HEAT:  65.89089
 CYCLE:    27 TIME:   0.023 TIME LEFT:  2.00D  GRAD.:    12.687 HEAT:  65.56194
 CYCLE:    28 TIME:   0.023 TIME LEFT:  2.00D  GRAD.:    10.792 HEAT:  65.37291
 CYCLE:    29 TIME:   0.023 TIME LEFT:  2.00D  GRAD.:     7.460 HEAT:  65.24699
 CYCLE:    30 TIME:   0.023 TIME LEFT:  2.00D  GRAD.:     7.398 HEAT:  65.11148
 CYCLE:    31 TIME:   0.023 TIME LEFT:  2.00D  GRAD.:     8.941 HEAT:  65.02153
 CYCLE:    32 TIME:   0.016 TIME LEFT:  2.00D  GRAD.:     8.503 HEAT:  64.88943
 CYCLE:    33 TIME:   0.023 TIME LEFT:  2.00D  GRAD.:     8.660 HEAT:  64.69485
 CYCLE:    34 TIME:   0.023 TIME LEFT:  2.00D  GRAD.:     8.536 HEAT:  64.56497
 CYCLE:    35 TIME:   0.023 TIME LEFT:  2.00D  GRAD.:     6.975 HEAT:  64.45720
 CYCLE:    36 TIME:   0.023 TIME LEFT:  2.00D  GRAD.:     7.842 HEAT:  64.33055
 CYCLE:    37 TIME:   0.023 TIME LEFT:  2.00D  GRAD.:    10.244 HEAT:  64.19567
 CYCLE:    38 TIME:   0.023 TIME LEFT:  2.00D  GRAD.:    10.483 HEAT:  64.02322
 CYCLE:    39 TIME:   0.023 TIME LEFT:  2.00D  GRAD.:     9.292 HEAT:  63.83870
 CYCLE:    40 TIME:   0.023 TIME LEFT:  2.00D  GRAD.:     8.482 HEAT:  63.73979
 CYCLE:    41 TIME:   0.023 TIME LEFT:  2.00D  GRAD.:    11.740 HEAT:  63.72103
 CYCLE:    42 TIME:   0.023 TIME LEFT:  2.00D  GRAD.:     5.755 HEAT:  63.64895
 CYCLE:    43 TIME:   0.023 TIME LEFT:  2.00D  GRAD.:     3.712 HEAT:  63.61909
 CYCLE:    44 TIME:   0.023 TIME LEFT:  2.00D  GRAD.:     4.906 HEAT:  63.56487
 CYCLE:    45 TIME:   0.016 TIME LEFT:  2.00D  GRAD.:     5.783 HEAT:  63.49589
 CYCLE:    46 TIME:   0.023 TIME LEFT:  2.00D  GRAD.:     5.766 HEAT:  63.45846
 CYCLE:    47 TIME:   0.023 TIME LEFT:  2.00D  GRAD.:     4.097 HEAT:  63.41419
 CYCLE:    48 TIME:   0.023 TIME LEFT:  2.00D  GRAD.:     3.542 HEAT:  63.36949
 CYCLE:    49 TIME:   0.023 TIME LEFT:  2.00D  GRAD.:     3.642 HEAT:  63.34486
 CYCLE:    50 TIME:   0.023 TIME LEFT:  2.00D  GRAD.:     2.658 HEAT:  63.32775
 CYCLE:    51 TIME:   0.023 TIME LEFT:  2.00D  GRAD.:     3.571 HEAT:  63.31709
 CYCLE:    52 TIME:   0.023 TIME LEFT:  2.00D  GRAD.:     2.219 HEAT:  63.30659
 CYCLE:    53 TIME:   0.023 TIME LEFT:  2.00D  GRAD.:     2.316 HEAT:  63.29659
 CYCLE:    54 TIME:   0.023 TIME LEFT:  2.00D  GRAD.:     1.670 HEAT:  63.28873
 CYCLE:    55 TIME:   0.023 TIME LEFT:  2.00D  GRAD.:     1.753 HEAT:  63.28302
 CYCLE:    56 TIME:   0.023 TIME LEFT:  2.00D  GRAD.:     1.658 HEAT:  63.27650
 CYCLE:    57 TIME:   0.023 TIME LEFT:  2.00D  GRAD.:     1.583 HEAT:  63.27064
 CYCLE:    58 TIME:   0.023 TIME LEFT:  2.00D  GRAD.:     1.306 HEAT:  63.26672
 CYCLE:    59 TIME:   0.016 TIME LEFT:  2.00D  GRAD.:     1.289 HEAT:  63.26525
 CYCLE:    60 TIME:   0.023 TIME LEFT:  2.00D  GRAD.:     1.019 HEAT:  63.26369
 CYCLE:    61 TIME:   0.023 TIME LEFT:  2.00D  GRAD.:     0.847 HEAT:  63.26234
 CYCLE:    62 TIME:   0.023 TIME LEFT:  2.00D  GRAD.:     0.813 HEAT:  63.26038
 CYCLE:    63 TIME:   0.023 TIME LEFT:  2.00D  GRAD.:     0.780 HEAT:  63.25898
 CYCLE:    64 TIME:   0.023 TIME LEFT:  2.00D  GRAD.:     0.856 HEAT:  63.25774
 CYCLE:    65 TIME:   0.023 TIME LEFT:  2.00D  GRAD.:     0.683 HEAT:  63.25679
 CYCLE:    66 TIME:   0.023 TIME LEFT:  2.00D  GRAD.:     0.618 HEAT:  63.25587
 CYCLE:    67 TIME:   0.023 TIME LEFT:  2.00D  GRAD.:     0.409 HEAT:  63.25532
 CYCLE:    68 TIME:   0.023 TIME LEFT:  2.00D  GRAD.:     0.501 HEAT:  63.25493
 CYCLE:    69 TIME:   0.023 TIME LEFT:  2.00D  GRAD.:     0.479 HEAT:  63.25459
 CYCLE:    70 TIME:   0.023 TIME LEFT:  2.00D  GRAD.:     0.559 HEAT:  63.25415
 CYCLE:    71 TIME:   0.023 TIME LEFT:  2.00D  GRAD.:     0.572 HEAT:  63.25344
 CYCLE:    72 TIME:   0.023 TIME LEFT:  2.00D  GRAD.:     0.678 HEAT:  63.25284
 CYCLE:    73 TIME:   0.023 TIME LEFT:  2.00D  GRAD.:     0.803 HEAT:  63.25187
 CYCLE:    74 TIME:   0.023 TIME LEFT:  2.00D  GRAD.:     0.712 HEAT:  63.25117
 CYCLE:    75 TIME:   0.023 TIME LEFT:  2.00D  GRAD.:     0.957 HEAT:  63.25049
 CYCLE:    76 TIME:   0.023 TIME LEFT:  2.00D  GRAD.:     0.423 HEAT:  63.24976
 CYCLE:    77 TIME:   0.016 TIME LEFT:  2.00D  GRAD.:     0.322 HEAT:  63.24956
 CYCLE:    78 TIME:   0.023 TIME LEFT:  2.00D  GRAD.:     0.387 HEAT:  63.24933
 CYCLE:    79 TIME:   0.023 TIME LEFT:  2.00D  GRAD.:     0.130 HEAT:  63.24924
 CYCLE:    80 TIME:   0.023 TIME LEFT:  2.00D  GRAD.:     0.097 HEAT:  63.24922
 CYCLE:    81 TIME:   0.023 TIME LEFT:  2.00D  GRAD.:     0.246 HEAT:  63.24924
 CYCLE:    82 TIME:   0.023 TIME LEFT:  2.00D  GRAD.:     0.088 HEAT:  63.24919
 CYCLE:    83 TIME:   0.023 TIME LEFT:  2.00D  GRAD.:     0.063 HEAT:  63.24918
 CYCLE:    84 TIME:   0.023 TIME LEFT:  2.00D  GRAD.:     0.053 HEAT:  63.24917
 CYCLE:    85 TIME:   0.023 TIME LEFT:  2.00D  GRAD.:     0.067 HEAT:  63.24916
 CYCLE:    86 TIME:   0.023 TIME LEFT:  2.00D  GRAD.:     0.045 HEAT:  63.24916

     GRADIENT =  0.04519  IS LESS THAN CUTOFF =  0.05000



 -------------------------------------------------------------------------------
 pm3  precise nosym THREADS=1
 InChI=1S/C7H10/c1-7-5-3-2-4-6-7/h2,6-7H,3,5H2,1H3



     GEOMETRY OPTIMISED USING EIGENVECTOR FOLLOWING (EF).     
     SCF FIELD WAS ACHIEVED                                   


                              PM3 CALCULATION
                                                       MOPAC2016 (Version: 18.184L)
                                                       Thu Jun 13 19:02:57 2019
                                                       No. of days remaining =  20




          FINAL HEAT OF FORMATION =         63.24916 KCAL/MOL =     264.63448 KJ/MOL


          TOTAL ENERGY            =       -981.06695 EV
          ELECTRONIC ENERGY       =      -4616.04193 EV  POINT GROUP:     C1  
          CORE-CORE REPULSION     =       3634.97497 EV
          COSMO AREA              =        141.20 SQUARE ANGSTROMS
          COSMO VOLUME            =        137.78 CUBIC ANGSTROMS

          GRADIENT NORM           =          0.04519 = 0.01096 PER ATOM
          IONIZATION POTENTIAL    =          9.057828 EV
          HOMO LUMO ENERGIES (EV) =         -9.058 -0.178
          NO. OF FILLED LEVELS    =         19
          MOLECULAR WEIGHT        =         94.1560

          MOLECULAR DIMENSIONS (Angstroms)

            Atom       Atom       Distance
            H    13    H    11     5.35152
            H     9    H    17     4.21156
            H    16    H    14     3.95784


          SCF CALCULATIONS        =         90
 
          WALL-CLOCK TIME         =          2.055 SECONDS
          COMPUTATION TIME        =          0.676 SECONDS




   ATOM   CHEMICAL          X               Y               Z
  NUMBER   SYMBOL      (ANGSTROMS)     (ANGSTROMS)     (ANGSTROMS)
 
     1       C          0.81083212  *   0.06327372  *   0.52635483  *
     2       C         -0.24064383  *  -1.05143213  *   0.22309662  *
     3       C         -1.70399316  *  -0.62644657  *  -0.06934285  *
     4       C          1.88137026  *   0.11926527  *  -0.54852819  *
     5       C          0.13014484  *   1.40145671  *   0.70176056  *
     6       C         -1.69265600  *   0.70250787  *  -0.77139413  *
     7       C         -0.88557037  *   1.51917943  *  -0.12565573  *
     8       H          1.29727014  *  -0.18385657  *   1.49990427  *
     9       H         -0.25681612  *  -1.75226858  *   1.07906904  *
    10       H          0.12013853  *  -1.64733572  *  -0.63870315  *
    11       H         -2.19849515  *  -1.39277488  *  -0.69371464  *
    12       H         -2.28755233  *  -0.57655786  *   0.86979697  *
    13       H          2.62578794  *   0.89364585  *  -0.32318675  *
    14       H          2.41477073  *  -0.83637959  *  -0.63618142  *
    15       H          1.45306281  *   0.35092272  *  -1.53293250  *
    16       H          0.38497847  *   2.06402978  *   1.52890623  *
    17       H         -2.14585808  *   0.85163428  *  -1.75055335  *

                             CARTESIAN COORDINATES

   1    C        0.810832118     0.063273723     0.526354827
   2    C       -0.240643831    -1.051432130     0.223096621
   3    C       -1.703993160    -0.626446568    -0.069342853
   4    C        1.881370259     0.119265272    -0.548528192
   5    C        0.130144843     1.401456713     0.701760563
   6    C       -1.692655996     0.702507870    -0.771394128
   7    C       -0.885570372     1.519179429    -0.125655732
   8    H        1.297270139    -0.183856568     1.499904271
   9    H       -0.256816123    -1.752268575     1.079069043
  10    H        0.120138525    -1.647335722    -0.638703148
  11    H       -2.198495148    -1.392774878    -0.693714643
  12    H       -2.287552325    -0.576557861     0.869796970
  13    H        2.625787943     0.893645847    -0.323186753
  14    H        2.414770728    -0.836379592    -0.636181416
  15    H        1.453062805     0.350922717    -1.532932496
  16    H        0.384978469     2.064029785     1.528906232
  17    H       -2.145858076     0.851634277    -1.750553351


           Empirical Formula: C7 H10  =    17 atoms



      MOLECULAR POINT GROUP   :   C1  


                  EIGENVALUES  
 -40.61408 -32.44205 -29.47402 -26.00474 -21.85759 -20.52189 -17.56632 -16.78494
 -15.75470 -15.25013 -14.73058 -14.26228 -13.46567 -13.17915 -12.44751 -12.23330
 -11.52925 -10.51900  -9.05783  -0.17847   1.67249   3.15529   3.23798   3.32278
   3.62704   3.78111   3.92444   4.04520   4.16663   4.31195   4.40779   4.49480
   4.71405   4.76523   4.89069   5.13020   5.56765   6.35045


              NET ATOMIC CHARGES AND DIPOLE CONTRIBUTIONS

  ATOM NO.   TYPE          CHARGE      No. of ELECS.   s-Pop       p-Pop       
    1          C          -0.035611        4.0356     1.17347     2.86214
    2          C          -0.105557        4.1056     1.17628     2.92928
    3          C          -0.056682        4.0567     1.15638     2.90030
    4          C          -0.109103        4.1091     1.14117     2.96794
    5          C          -0.067318        4.0673     1.17987     2.88745
    6          C          -0.068750        4.0688     1.17719     2.89156
    7          C          -0.206280        4.2063     1.26759     2.93869
    8          H           0.064604        0.9354     0.93540
    9          H           0.047767        0.9522     0.95223
   10          H           0.053102        0.9469     0.94690
   11          H           0.054487        0.9455     0.94551
   12          H           0.059356        0.9406     0.94064
   13          H           0.042402        0.9576     0.95760
   14          H           0.039002        0.9610     0.96100
   15          H           0.047679        0.9523     0.95232
   16          H           0.119893        0.8801     0.88011
   17          H           0.121010        0.8790     0.87899
 DIPOLE           X         Y         Z       TOTAL
 POINT-CHG.     0.297    -1.179     0.199     1.232
 HYBRID         0.041    -0.087    -0.001     0.096
 SUM            0.337    -1.266     0.198     1.325


          ATOMIC ORBITAL ELECTRON POPULATIONS

     Atom    s        px        py        pz   
    1  C   1.17347   0.95078   0.92292   0.98845
    2  C   1.17628   0.94381   0.97078   1.01468
    3  C   1.15638   0.95416   0.94356   1.00258
    4  C   1.14117   0.97626   1.00924   0.98244
    5  C   1.17987   1.03303   0.93117   0.92324
    6  C   1.17719   1.05225   0.87899   0.96031
    7  C   1.26759   0.97266   0.99491   0.97112
    8  H   0.93540
    9  H   0.95223
   10  H   0.94690
   11  H   0.94551
   12  H   0.94064
   13  H   0.95760
   14  H   0.96100
   15  H   0.95232
   16  H   0.88011
   17  H   0.87899
 *******************************************************************************
 ** Site#: 14399        For non-commercial use only    Version 18.184L 64BITS **
 *******************************************************************************
 ** Cite this program as: MOPAC2016, Version: 18.184L, James J. P. Stewart,   **
 ** Stewart Computational Chemistry, web: HTTP://OpenMOPAC.net. Days left:  20**
 *******************************************************************************
 **                                                                           **
 **                                MOPAC2016                                  **
 **                                                                           **
 *******************************************************************************

                              PM3 CALCULATION RESULTS

 *******************************************************************************
 *  CALCULATION DONE:                                Thu Jun 13 19:02:57 2019  *
 *  PM3        - The PM3 Hamiltonian to be used
 *  OLDGEO     - PREVIOUS GEOMETRY TO BE USED
 *  PRECISE    - CRITERIA TO BE INCREASED BY 100 TIMES
 *  NOSYM      - POINT-GROUP SYMMETRY SET TO C1
 *  THREADS=1  - MULTI-THREADING NOT USED
 *  T=         - A TIME OF 172800.0 SECONDS REQUESTED
 *  DUMP=N     - RESTART FILE WRITTEN EVERY  7200.000 SECONDS
 *  THERMO     - THERMODYNAMIC QUANTITIES TO BE CALCULATED
 *******************************************************************************
oldgeo thermo nosym precise THREADS=1  pm3
 InChI=1S/C7H10/c1-7-5-3-2-4-6-7/h2,6-7H,3,5H2,1H3

   ATOM   CHEMICAL          X               Y               Z
  NUMBER   SYMBOL      (ANGSTROMS)     (ANGSTROMS)     (ANGSTROMS)
 
     1       C          0.81083212  *   0.06327372  *   0.52635483  *
     2       C         -0.24064383  *  -1.05143213  *   0.22309662  *
     3       C         -1.70399316  *  -0.62644657  *  -0.06934285  *
     4       C          1.88137026  *   0.11926527  *  -0.54852819  *
     5       C          0.13014484  *   1.40145671  *   0.70176056  *
     6       C         -1.69265600  *   0.70250787  *  -0.77139413  *
     7       C         -0.88557037  *   1.51917943  *  -0.12565573  *
     8       H          1.29727014  *  -0.18385657  *   1.49990427  *
     9       H         -0.25681612  *  -1.75226858  *   1.07906904  *
    10       H          0.12013853  *  -1.64733572  *  -0.63870315  *
    11       H         -2.19849515  *  -1.39277488  *  -0.69371464  *
    12       H         -2.28755233  *  -0.57655786  *   0.86979697  *
    13       H          2.62578794  *   0.89364585  *  -0.32318675  *
    14       H          2.41477073  *  -0.83637959  *  -0.63618142  *
    15       H          1.45306281  *   0.35092272  *  -1.53293250  *
    16       H          0.38497847  *   2.06402978  *   1.52890623  *
    17       H         -2.14585808  *   0.85163428  *  -1.75055335  *
 


          CARTESIAN COORDINATES 

    NO.       ATOM           X           Y           Z

     1         C          0.8108      0.0633      0.5264
     2         C         -0.2406     -1.0514      0.2231
     3         C         -1.7040     -0.6264     -0.0693
     4         C          1.8814      0.1193     -0.5485
     5         C          0.1301      1.4015      0.7018
     6         C         -1.6927      0.7025     -0.7714
     7         C         -0.8856      1.5192     -0.1257
     8         H          1.2973     -0.1839      1.4999
     9         H         -0.2568     -1.7523      1.0791
    10         H          0.1201     -1.6473     -0.6387
    11         H         -2.1985     -1.3928     -0.6937
    12         H         -2.2876     -0.5766      0.8698
    13         H          2.6258      0.8936     -0.3232
    14         H          2.4148     -0.8364     -0.6362
    15         H          1.4531      0.3509     -1.5329
    16         H          0.3850      2.0640      1.5289
    17         H         -2.1459      0.8516     -1.7506

  H: (PM3): J. J. P. STEWART, J. COMP. CHEM. 10, 209 (1989).
  C: (PM3): J. J. P. STEWART, J. COMP. CHEM. 10, 209 (1989).

           Empirical Formula: C7 H10  =    17 atoms



      MOLECULAR POINT GROUP   :   C1  


      RHF CALCULATION, NO. OF DOUBLY OCCUPIED LEVELS = 19



          HEAT OF FORMATION =      63.249160 KCALS/MOLE


          CARTESIAN COORDINATE DERIVATIVES

   NUMBER  ATOM         X            Y            Z

     1       C      0.005982     0.003864     0.004179
     2       C      0.008612    -0.001337     0.002920
     3       C      0.003958     0.005527    -0.001512
     4       C      0.008908     0.001304     0.003640
     5       C     -0.002101    -0.001592     0.000227
     6       C     -0.005926    -0.011379    -0.004955
     7       C     -0.000607     0.017270    -0.003852
     8       H      0.011517     0.016949    -0.002397
     9       H     -0.001679    -0.001314     0.005829
    10       H     -0.007337    -0.006734    -0.003767
    11       H     -0.002808    -0.000862    -0.002520
    12       H      0.003669    -0.000368    -0.003377
    13       H     -0.000622    -0.003975     0.000057
    14       H     -0.006968     0.004656     0.004700
    15       H      0.002896     0.002964    -0.003595
    16       H     -0.004490    -0.005625     0.006283
    17       H     -0.013005    -0.019346    -0.001860
 


          GRADIENT NORM =   0.04690


          TIME FOR SCF CALCULATION =    0.02

          TIME FOR DERIVATIVES     =    0.02

          MOLECULAR WEIGHT =   94.16



          ROTATIONAL CONSTANTS IN CM(-1)

          A =    0.14340667   B =    0.08777067   C =    0.06921002



           PRINCIPAL MOMENTS OF INERTIA IN UNITS OF 10**(-40)*GRAM-CM**2

          A =      195.1986   B =      318.9309   C =      404.4613


          ORIENTATION OF MOLECULE IN FORCE CALCULATION

    NO.       ATOM         X         Y         Z

     1          C      -0.6552   -0.9047   -0.3230
     2          C       0.9069   -0.9047   -0.3230
     3          C       1.6455    0.4599   -0.3230
     4          C      -1.2070   -1.5063    0.9569
     5          C      -1.1859    0.4917   -0.5537
     6          C       0.8258    1.4557    0.4488
     7          C      -0.4256    1.3834    0.0437
     8          H      -0.9952   -1.5279   -1.1841
     9          H       1.2518   -1.4757   -1.2057
    10          H       1.2566   -1.4818    0.5561
    11          H       2.6464    0.3436    0.1312
    12          H       1.8203    0.8053   -1.3599
    13          H      -2.3045   -1.5178    0.9456
    14          H      -0.8671   -2.5411    1.0951
    15          H      -0.8929   -0.9338    1.8400
    16          H      -1.9909    0.6831   -1.2633
    17          H       1.2145    1.9876    1.3162


    FIRST DERIVATIVES WILL BE USED IN THE CALCULATION OF SECOND DERIVATIVES

          ESTIMATED TIME TO COMPLETE CALCULATION =        7.97 SECONDS

    FOR POINT-GROUP C1   THERE ARE   1 UNIQUE SYMMETRY FUNCTIONS.

 STEP:   1 TIME =     0.06 SECS, INTEGRAL =      0.06 TIME LEFT: 172799.90
 STEP:   2 TIME =     0.04 SECS, INTEGRAL =      0.10 TIME LEFT: 172799.86
 STEP:   3 TIME =     0.03 SECS, INTEGRAL =      0.13 TIME LEFT: 172799.83
 STEP:   4 TIME =     0.03 SECS, INTEGRAL =      0.16 TIME LEFT: 172799.80
 STEP:   5 TIME =     0.03 SECS, INTEGRAL =      0.20 TIME LEFT: 172799.77
 STEP:   6 TIME =     0.02 SECS, INTEGRAL =      0.22 TIME LEFT: 172799.74
 STEP:   7 TIME =     0.03 SECS, INTEGRAL =      0.25 TIME LEFT: 172799.71
 STEP:   8 TIME =     0.02 SECS, INTEGRAL =      0.27 TIME LEFT: 172799.69
 STEP:   9 TIME =     0.02 SECS, INTEGRAL =      0.30 TIME LEFT: 172799.66
 STEP:  10 TIME =     0.03 SECS, INTEGRAL =      0.33 TIME LEFT: 172799.63
 STEP:  11 TIME =     0.02 SECS, INTEGRAL =      0.35 TIME LEFT: 172799.61
 STEP:  12 TIME =     0.03 SECS, INTEGRAL =      0.38 TIME LEFT: 172799.58
 STEP:  13 TIME =     0.02 SECS, INTEGRAL =      0.41 TIME LEFT: 172799.55
 STEP:  14 TIME =     0.03 SECS, INTEGRAL =      0.44 TIME LEFT: 172799.52
 STEP:  15 TIME =     0.03 SECS, INTEGRAL =      0.47 TIME LEFT: 172799.49
 STEP:  16 TIME =     0.03 SECS, INTEGRAL =      0.50 TIME LEFT: 172799.46
 STEP:  17 TIME =     0.03 SECS, INTEGRAL =      0.53 TIME LEFT: 172799.43
 STEP:  18 TIME =     0.03 SECS, INTEGRAL =      0.56 TIME LEFT: 172799.40
 STEP:  19 TIME =     0.05 SECS, INTEGRAL =      0.61 TIME LEFT: 172799.35
 STEP:  20 TIME =     0.04 SECS, INTEGRAL =      0.65 TIME LEFT: 172799.31
 STEP:  21 TIME =     0.03 SECS, INTEGRAL =      0.68 TIME LEFT: 172799.28
 STEP:  22 TIME =     0.03 SECS, INTEGRAL =      0.71 TIME LEFT: 172799.25
 STEP:  23 TIME =     0.03 SECS, INTEGRAL =      0.74 TIME LEFT: 172799.22
 STEP:  24 TIME =     0.05 SECS, INTEGRAL =      0.79 TIME LEFT: 172799.17
 STEP:  25 TIME =     0.04 SECS, INTEGRAL =      0.83 TIME LEFT: 172799.13
 STEP:  26 TIME =     0.03 SECS, INTEGRAL =      0.86 TIME LEFT: 172799.10
 STEP:  27 TIME =     0.03 SECS, INTEGRAL =      0.89 TIME LEFT: 172799.07
 STEP:  28 TIME =     0.03 SECS, INTEGRAL =      0.92 TIME LEFT: 172799.04
 STEP:  29 TIME =     0.02 SECS, INTEGRAL =      0.95 TIME LEFT: 172799.02
 STEP:  30 TIME =     0.03 SECS, INTEGRAL =      0.98 TIME LEFT: 172798.98
 STEP:  31 TIME =     0.02 SECS, INTEGRAL =      1.00 TIME LEFT: 172798.96
 STEP:  32 TIME =     0.02 SECS, INTEGRAL =      1.02 TIME LEFT: 172798.94
 STEP:  33 TIME =     0.03 SECS, INTEGRAL =      1.05 TIME LEFT: 172798.91
 STEP:  34 TIME =     0.02 SECS, INTEGRAL =      1.08 TIME LEFT: 172798.88
 STEP:  35 TIME =     0.03 SECS, INTEGRAL =      1.11 TIME LEFT: 172798.85
 STEP:  36 TIME =     0.02 SECS, INTEGRAL =      1.13 TIME LEFT: 172798.83
 STEP:  37 TIME =     0.03 SECS, INTEGRAL =      1.16 TIME LEFT: 172798.80
 STEP:  38 TIME =     0.04 SECS, INTEGRAL =      1.20 TIME LEFT: 172798.76
 STEP:  39 TIME =     0.03 SECS, INTEGRAL =      1.23 TIME LEFT: 172798.73
 STEP:  40 TIME =     0.04 SECS, INTEGRAL =      1.27 TIME LEFT: 172798.69
 STEP:  41 TIME =     0.05 SECS, INTEGRAL =      1.32 TIME LEFT: 172798.64
 STEP:  42 TIME =     0.04 SECS, INTEGRAL =      1.36 TIME LEFT: 172798.60
 STEP:  43 TIME =     0.03 SECS, INTEGRAL =      1.39 TIME LEFT: 172798.57
 STEP:  44 TIME =     0.03 SECS, INTEGRAL =      1.42 TIME LEFT: 172798.54
 STEP:  45 TIME =     0.03 SECS, INTEGRAL =      1.45 TIME LEFT: 172798.51
 STEP:  46 TIME =     0.02 SECS, INTEGRAL =      1.48 TIME LEFT: 172798.48
 STEP:  47 TIME =     0.03 SECS, INTEGRAL =      1.51 TIME LEFT: 172798.45
 STEP:  48 TIME =     0.04 SECS, INTEGRAL =      1.55 TIME LEFT: 172798.41
 STEP:  49 TIME =     0.04 SECS, INTEGRAL =      1.59 TIME LEFT: 172798.38
 STEP:  50 TIME =     0.04 SECS, INTEGRAL =      1.62 TIME LEFT: 172798.34
 STEP:  51 TIME =     0.03 SECS, INTEGRAL =      1.66 TIME LEFT: 172798.30

(To convert to Hartree/Bohr^2, multiply by (10^(-21) x N x a0^2)/(4.184 x 627.51) =  0.0642)


           FORCE MATRIX IN MILLIDYNES/ANGSTROM


                  C  1       C  2       C  3       C  4       C  5       C  6
 ------------------------------------------------------------------------------
     C    1  13.904784
     C    2   2.969348  13.284425
     C    3   0.513383   3.223327  13.998826
     C    4   4.207215   0.603044   0.033632  14.355898
     C    5   3.973995   0.622674   0.192971   0.648522  17.602735
     C    6   0.184547   0.708022   4.276275   0.023390   1.114425  17.636993
     C    7   1.277541   0.251061   1.381713   0.056398  10.713736  10.660266
     H    8   4.262281   0.409565   0.030275   0.425971   0.403074   0.007274
     H    9   0.432475   4.518561   0.423906   0.028202   0.019145   0.040547
     H   10   0.441471   4.464007   0.434340   0.089020   0.028557   0.008744
     H   11   0.042092   0.425921   4.545438   0.003756   0.008744   0.439336
     H   12   0.018705   0.447266   4.487292   0.002739   0.016286   0.425791
     H   13   0.449121   0.047146   0.005335   4.754357   0.019066   0.002423
     H   14   0.455946   0.024332   0.002568   4.733334   0.047809   0.003266
     H   15   0.462973   0.018788   0.001192   4.731019   0.018301   0.004602
     H   16   0.431360   0.037351   0.053868   0.019357   4.980558   0.113166
     H   17   0.053061   0.031208   0.425231   0.005935   0.111378   5.005672


                  C  7       H  8       H  9       H 10       H 11       H 12
 ------------------------------------------------------------------------------
     C    7  20.802080
     H    8   0.042686   4.689889
     H    9   0.009389   0.017376   5.099289
     H   10   0.008542   0.020716   0.582179   5.067912
     H   11   0.045953   0.005476   0.019308   0.033434   5.139439
     H   12   0.046934   0.001114   0.032823   0.038852   0.568435   5.103339
     H   13   0.005112   0.030002   0.004866   0.002533   0.000911   0.000417
     H   14   0.007744   0.029221   0.001313   0.031337   0.000424   0.000507
     H   15   0.007560   0.046406   0.001637   0.021021   0.000513   0.000420
     H   16   0.448560   0.035025   0.002451   0.003092   0.001623   0.004118
     H   17   0.449259   0.002126   0.004242   0.001404   0.026376   0.024036


                  H 13       H 14       H 15       H 16       H 17
 ------------------------------------------------------------------
     H   13   5.485184
     H   14   0.569179   5.471358
     H   15   0.570387   0.565914   5.462983
     H   16   0.002380   0.003062   0.001869   5.375758
     H   17   0.000524   0.000793   0.000840   0.034141   5.402822


          HEAT OF FORMATION =      63.249160 KCALS/MOLE

          ZERO POINT ENERGY      92.900 KCAL/MOL


           NORMAL COORDINATE ANALYSIS (Total motion = 1 Angstrom)


   Root No.       1         2         3         4         5         6         7         8

                 1 A       2 A       3 A       4 A       5 A       6 A       7 A       8 A   

                  61.0     207.7     228.8     356.6     393.9     435.8     522.5     619.3
  
           1    0.0050    0.0005    0.0131   -0.0082   -0.0256   -0.0019    0.0553    0.0117
           2    0.0031    0.0005   -0.0082    0.0280   -0.0046   -0.0001    0.0086    0.0426
           3    0.0055    0.0042   -0.0130   -0.0052   -0.0050    0.0456    0.0165    0.0357
           4    0.0049    0.0001    0.0133   -0.0088   -0.0299   -0.0001    0.0300    0.0228
           5    0.0042    0.0013   -0.0029   -0.0046   -0.0100    0.0151   -0.0618    0.0128
           6    0.0468    0.0063    0.0112    0.0300    0.0081   -0.0151   -0.0099    0.0014
           7   -0.0019    0.0036   -0.0181   -0.0048   -0.0339   -0.0003   -0.0503    0.0365
           8    0.0070    0.0003    0.0128   -0.0159   -0.0092    0.0221   -0.0361   -0.0124
           9   -0.0324    0.0126   -0.0347   -0.0004    0.0028   -0.0140    0.0076   -0.0189
          10   -0.0286    0.0038   -0.0048    0.0485    0.0263   -0.0318    0.0029   -0.0052
          11   -0.0368   -0.0150    0.0384   -0.0116   -0.0263   -0.0336    0.0082   -0.0048
          12   -0.0282   -0.0019    0.0020   -0.0006    0.0088    0.0230   -0.0144    0.0095
          13   -0.0001   -0.0043    0.0159   -0.0206    0.0435    0.0251    0.0296   -0.0174
          14    0.0043   -0.0022   -0.0076    0.0295    0.0125    0.0011    0.0075    0.0213
          15    0.0255    0.0024   -0.0211   -0.0135   -0.0384   -0.0201    0.0241   -0.0299
          16    0.0185   -0.0031   -0.0087   -0.0118    0.0057    0.0016   -0.0257   -0.0184
          17    0.0165    0.0128   -0.0260   -0.0388    0.0337   -0.0097    0.0042   -0.0447
          18   -0.0220   -0.0120    0.0303    0.0172    0.0032    0.0262   -0.0080   -0.0364
          19    0.0088   -0.0018   -0.0091    0.0014   -0.0002    0.0200   -0.0369   -0.0470
          20    0.0076    0.0061   -0.0184    0.0284    0.0069    0.0163    0.0826   -0.0054
          21    0.0094   -0.0144    0.0291   -0.0426    0.0318   -0.0385    0.0020    0.0490
          22    0.0292   -0.0005    0.0198   -0.0111   -0.0437   -0.0041    0.0400    0.0305
          23    0.0287    0.0074   -0.0251    0.0405   -0.0087   -0.0128    0.0330    0.0253
          24   -0.0230   -0.0008   -0.0021   -0.0128    0.0052    0.0536    0.0025    0.0400
          25    0.0298    0.0013    0.0372    0.0080   -0.0205   -0.0443    0.0054   -0.0273
          26   -0.0596    0.0052   -0.0379   -0.0535   -0.0190    0.0559   -0.0098   -0.0093
          27    0.0979    0.0042    0.0436    0.0686    0.0176   -0.0589   -0.0565   -0.0037
          28   -0.0149   -0.0027    0.0051   -0.0301   -0.0302    0.0407    0.0594    0.0280
          29    0.0711   -0.0048    0.0431    0.0349    0.0003   -0.0178   -0.1227    0.0108
          30    0.0988    0.0035    0.0447    0.0663    0.0159   -0.0553   -0.0620   -0.0023
          31    0.0195   -0.0065    0.0190    0.0100   -0.0294    0.0222   -0.0335    0.0065
          32    0.0272   -0.0006    0.0391   -0.0083   -0.0186    0.0227    0.0071    0.0036
          33   -0.0746    0.0350   -0.1116   -0.0318   -0.0101   -0.0663   -0.0199    0.0574
          34   -0.0528    0.0276   -0.1082   -0.0398   -0.0451   -0.0540   -0.0930    0.1168
          35   -0.0228   -0.0092    0.0272   -0.0161   -0.0194    0.0505   -0.0457   -0.0288
          36   -0.0507    0.0135   -0.0453   -0.0065   -0.0029   -0.0145   -0.0044   -0.0094
          37   -0.0282    0.0003   -0.0058    0.0495    0.0272   -0.0320    0.0026   -0.0051
          38   -0.0489    0.2157    0.1097   -0.0545   -0.0616   -0.0355    0.0276   -0.0230
          39   -0.0634    0.1085    0.0190    0.0455    0.0563   -0.0124   -0.0775   -0.0242
          40   -0.0213   -0.1958   -0.0683    0.0932    0.0641   -0.0359   -0.0228    0.0049
          41   -0.0367   -0.0995    0.0191   -0.0031   -0.0191   -0.0397    0.0014   -0.0107
          42   -0.0453   -0.1473    0.0097   -0.0377   -0.0209   -0.0085   -0.0047   -0.0521
          43   -0.0635    0.2116    0.0449    0.0643    0.0476   -0.0604   -0.0362   -0.0394
          44   -0.0573   -0.1752    0.0304   -0.0205   -0.0310   -0.0726   -0.0034   -0.0633
          45   -0.0026    0.0281   -0.0099    0.0000    0.0044    0.0566    0.0062    0.0578
          46   -0.0157   -0.0109    0.0372   -0.0478    0.1442    0.0453    0.0090    0.0704
          47    0.0047   -0.0103    0.0001    0.0137    0.0502   -0.0216   -0.0526    0.0197
          48    0.0430    0.0073   -0.0425    0.0134   -0.1437   -0.0493    0.0301   -0.1299
          49    0.0389   -0.0094    0.0001   -0.0436    0.0537   -0.0260    0.0120    0.0159
          50    0.0240    0.0277   -0.0641   -0.1121    0.0913   -0.0622    0.0077   -0.0357
          51   -0.0359   -0.0181    0.0490    0.0766   -0.0548    0.0701   -0.0265   -0.0560


   Root No.       9        10        11        12        13        14        15        16

                 9 A      10 A      11 A      12 A      13 A      14 A      15 A      16 A   

                 722.9     834.1     845.7     853.7     885.6     958.6     969.1    1006.1
  
           1   -0.0052   -0.0344   -0.0134   -0.0031   -0.0094    0.0152   -0.0039   -0.0035
           2   -0.0294   -0.0168   -0.0137    0.0093    0.0008   -0.0138    0.0032   -0.0041
           3   -0.0144   -0.0186   -0.0107    0.0031   -0.0081   -0.0081    0.0100   -0.0128
           4   -0.0150    0.0457   -0.0107    0.0258    0.0041    0.0087    0.0156    0.0237
           5    0.0142   -0.0288    0.0098   -0.0477    0.0032    0.0168   -0.0049    0.0296
           6   -0.0202   -0.0097    0.0404   -0.0134   -0.0002    0.0037    0.0198   -0.0066
           7    0.0060    0.0319    0.0196   -0.0123    0.0135   -0.0240   -0.0285   -0.0297
           8    0.0087    0.0128    0.0037    0.0138    0.0021   -0.0104    0.0115   -0.0229
           9   -0.0184    0.0103    0.0045   -0.0106    0.0073   -0.0008   -0.0286    0.0149
          10   -0.0059   -0.0217   -0.0040   -0.0080   -0.0142    0.0069   -0.0188   -0.0181
          11   -0.0098   -0.0148   -0.0029   -0.0013   -0.0046   -0.0399    0.0016    0.0177
          12    0.0094    0.0121   -0.0090    0.0139    0.0156    0.0189   -0.0130    0.0097
          13    0.0385   -0.0157    0.0161   -0.0023    0.0379   -0.0248    0.0021   -0.0058
          14   -0.0109    0.0165   -0.0042    0.0193    0.0045    0.0387   -0.0023   -0.0045
          15    0.0165    0.0150   -0.0026   -0.0256   -0.0613   -0.0233    0.0028    0.0090
          16   -0.0066   -0.0078    0.0038    0.0024   -0.0010    0.0081   -0.0018    0.0091
          17   -0.0109   -0.0110    0.0071    0.0514   -0.0218   -0.0018   -0.0142   -0.0019
          18   -0.0090    0.0006   -0.0322   -0.0108    0.0080   -0.0015    0.0195   -0.0156
          19   -0.0167   -0.0086   -0.0126    0.0099   -0.0169    0.0056    0.0118    0.0039
          20    0.0486    0.0232    0.0104   -0.0262    0.0150    0.0002   -0.0050    0.0005
          21    0.0069   -0.0061    0.0176    0.0151    0.0211    0.0026   -0.0111   -0.0031
          22   -0.0301   -0.0644    0.0261   -0.0501   -0.0169    0.0895    0.0476    0.0376
          23   -0.0330    0.0137   -0.0144    0.0163   -0.0356   -0.0265    0.0472   -0.0802
          24   -0.0018   -0.0254   -0.0260    0.0180    0.0211   -0.0246   -0.0409    0.0272
          25    0.0391    0.0875   -0.0738    0.0482    0.0150    0.0606   -0.0507    0.1574
          26   -0.0631   -0.0279    0.1243   -0.0826    0.0123    0.0633    0.0166    0.0969
          27    0.0536    0.0077   -0.0603    0.0182   -0.0012   -0.0083   -0.0202    0.0005
          28   -0.0433    0.0177    0.0316    0.0151   -0.0078    0.0089    0.0957   -0.0072
          29    0.1114   -0.0214   -0.1096   -0.0215   -0.0003   -0.0045   -0.0157    0.0236
          30    0.0576    0.0041   -0.0590    0.0084    0.0013   -0.0097   -0.0206    0.0027
          31   -0.0471    0.0648    0.0413   -0.0466    0.0304   -0.0377   -0.0866   -0.0242
          32   -0.0427    0.0883    0.0497    0.0471    0.0104   -0.0283    0.0247   -0.0386
          33    0.0933   -0.0449   -0.0341    0.0727   -0.0273    0.0275    0.1072    0.0017
          34    0.1409   -0.0425   -0.0296    0.0520   -0.0205    0.0069    0.1024   -0.0449
          35    0.0197    0.0376   -0.0740   -0.0302    0.0266   -0.0222    0.0003   -0.0147
          36    0.0114    0.0044   -0.0311   -0.0111    0.0088    0.0002   -0.0074    0.0130
          37   -0.0063   -0.0219   -0.0032   -0.0080   -0.0135    0.0049   -0.0171   -0.0170
          38    0.0070   -0.0300   -0.0099   -0.0294   -0.0474    0.0666   -0.0389   -0.0682
          39    0.0199    0.1019    0.0567    0.0183    0.0612   -0.0404    0.1127    0.0708
          40   -0.0209    0.0007    0.0156    0.0116    0.0239   -0.1045    0.0462    0.0601
          41   -0.0088   -0.0026    0.0073   -0.0018    0.0002   -0.0497    0.0222    0.0240
          42    0.0489    0.0473    0.0180   -0.0281   -0.0283    0.1950   -0.0189   -0.1106
          43    0.0065    0.0353    0.0477   -0.0205    0.0008   -0.0049    0.0682   -0.0087
          44    0.0200    0.0332    0.0410   -0.0376   -0.0310    0.0538    0.0444   -0.0607
          45   -0.0135   -0.0373   -0.0541    0.0407    0.0268   -0.0353   -0.0691    0.0553
          46    0.0284    0.0609   -0.0027   -0.0697   -0.2433   -0.0381    0.0009    0.0200
          47   -0.0240    0.0735    0.0012    0.0513   -0.0345    0.0951   -0.0066    0.0228
          48    0.0235   -0.0585    0.0201    0.0608    0.2488    0.0080    0.0034   -0.0129
          49   -0.0088   -0.0113   -0.0396   -0.0793    0.0663    0.0670    0.0730    0.0694
          50   -0.1087    0.0625   -0.1363   -0.1330    0.1090   -0.0273    0.0255   -0.0787
          51    0.0538   -0.0426    0.0768    0.1402   -0.1026   -0.0119   -0.0385    0.0048


   Root No.      17        18        19        20        21        22        23        24

                17 A      18 A      19 A      20 A      21 A      22 A      23 A      24 A   

                1025.5    1065.6    1085.8    1088.6    1105.7    1121.4    1144.1    1185.2
  
           1   -0.0161    0.0026   -0.0109    0.0023    0.0145    0.0100   -0.0158    0.0221
           2   -0.0177    0.0209    0.0026   -0.0043   -0.0003   -0.0011   -0.0140    0.0136
           3   -0.0105   -0.0007    0.0097   -0.0050   -0.0289   -0.0009   -0.0209    0.0206
           4   -0.0016   -0.0026    0.0035    0.0020   -0.0256   -0.0184    0.0210   -0.0065
           5   -0.0077    0.0170   -0.0145   -0.0017   -0.0255   -0.0079    0.0102   -0.0015
           6    0.0196   -0.0111    0.0161    0.0193    0.0092   -0.0150    0.0034   -0.0056
           7   -0.0055   -0.0138   -0.0061   -0.0090    0.0151   -0.0078    0.0094    0.0141
           8    0.0193   -0.0017    0.0153   -0.0006    0.0267    0.0091   -0.0111    0.0119
           9   -0.0098    0.0096    0.0086   -0.0105   -0.0189    0.0300    0.0040   -0.0003
          10    0.0225    0.0003    0.0091    0.0026   -0.0038   -0.0030    0.0052   -0.0053
          11    0.0125   -0.0067   -0.0017    0.0056    0.0054    0.0023    0.0071   -0.0036
          12   -0.0013    0.0161   -0.0101    0.0117    0.0310    0.0063    0.0203   -0.0135
          13    0.0004    0.0238   -0.0057    0.0174   -0.0121    0.0032   -0.0056    0.0033
          14    0.0029   -0.0194   -0.0017   -0.0082    0.0040   -0.0026   -0.0126   -0.0270
          15    0.0065    0.0026   -0.0074    0.0048    0.0031    0.0019   -0.0039   -0.0003
          16   -0.0006   -0.0020    0.0102   -0.0062    0.0016    0.0078   -0.0121   -0.0237
          17   -0.0196   -0.0182    0.0002   -0.0135    0.0032   -0.0137    0.0228    0.0132
          18    0.0051   -0.0102   -0.0186   -0.0181    0.0138   -0.0271    0.0174    0.0117
          19    0.0057    0.0057   -0.0034   -0.0002   -0.0019    0.0041   -0.0109   -0.0130
          20    0.0055   -0.0157   -0.0031   -0.0062    0.0065   -0.0042    0.0053   -0.0055
          21   -0.0074   -0.0033    0.0026   -0.0025   -0.0017   -0.0022   -0.0069   -0.0149
          22   -0.0890   -0.0978   -0.1255   -0.0005    0.1487    0.1270   -0.0078   -0.0390
          23   -0.0865    0.2289    0.0600    0.0805    0.0236   -0.0116    0.0922    0.0001
          24    0.0659   -0.1095    0.0128   -0.0639   -0.0994   -0.0398   -0.1019    0.0562
          25    0.0063    0.0925    0.0467    0.0058    0.0544   -0.1111   -0.1133    0.0228
          26    0.0477    0.0514    0.0380    0.0480    0.0278   -0.0935   -0.0442   -0.0178
          27   -0.0121    0.0040    0.0013   -0.0108    0.0033    0.0061   -0.0137    0.0150
          28    0.0123   -0.0726    0.0081    0.0318   -0.1369    0.0084    0.1138   -0.1247
          29   -0.0445   -0.0002   -0.0328   -0.0233   -0.1329    0.0535    0.0541   -0.0675
          30   -0.0118    0.0044    0.0028   -0.0065   -0.0157    0.0136   -0.0069    0.0009
          31   -0.0287   -0.0157   -0.0059   -0.0208    0.0013    0.0031    0.0268    0.0249
          32    0.1219    0.1356   -0.0578   -0.1168   -0.0176    0.1624   -0.0661   -0.0542
          33    0.0676    0.0456   -0.0085   -0.0149   -0.0018    0.0405   -0.0420   -0.0400
          34    0.0383   -0.0365   -0.0053    0.0139    0.0535   -0.0738    0.0131    0.0166
          35   -0.0464   -0.1065    0.1969    0.1449    0.0287    0.1060   -0.0586   -0.0431
          36   -0.0234   -0.0301    0.0694    0.0417   -0.0110    0.0521   -0.0112   -0.0183
          37    0.0211   -0.0002    0.0083    0.0030   -0.0027   -0.0019    0.0048   -0.0049
          38    0.0317    0.0142    0.0263    0.0002   -0.0346   -0.0103    0.0089   -0.0084
          39   -0.1215   -0.0055   -0.0397   -0.0185    0.0234    0.0147   -0.0426    0.0348
          40   -0.0164   -0.0247   -0.0144    0.0011    0.0056    0.0100   -0.0107    0.0108
          41   -0.0062   -0.0093   -0.0046    0.0014   -0.0009    0.0038   -0.0022    0.0037
          42   -0.0396    0.0428    0.0175   -0.0170   -0.0217   -0.0118   -0.0157    0.0033
          43   -0.0610   -0.0180   -0.0003   -0.0236   -0.0368    0.0015   -0.0475    0.0329
          44   -0.0517    0.0070    0.0210   -0.0253   -0.0606   -0.0110   -0.0442    0.0338
          45    0.0663    0.0149   -0.0215    0.0403    0.0850    0.0135    0.0706   -0.0500
          46    0.0107    0.0112   -0.0154    0.0239    0.0075    0.0130   -0.0035    0.0198
          47    0.0818   -0.0311   -0.1132    0.1874   -0.0780    0.0854    0.0213    0.2001
          48    0.0171    0.0133   -0.0292    0.0528   -0.0428    0.0164    0.0003    0.0445
          49    0.0511   -0.0041    0.1427   -0.1397    0.0504    0.0732    0.1290    0.1474
          50    0.0096   -0.0073   -0.0985    0.0483    0.0067   -0.0683   -0.0531   -0.0605
          51   -0.0354   -0.0168   -0.0161    0.0005   -0.0089   -0.0222    0.0024   -0.0192


   Root No.      25        26        27        28        29        30        31        32

                25 A      26 A      27 A      28 A      29 A      30 A      31 A      32 A   

                1234.5    1246.8    1309.1    1344.9    1397.8    1400.9    1401.9    1407.7
  
           1    0.0752   -0.0299   -0.0237   -0.0129   -0.0015    0.0040   -0.0079    0.0030
           2   -0.0324   -0.0214    0.0099    0.0693    0.0008    0.0093   -0.0280    0.0078
           3   -0.0156    0.0460   -0.0016   -0.0308    0.0007   -0.0119    0.0257   -0.0111
           4   -0.0428   -0.0284    0.0307   -0.0195    0.0222   -0.0045    0.0100    0.0093
           5   -0.0161   -0.0258    0.0042   -0.0297   -0.0259    0.0150    0.0063   -0.0107
           6    0.0031   -0.0147   -0.0071    0.0037   -0.0020    0.0012   -0.0044    0.0008
           7    0.0018    0.0097   -0.0208   -0.0002   -0.0189   -0.0325   -0.0195   -0.0045
           8    0.0332    0.0176    0.0762    0.0107    0.0107    0.0032    0.0024    0.0042
           9    0.0185    0.0089    0.0314    0.0064    0.0107    0.0175    0.0101    0.0021
          10   -0.0199    0.0090    0.0047    0.0048    0.0109   -0.0092    0.0084   -0.0255
          11    0.0044    0.0088   -0.0015   -0.0095   -0.0005   -0.0081    0.0215   -0.0368
          12    0.0047   -0.0094    0.0004   -0.0081    0.0087    0.0220   -0.0486    0.0090
          13   -0.0211    0.0011    0.0089    0.0155    0.0007    0.0027   -0.0009    0.0001
          14    0.0274    0.0036    0.0002   -0.0275    0.0034   -0.0001    0.0104   -0.0006
          15   -0.0050   -0.0082    0.0045    0.0133    0.0009    0.0027   -0.0038    0.0013
          16    0.0095   -0.0005    0.0160   -0.0075    0.0021    0.0040    0.0029    0.0007
          17   -0.0150   -0.0022   -0.0356   -0.0016   -0.0047   -0.0070   -0.0041   -0.0013
          18   -0.0078   -0.0001   -0.0257   -0.0017   -0.0044   -0.0064   -0.0041   -0.0011
          19   -0.0007   -0.0047    0.0054   -0.0007    0.0022    0.0034    0.0018    0.0008
          20   -0.0012    0.0028   -0.0024   -0.0075   -0.0016   -0.0029    0.0000   -0.0004
          21    0.0013    0.0017    0.0020   -0.0052    0.0003    0.0001    0.0020   -0.0002
          22   -0.1697    0.1308    0.0373    0.0407    0.0139   -0.0133    0.0116   -0.0034
          23    0.0476    0.0491   -0.0235   -0.0766   -0.0040   -0.0149    0.0348   -0.0146
          24    0.0219   -0.0683   -0.0011    0.0543   -0.0011    0.0123   -0.0272    0.0068
          25   -0.0014    0.1631   -0.0627    0.0605   -0.0983    0.0252   -0.0189   -0.0437
          26    0.0364    0.0542   -0.1224    0.0566    0.1273   -0.0913   -0.0142    0.0504
          27   -0.0141    0.0074    0.0344   -0.0192   -0.1259    0.0699   -0.0008   -0.0507
          28    0.1299    0.0998   -0.0352    0.1495   -0.1266    0.0511   -0.0653   -0.0536
          29    0.0924    0.0757   -0.0725    0.0814    0.1216   -0.0798   -0.0169    0.0416
          30    0.0048    0.0000   -0.0271    0.0048    0.1328   -0.0712    0.0102    0.0521
          31    0.0101    0.0269   -0.0617    0.0212    0.0316    0.0767    0.0423    0.0029
          32   -0.0553   -0.0233   -0.2160   -0.0159   -0.0010    0.0537    0.0282   -0.0071
          33   -0.0223   -0.0349    0.0302   -0.0409   -0.0869   -0.1742   -0.0990   -0.0147
          34   -0.0086    0.0178   -0.1011    0.0368    0.0943    0.1951    0.1102    0.0159
          35   -0.0816   -0.0636   -0.1442   -0.0204   -0.0274   -0.0096   -0.0110   -0.0075
          36   -0.0205   -0.0177   -0.0488    0.0004    0.0094    0.0351    0.0178    0.0004
          37   -0.0194    0.0127    0.0040   -0.0016    0.0049   -0.0035    0.0038   -0.0115
          38   -0.0504    0.0376    0.0065    0.0021   -0.0429   -0.0003   -0.0020    0.3229
          39    0.0889   -0.0825   -0.0169    0.0738    0.0164   -0.0712    0.0991   -0.0211
          40    0.0286    0.0350   -0.0138   -0.0523   -0.0800    0.0126    0.0253    0.3126
          41    0.0141    0.0135   -0.0061   -0.0118   -0.0396   -0.0070    0.0428    0.0921
          42   -0.0196   -0.0654    0.0102    0.1402   -0.0842   -0.0545    0.1711    0.0034
          43    0.0049    0.0292   -0.0063   -0.0509   -0.0433    0.0496   -0.0281   -0.0267
          44   -0.0309    0.0332    0.0029   -0.0543    0.0840    0.0454   -0.1623   -0.0223
          45    0.0200   -0.0353    0.0010    0.0500   -0.0344   -0.0428    0.1046    0.0170
          46    0.0002   -0.0107    0.0072    0.0235   -0.0001    0.0037   -0.0077    0.0016
          47    0.0161    0.0288   -0.0281   -0.0009   -0.0052   -0.0088   -0.0006   -0.0045
          48   -0.0321    0.0123   -0.0007    0.0125   -0.0003   -0.0003    0.0012   -0.0018
          49    0.0025    0.0161   -0.0224    0.0171   -0.0072   -0.0146   -0.0111   -0.0014
          50    0.0078   -0.0063   -0.0059   -0.0101   -0.0004    0.0001    0.0004    0.0004
          51   -0.0183   -0.0044   -0.0279   -0.0080   -0.0033   -0.0034   -0.0011   -0.0012


   Root No.      33        34        35        36        37        38        39        40

                33 A      34 A      35 A      36 A      37 A      38 A      39 A      40 A   

                1409.0    1538.5    2082.6    2882.9    2955.6    2975.5    3040.1    3052.8
  
           1   -0.0000    0.0022    0.0069   -0.0199   -0.0008   -0.0001    0.0008    0.0000
           2    0.0092    0.0192   -0.0015   -0.0376   -0.0012   -0.0002   -0.0003    0.0003
           3   -0.0071    0.0068    0.0024   -0.0511   -0.0018   -0.0005   -0.0004    0.0001
           4    0.0076    0.0036   -0.0037   -0.0012   -0.0017   -0.0002    0.0178   -0.0042
           5   -0.0115   -0.0064   -0.0025    0.0004    0.0027    0.0005   -0.0299    0.0056
           6    0.0005   -0.0010   -0.0001    0.0044   -0.0444   -0.0151   -0.0047    0.0018
           7    0.0005   -0.0196    0.0026    0.0001    0.0061   -0.0194   -0.0071   -0.0326
           8    0.0027    0.0078    0.0071    0.0001   -0.0040    0.0121   -0.0019   -0.0042
           9   -0.0002   -0.0004    0.0037   -0.0003    0.0130   -0.0387    0.0033    0.0118
          10   -0.0289    0.0001   -0.0002    0.0012   -0.0001   -0.0000    0.0002   -0.0001
          11    0.0146    0.0003    0.0010    0.0018    0.0001    0.0000   -0.0001    0.0000
          12    0.0142   -0.0035   -0.0013    0.0006    0.0002    0.0001    0.0002   -0.0001
          13    0.0015   -0.0847   -0.0930    0.0010    0.0001    0.0000   -0.0000   -0.0001
          14   -0.0019   -0.1282   -0.1126   -0.0008   -0.0000   -0.0001    0.0001   -0.0001
          15    0.0022   -0.0601   -0.0637    0.0009    0.0000   -0.0000    0.0002   -0.0001
          16   -0.0017    0.1625   -0.1519   -0.0001   -0.0003    0.0007   -0.0002    0.0000
          17   -0.0000   -0.0032   -0.0099    0.0000    0.0000    0.0006    0.0003    0.0007
          18   -0.0003    0.0306   -0.0402   -0.0000   -0.0003    0.0009    0.0001    0.0011
          19    0.0004   -0.0512    0.2531    0.0005   -0.0001    0.0002    0.0001    0.0006
          20   -0.0014    0.0848    0.1225    0.0010    0.0001   -0.0000    0.0001   -0.0001
          21   -0.0008    0.0197    0.1196    0.0002    0.0001   -0.0002    0.0000    0.0001
          22   -0.0046   -0.0286   -0.0143    0.2417    0.0103    0.0029    0.0032   -0.0008
          23   -0.0065    0.0514    0.0175    0.4437    0.0151    0.0038    0.0033   -0.0012
          24    0.0063   -0.0058   -0.0113    0.6178    0.0201    0.0049    0.0055   -0.0018
          25   -0.0346    0.0004    0.0033    0.0068   -0.0959   -0.0340   -0.1181    0.0253
          26    0.0566    0.0003    0.0018   -0.0189    0.1596    0.0593    0.1967   -0.0468
          27   -0.0511   -0.0059   -0.0003   -0.0293    0.2373    0.0857    0.3501   -0.0793
          28   -0.0400   -0.0017    0.0026   -0.0069    0.1198    0.0365   -0.1003    0.0190
          29    0.0530    0.0034    0.0016    0.0138   -0.1926   -0.0652    0.1631   -0.0325
          30    0.0533    0.0069    0.0007   -0.0220    0.2934    0.0929   -0.2942    0.0586
          31   -0.0057   -0.0262    0.0054    0.0029   -0.0895    0.2890    0.0724    0.3635
          32   -0.0126    0.0543   -0.0208   -0.0001    0.0109   -0.0300   -0.0125   -0.0493
          33    0.0074    0.0322   -0.0227    0.0012   -0.0390    0.1242    0.0387    0.1919
          34   -0.0096    0.0256   -0.0052   -0.0003    0.0191   -0.0619    0.0079    0.0309
          35   -0.0058   -0.0069   -0.0049   -0.0004    0.0366   -0.1152    0.0257    0.1110
          36   -0.0037   -0.0002    0.0010    0.0024   -0.1195    0.3427   -0.0795   -0.3354
          37   -0.0054   -0.0004   -0.0006   -0.0099   -0.0035   -0.0013   -0.0004    0.0010
          38   -0.1231   -0.0019   -0.0007    0.0015    0.0000    0.0000   -0.0001    0.0000
          39   -0.2223    0.0008    0.0012   -0.0037    0.0000    0.0000    0.0001   -0.0000
          40    0.0452   -0.0055   -0.0001    0.0054    0.0002    0.0001   -0.0005    0.0002
          41    0.0368    0.0010    0.0016   -0.0099   -0.0016   -0.0006    0.0029   -0.0010
          42    0.1227    0.0164   -0.0008   -0.0020    0.0003    0.0001   -0.0004    0.0001
          43    0.2965    0.0046    0.0001   -0.0071   -0.0010   -0.0004   -0.0005    0.0002
          44   -0.1338   -0.0045   -0.0014   -0.0118   -0.0010   -0.0004   -0.0016    0.0006
          45   -0.0140   -0.0009   -0.0000   -0.0113   -0.0011   -0.0004   -0.0022    0.0008
          46    0.0032   -0.0399   -0.0988   -0.0125   -0.0009    0.0002   -0.0029    0.0010
          47   -0.0033    0.1376    0.0149   -0.0013    0.0000   -0.0000    0.0009   -0.0003
          48    0.0001   -0.0722   -0.0985   -0.0115   -0.0007   -0.0002   -0.0025    0.0010
          49    0.0025   -0.0810   -0.0577   -0.0000    0.0024   -0.0078    0.0001   -0.0061
          50   -0.0013    0.0724   -0.0590    0.0001    0.0018   -0.0061    0.0005   -0.0076
          51   -0.0015    0.1205   -0.1132   -0.0001    0.0038   -0.0128    0.0010   -0.0111


   Root No.      41        42        43        44        45

                41 A      42 A      43 A      44 A      45 A   

                3080.7    3084.2    3113.9    3122.3    3179.2
  
           1   -0.0003   -0.0004   -0.0008    0.0002   -0.0003
           2   -0.0009   -0.0001   -0.0010    0.0001   -0.0004
           3   -0.0011   -0.0004   -0.0013    0.0001    0.0004
           4    0.0000    0.0003    0.0005   -0.0003   -0.0000
           5    0.0000   -0.0000   -0.0006    0.0007    0.0002
           6   -0.0003   -0.0004   -0.0001    0.0001   -0.0002
           7    0.0000    0.0001    0.0000   -0.0028    0.0000
           8    0.0000   -0.0000    0.0001    0.0005    0.0000
           9   -0.0000   -0.0000    0.0000   -0.0016   -0.0000
          10   -0.0093   -0.0470   -0.0001   -0.0000   -0.0106
          11   -0.0455    0.0173   -0.0008   -0.0000   -0.0098
          12   -0.0258   -0.0134   -0.0002   -0.0000    0.0199
          13    0.0004   -0.0001   -0.0561    0.0030   -0.0000
          14    0.0001   -0.0002    0.0070   -0.0004    0.0001
          15    0.0002    0.0002   -0.0482    0.0022   -0.0000
          16    0.0000   -0.0000   -0.0016   -0.0315    0.0000
          17    0.0001    0.0000   -0.0014   -0.0346   -0.0000
          18    0.0000   -0.0000   -0.0029   -0.0565    0.0000
          19    0.0000    0.0000    0.0050    0.0073   -0.0000
          20    0.0000    0.0000    0.0055    0.0001    0.0000
          21   -0.0001    0.0000    0.0034    0.0019    0.0000
          22    0.0034   -0.0000    0.0025   -0.0003    0.0001
          23    0.0063    0.0026    0.0135   -0.0006    0.0007
          24    0.0151    0.0044    0.0116   -0.0008    0.0023
          25   -0.0006   -0.0009   -0.0013    0.0012    0.0002
          26    0.0009    0.0018    0.0023   -0.0015   -0.0004
          27    0.0015    0.0031    0.0038   -0.0033   -0.0009
          28    0.0007    0.0020   -0.0005    0.0010    0.0000
          29   -0.0017    0.0005    0.0012   -0.0021   -0.0018
          30    0.0010   -0.0011   -0.0024    0.0033    0.0031
          31   -0.0000   -0.0007    0.0006    0.0308    0.0000
          32    0.0000    0.0001   -0.0005   -0.0069    0.0000
          33   -0.0000   -0.0004   -0.0001    0.0109   -0.0000
          34   -0.0000   -0.0001   -0.0003   -0.0038   -0.0000
          35   -0.0001   -0.0003   -0.0001   -0.0004   -0.0000
          36    0.0002    0.0007    0.0005    0.0058    0.0001
          37    0.0948    0.4497    0.0008    0.0004    0.3358
          38   -0.0233    0.0089   -0.0001   -0.0001   -0.0044
          39   -0.0100    0.0089   -0.0004    0.0000    0.0200
          40   -0.1245    0.0856   -0.0016   -0.0002   -0.1077
          41    0.3284   -0.3124    0.0041    0.0006    0.2978
          42   -0.0521    0.0288   -0.0006   -0.0001   -0.0248
          43    0.1402    0.0250    0.0018    0.0001   -0.0986
          44    0.2382    0.0968    0.0031    0.0002   -0.1733
          45    0.3720    0.1231    0.0054    0.0003   -0.2407
          46   -0.0045   -0.0000    0.6162   -0.0303    0.0001
          47    0.0011   -0.0002   -0.1495    0.0071   -0.0001
          48   -0.0040    0.0001    0.5374   -0.0263    0.0002
          49   -0.0003    0.0000    0.0142    0.2903   -0.0001
          50   -0.0004    0.0000    0.0203    0.4049   -0.0001
          51   -0.0006   -0.0000    0.0324    0.6509   -0.0002


           MASS-WEIGHTED COORDINATE ANALYSIS (NORMAL COORDINATES)


   Root No.       1         2         3         4         5         6         7         8

                 1 A       2 A       3 A       4 A       5 A       6 A       7 A       8 A   

                  61.0     207.7     228.8     356.6     393.9     435.8     522.5     619.3
  
           1    0.0424    0.0039    0.1132   -0.0650   -0.1958   -0.0157    0.3340    0.0806
           2    0.0261    0.0034   -0.0709    0.2205   -0.0348   -0.0011    0.0520    0.2930
           3    0.0467    0.0310   -0.1120   -0.0413   -0.0384    0.3737    0.0997    0.2457
           4    0.0412    0.0005    0.1154   -0.0695   -0.2287   -0.0010    0.1813    0.1569
           5    0.0351    0.0094   -0.0252   -0.0361   -0.0762    0.1237   -0.3733    0.0883
           6    0.3953    0.0462    0.0966    0.2365    0.0622   -0.1235   -0.0601    0.0095
           7   -0.0156    0.0263   -0.1563   -0.0380   -0.2594   -0.0025   -0.3041    0.2516
           8    0.0587    0.0020    0.1108   -0.1251   -0.0704    0.1811   -0.2180   -0.0854
           9   -0.2731    0.0921   -0.3001   -0.0031    0.0211   -0.1149    0.0457   -0.1301
          10   -0.2415    0.0279   -0.0417    0.3826    0.2011   -0.2612    0.0174   -0.0358
          11   -0.3109   -0.1104    0.3317   -0.0916   -0.2009   -0.2759    0.0493   -0.0327
          12   -0.2377   -0.0140    0.0176   -0.0050    0.0670    0.1886   -0.0871    0.0651
          13   -0.0006   -0.0318    0.1377   -0.1628    0.3329    0.2056    0.1790   -0.1198
          14    0.0367   -0.0162   -0.0655    0.2328    0.0953    0.0094    0.0451    0.1467
          15    0.2155    0.0174   -0.1822   -0.1068   -0.2934   -0.1649    0.1457   -0.2061
          16    0.1560   -0.0228   -0.0755   -0.0933    0.0435    0.0130   -0.1553   -0.1264
          17    0.1394    0.0937   -0.2249   -0.3060    0.2574   -0.0795    0.0253   -0.3081
          18   -0.1860   -0.0878    0.2618    0.1356    0.0242    0.2153   -0.0484   -0.2506
          19    0.0739   -0.0133   -0.0791    0.0112   -0.0012    0.1642   -0.2233   -0.3232
          20    0.0642    0.0449   -0.1588    0.2240    0.0526    0.1339    0.4994   -0.0374
          21    0.0789   -0.1058    0.2514   -0.3362    0.2428   -0.3159    0.0123    0.3372
          22    0.0713   -0.0010    0.0495   -0.0253   -0.0969   -0.0098    0.0701    0.0607
          23    0.0703    0.0158   -0.0629    0.0925   -0.0193   -0.0305    0.0578    0.0504
          24   -0.0561   -0.0017   -0.0054   -0.0293    0.0115    0.1272    0.0044    0.0797
          25    0.0729    0.0028    0.0932    0.0183   -0.0454   -0.1052    0.0094   -0.0545
          26   -0.1456    0.0111   -0.0950   -0.1221   -0.0421    0.1327   -0.0171   -0.0186
          27    0.2392    0.0088    0.1091    0.1567    0.0390   -0.1400   -0.0989   -0.0073
          28   -0.0363   -0.0058    0.0129   -0.0688   -0.0668    0.0967    0.1040    0.0559
          29    0.1738   -0.0103    0.1080    0.0797    0.0007   -0.0423   -0.2149    0.0215
          30    0.2416    0.0075    0.1119    0.1514    0.0352   -0.1314   -0.1086   -0.0046
          31    0.0478   -0.0139    0.0477    0.0227   -0.0652    0.0527   -0.0587    0.0129
          32    0.0664   -0.0013    0.0979   -0.0189   -0.0411    0.0539    0.0125    0.0073
          33   -0.1824    0.0744   -0.2795   -0.0727   -0.0224   -0.1574   -0.0348    0.1145
          34   -0.1290    0.0587   -0.2710   -0.0909   -0.0999   -0.1283   -0.1628    0.2329
          35   -0.0557   -0.0196    0.0682   -0.0369   -0.0430    0.1199   -0.0799   -0.0575
          36   -0.1239    0.0287   -0.1136   -0.0148   -0.0065   -0.0344   -0.0077   -0.0187
          37   -0.0688    0.0007   -0.0145    0.1131    0.0602   -0.0761    0.0045   -0.0101
          38   -0.1195    0.4588    0.2748   -0.1246   -0.1365   -0.0843    0.0483   -0.0459
          39   -0.1550    0.2308    0.0476    0.1039    0.1246   -0.0295   -0.1356   -0.0484
          40   -0.0520   -0.4164   -0.1711    0.2129    0.1421   -0.0853   -0.0400    0.0098
          41   -0.0897   -0.2116    0.0479   -0.0070   -0.0423   -0.0943    0.0025   -0.0213
          42   -0.1108   -0.3134    0.0242   -0.0862   -0.0463   -0.0203   -0.0083   -0.1039
          43   -0.1551    0.4499    0.1125    0.1468    0.1053   -0.1436   -0.0634   -0.0786
          44   -0.1401   -0.3725    0.0760   -0.0468   -0.0688   -0.1725   -0.0060   -0.1262
          45   -0.0063    0.0598   -0.0248    0.0001    0.0098    0.1345    0.0108    0.1153
          46   -0.0383   -0.0232    0.0931   -0.1091    0.3193    0.1076    0.0157    0.1405
          47    0.0115   -0.0219    0.0003    0.0312    0.1111   -0.0514   -0.0920    0.0393
          48    0.1050    0.0156   -0.1064    0.0306   -0.3184   -0.1171    0.0526   -0.2591
          49    0.0951   -0.0199    0.0002   -0.0997    0.1190   -0.0619    0.0209    0.0317
          50    0.0586    0.0589   -0.1606   -0.2560    0.2023   -0.1478    0.0135   -0.0713
          51   -0.0877   -0.0385    0.1227    0.1749   -0.1213    0.1666   -0.0464   -0.1117


   Root No.       9        10        11        12        13        14        15        16

                 9 A      10 A      11 A      12 A      13 A      14 A      15 A      16 A   

                 722.9     834.1     845.7     853.7     885.6     958.6     969.1    1006.1
  
           1   -0.0432   -0.2891   -0.1191   -0.0245   -0.0644    0.1261   -0.0366   -0.0314
           2   -0.2463   -0.1414   -0.1222    0.0736    0.0053   -0.1142    0.0305   -0.0365
           3   -0.1202   -0.1565   -0.0956    0.0242   -0.0556   -0.0670    0.0945   -0.1149
           4   -0.1257    0.3831   -0.0957    0.2036    0.0279    0.0718    0.1473    0.2134
           5    0.1186   -0.2419    0.0870   -0.3762    0.0218    0.1389   -0.0466    0.2664
           6   -0.1690   -0.0812    0.3604   -0.1061   -0.0011    0.0309    0.1873   -0.0593
           7    0.0504    0.2676    0.1744   -0.0967    0.0923   -0.1990   -0.2698   -0.2670
           8    0.0725    0.1074    0.0327    0.1085    0.0141   -0.0860    0.1085   -0.2057
           9   -0.1543    0.0861    0.0400   -0.0832    0.0503   -0.0066   -0.2706    0.1345
          10   -0.0497   -0.1821   -0.0353   -0.0635   -0.0970    0.0570   -0.1782   -0.1633
          11   -0.0823   -0.1246   -0.0255   -0.0105   -0.0314   -0.3307    0.0154    0.1594
          12    0.0789    0.1018   -0.0807    0.1099    0.1067    0.1565   -0.1227    0.0872
          13    0.3224   -0.1314    0.1440   -0.0179    0.2593   -0.2056    0.0203   -0.0522
          14   -0.0916    0.1382   -0.0378    0.1526    0.0310    0.3209   -0.0215   -0.0402
          15    0.1381    0.1261   -0.0235   -0.2021   -0.4197   -0.1930    0.0264    0.0806
          16   -0.0551   -0.0651    0.0338    0.0186   -0.0071    0.0671   -0.0167    0.0818
          17   -0.0913   -0.0922    0.0634    0.4053   -0.1491   -0.0147   -0.1343   -0.0167
          18   -0.0751    0.0054   -0.2875   -0.0855    0.0548   -0.0120    0.1844   -0.1402
          19   -0.1400   -0.0723   -0.1122    0.0777   -0.1158    0.0461    0.1116    0.0354
          20    0.4063    0.1946    0.0927   -0.2069    0.1025    0.0020   -0.0470    0.0047
          21    0.0580   -0.0512    0.1567    0.1190    0.1448    0.0214   -0.1053   -0.0277
          22   -0.0730   -0.1566    0.0674   -0.1145   -0.0335    0.2149    0.1305    0.0980
          23   -0.0801    0.0333   -0.0372    0.0373   -0.0705   -0.0637    0.1294   -0.2092
          24   -0.0043   -0.0617   -0.0671    0.0412    0.0419   -0.0591   -0.1121    0.0710
          25    0.0947    0.2127   -0.1907    0.1100    0.0297    0.1456   -0.1392    0.4105
          26   -0.1530   -0.0679    0.3210   -0.1887    0.0245    0.1519    0.0455    0.2528
          27    0.1300    0.0188   -0.1559    0.0415   -0.0023   -0.0200   -0.0554    0.0014
          28   -0.1051    0.0430    0.0816    0.0346   -0.0155    0.0213    0.2626   -0.0188
          29    0.2701   -0.0520   -0.2830   -0.0491   -0.0005   -0.0108   -0.0431    0.0617
          30    0.1395    0.0100   -0.1523    0.0192    0.0027   -0.0234   -0.0564    0.0070
          31   -0.1141    0.1576    0.1068   -0.1064    0.0604   -0.0905   -0.2375   -0.0630
          32   -0.1036    0.2147    0.1285    0.1077    0.0207   -0.0679    0.0678   -0.1006
          33    0.2262   -0.1092   -0.0882    0.1660   -0.0541    0.0660    0.2940    0.0043
          34    0.3417   -0.1033   -0.0765    0.1189   -0.0407    0.0166    0.2808   -0.1171
          35    0.0478    0.0915   -0.1912   -0.0690    0.0528   -0.0533    0.0009   -0.0384
          36    0.0276    0.0106   -0.0804   -0.0254    0.0174    0.0004   -0.0203    0.0340
          37   -0.0154   -0.0531   -0.0082   -0.0182   -0.0268    0.0118   -0.0468   -0.0443
          38    0.0170   -0.0730   -0.0257   -0.0672   -0.0939    0.1600   -0.1067   -0.1779
          39    0.0483    0.2476    0.1464    0.0418    0.1213   -0.0970    0.3091    0.1847
          40   -0.0506    0.0016    0.0403    0.0266    0.0474   -0.2509    0.1268    0.1568
          41   -0.0213   -0.0062    0.0190   -0.0041    0.0004   -0.1194    0.0609    0.0626
          42    0.1187    0.1151    0.0465   -0.0643   -0.0561    0.4680   -0.0519   -0.2883
          43    0.0158    0.0858    0.1232   -0.0468    0.0017   -0.0116    0.1869   -0.0226
          44    0.0484    0.0806    0.1058   -0.0858   -0.0615    0.1293    0.1216   -0.1582
          45   -0.0326   -0.0908   -0.1398    0.0929    0.0531   -0.0847   -0.1894    0.1443
          46    0.0688    0.1480   -0.0070   -0.1592   -0.4825   -0.0916    0.0024    0.0523
          47   -0.0581    0.1787    0.0031    0.1173   -0.0684    0.2284   -0.0180    0.0594
          48    0.0570   -0.1422    0.0519    0.1390    0.4935    0.0193    0.0094   -0.0336
          49   -0.0213   -0.0274   -0.1022   -0.1812    0.1316    0.1609    0.2002    0.1809
          50   -0.2635    0.1520   -0.3521   -0.3039    0.2162   -0.0655    0.0699   -0.2052
          51    0.1304   -0.1036    0.1983    0.3204   -0.2035   -0.0285   -0.1057    0.0126


   Root No.      17        18        19        20        21        22        23        24

                17 A      18 A      19 A      20 A      21 A      22 A      23 A      24 A   

                1025.5    1065.6    1085.8    1088.6    1105.7    1121.4    1144.1    1185.2
  
           1   -0.1589    0.0217   -0.1007    0.0217    0.1240    0.0909   -0.1491    0.1948
           2   -0.1745    0.1767    0.0235   -0.0398   -0.0027   -0.0104   -0.1322    0.1205
           3   -0.1035   -0.0058    0.0895   -0.0464   -0.2468   -0.0083   -0.1975    0.1818
           4   -0.0158   -0.0221    0.0324    0.0182   -0.2181   -0.1680    0.1983   -0.0571
           5   -0.0761    0.1439   -0.1332   -0.0158   -0.2177   -0.0719    0.0966   -0.0131
           6    0.1929   -0.0934    0.1477    0.1805    0.0782   -0.1366    0.0324   -0.0496
           7   -0.0545   -0.1169   -0.0559   -0.0843    0.1286   -0.0714    0.0886    0.1244
           8    0.1903   -0.0141    0.1410   -0.0058    0.2276    0.0830   -0.1052    0.1051
           9   -0.0960    0.0813    0.0787   -0.0980   -0.1613    0.2740    0.0378   -0.0022
          10    0.2215    0.0025    0.0842    0.0245   -0.0321   -0.0275    0.0490   -0.0468
          11    0.1233   -0.0567   -0.0160    0.0522    0.0461    0.0208    0.0667   -0.0317
          12   -0.0131    0.1361   -0.0927    0.1092    0.2643    0.0576    0.1915   -0.1190
          13    0.0035    0.2011   -0.0525    0.1627   -0.1029    0.0294   -0.0528    0.0295
          14    0.0289   -0.1643   -0.0153   -0.0769    0.0344   -0.0236   -0.1185   -0.2388
          15    0.0642    0.0218   -0.0679    0.0445    0.0266    0.0173   -0.0364   -0.0023
          16   -0.0056   -0.0165    0.0941   -0.0583    0.0132    0.0716   -0.1145   -0.2094
          17   -0.1931   -0.1537    0.0014   -0.1260    0.0270   -0.1256    0.2155    0.1165
          18    0.0506   -0.0859   -0.1709   -0.1691    0.1176   -0.2475    0.1646    0.1031
          19    0.0556    0.0478   -0.0315   -0.0023   -0.0166    0.0372   -0.1024   -0.1144
          20    0.0538   -0.1323   -0.0287   -0.0582    0.0556   -0.0381    0.0498   -0.0482
          21   -0.0726   -0.0279    0.0243   -0.0235   -0.0143   -0.0201   -0.0650   -0.1319
          22   -0.2537   -0.2393   -0.3344   -0.0015    0.3675    0.3361   -0.0212   -0.0997
          23   -0.2465    0.5600    0.1599    0.2176    0.0584   -0.0306    0.2520    0.0002
          24    0.1878   -0.2678    0.0340   -0.1727   -0.2458   -0.1053   -0.2783    0.1439
          25    0.0180    0.2263    0.1244    0.0157    0.1345   -0.2940   -0.3097    0.0585
          26    0.1359    0.1259    0.1012    0.1297    0.0688   -0.2475   -0.1207   -0.0456
          27   -0.0345    0.0098    0.0036   -0.0291    0.0080    0.0161   -0.0374    0.0384
          28    0.0350   -0.1777    0.0215    0.0860   -0.3383    0.0222    0.3109   -0.3191
          29   -0.1267   -0.0005   -0.0874   -0.0629   -0.3284    0.1416    0.1477   -0.1726
          30   -0.0337    0.0109    0.0075   -0.0176   -0.0388    0.0360   -0.0187    0.0024
          31   -0.0817   -0.0384   -0.0158   -0.0563    0.0033    0.0083    0.0734    0.0638
          32    0.3475    0.3317   -0.1541   -0.3156   -0.0436    0.4298   -0.1807   -0.1387
          33    0.1925    0.1115   -0.0228   -0.0402   -0.0045    0.1071   -0.1146   -0.1023
          34    0.1090   -0.0893   -0.0141    0.0375    0.1324   -0.1953    0.0358    0.0425
          35   -0.1322   -0.2605    0.5247    0.3915    0.0710    0.2805   -0.1601   -0.1103
          36   -0.0667   -0.0736    0.1850    0.1126   -0.0272    0.1378   -0.0306   -0.0468
          37    0.0601   -0.0005    0.0221    0.0080   -0.0067   -0.0051    0.0130   -0.0125
          38    0.0904    0.0348    0.0702    0.0006   -0.0855   -0.0273    0.0244   -0.0214
          39   -0.3462   -0.0136   -0.1057   -0.0500    0.0577    0.0388   -0.1165    0.0890
          40   -0.0467   -0.0604   -0.0385    0.0031    0.0138    0.0266   -0.0292    0.0276
          41   -0.0176   -0.0227   -0.0122    0.0038   -0.0023    0.0101   -0.0060    0.0095
          42   -0.1128    0.1048    0.0466   -0.0460   -0.0537   -0.0311   -0.0429    0.0085
          43   -0.1740   -0.0440   -0.0009   -0.0639   -0.0910    0.0041   -0.1298    0.0842
          44   -0.1474    0.0171    0.0561   -0.0684   -0.1499   -0.0291   -0.1207    0.0864
          45    0.1889    0.0363   -0.0573    0.1090    0.2100    0.0356    0.1928   -0.1280
          46    0.0305    0.0274   -0.0410    0.0646    0.0185    0.0344   -0.0097    0.0506
          47    0.2331   -0.0762   -0.3016    0.5064   -0.1929    0.2259    0.0583    0.5121
          48    0.0487    0.0325   -0.0779    0.1426   -0.1059    0.0433    0.0007    0.1139
          49    0.1455   -0.0101    0.3802   -0.3776    0.1245    0.1938    0.3525    0.3770
          50    0.0275   -0.0178   -0.2625    0.1305    0.0165   -0.1809   -0.1452   -0.1549
          51   -0.1010   -0.0410   -0.0430    0.0013   -0.0220   -0.0588    0.0064   -0.0492


   Root No.      25        26        27        28        29        30        31        32

                25 A      26 A      27 A      28 A      29 A      30 A      31 A      32 A   

                1234.5    1246.8    1309.1    1344.9    1397.8    1400.9    1401.9    1407.7
  
           1    0.5367   -0.2528   -0.1631   -0.1013   -0.0133    0.0352   -0.0650    0.0201
           2   -0.2316   -0.1808    0.0681    0.5441    0.0066    0.0817   -0.2315    0.0530
           3   -0.1110    0.3885   -0.0109   -0.2419    0.0060   -0.1045    0.2127   -0.0755
           4   -0.3054   -0.2402    0.2117   -0.1533    0.1913   -0.0397    0.0826    0.0630
           5   -0.1146   -0.2180    0.0293   -0.2328   -0.2236    0.1324    0.0521   -0.0730
           6    0.0221   -0.1239   -0.0492    0.0287   -0.0171    0.0101   -0.0363    0.0057
           7    0.0126    0.0823   -0.1431   -0.0017   -0.1634   -0.2865   -0.1614   -0.0305
           8    0.2372    0.1486    0.5252    0.0838    0.0927    0.0285    0.0198    0.0288
           9    0.1322    0.0752    0.2166    0.0499    0.0921    0.1545    0.0832    0.0139
          10   -0.1420    0.0762    0.0325    0.0377    0.0938   -0.0809    0.0695   -0.1732
          11    0.0311    0.0745   -0.0105   -0.0742   -0.0043   -0.0711    0.1775   -0.2502
          12    0.0335   -0.0793    0.0028   -0.0634    0.0749    0.1940   -0.4021    0.0612
          13   -0.1508    0.0095    0.0613    0.1215    0.0064    0.0234   -0.0078    0.0004
          14    0.1953    0.0301    0.0016   -0.2162    0.0297   -0.0007    0.0856   -0.0039
          15   -0.0357   -0.0692    0.0312    0.1041    0.0075    0.0236   -0.0318    0.0090
          16    0.0677   -0.0046    0.1105   -0.0585    0.0184    0.0351    0.0241    0.0050
          17   -0.1068   -0.0186   -0.2450   -0.0125   -0.0409   -0.0618   -0.0338   -0.0091
          18   -0.0557   -0.0011   -0.1772   -0.0130   -0.0376   -0.0568   -0.0336   -0.0072
          19   -0.0051   -0.0398    0.0375   -0.0054    0.0192    0.0303    0.0150    0.0052
          20   -0.0084    0.0234   -0.0164   -0.0592   -0.0138   -0.0257    0.0002   -0.0030
          21    0.0095    0.0147    0.0137   -0.0408    0.0026    0.0012    0.0164   -0.0016
          22   -0.3508    0.3203    0.0745    0.0925    0.0348   -0.0340    0.0279   -0.0067
          23    0.0985    0.1202   -0.0469   -0.1742   -0.0101   -0.0381    0.0833   -0.0288
          24    0.0452   -0.1671   -0.0021    0.1233   -0.0028    0.0315   -0.0651    0.0135
          25   -0.0029    0.3993   -0.1252    0.1375   -0.2457    0.0644   -0.0452   -0.0860
          26    0.0752    0.1326   -0.2443    0.1287    0.3181   -0.2332   -0.0341    0.0992
          27   -0.0292    0.0181    0.0686   -0.0437   -0.3147    0.1786   -0.0020   -0.0999
          28    0.2685    0.2443   -0.0702    0.3399   -0.3164    0.1305   -0.1565   -0.1054
          29    0.1910    0.1852   -0.1447    0.1849    0.3039   -0.2038   -0.0404    0.0820
          30    0.0099    0.0001   -0.0542    0.0110    0.3318   -0.1819    0.0243    0.1025
          31    0.0208    0.0659   -0.1231    0.0481    0.0790    0.1959    0.1012    0.0057
          32   -0.1142   -0.0570   -0.4311   -0.0360   -0.0024    0.1372    0.0676   -0.0139
          33   -0.0461   -0.0854    0.0604   -0.0929   -0.2172   -0.4449   -0.2370   -0.0290
          34   -0.0177    0.0435   -0.2019    0.0838    0.2356    0.4983    0.2640    0.0314
          35   -0.1687   -0.1557   -0.2879   -0.0465   -0.0686   -0.0245   -0.0262   -0.0149
          36   -0.0424   -0.0433   -0.0974    0.0008    0.0236    0.0895    0.0427    0.0007
          37   -0.0402    0.0311    0.0079   -0.0036    0.0124   -0.0089    0.0091   -0.0226
          38   -0.1043    0.0920    0.0130    0.0049   -0.1072   -0.0007   -0.0047    0.6358
          39    0.1838   -0.2021   -0.0338    0.1678    0.0409   -0.1817    0.2373   -0.0415
          40    0.0591    0.0858   -0.0276   -0.1189   -0.1999    0.0322    0.0605    0.6156
          41    0.0292    0.0331   -0.0121   -0.0269   -0.0990   -0.0179    0.1026    0.1813
          42   -0.0405   -0.1601    0.0203    0.3188   -0.2103   -0.1390    0.4098    0.0067
          43    0.0100    0.0716   -0.0125   -0.1158   -0.1082    0.1267   -0.0672   -0.0527
          44   -0.0639    0.0812    0.0058   -0.1235    0.2099    0.1158   -0.3887   -0.0439
          45    0.0414   -0.0866    0.0021    0.1136   -0.0859   -0.1092    0.2504    0.0336
          46    0.0005   -0.0262    0.0143    0.0535   -0.0002    0.0093   -0.0184    0.0031
          47    0.0334    0.0704   -0.0561   -0.0021   -0.0129   -0.0224   -0.0014   -0.0089
[...]
 TRAVEL      0.1220         C  1 -- C  5          +8.4% ( 36.2%)     31.7%
 RED. MASS   0.3365         C  2 -- H 10          +8.0% ( 35.3%)      1.8%
 EFF. MASS   3.8255

 VIBRATION   25   25A         ATOM PAIR      ENERGY CONTRIBUTION    RADIAL
 FREQ.      1234.54         C  1 -- H  8         +18.1% ( 64.1%)      0.1%
 T-DIPOLE    0.2169         C  1 -- C  2         +15.8% ( 59.9%)     95.8%
 TRAVEL      0.0838         C  1 -- C  5         +15.0% ( 58.3%)     59.0%
 RED. MASS   1.7983         C  1 -- C  4         +11.8% ( 51.8%)     12.7%
 EFF. MASS   7.7833

 VIBRATION   26   26A         ATOM PAIR      ENERGY CONTRIBUTION    RADIAL
 FREQ.      1246.83         C  1 -- H  8         +19.1% ( 58.6%)      1.0%
 T-DIPOLE    0.1032         C  2 -- H  9         +13.9% ( 50.0%)      1.6%
 TRAVEL      0.1013         C  1 -- C  4         +13.0% ( 48.4%)     96.5%
 RED. MASS   0.9959         C  1 -- C  2         +12.7% ( 47.8%)      0.1%
 EFF. MASS   5.2651         C  2 -- H 10         +10.6% ( 43.7%)      0.4%
                            C  1 -- C  5         +10.5% ( 43.5%)      9.2%

 VIBRATION   27   27A         ATOM PAIR      ENERGY CONTRIBUTION    RADIAL
 FREQ.      1309.10         C  3 -- H 11         +20.8% ( 65.0%)      0.3%
 T-DIPOLE    0.1145         C  3 -- C  6         +19.4% ( 62.9%)     89.1%
 TRAVEL      0.0893         C  3 -- H 12         +17.1% ( 59.0%)      0.1%
 RED. MASS   1.6515         C  2 -- C  3         +11.5% ( 48.3%)     16.1%
 EFF. MASS   6.4637         C  3 -- C  7         +10.7% ( 46.7%)     46.5%

 VIBRATION   28   28A         ATOM PAIR      ENERGY CONTRIBUTION    RADIAL
 FREQ.      1344.87         C  1 -- C  5         +20.2% ( 61.5%)     92.9%
 T-DIPOLE    0.1981         C  1 -- H  8         +17.0% ( 56.4%)      0.5%
 TRAVEL      0.0874         C  1 -- C  2         +16.4% ( 55.4%)      0.4%
 RED. MASS   1.7813         C  1 -- C  4         +13.4% ( 50.0%)     27.5%
 EFF. MASS   6.5681

 VIBRATION   29   29A         ATOM PAIR      ENERGY CONTRIBUTION    RADIAL
 FREQ.      1397.80         C  2 -- H 10         +27.3% ( 52.4%)      3.8%
 T-DIPOLE    0.0481         C  2 -- H  9         +22.8% ( 47.9%)      5.5%
 TRAVEL      0.1419         C  2 -- C  3          +8.7% ( 29.5%)      5.0%
 RED. MASS   0.2968         C  3 -- H 12          +7.6% ( 27.6%)      3.1%
 EFF. MASS   2.3972

 VIBRATION   30   30A         ATOM PAIR      ENERGY CONTRIBUTION    RADIAL
 FREQ.      1400.92         C  3 -- H 12         +21.5% ( 50.4%)      4.5%
 T-DIPOLE    0.0677         C  3 -- H 11         +20.9% ( 49.7%)      5.3%
 TRAVEL      0.1267         C  3 -- C  6          +7.4% ( 29.6%)     75.6%
 RED. MASS   0.3277         C  2 -- C  3          +6.8% ( 28.4%)     47.1%
 EFF. MASS   3.0004

 VIBRATION   31   31A         ATOM PAIR      ENERGY CONTRIBUTION    RADIAL
 FREQ.      1401.92         C  4 -- H 15         +19.6% ( 54.1%)      4.7%
 T-DIPOLE    0.0537         C  4 -- H 14         +17.4% ( 51.0%)      4.3%
 TRAVEL      0.1021         C  1 -- C  4         +16.8% ( 50.1%)     94.4%
 RED. MASS   0.7100         C  4 -- H 13         +12.0% ( 42.3%)      0.7%
 EFF. MASS   4.6097

 VIBRATION   32   32A         ATOM PAIR      ENERGY CONTRIBUTION    RADIAL
 FREQ.      1407.71         C  4 -- H 14         +38.4% ( 58.3%)      3.5%
 T-DIPOLE    0.0575         C  4 -- H 13         +37.6% ( 57.7%)      3.1%
 TRAVEL      0.1517         C  1 -- C  4          +8.3% ( 27.1%)     63.1%
 RED. MASS   0.4526         C  4 -- H 15          +5.8% ( 22.6%)     24.8%
 EFF. MASS   2.0824

 VIBRATION   33   33A         ATOM PAIR      ENERGY CONTRIBUTION    RADIAL
 FREQ.      1409.05         C  4 -- H 15         +45.4% ( 60.2%)      0.6%
 T-DIPOLE    0.0558         C  4 -- H 13         +27.9% ( 47.2%)      7.2%
 TRAVEL      0.1644         C  4 -- H 14          +9.9% ( 28.2%)     16.8%
 RED. MASS   0.3773         C  1 -- C  4          +5.9% ( 21.7%)     52.6%
 EFF. MASS   1.7711

 VIBRATION   34   34A         ATOM PAIR      ENERGY CONTRIBUTION    RADIAL
 FREQ.      1538.47         C  6 -- C  7         +20.1% ( 69.1%)     75.9%
 T-DIPOLE    0.6283         C  5 -- C  7         +19.9% ( 68.9%)     75.7%
 TRAVEL      0.0618         C  3 -- C  6         +14.5% ( 58.8%)     24.0%
 RED. MASS   3.8140         C  1 -- C  5         +14.5% ( 58.7%)     27.0%
 EFF. MASS  11.4803         C  5 -- H 16         +14.1% ( 58.0%)      7.1%
                            C  6 -- H 17         +14.1% ( 57.9%)      7.4%

 VIBRATION   35   35A         ATOM PAIR      ENERGY CONTRIBUTION    RADIAL
 FREQ.      2082.62         C  5 -- C  7         +33.1% ( 84.6%)     93.9%
 T-DIPOLE    0.6066         C  6 -- C  7         +32.8% ( 84.2%)     94.0%
 TRAVEL      0.0522         C  3 -- C  7         +19.3% ( 64.6%)     29.0%
 RED. MASS   5.5368         C  1 -- C  5          +3.9% ( 29.0%)     12.4%
 EFF. MASS  11.8924

 VIBRATION   36   36A         ATOM PAIR      ENERGY CONTRIBUTION    RADIAL
 FREQ.      2882.87         C  1 -- H  8         +96.3% ( 99.8%)    100.0%
 T-DIPOLE    0.0977         C  1 -- C  2          +1.1% ( 10.6%)      7.2%
 TRAVEL      0.1268         C  1 -- C  4          +1.1% ( 10.6%)      8.9%
 RED. MASS   0.9213         C  1 -- C  5          +1.1% ( 10.5%)      7.8%
 EFF. MASS   1.4555

 VIBRATION   37   37A         ATOM PAIR      ENERGY CONTRIBUTION    RADIAL
 FREQ.      2955.57         C  2 -- H 10         +51.8% ( 74.9%)     97.3%
 T-DIPOLE    0.0245         C  2 -- H  9         +35.5% ( 62.0%)     95.0%
 TRAVEL      0.1212         C  3 -- H 12          +6.1% ( 25.6%)     97.1%
 RED. MASS   0.4367         C  3 -- H 11          +3.8% ( 20.4%)     94.7%
 EFF. MASS   1.5528

 VIBRATION   38   38A         ATOM PAIR      ENERGY CONTRIBUTION    RADIAL
 FREQ.      2975.51         C  3 -- H 12         +49.4% ( 73.2%)     97.2%
 T-DIPOLE    0.0803         C  3 -- H 11         +37.6% ( 63.9%)     95.8%
 TRAVEL      0.1214         C  2 -- H 10          +5.2% ( 23.7%)     97.2%
 RED. MASS   0.4311         C  2 -- H  9          +4.5% ( 22.0%)     96.1%
 EFF. MASS   1.5387

 VIBRATION   39   39A         ATOM PAIR      ENERGY CONTRIBUTION    RADIAL
 FREQ.      3040.13         C  2 -- H  9         +55.9% ( 73.6%)     98.7%
 T-DIPOLE    0.0555         C  2 -- H 10         +38.4% ( 61.0%)     96.5%
 TRAVEL      0.1319         C  3 -- H 12          +2.2% ( 14.8%)     97.3%
 RED. MASS   0.4551         C  3 -- H 11          +2.2% ( 14.7%)     97.6%
 EFF. MASS   1.2749

 VIBRATION   40   40A         ATOM PAIR      ENERGY CONTRIBUTION    RADIAL
 FREQ.      3052.77         C  3 -- H 11         +54.5% ( 73.0%)     98.5%
 T-DIPOLE    0.0960         C  3 -- H 12         +39.2% ( 61.9%)     96.5%
 TRAVEL      0.1316         C  2 -- H  9          +2.9% ( 16.7%)     99.2%
 RED. MASS   0.4521         C  2 -- H 10          +1.5% ( 12.0%)     95.6%
 EFF. MASS   1.2746

 VIBRATION   41   41A         ATOM PAIR      ENERGY CONTRIBUTION    RADIAL
 FREQ.      3080.72         C  4 -- H 15         +59.9% ( 79.8%)     98.4%
 T-DIPOLE    0.0274         C  4 -- H 14         +35.6% ( 61.6%)     94.4%
 TRAVEL      0.1206         C  4 -- H 13          +3.4% ( 19.1%)     41.4%
 RED. MASS   0.5154         C  1 -- C  4          +1.0% ( 10.3%)      0.0%
 EFF. MASS   1.5052

 VIBRATION   42   42A         ATOM PAIR      ENERGY CONTRIBUTION    RADIAL
 FREQ.      3084.23         C  4 -- H 13         +59.7% ( 79.7%)     98.5%
 T-DIPOLE    0.0375         C  4 -- H 14         +31.3% ( 57.7%)     92.9%
 TRAVEL      0.1204         C  4 -- H 15          +8.0% ( 29.2%)     67.1%
 RED. MASS   0.4907         C  1 -- C  4          +1.0% ( 10.5%)      0.0%
 EFF. MASS   1.5079

 VIBRATION   43   43A         ATOM PAIR      ENERGY CONTRIBUTION    RADIAL
 FREQ.      3113.86         C  5 -- H 16         +96.2% ( 99.8%)    100.0%
 T-DIPOLE    0.3786         C  5 -- C  7          +1.8% ( 13.7%)     52.1%
 TRAVEL      0.1180         C  1 -- C  5          +1.6% ( 12.8%)     21.7%
 RED. MASS   0.9235         C  6 -- H 17          +0.2% (  4.9%)    100.0%
 EFF. MASS   1.5562

 VIBRATION   44   44A         ATOM PAIR      ENERGY CONTRIBUTION    RADIAL
 FREQ.      3122.35         C  6 -- H 17         +96.1% ( 99.7%)    100.0%
 T-DIPOLE    0.3586         C  6 -- C  7          +1.8% ( 13.7%)     52.5%
 TRAVEL      0.1178         C  3 -- C  6          +1.6% ( 12.9%)     25.3%
 RED. MASS   0.9215         C  5 -- H 16          +0.2% (  4.9%)     99.9%
 EFF. MASS   1.5570

 VIBRATION   45   45A         ATOM PAIR      ENERGY CONTRIBUTION    RADIAL
 FREQ.      3179.15         C  4 -- H 13         +36.5% ( 58.1%)     97.6%
 T-DIPOLE    0.0399         C  4 -- H 14         +32.2% ( 54.6%)     96.9%
 TRAVEL      0.1367         C  4 -- H 15         +31.1% ( 53.6%)     96.7%
 RED. MASS   0.3284         C  1 -- C  4          +0.3% (  5.0%)     99.5%
 EFF. MASS   1.1350

      SYMMETRY NUMBER FOR POINT-GROUP C1  =  1


          SYSTEM IS A GROUND STATE



 InChI=1S/C7H10/c1-7-5-3-2-4-6-7/h2,6-7H,3,5H2,1H3


          MOLECULE IS NOT LINEAR

          THERE ARE 45 GENUINE VIBRATIONS IN THIS SYSTEM
          THIS THERMODYNAMICS CALCULATION IS LIMITED TO
          MOLECULES WHICH HAVE NO INTERNAL ROTATIONS




                    CALCULATED THERMODYNAMIC PROPERTIES
                                          *
   TEMP. (K)   PARTITION FUNCTION   H.O.F.    ENTHALPY  HEAT CAPACITY ENTROPY
                                   KCAL/MOL   CAL/MOLE    CAL/K/MOL  CAL/K/MOL


 298.00  VIB.     0.2065D+02                  2477.1111    19.9365    14.3291
         ROT.     0.1790D+06                   888.2813     2.9808    27.0164
         INT.     0.3696D+07                  3365.3924    22.9174    41.3455
         TRA.     0.8833D+27                  1480.4688     4.9680    39.5363
         TOT.                       63.249    4845.8613    27.8854    80.8818

 200.00  VIB.     0.5723D+01                   964.9461    11.2189     8.2913
         ROT.     0.9842D+05                   596.1620     2.9808    25.8277
         INT.     0.5632D+06                  1561.1080    14.1997    34.1190
         TRA.     0.4856D+27                   993.6033     4.9680    37.5551
         TOT.                       60.958    2554.7113    19.1677    71.6741

 210.00  VIB.     0.6468D+01                  1081.0894    12.0142     8.8578
         ROT.     0.1059D+06                   625.9700     2.9808    25.9732
         INT.     0.6849D+06                  1707.0594    14.9951    34.8309
         TRA.     0.5225D+27                  1043.2834     4.9680    37.7975
         TOT.                       61.154    2750.3429    19.9631    72.6285

 220.00  VIB.     0.7324D+01                  1205.3192    12.8361     9.4355
         ROT.     0.1135D+06                   655.7781     2.9808    26.1118
         INT.     0.8316D+06                  1861.0974    15.8169    35.5474
         TRA.     0.5603D+27                  1092.9636     4.9680    38.0286
         TOT.                       61.357    2954.0610    20.7849    73.5760

 230.00  VIB.     0.8310D+01                  1337.8947    13.6831    10.0247
         ROT.     0.1214D+06                   685.5862     2.9808    26.2443
         INT.     0.1009D+07                  2023.4809    16.6639    36.2691
         TRA.     0.5989D+27                  1142.6437     4.9680    38.2495
         TOT.                       61.569    3166.1247    21.6319    74.5185

 240.00  VIB.     0.9447D+01                  1479.0599    14.5537    10.6254
         ROT.     0.1294D+06                   715.3943     2.9808    26.3712
         INT.     0.1222D+07                  2194.4542    17.5345    36.9966
         TRA.     0.6384D+27                  1192.3239     4.9680    38.4609
         TOT.                       61.790    3386.7781    22.5025    75.4575

 250.00  VIB.     0.1076D+02                  1629.0388    15.4455    11.2375
         ROT.     0.1375D+06                   745.2024     2.9808    26.4929
         INT.     0.1480D+07                  2374.2413    18.4263    37.7304
         TRA.     0.6787D+27                  1242.0041     4.9680    38.6637
         TOT.                       62.020    3616.2453    23.3943    76.3941

 260.00  VIB.     0.1228D+02                  1788.0314    16.3560    11.8610
         ROT.     0.1459D+06                   775.0105     2.9808    26.6098
         INT.     0.1791D+07                  2563.0420    19.3368    38.4708
         TRA.     0.7198D+27                  1291.6842     4.9680    38.8586
         TOT.                       62.258    3854.7262    24.3048    77.3293

 270.00  VIB.     0.1404D+02                  1956.2110    17.2824    12.4956
         ROT.     0.1544D+06                   804.8186     2.9808    26.7223
         INT.     0.2168D+07                  2761.0296    20.2632    39.2179
         TRA.     0.7618D+27                  1341.3644     4.9680    39.0461
         TOT.                       62.506    4102.3940    25.2312    78.2639

 280.00  VIB.     0.1609D+02                  2133.7224    18.2218    13.1410
         ROT.     0.1630D+06                   834.6267     2.9808    26.8307
         INT.     0.2623D+07                  2968.3492    21.2027    39.9717
         TRA.     0.8045D+27                  1391.0445     4.9680    39.2267
         TOT.                       62.763    4359.3937    26.1707    79.1985

 290.00  VIB.     0.1847D+02                  2320.6817    19.1715    13.7970
         ROT.     0.1718D+06                   864.4348     2.9808    26.9353
         INT.     0.3173D+07                  3185.1166    22.1523    40.7323
         TRA.     0.8479D+27                  1440.7247     4.9680    39.4011
         TOT.                       63.029    4625.8413    27.1203    80.1334

 300.00  VIB.     0.2124D+02                  2517.1760    20.1284    14.4631
         ROT.     0.1808D+06                   894.2429     2.9808    27.0363
         INT.     0.3840D+07                  3411.4189    23.1092    41.4994
         TRA.     0.8922D+27                  1490.4049     4.9680    39.5695
         TOT.                       63.305    4901.8238    28.0772    81.0689

 310.00  VIB.     0.2447D+02                  2723.2643    21.0898    15.1387
         ROT.     0.1899D+06                   924.0510     2.9808    27.1341
         INT.     0.4648D+07                  3647.3153    24.0706    42.2728
         TRA.     0.9372D+27                  1540.0850     4.9680    39.7324
         TOT.                       63.591    5187.4003    29.0386    82.0052

 320.00  VIB.     0.2825D+02                  2938.9786    22.0532    15.8235
         ROT.     0.1992D+06                   953.8591     2.9808    27.2287
         INT.     0.5626D+07                  3892.8378    25.0340    43.0522
         TRA.     0.9829D+27                  1589.7652     4.9680    39.8901
         TOT.                       63.886    5482.6030    30.0020    82.9424

 330.00  VIB.     0.3267D+02                  3164.3261    23.0160    16.5169
         ROT.     0.2086D+06                   983.6672     2.9808    27.3204
         INT.     0.6814D+07                  4147.9933    25.9968    43.8373
         TRA.     0.1029D+28                  1639.4454     4.9680    40.0430
         TOT.                       64.191    5787.4387    30.9649    83.8803

 340.00  VIB.     0.3784D+02                  3399.2902    23.9761    17.2182
         ROT.     0.2182D+06                  1013.4753     2.9808    27.4094
         INT.     0.8255D+07                  4412.7655    26.9570    44.6277
         TRA.     0.1076D+28                  1689.1255     4.9680    40.1913
         TOT.                       64.505    6101.8910    31.9250    84.8190

 350.00  VIB.     0.4391D+02                  3643.8331    24.9315    17.9270
         ROT.     0.2278D+06                  1043.2834     2.9808    27.4958
         INT.     0.1001D+08                  4687.1166    27.9123    45.4229
         TRA.     0.1124D+28                  1738.8057     4.9680    40.3353
         TOT.                       64.829    6425.9222    32.8803    85.7582

 360.00  VIB.     0.5105D+02                  3897.8980    25.8803    18.6427
         ROT.     0.2377D+06                  1073.0915     2.9808    27.5798
         INT.     0.1213D+08                  4970.9896    28.8611    46.2225
         TRA.     0.1173D+28                  1788.4859     4.9680    40.4753
         TOT.                       65.163    6759.4754    33.8291    86.6978

 370.00  VIB.     0.5944D+02                  4161.4108    26.8208    19.3646
         ROT.     0.2477D+06                  1102.8996     2.9808    27.6615
         INT.     0.1472D+08                  5264.3104    29.8016    47.0261
         TRA.     0.1222D+28                  1838.1660     4.9680    40.6114
         TOT.                       65.506    7102.4764    34.7696    87.6375

 380.00  VIB.     0.6932D+02                  4434.2824    27.7518    20.0923
         ROT.     0.2578D+06                  1132.7077     2.9808    27.7410
         INT.     0.1787D+08                  5566.9901    30.7326    47.8333
         TRA.     0.1272D+28                  1887.8462     4.9680    40.7439
         TOT.                       65.858    7454.8363    35.7006    88.5772

 390.00  VIB.     0.8096D+02                  4716.4106    28.6720    20.8251
         ROT.     0.2680D+06                  1162.5158     2.9808    27.8184
         INT.     0.2170D+08                  5878.9264    31.6528    48.6435
         TRA.     0.1322D+28                  1937.5263     4.9680    40.8729
         TOT.                       66.220    7816.4528    36.6208    89.5164

 400.00  VIB.     0.9470D+02                  5007.6823    29.5803    21.5625
         ROT.     0.2784D+06                  1192.3239     2.9808    27.8939
         INT.     0.2636D+08                  6200.0062    32.5611    49.4563
         TRA.     0.1374D+28                  1987.2065     4.9680    40.9987
         TOT.                       66.591    8187.2127    37.5292    90.4551

   *: NOTE: HEATS OF FORMATION ARE RELATIVE TO THE
            ELEMENTS IN THEIR STANDARD STATE AT 298K
              (=  Standard Enthalpy of Formation).

            Hvib:  Zero-point energy is not included.
                   frequencies of less than zero cm-1 are not included.
            Hrot = (3/2)RT
            Htra = (3/2)RT + pV = (5/2)RT

            Heat capacity is Cp, not Cv

          For more information, see: HTTP://OpenMOPAC.net/Manual/thermochemistry.html


           FORCE CONSTANT IN CARTESIAN COORDINATES (Millidynes/A)

    ATOM   CHEMICAL       X               Y               Z
   NUMBER   SYMBOL  FORCE CONSTANT  FORCE CONSTANT  FORCE CONSTANT

      1       C        6.756705        8.861460        8.303586
      2       C        6.841605        7.721366        8.333791
      3       C        8.993095        6.853404        8.169455
      4       C        8.407166        8.357450        8.096575
      5       C        9.648777        9.780279        6.507254
      6       C       13.365642        5.250870        7.352121
      7       C       15.213171        6.914976        4.448764
      8       H        1.056156        1.880940        3.024705
      9       H        1.080476        1.759931        3.552473
     10       H        1.221653        1.753793        3.480938
     11       H        4.177003        0.765639        1.494088
     12       H        0.765489        1.108274        4.508126
     13       H        5.393207        0.672933        0.713728
     14       H        1.173034        4.848841        0.762517
     15       H        1.097664        2.019818        3.642615
     16       H        3.069713        0.836223        2.426135
     17       H        1.241836        1.613903        3.498293

 **********************
 *                    *
 * JOB ENDED NORMALLY *
 *                    *
 **********************



 TOTAL JOB TIME:             6.47 SECONDS

 == MOPAC DONE ==
