 *******************************************************************************
 ** Site#: 14399        For non-commercial use only    Version 18.184L 64BITS **
 *******************************************************************************
 ** Cite this program as: MOPAC2016, Version: 18.184L, James J. P. Stewart,   **
 ** Stewart Computational Chemistry, web: HTTP://OpenMOPAC.net. Days left:  20**
 *******************************************************************************
 **                                                                           **
 **                                MOPAC2016                                  **
 **                                                                           **
 *******************************************************************************

                              PM3 CALCULATION RESULTS

 *******************************************************************************
 *  CALCULATION DONE:                                Thu Jun 13 15:48:47 2019  *
 *  PM3        - The PM3 Hamiltonian to be used
 *  PRECISE    - CRITERIA TO BE INCREASED BY 100 TIMES
 *  NOSYM      - POINT-GROUP SYMMETRY SET TO C1
 *  THREADS=1  - MULTI-THREADING NOT USED
 *  T=         - A TIME OF 172800.0 SECONDS REQUESTED
 *  DUMP=N     - RESTART FILE WRITTEN EVERY  7200.000 SECONDS
 *******************************************************************************
pm3  precise nosym THREADS=1
 InChI=1S/C6H8/c1-2-4-6-5-3-1/h1-2,5-6H,3-4H2

   ATOM   CHEMICAL          X               Y               Z
  NUMBER   SYMBOL      (ANGSTROMS)     (ANGSTROMS)     (ANGSTROMS)
 
     1       C         -1.48270000  *   0.07030000  *   0.12610000  *
     2       C          1.48270000  *  -0.07030000  *  -0.12610000  *
     3       C         -0.60750000  *   1.29310000  *   0.05000000  *
     4       C          0.72590000  *   1.22990000  *  -0.06340000  *
     5       C         -0.72590000  *  -1.22990000  *   0.06340000  *
     6       C          0.60750000  *  -1.29310000  *  -0.05000000  *
     7       H         -2.05380000  *   0.10210000  *   1.07750000  *
     8       H         -2.20630000  *   0.09980000  *  -0.71530000  *
     9       H          2.20630000  *  -0.09980000  *   0.71530000  *
    10       H          2.05380000  *  -0.10210000  *  -1.07750000  *
    11       H         -1.08430000  *   2.26780000  *   0.08930000  *
    12       H          1.29200000  *   2.15520000  *  -0.11280000  *
    13       H         -1.29200000  *  -2.15520000  *   0.11280000  *
    14       H          1.08430000  *  -2.26780000  *  -0.08930000  *
 


          CARTESIAN COORDINATES 

    NO.       ATOM           X           Y           Z

     1         C         -1.4827      0.0703      0.1261
     2         C          1.4827     -0.0703     -0.1261
     3         C         -0.6075      1.2931      0.0500
     4         C          0.7259      1.2299     -0.0634
     5         C         -0.7259     -1.2299      0.0634
     6         C          0.6075     -1.2931     -0.0500
     7         H         -2.0538      0.1021      1.0775
     8         H         -2.2063      0.0998     -0.7153
     9         H          2.2063     -0.0998      0.7153
    10         H          2.0538     -0.1021     -1.0775
    11         H         -1.0843      2.2678      0.0893
    12         H          1.2920      2.1552     -0.1128
    13         H         -1.2920     -2.1552      0.1128
    14         H          1.0843     -2.2678     -0.0893

  H: (PM3): J. J. P. STEWART, J. COMP. CHEM. 10, 209 (1989).
  C: (PM3): J. J. P. STEWART, J. COMP. CHEM. 10, 209 (1989).

           Empirical Formula: C6 H8  =    14 atoms



      MOLECULAR POINT GROUP   :   C1  


      RHF CALCULATION, NO. OF DOUBLY OCCUPIED LEVELS = 16


          Geometry optimization using EF

          DIAGONAL MATRIX USED AS START HESSIAN

 CYCLE:     1 TIME:   0.031 TIME LEFT:  2.00D  GRAD.:    57.097 HEAT:  20.89925
 CYCLE:     2 TIME:   0.031 TIME LEFT:  2.00D  GRAD.:    50.079 HEAT:  20.35745
 CYCLE:     3 TIME:   0.020 TIME LEFT:  2.00D  GRAD.:    35.763 HEAT:  19.92229
 CYCLE:     4 TIME:   0.023 TIME LEFT:  2.00D  GRAD.:    34.276 HEAT:  19.87171
 CYCLE:     5 TIME:   0.020 TIME LEFT:  2.00D  GRAD.:    23.664 HEAT:  19.68678
 CYCLE:     6 TIME:   0.027 TIME LEFT:  2.00D  GRAD.:    19.155 HEAT:  19.59126
 CYCLE:     7 TIME:   0.020 TIME LEFT:  2.00D  GRAD.:    14.126 HEAT:  19.48917
 CYCLE:     8 TIME:   0.027 TIME LEFT:  2.00D  GRAD.:     8.013 HEAT:  19.43759
 CYCLE:     9 TIME:   0.020 TIME LEFT:  2.00D  GRAD.:     8.605 HEAT:  19.41260
 CYCLE:    10 TIME:   0.023 TIME LEFT:  2.00D  GRAD.:     7.624 HEAT:  19.38501
 CYCLE:    11 TIME:   0.020 TIME LEFT:  2.00D  GRAD.:     2.292 HEAT:  19.36472
 CYCLE:    12 TIME:   0.023 TIME LEFT:  2.00D  GRAD.:     1.988 HEAT:  19.36221
 CYCLE:    13 TIME:   0.023 TIME LEFT:  2.00D  GRAD.:     0.438 HEAT:  19.36037
 CYCLE:    14 TIME:   0.027 TIME LEFT:  2.00D  GRAD.:     0.331 HEAT:  19.36016
 CYCLE:    15 TIME:   0.023 TIME LEFT:  2.00D  GRAD.:     0.276 HEAT:  19.35984
 CYCLE:    16 TIME:   0.023 TIME LEFT:  2.00D  GRAD.:     0.457 HEAT:  19.35979
 CYCLE:    17 TIME:   0.023 TIME LEFT:  2.00D  GRAD.:     0.614 HEAT:  19.35987
 CYCLE:    18 TIME:   0.023 TIME LEFT:  2.00D  GRAD.:     0.172 HEAT:  19.35965
 CYCLE:    19 TIME:   0.023 TIME LEFT:  2.00D  GRAD.:     0.294 HEAT:  19.35965
 CYCLE:    20 TIME:   0.023 TIME LEFT:  2.00D  GRAD.:     0.191 HEAT:  19.35964
 CYCLE:    21 TIME:   0.020 TIME LEFT:  2.00D  GRAD.:     0.123 HEAT:  19.35964
 CYCLE:    22 TIME:   0.023 TIME LEFT:  2.00D  GRAD.:     0.054 HEAT:  19.35963
 CYCLE:    23 TIME:   0.023 TIME LEFT:  2.00D  GRAD.:     0.111 HEAT:  19.35963
 CYCLE:    24 TIME:   0.023 TIME LEFT:  2.00D  GRAD.:     0.011 HEAT:  19.35963

     GRADIENT =  0.01069  IS LESS THAN CUTOFF =  0.05000



 -------------------------------------------------------------------------------
 pm3  precise nosym THREADS=1
 InChI=1S/C6H8/c1-2-4-6-5-3-1/h1-2,5-6H,3-4H2



     GEOMETRY OPTIMISED USING EIGENVECTOR FOLLOWING (EF).     
     SCF FIELD WAS ACHIEVED                                   


                              PM3 CALCULATION
                                                       MOPAC2016 (Version: 18.184L)
                                                       Thu Jun 13 15:48:47 2019
                                                       No. of days remaining =  20




          FINAL HEAT OF FORMATION =         19.35963 KCAL/MOL =      81.00069 KJ/MOL


          TOTAL ENERGY            =       -833.66441 EV
          ELECTRONIC ENERGY       =      -3503.74117 EV  POINT GROUP:     C1  
          CORE-CORE REPULSION     =       2670.07676 EV
          COSMO AREA              =        123.15 SQUARE ANGSTROMS
          COSMO VOLUME            =        111.94 CUBIC ANGSTROMS

          GRADIENT NORM           =          0.01069 = 0.00286 PER ATOM
          IONIZATION POTENTIAL    =          9.190268 EV
          HOMO LUMO ENERGIES (EV) =         -9.190  1.080
          NO. OF FILLED LEVELS    =         16
          MOLECULAR WEIGHT        =         80.1292

          MOLECULAR DIMENSIONS (Angstroms)

            Atom       Atom       Distance
            H    13    H    12     5.01454
            H    14    H    11     4.28603
            H     8    H     9     1.77230


          SCF CALCULATIONS        =         28
 
          WALL-CLOCK TIME         =          0.617 SECONDS
          COMPUTATION TIME        =          0.119 SECONDS




   ATOM   CHEMICAL          X               Y               Z
  NUMBER   SYMBOL      (ANGSTROMS)     (ANGSTROMS)     (ANGSTROMS)
 
     1       C         -1.47073134  *   0.06970771  *   0.12509242  *
     2       C          1.47073042  *  -0.06970698  *  -0.12509371  *
     3       C         -0.60506632  *   1.27511472  *   0.04984632  *
     4       C          0.72184555  *   1.21223112  *  -0.06304905  *
     5       C         -0.72184516  *  -1.21222951  *   0.06304763  *
     6       C          0.60506665  *  -1.27511722  *  -0.04984357  *
     7       H         -2.06008868  *   0.10236559  *   1.06442893  *
     8       H         -2.21025345  *   0.10005008  *  -0.70131053  *
     9       H          2.21025378  *  -0.10005212  *   0.70131284  *
    10       H          2.06008912  *  -0.10236328  *  -1.06443400  *
    11       H         -1.12122721  *   2.24067730  *   0.09251429  *
    12       H          1.32615399  *   2.12469328  *  -0.11569472  *
    13       H         -1.32615352  *  -2.12469397  *   0.11570088  *
    14       H          1.12122663  *  -2.24067632  *  -0.09251781  *

                             CARTESIAN COORDINATES

   1    C       -1.470731340     0.069707710     0.125092422
   2    C        1.470730423    -0.069706983    -0.125093713
   3    C       -0.605066321     1.275114720     0.049846318
   4    C        0.721845547     1.212231123    -0.063049053
   5    C       -0.721845156    -1.212229514     0.063047627
   6    C        0.605066655    -1.275117224    -0.049843565
   7    H       -2.060088681     0.102365594     1.064428933
   8    H       -2.210253446     0.100050085    -0.701310534
   9    H        2.210253781    -0.100052116     0.701312844
  10    H        2.060089119    -0.102363276    -1.064434002
  11    H       -1.121227211     2.240677295     0.092514287
  12    H        1.326153991     2.124693279    -0.115694717
  13    H       -1.326153520    -2.124693968     0.115700877
  14    H        1.121226630    -2.240676316    -0.092517809


           Empirical Formula: C6 H8  =    14 atoms



      MOLECULAR POINT GROUP   :   C1  


                  EIGENVALUES  
 -39.44231 -30.50864 -29.83963 -22.75800 -20.58642 -17.84908 -15.87737 -15.57038
 -15.24730 -14.54228 -13.94181 -13.54002 -12.64935 -11.59321 -10.39087  -9.19027
   1.08017   1.16116   3.39436   3.51429   3.53061   3.82284   3.86862   4.11178
   4.38907   4.50104   4.63323   4.70121   5.35096   5.37135   5.97118   6.20312


              NET ATOMIC CHARGES AND DIPOLE CONTRIBUTIONS

  ATOM NO.   TYPE          CHARGE      No. of ELECS.   s-Pop       p-Pop       
    1          C          -0.020128        4.0201     1.13121     2.88892
    2          C          -0.020130        4.0201     1.13121     2.88892
    3          C          -0.146784        4.1468     1.19292     2.95386
    4          C          -0.146782        4.1468     1.19292     2.95386
    5          C          -0.146782        4.1468     1.19292     2.95386
    6          C          -0.146784        4.1468     1.19292     2.95386
    7          H           0.059455        0.9405     0.94054
    8          H           0.059451        0.9405     0.94055
    9          H           0.059451        0.9405     0.94055
   10          H           0.059455        0.9405     0.94055
   11          H           0.097393        0.9026     0.90261
   12          H           0.097395        0.9026     0.90260
   13          H           0.097395        0.9026     0.90261
   14          H           0.097394        0.9026     0.90261
 DIPOLE           X         Y         Z       TOTAL
 POINT-CHG.    -0.000    -0.000    -0.000     0.000
 HYBRID         0.000     0.000     0.000     0.000
 SUM           -0.000    -0.000     0.000     0.000


          ATOMIC ORBITAL ELECTRON POPULATIONS

     Atom    s        px        py        pz   
    1  C   1.13121   0.96369   0.92020   1.00502
    2  C   1.13121   0.96369   0.92020   1.00502
    3  C   1.19292   0.95777   0.98016   1.01593
    4  C   1.19292   0.96009   0.97782   1.01596
    5  C   1.19292   0.96009   0.97782   1.01596
    6  C   1.19292   0.95777   0.98016   1.01593
    7  H   0.94054
    8  H   0.94055
    9  H   0.94055
   10  H   0.94055
   11  H   0.90261
   12  H   0.90260
   13  H   0.90261
   14  H   0.90261
 *******************************************************************************
 ** Site#: 14399        For non-commercial use only    Version 18.184L 64BITS **
 *******************************************************************************
 ** Cite this program as: MOPAC2016, Version: 18.184L, James J. P. Stewart,   **
 ** Stewart Computational Chemistry, web: HTTP://OpenMOPAC.net. Days left:  20**
 *******************************************************************************
 **                                                                           **
 **                                MOPAC2016                                  **
 **                                                                           **
 *******************************************************************************

                              PM3 CALCULATION RESULTS

 *******************************************************************************
 *  CALCULATION DONE:                                Thu Jun 13 15:48:47 2019  *
 *  PM3        - The PM3 Hamiltonian to be used
 *  OLDGEO     - PREVIOUS GEOMETRY TO BE USED
 *  PRECISE    - CRITERIA TO BE INCREASED BY 100 TIMES
 *  NOSYM      - POINT-GROUP SYMMETRY SET TO C1
 *  THREADS=1  - MULTI-THREADING NOT USED
 *  T=         - A TIME OF 172800.0 SECONDS REQUESTED
 *  DUMP=N     - RESTART FILE WRITTEN EVERY  7200.000 SECONDS
 *  THERMO     - THERMODYNAMIC QUANTITIES TO BE CALCULATED
 *******************************************************************************
oldgeo thermo nosym precise THREADS=1  pm3
 InChI=1S/C6H8/c1-2-4-6-5-3-1/h1-2,5-6H,3-4H2

   ATOM   CHEMICAL          X               Y               Z
  NUMBER   SYMBOL      (ANGSTROMS)     (ANGSTROMS)     (ANGSTROMS)
 
     1       C         -1.47073134  *   0.06970771  *   0.12509242  *
     2       C          1.47073042  *  -0.06970698  *  -0.12509371  *
     3       C         -0.60506632  *   1.27511472  *   0.04984632  *
     4       C          0.72184555  *   1.21223112  *  -0.06304905  *
     5       C         -0.72184516  *  -1.21222951  *   0.06304763  *
     6       C          0.60506665  *  -1.27511722  *  -0.04984357  *
     7       H         -2.06008868  *   0.10236559  *   1.06442893  *
     8       H         -2.21025345  *   0.10005008  *  -0.70131053  *
     9       H          2.21025378  *  -0.10005212  *   0.70131284  *
    10       H          2.06008912  *  -0.10236328  *  -1.06443400  *
    11       H         -1.12122721  *   2.24067730  *   0.09251429  *
    12       H          1.32615399  *   2.12469328  *  -0.11569472  *
    13       H         -1.32615352  *  -2.12469397  *   0.11570088  *
    14       H          1.12122663  *  -2.24067632  *  -0.09251781  *
 


          CARTESIAN COORDINATES 

    NO.       ATOM           X           Y           Z

     1         C         -1.4707      0.0697      0.1251
     2         C          1.4707     -0.0697     -0.1251
     3         C         -0.6051      1.2751      0.0498
     4         C          0.7218      1.2122     -0.0630
     5         C         -0.7218     -1.2122      0.0630
     6         C          0.6051     -1.2751     -0.0498
     7         H         -2.0601      0.1024      1.0644
     8         H         -2.2103      0.1001     -0.7013
     9         H          2.2103     -0.1001      0.7013
    10         H          2.0601     -0.1024     -1.0644
    11         H         -1.1212      2.2407      0.0925
    12         H          1.3262      2.1247     -0.1157
    13         H         -1.3262     -2.1247      0.1157
    14         H          1.1212     -2.2407     -0.0925

  H: (PM3): J. J. P. STEWART, J. COMP. CHEM. 10, 209 (1989).
  C: (PM3): J. J. P. STEWART, J. COMP. CHEM. 10, 209 (1989).

           Empirical Formula: C6 H8  =    14 atoms



      MOLECULAR POINT GROUP   :   C1  


      RHF CALCULATION, NO. OF DOUBLY OCCUPIED LEVELS = 16



          HEAT OF FORMATION =      19.359629 KCALS/MOLE


          CARTESIAN COORDINATE DERIVATIVES

   NUMBER  ATOM         X            Y            Z

     1       C     -0.002013    -0.000082     0.003863
     2       C     -0.000793     0.001398    -0.010769
     3       C      0.000574    -0.004446    -0.001934
     4       C      0.003463     0.000578     0.006700
     5       C     -0.002291     0.002397    -0.003143
     6       C     -0.000087    -0.000254     0.007118
     7       H     -0.002221     0.000295    -0.000699
     8       H      0.003256     0.000872     0.001418
     9       H     -0.003658    -0.000976     0.001333
    10       H      0.005418    -0.000112    -0.001501
    11       H     -0.000683    -0.000691    -0.000756
    12       H     -0.001487    -0.001092    -0.000960
    13       H      0.001026    -0.000433     0.000135
    14       H     -0.000504     0.002545    -0.000805
 


          GRADIENT NORM =   0.01927


          TIME FOR SCF CALCULATION =    0.02

          TIME FOR DERIVATIVES     =    0.01

          MOLECULAR WEIGHT =   80.13



          ROTATIONAL CONSTANTS IN CM(-1)

          A =    0.17398421   B =    0.16589671   C =    0.08771951



           PRINCIPAL MOMENTS OF INERTIA IN UNITS OF 10**(-40)*GRAM-CM**2

          A =      160.8926   B =      168.7362   C =      319.1169


          ORIENTATION OF MOLECULE IN FORCE CALCULATION

    NO.       ATOM         X         Y         Z

     1          C      -1.4777    0.0000   -0.0000
     2          C       1.4777    0.0000   -0.0000
     3          C      -0.6666    1.2451   -0.0000
     4          C       0.6666    1.2451   -0.0000
     5          C      -0.6666   -1.2451    0.0000
     6          C       0.6666   -1.2451    0.0000
     7          H      -2.1453    0.0000    0.8860
     8          H      -2.1452   -0.0000   -0.8861
     9          H       2.1452   -0.0000    0.8861
    10          H       2.1453   -0.0000   -0.8860
    11          H      -1.2295    2.1851   -0.0000
    12          H       1.2295    2.1851   -0.0000
    13          H      -1.2295   -2.1851    0.0001
    14          H       1.2295   -2.1851    0.0000


    FIRST DERIVATIVES WILL BE USED IN THE CALCULATION OF SECOND DERIVATIVES

          ESTIMATED TIME TO COMPLETE CALCULATION =        5.25 SECONDS

    FOR POINT-GROUP C1   THERE ARE   1 UNIQUE SYMMETRY FUNCTIONS.

 STEP:   1 TIME =     0.03 SECS, INTEGRAL =      0.03 TIME LEFT: 172799.94
 STEP:   2 TIME =     0.02 SECS, INTEGRAL =      0.05 TIME LEFT: 172799.91
 STEP:   3 TIME =     0.02 SECS, INTEGRAL =      0.08 TIME LEFT: 172799.89
 STEP:   4 TIME =     0.02 SECS, INTEGRAL =      0.10 TIME LEFT: 172799.87
 STEP:   5 TIME =     0.02 SECS, INTEGRAL =      0.12 TIME LEFT: 172799.84
 STEP:   6 TIME =     0.02 SECS, INTEGRAL =      0.15 TIME LEFT: 172799.82
 STEP:   7 TIME =     0.02 SECS, INTEGRAL =      0.17 TIME LEFT: 172799.80
 STEP:   8 TIME =     0.02 SECS, INTEGRAL =      0.20 TIME LEFT: 172799.77
 STEP:   9 TIME =     0.02 SECS, INTEGRAL =      0.22 TIME LEFT: 172799.75
 STEP:  10 TIME =     0.02 SECS, INTEGRAL =      0.24 TIME LEFT: 172799.73
 STEP:  11 TIME =     0.02 SECS, INTEGRAL =      0.26 TIME LEFT: 172799.71
 STEP:  12 TIME =     0.03 SECS, INTEGRAL =      0.29 TIME LEFT: 172799.68
 STEP:  13 TIME =     0.02 SECS, INTEGRAL =      0.31 TIME LEFT: 172799.66
 STEP:  14 TIME =     0.02 SECS, INTEGRAL =      0.34 TIME LEFT: 172799.63
 STEP:  15 TIME =     0.02 SECS, INTEGRAL =      0.36 TIME LEFT: 172799.61
 STEP:  16 TIME =     0.02 SECS, INTEGRAL =      0.38 TIME LEFT: 172799.59
 STEP:  17 TIME =     0.02 SECS, INTEGRAL =      0.40 TIME LEFT: 172799.57
 STEP:  18 TIME =     0.02 SECS, INTEGRAL =      0.43 TIME LEFT: 172799.54
 STEP:  19 TIME =     0.02 SECS, INTEGRAL =      0.45 TIME LEFT: 172799.52
 STEP:  20 TIME =     0.02 SECS, INTEGRAL =      0.47 TIME LEFT: 172799.50
 STEP:  21 TIME =     0.03 SECS, INTEGRAL =      0.50 TIME LEFT: 172799.47
 STEP:  22 TIME =     0.02 SECS, INTEGRAL =      0.52 TIME LEFT: 172799.45
 STEP:  23 TIME =     0.02 SECS, INTEGRAL =      0.55 TIME LEFT: 172799.42
 STEP:  24 TIME =     0.02 SECS, INTEGRAL =      0.57 TIME LEFT: 172799.40
 STEP:  25 TIME =     0.02 SECS, INTEGRAL =      0.59 TIME LEFT: 172799.38
 STEP:  26 TIME =     0.02 SECS, INTEGRAL =      0.62 TIME LEFT: 172799.35
 STEP:  27 TIME =     0.02 SECS, INTEGRAL =      0.64 TIME LEFT: 172799.33
 STEP:  28 TIME =     0.02 SECS, INTEGRAL =      0.66 TIME LEFT: 172799.30
 STEP:  29 TIME =     0.02 SECS, INTEGRAL =      0.69 TIME LEFT: 172799.28
 STEP:  30 TIME =     0.02 SECS, INTEGRAL =      0.71 TIME LEFT: 172799.26
 STEP:  31 TIME =     0.02 SECS, INTEGRAL =      0.73 TIME LEFT: 172799.23
 STEP:  32 TIME =     0.02 SECS, INTEGRAL =      0.76 TIME LEFT: 172799.21
 STEP:  33 TIME =     0.02 SECS, INTEGRAL =      0.78 TIME LEFT: 172799.19
 STEP:  34 TIME =     0.02 SECS, INTEGRAL =      0.80 TIME LEFT: 172799.17
 STEP:  35 TIME =     0.02 SECS, INTEGRAL =      0.82 TIME LEFT: 172799.14
 STEP:  36 TIME =     0.02 SECS, INTEGRAL =      0.85 TIME LEFT: 172799.12
 STEP:  37 TIME =     0.02 SECS, INTEGRAL =      0.87 TIME LEFT: 172799.10
 STEP:  38 TIME =     0.02 SECS, INTEGRAL =      0.89 TIME LEFT: 172799.07
 STEP:  39 TIME =     0.02 SECS, INTEGRAL =      0.92 TIME LEFT: 172799.05
 STEP:  40 TIME =     0.02 SECS, INTEGRAL =      0.94 TIME LEFT: 172799.03
 STEP:  41 TIME =     0.02 SECS, INTEGRAL =      0.96 TIME LEFT: 172799.00
 STEP:  42 TIME =     0.02 SECS, INTEGRAL =      0.99 TIME LEFT: 172798.98

(To convert to Hartree/Bohr^2, multiply by (10^(-21) x N x a0^2)/(4.184 x 627.51) =  0.0642)


           FORCE MATRIX IN MILLIDYNES/ANGSTROM


                  C  1       C  2       C  3       C  4       C  5       C  6
 ------------------------------------------------------------------------------
     C    1  15.128652
     C    2   0.198986  15.128368
     C    3   5.022389   0.846137  18.272315
     C    4   0.845942   5.022313  10.726172  18.272092
     C    5   5.022305   0.846126   0.736123   0.053389  18.272164
     C    6   0.845994   5.022139   0.053411   0.736043  10.726158  18.271975
     H    7   4.387652   0.013278   0.421791   0.037870   0.421805   0.037877
     H    8   4.387887   0.013228   0.421780   0.037857   0.421799   0.037864
     H    9   0.013310   4.387657   0.037859   0.421774   0.037869   0.421800
     H   10   0.013241   4.387723   0.037851   0.421813   0.037863   0.421838
     H   11   0.424709   0.124273   4.824438   0.445847   0.045974   0.003415
     H   12   0.124273   0.424737   0.445795   4.824497   0.003417   0.045991
     H   13   0.424389   0.124250   0.045860   0.003401   4.824606   0.445806
     H   14   0.124262   0.424411   0.003397   0.045878   0.445766   4.824652


                  H  7       H  8       H  9       H 10       H 11       H 12
 ------------------------------------------------------------------------------
     H    7   4.972976
     H    8   0.565046   4.973085
     H    9   0.002255   0.002454   4.972886
     H   10   0.002452   0.002251   0.565042   4.972965
     H   11   0.027821   0.027815   0.016022   0.016027   5.201885
     H   12   0.016013   0.016026   0.027799   0.027817   0.069869   5.201962
     H   13   0.027872   0.027862   0.016007   0.016011   0.006619   0.000984
     H   14   0.016000   0.016005   0.027860   0.027875   0.000984   0.006627


                  H 13       H 14
 ------------------------------
     H   13   5.202260
     H   14   0.069862   5.202323


          HEAT OF FORMATION =      19.359629 KCALS/MOLE

          ZERO POINT ENERGY      75.415 KCAL/MOL


           NORMAL COORDINATE ANALYSIS (Total motion = 1 Angstrom)


   Root No.       1         2         3         4         5         6         7         8

                 1 A       2 A       3 A       4 A       5 A       6 A       7 A       8 A   

                  98.5     365.0     367.7     539.4     590.1     683.5     777.3     856.4
  
           1   -0.0000   -0.0000    0.0000   -0.0857    0.0000   -0.0000    0.0000    0.0000
           2    0.0000   -0.0000   -0.0000   -0.0000    0.0507    0.0000    0.0000   -0.0000
           3    0.0442   -0.0001   -0.0126   -0.0000   -0.0000   -0.0178   -0.0000   -0.0377
           4    0.0000   -0.0000   -0.0000    0.0857   -0.0000    0.0000    0.0000    0.0000
           5    0.0000   -0.0000    0.0000   -0.0000   -0.0507   -0.0000   -0.0000    0.0000
           6    0.0442    0.0001    0.0126    0.0000    0.0000   -0.0179   -0.0000    0.0377
           7    0.0000   -0.0000   -0.0000   -0.0029   -0.0761    0.0000   -0.0000   -0.0000
           8   -0.0000    0.0000    0.0000   -0.0606    0.0792   -0.0000    0.0000    0.0000
           9   -0.0247    0.0551    0.0341    0.0000   -0.0000   -0.0065    0.0237    0.0004
          10    0.0000   -0.0000   -0.0000    0.0029   -0.0761    0.0000   -0.0000   -0.0000
          11   -0.0000   -0.0000    0.0000   -0.0606   -0.0792   -0.0000    0.0000   -0.0000
          12   -0.0247   -0.0551   -0.0341   -0.0000    0.0000   -0.0065    0.0237   -0.0004
          13    0.0000    0.0000   -0.0000   -0.0029    0.0761    0.0000    0.0000   -0.0000
          14    0.0000    0.0000   -0.0000    0.0606    0.0792    0.0000   -0.0000   -0.0000
          15   -0.0247   -0.0545    0.0347    0.0000    0.0000   -0.0065   -0.0237    0.0004
          16    0.0000    0.0000   -0.0000    0.0029    0.0761    0.0000    0.0000   -0.0000
          17   -0.0000   -0.0000   -0.0000    0.0606   -0.0792    0.0000    0.0000    0.0000
          18   -0.0247    0.0545   -0.0347   -0.0000    0.0000   -0.0065   -0.0237   -0.0004
          19    0.0787   -0.0008   -0.0934   -0.0905   -0.0000    0.0887    0.0000    0.1017
          20   -0.0000   -0.0605    0.0003   -0.0000   -0.0051    0.0000   -0.0465    0.0000
          21    0.1038   -0.0007   -0.0849   -0.0031   -0.0000    0.0522    0.0000    0.0419
          22   -0.0787    0.0008    0.0934   -0.0904    0.0000   -0.0887   -0.0000   -0.1016
          23    0.0000    0.0605   -0.0003   -0.0000   -0.0051   -0.0000    0.0465   -0.0000
          24    0.1038   -0.0007   -0.0849    0.0030   -0.0000    0.0521    0.0000    0.0419
          25   -0.0787   -0.0008   -0.0934    0.0904   -0.0000   -0.0887   -0.0000    0.1017
          26   -0.0000    0.0605   -0.0003   -0.0000    0.0051    0.0000   -0.0465   -0.0000
          27    0.1038    0.0007    0.0849   -0.0030   -0.0000    0.0522    0.0000   -0.0419
          28    0.0787    0.0008    0.0933    0.0904   -0.0000    0.0887    0.0000   -0.1016
          29    0.0000   -0.0605    0.0003   -0.0000    0.0051   -0.0000    0.0465    0.0000
          30    0.1038    0.0007    0.0849    0.0031   -0.0000    0.0522    0.0000   -0.0419
          31    0.0000   -0.0000   -0.0000    0.0475   -0.0300   -0.0000    0.0000   -0.0000
          32    0.0000    0.0000    0.0000   -0.0297    0.1056   -0.0000    0.0000    0.0000
          33   -0.0730    0.1353    0.0824   -0.0000   -0.0000    0.1317   -0.1798    0.1208
          34   -0.0000   -0.0000   -0.0000   -0.0475   -0.0300    0.0000   -0.0000   -0.0000
          35   -0.0000   -0.0000    0.0000   -0.0297   -0.1056   -0.0000    0.0000   -0.0000
          36   -0.0730   -0.1353   -0.0824   -0.0000    0.0000    0.1317   -0.1798   -0.1207
          37    0.0000    0.0000   -0.0000    0.0474    0.0301   -0.0000    0.0000   -0.0000
          38   -0.0000   -0.0000    0.0000    0.0298    0.1054    0.0000    0.0000   -0.0000
          39   -0.0730   -0.1340    0.0838   -0.0000   -0.0000    0.1317    0.1798    0.1208
          40   -0.0000    0.0000   -0.0000   -0.0474    0.0302    0.0000    0.0000   -0.0000
          41   -0.0000   -0.0000   -0.0000    0.0298   -0.1055    0.0000    0.0000    0.0000
          42   -0.0730    0.1340   -0.0838   -0.0000   -0.0000    0.1317    0.1798   -0.1207


   Root No.       9        10        11        12        13        14        15        16

                 9 A      10 A      11 A      12 A      13 A      14 A      15 A      16 A   

                 906.7     941.0     969.6     991.8    1007.0    1026.6    1032.8    1055.0
  
           1   -0.0602   -0.0000   -0.0000   -0.0346   -0.0001    0.0623    0.0000   -0.0000
           2    0.0000    0.0000   -0.0000   -0.0000    0.0221    0.0000    0.0000    0.0000
           3   -0.0000    0.0416    0.0000   -0.0000    0.0000    0.0000   -0.0306   -0.0000
           4   -0.0602   -0.0000    0.0000   -0.0346    0.0001   -0.0623   -0.0000    0.0000
           5   -0.0000    0.0000   -0.0000    0.0000    0.0221    0.0000    0.0000   -0.0000
           6    0.0000    0.0416   -0.0000    0.0000   -0.0000   -0.0000    0.0306   -0.0000
           7    0.0345    0.0000   -0.0000    0.0103    0.0085    0.0118    0.0000   -0.0000
           8   -0.0606   -0.0000    0.0000    0.0241   -0.0240   -0.0540   -0.0000   -0.0000
           9    0.0000   -0.0261   -0.0245   -0.0000   -0.0000   -0.0000    0.0395   -0.0164
          10    0.0345    0.0000    0.0000    0.0103   -0.0085   -0.0118   -0.0000   -0.0000
          11    0.0606    0.0000    0.0000   -0.0241   -0.0240   -0.0540   -0.0000    0.0000
          12    0.0000   -0.0261    0.0245   -0.0000    0.0000    0.0000   -0.0395   -0.0164
          13    0.0345    0.0000    0.0000    0.0102   -0.0086    0.0117    0.0000    0.0000
          14    0.0606    0.0000    0.0000   -0.0241   -0.0241    0.0539    0.0000   -0.0000
          15    0.0000   -0.0261    0.0245    0.0000    0.0000   -0.0000    0.0395    0.0164
          16    0.0345    0.0000    0.0000    0.0102    0.0086   -0.0117   -0.0000    0.0000
          17   -0.0606   -0.0000    0.0000    0.0241   -0.0241    0.0539    0.0000    0.0000
          18    0.0000   -0.0261   -0.0245   -0.0000   -0.0000    0.0000   -0.0395    0.0164
          19   -0.0778   -0.0986   -0.0000   -0.0456   -0.0001    0.0945    0.0682    0.0000
          20   -0.0000    0.0000    0.0738   -0.0001    0.1410    0.0004   -0.0000   -0.2060
          21   -0.0099   -0.0353   -0.0000   -0.0090   -0.0000    0.0214    0.0220    0.0000
          22   -0.0781    0.0985    0.0000   -0.0456   -0.0001    0.0945   -0.0681   -0.0000
          23   -0.0000   -0.0000   -0.0738   -0.0001    0.1410    0.0004    0.0001    0.2062
          24    0.0100   -0.0352   -0.0000    0.0090    0.0000   -0.0214    0.0220    0.0000
          25   -0.0779    0.0985   -0.0000   -0.0456    0.0001   -0.0945    0.0681   -0.0000
          26    0.0000    0.0000   -0.0738    0.0001    0.1410    0.0004    0.0001   -0.2061
          27    0.0099   -0.0353    0.0000    0.0090   -0.0000    0.0214   -0.0220    0.0000
          28   -0.0780   -0.0985    0.0000   -0.0456    0.0001   -0.0945   -0.0681    0.0000
          29    0.0000   -0.0000    0.0738    0.0001    0.1410    0.0004   -0.0001    0.2060
          30   -0.0100   -0.0352    0.0000   -0.0090    0.0000   -0.0214   -0.0220    0.0000
          31    0.0258   -0.0000   -0.0000    0.1300    0.0713   -0.0029   -0.0000   -0.0000
          32   -0.0667   -0.0000    0.0000    0.0938    0.0136   -0.0667   -0.0000   -0.0000
          33    0.0000    0.0985    0.1517    0.0000    0.0000    0.0001   -0.1236    0.0276
          34    0.0258    0.0000    0.0000    0.1300   -0.0713    0.0029    0.0000   -0.0000
          35    0.0667    0.0000   -0.0000   -0.0938    0.0136   -0.0667   -0.0000    0.0000
          36   -0.0001    0.0985   -0.1517   -0.0000   -0.0000   -0.0001    0.1236    0.0276
          37    0.0260   -0.0000    0.0000    0.1295   -0.0711   -0.0029   -0.0000    0.0000
          38    0.0666    0.0000    0.0000   -0.0935    0.0134    0.0666    0.0000   -0.0000
          39    0.0000    0.0985   -0.1517    0.0000   -0.0000    0.0000   -0.1237   -0.0275
          40    0.0260    0.0000   -0.0000    0.1295    0.0711    0.0028    0.0000    0.0000
          41   -0.0666   -0.0000   -0.0000    0.0936    0.0134    0.0666    0.0000    0.0000
          42   -0.0001    0.0985    0.1517   -0.0000    0.0000   -0.0001    0.1236   -0.0275


   Root No.      17        18        19        20        21        22        23        24

                17 A      18 A      19 A      20 A      21 A      22 A      23 A      24 A   

                1076.2    1093.4    1157.8    1160.9    1227.9    1318.4    1363.8    1397.9
  
           1    0.0000    0.0000   -0.0007   -0.0083   -0.0000   -0.0009   -0.0384    0.0415
           2   -0.0000   -0.0135   -0.0031    0.0003    0.0211    0.0000    0.0000    0.0001
           3    0.0000   -0.0000    0.0000    0.0000   -0.0000    0.0000    0.0000    0.0000
           4   -0.0000    0.0000    0.0007    0.0083   -0.0000   -0.0009    0.0384    0.0415
           5   -0.0000    0.0135   -0.0031    0.0003   -0.0211   -0.0000    0.0000    0.0001
           6   -0.0000    0.0000    0.0000   -0.0000    0.0000   -0.0000    0.0000    0.0000
           7   -0.0000    0.0088   -0.0016   -0.0060    0.0161   -0.0158   -0.0035   -0.0194
           8    0.0000    0.0093    0.0013    0.0014    0.0123   -0.0220    0.0054   -0.0215
           9   -0.0254   -0.0000    0.0000    0.0000   -0.0000    0.0000   -0.0000   -0.0000
          10    0.0000    0.0088    0.0016    0.0060    0.0161   -0.0158    0.0035   -0.0195
          11    0.0000   -0.0093    0.0014    0.0014   -0.0123    0.0220    0.0054    0.0214
          12    0.0255   -0.0000   -0.0000    0.0000    0.0000   -0.0000   -0.0000    0.0000
          13    0.0000   -0.0089    0.0007   -0.0062   -0.0161   -0.0158   -0.0035   -0.0195
          14    0.0000    0.0094    0.0011   -0.0017    0.0122    0.0220   -0.0054    0.0214
          15    0.0254    0.0000   -0.0000    0.0000    0.0000    0.0000   -0.0000   -0.0000
          16   -0.0000   -0.0089   -0.0007    0.0062   -0.0161   -0.0158    0.0035   -0.0194
          17    0.0000   -0.0094    0.0011   -0.0017   -0.0122   -0.0220   -0.0054   -0.0215
          18   -0.0254    0.0000    0.0000    0.0000    0.0000   -0.0000   -0.0000    0.0000
          19   -0.0000    0.0001   -0.0019   -0.0250   -0.0001    0.1123    0.1625   -0.0877
          20   -0.1839   -0.1427    0.0848   -0.0088   -0.0776   -0.0000   -0.0000   -0.0002
          21    0.0000    0.0000   -0.0007   -0.0087   -0.0000    0.0733    0.1306   -0.0841
          22    0.0000    0.0001   -0.0019   -0.0250   -0.0001    0.1123    0.1626   -0.0877
          23    0.1839   -0.1426    0.0848   -0.0088   -0.0776   -0.0000   -0.0000   -0.0002
          24   -0.0000   -0.0000    0.0007    0.0087    0.0000   -0.0733   -0.1306    0.0841
          25   -0.0000    0.0001    0.0020    0.0250   -0.0001    0.1123   -0.1626   -0.0877
          26    0.1840    0.1425    0.0848   -0.0088    0.0776    0.0000   -0.0000   -0.0001
          27   -0.0000   -0.0000   -0.0007   -0.0087    0.0000   -0.0732    0.1305    0.0840
          28    0.0000    0.0001    0.0020    0.0250   -0.0001    0.1123   -0.1626   -0.0877
          29   -0.1839    0.1427    0.0848   -0.0088    0.0776    0.0000   -0.0000   -0.0001
          30    0.0000    0.0000    0.0007    0.0087   -0.0000    0.0733   -0.1306   -0.0841
          31   -0.0000    0.0747   -0.1541   -0.1697   -0.1231    0.0811   -0.0159    0.0719
          32   -0.0000    0.0458   -0.0887   -0.0956   -0.0700    0.0349   -0.0003    0.0318
          33    0.0407    0.0000   -0.0000   -0.0000    0.0000    0.0000    0.0000    0.0000
          34    0.0000    0.0747    0.1541    0.1697   -0.1231    0.0811    0.0159    0.0720
          35   -0.0000   -0.0458   -0.0887   -0.0956    0.0700   -0.0348   -0.0003   -0.0320
          36   -0.0407    0.0000   -0.0000   -0.0000   -0.0000    0.0000    0.0000   -0.0000
          37    0.0000   -0.0749    0.1264   -0.1990    0.1232    0.0814   -0.0158    0.0722
          38   -0.0000    0.0460   -0.0731    0.1124   -0.0700   -0.0350    0.0002   -0.0321
          39   -0.0406   -0.0000    0.0000   -0.0000   -0.0000   -0.0000    0.0000    0.0000
          40   -0.0000   -0.0749   -0.1264    0.1990    0.1232    0.0814    0.0159    0.0720
          41   -0.0000   -0.0459   -0.0731    0.1124    0.0700    0.0350    0.0002    0.0319
          42    0.0406   -0.0000    0.0000   -0.0000    0.0000    0.0000   -0.0000   -0.0000


   Root No.      25        26        27        28        29        30        31        32

                25 A      26 A      27 A      28 A      29 A      30 A      31 A      32 A   

                1398.5    1476.6    1873.4    1892.7    2931.0    2931.4    3008.9    3009.7
  
           1   -0.0001    0.0000   -0.0000   -0.0285    0.0000    0.0000   -0.0187   -0.0200
           2    0.0806   -0.0973   -0.0286    0.0000   -0.0000   -0.0000   -0.0000    0.0000
           3   -0.0000    0.0000    0.0000    0.0000   -0.0295   -0.0316   -0.0000   -0.0000
           4   -0.0001    0.0000    0.0000    0.0284   -0.0000   -0.0000    0.0197   -0.0190
           5    0.0806    0.0973   -0.0286    0.0000   -0.0000    0.0000   -0.0000   -0.0000
           6   -0.0000   -0.0000    0.0000    0.0000   -0.0313    0.0297   -0.0000    0.0000
           7    0.0091    0.0247    0.1334    0.1344   -0.0000   -0.0000    0.0009    0.0011
           8   -0.0262    0.0529    0.0226    0.0193    0.0000    0.0000   -0.0020   -0.0021
           9    0.0000   -0.0000   -0.0000   -0.0000   -0.0002    0.0001   -0.0000   -0.0000
          10   -0.0090    0.0247   -0.1334   -0.1344    0.0000    0.0000   -0.0009    0.0011
          11   -0.0263   -0.0529    0.0225    0.0193   -0.0000    0.0000   -0.0021    0.0020
          12    0.0000    0.0000   -0.0000    0.0000   -0.0001   -0.0001   -0.0000    0.0000
          13   -0.0090   -0.0247   -0.1332    0.1346   -0.0000   -0.0000    0.0009    0.0011
          14   -0.0263    0.0529    0.0225   -0.0194   -0.0000   -0.0000    0.0020    0.0021
          15    0.0000    0.0000    0.0000   -0.0000   -0.0002    0.0001   -0.0000   -0.0000
          16    0.0091   -0.0247    0.1332   -0.1346    0.0000    0.0000   -0.0009    0.0011
          17   -0.0262   -0.0529    0.0225   -0.0194    0.0000    0.0000    0.0021   -0.0020
          18   -0.0000   -0.0000   -0.0000   -0.0000   -0.0001   -0.0001   -0.0000    0.0000
          19    0.0001   -0.0000   -0.0000   -0.0157   -0.1389   -0.1479    0.1125    0.1195
          20   -0.1071    0.0868   -0.0262    0.0000    0.0000    0.0000   -0.0000   -0.0000
          21    0.0001   -0.0000    0.0000    0.0032    0.1787    0.1906   -0.1734   -0.1840
          22    0.0001   -0.0000   -0.0000   -0.0157    0.1388    0.1478    0.1126    0.1195
          23   -0.1071    0.0868   -0.0262    0.0000    0.0000    0.0000    0.0000    0.0000
          24   -0.0001    0.0000   -0.0000   -0.0032    0.1787    0.1906    0.1735    0.1841
          25    0.0003   -0.0000    0.0000    0.0157    0.1475   -0.1391   -0.1184    0.1136
          26   -0.1071   -0.0868   -0.0262    0.0000   -0.0000    0.0000    0.0000    0.0000
          27   -0.0003    0.0000    0.0000    0.0031    0.1899   -0.1793   -0.1825    0.1749
          28    0.0003   -0.0000    0.0000    0.0157   -0.1475    0.1391   -0.1184    0.1136
          29   -0.1071   -0.0868   -0.0262    0.0000    0.0000   -0.0000    0.0000   -0.0000
          30    0.0003   -0.0000   -0.0000   -0.0031    0.1899   -0.1793    0.1825   -0.1750
          31   -0.0441   -0.0559    0.0185    0.0056    0.0000    0.0000   -0.0145   -0.0136
          32   -0.0606    0.0054   -0.0720   -0.0836   -0.0000   -0.0000    0.0209    0.0204
          33   -0.0000   -0.0000    0.0000    0.0000   -0.0012   -0.0005    0.0000    0.0000
          34    0.0438   -0.0559   -0.0185   -0.0056    0.0000   -0.0000    0.0151   -0.0129
          35   -0.0604   -0.0055   -0.0720   -0.0836    0.0000   -0.0000    0.0219   -0.0193
          36   -0.0000    0.0000    0.0000    0.0000   -0.0013    0.0004    0.0000    0.0000
          37    0.0439    0.0560   -0.0183    0.0056    0.0000    0.0000   -0.0144   -0.0136
          38   -0.0605    0.0054   -0.0719    0.0838    0.0000    0.0000   -0.0209   -0.0204
          39    0.0000    0.0000   -0.0000    0.0000   -0.0012   -0.0005    0.0000    0.0000
          40   -0.0442    0.0559    0.0184   -0.0056    0.0000   -0.0000    0.0151   -0.0129
          41   -0.0606   -0.0054   -0.0719    0.0838   -0.0000    0.0000   -0.0219    0.0193
          42    0.0000    0.0000   -0.0000    0.0000   -0.0013    0.0004    0.0000   -0.0000


   Root No.      33        34        35        36

                33 A      34 A      35 A      36 A   

                3045.9    3047.5    3065.2    3068.3
  
           1    0.0001   -0.0021    0.0000   -0.0028
           2   -0.0002   -0.0000    0.0000    0.0000
           3    0.0000   -0.0000    0.0000   -0.0000
           4    0.0001   -0.0021   -0.0000    0.0028
           5    0.0002    0.0000    0.0000    0.0000
           6    0.0000    0.0000    0.0000   -0.0000
           7    0.0100   -0.0087    0.0130   -0.0117
           8   -0.0167    0.0147   -0.0163    0.0148
           9    0.0000   -0.0000    0.0000   -0.0000
          10    0.0100   -0.0086   -0.0130    0.0117
          11    0.0167   -0.0147   -0.0164    0.0148
          12   -0.0000    0.0000    0.0000   -0.0000
          13   -0.0095   -0.0091   -0.0128   -0.0118
          14   -0.0159   -0.0154   -0.0161   -0.0150
          15    0.0000    0.0000    0.0000    0.0000
          16   -0.0095   -0.0091    0.0128    0.0119
          17    0.0159    0.0154   -0.0161   -0.0150
          18    0.0000   -0.0000    0.0000    0.0000
          19   -0.0004    0.0135   -0.0001    0.0144
          20   -0.0023   -0.0000   -0.0020   -0.0000
          21    0.0005   -0.0202    0.0002   -0.0214
          22   -0.0004    0.0135   -0.0001    0.0143
          23   -0.0023   -0.0000   -0.0020   -0.0000
          24   -0.0005    0.0202   -0.0002    0.0214
          25   -0.0004    0.0135    0.0001   -0.0144
          26    0.0023    0.0000   -0.0020   -0.0000
          27   -0.0005    0.0201    0.0002   -0.0214
          28   -0.0004    0.0135    0.0001   -0.0144
          29    0.0023    0.0000   -0.0020   -0.0000
          30    0.0005   -0.0201   -0.0002    0.0214
          31   -0.1179    0.1019   -0.1175    0.1037
          32    0.2023   -0.1748    0.1965   -0.1734
          33   -0.0000    0.0000   -0.0000    0.0000
          34   -0.1178    0.1018    0.1177   -0.1038
          35   -0.2020    0.1746    0.1968   -0.1736
          36    0.0000   -0.0000   -0.0000    0.0000
          37    0.1124    0.1069    0.1155    0.1055
          38    0.1929    0.1835    0.1933    0.1764
          39   -0.0000   -0.0000   -0.0000   -0.0000
          40    0.1122    0.1068   -0.1157   -0.1056
          41   -0.1926   -0.1833    0.1935    0.1766
          42    0.0000    0.0000   -0.0000   -0.0000


           MASS-WEIGHTED COORDINATE ANALYSIS (NORMAL COORDINATES)


   Root No.       1         2         3         4         5         6         7         8

                 1 A       2 A       3 A       4 A       5 A       6 A       7 A       8 A   

                  98.5     365.0     367.7     539.4     590.1     683.5     777.3     856.4
  
           1   -0.0000   -0.0000    0.0001   -0.4701    0.0000   -0.0000    0.0000    0.0002
           2    0.0000   -0.0000   -0.0000   -0.0000    0.2115    0.0000    0.0000   -0.0000
           3    0.3756   -0.0007   -0.1117   -0.0000   -0.0000   -0.1768   -0.0000   -0.3471
           4    0.0000   -0.0000   -0.0000    0.4701   -0.0001    0.0000    0.0000    0.0002
           5    0.0000   -0.0000    0.0000   -0.0000   -0.2115   -0.0000   -0.0000    0.0000
           6    0.3757    0.0007    0.1115    0.0000    0.0000   -0.1770   -0.0000    0.3471
           7    0.0000   -0.0000   -0.0000   -0.0162   -0.3174    0.0000   -0.0000   -0.0001
           8   -0.0000    0.0000    0.0000   -0.3326    0.3306   -0.0000    0.0000    0.0002
           9   -0.2098    0.3961    0.3027    0.0001   -0.0000   -0.0645    0.2016    0.0040
          10    0.0000   -0.0000   -0.0000    0.0161   -0.3174    0.0000   -0.0000   -0.0001
          11   -0.0000   -0.0000    0.0000   -0.3326   -0.3306   -0.0000    0.0000   -0.0001
          12   -0.2099   -0.3961   -0.3026   -0.0000    0.0000   -0.0644    0.2016   -0.0041
          13    0.0000    0.0000   -0.0000   -0.0161    0.3174    0.0000    0.0000   -0.0001
          14    0.0000    0.0000   -0.0000    0.3327    0.3304    0.0001   -0.0000   -0.0002
          15   -0.2098   -0.3921    0.3078    0.0000    0.0000   -0.0645   -0.2016    0.0040
          16    0.0000    0.0000   -0.0000    0.0162    0.3174    0.0000    0.0000   -0.0001
          17   -0.0000   -0.0000   -0.0000    0.3326   -0.3305    0.0000    0.0000    0.0001
          18   -0.2099    0.3921   -0.3077   -0.0000    0.0000   -0.0644   -0.2016   -0.0041
          19    0.1939   -0.0016   -0.2398   -0.1438   -0.0000    0.2545    0.0000    0.2712
          20   -0.0000   -0.1261    0.0008   -0.0000   -0.0061    0.0001   -0.1145    0.0001
          21    0.2558   -0.0014   -0.2181   -0.0049   -0.0000    0.1498    0.0000    0.1118
          22   -0.1939    0.0016    0.2398   -0.1437    0.0000   -0.2545   -0.0000   -0.2710
          23    0.0000    0.1262   -0.0008   -0.0000   -0.0061   -0.0001    0.1145   -0.0001
          24    0.2558   -0.0014   -0.2180    0.0048   -0.0000    0.1497    0.0000    0.1117
          25   -0.1940   -0.0016   -0.2398    0.1438   -0.0000   -0.2547   -0.0000    0.2712
          26   -0.0000    0.1261   -0.0008   -0.0000    0.0061    0.0001   -0.1146   -0.0001
          27    0.2559    0.0014    0.2180   -0.0048   -0.0000    0.1498    0.0000   -0.1117
          28    0.1940    0.0016    0.2397    0.1438   -0.0000    0.2545    0.0000   -0.2709
          29    0.0000   -0.1261    0.0008   -0.0000    0.0061   -0.0001    0.1145    0.0001
          30    0.2559    0.0014    0.2180    0.0049   -0.0000    0.1497    0.0000   -0.1117
          31    0.0000   -0.0000   -0.0000    0.0754   -0.0362   -0.0000    0.0000   -0.0000
          32    0.0000    0.0000    0.0000   -0.0472    0.1276   -0.0000    0.0000    0.0001
          33   -0.1798    0.2820    0.2117   -0.0000   -0.0000    0.3781   -0.4429    0.3223
          34   -0.0000   -0.0000   -0.0000   -0.0755   -0.0362    0.0000   -0.0000   -0.0000
          35   -0.0000   -0.0000    0.0000   -0.0473   -0.1276   -0.0000    0.0000   -0.0001
          36   -0.1799   -0.2820   -0.2116   -0.0001    0.0000    0.3783   -0.4430   -0.3221
          37    0.0000    0.0000   -0.0000    0.0754    0.0364   -0.0000    0.0000   -0.0000
          38   -0.0000   -0.0000    0.0000    0.0473    0.1274    0.0000    0.0000   -0.0000
          39   -0.1798   -0.2792    0.2154   -0.0000   -0.0000    0.3780    0.4430    0.3222
          40   -0.0000    0.0000   -0.0000   -0.0754    0.0364    0.0000    0.0000   -0.0000
          41   -0.0000   -0.0000   -0.0000    0.0473   -0.1274    0.0000    0.0000    0.0000
          42   -0.1799    0.2793   -0.2153   -0.0001   -0.0000    0.3781    0.4431   -0.3220


   Root No.       9        10        11        12        13        14        15        16

                 9 A      10 A      11 A      12 A      13 A      14 A      15 A      16 A   

                 906.7     941.0     969.6     991.8    1007.0    1026.6    1032.8    1055.0
  
           1   -0.3449   -0.0000   -0.0000   -0.2879   -0.0006    0.3972    0.0002   -0.0000
           2    0.0001    0.0000   -0.0000   -0.0004    0.2018    0.0003    0.0000    0.0001
           3   -0.0003    0.3630    0.0001   -0.0000    0.0000    0.0001   -0.2502   -0.0000
           4   -0.3449   -0.0001    0.0000   -0.2880    0.0005   -0.3971   -0.0001    0.0000
           5   -0.0001    0.0000   -0.0000    0.0004    0.2018    0.0003    0.0000   -0.0000
           6    0.0001    0.3630   -0.0001    0.0000   -0.0000   -0.0001    0.2501   -0.0000
           7    0.1975    0.0000   -0.0000    0.0853    0.0779    0.0751    0.0000   -0.0000
           8   -0.3471   -0.0001    0.0000    0.2000   -0.2187   -0.3444   -0.0001   -0.0001
           9    0.0001   -0.2278   -0.2238   -0.0000   -0.0001   -0.0001    0.3229   -0.1311
          10    0.1975    0.0000    0.0000    0.0853   -0.0779   -0.0751   -0.0001   -0.0000
          11    0.3471    0.0001    0.0000   -0.2002   -0.2187   -0.3443   -0.0002    0.0000
          12    0.0000   -0.2279    0.2237   -0.0000    0.0001    0.0002   -0.3228   -0.1311
          13    0.1974    0.0000    0.0000    0.0852   -0.0781    0.0748    0.0000    0.0000
          14    0.3472    0.0001    0.0001   -0.2003   -0.2197    0.3437    0.0001   -0.0001
          15    0.0001   -0.2278    0.2237    0.0000    0.0001   -0.0001    0.3231    0.1312
          16    0.1974    0.0000    0.0000    0.0851    0.0781   -0.0749   -0.0001    0.0000
          17   -0.3472   -0.0001    0.0000    0.2004   -0.2197    0.3436    0.0001    0.0000
          18    0.0000   -0.2279   -0.2237   -0.0000   -0.0001    0.0001   -0.3231    0.1311
          19   -0.1291   -0.2494   -0.0001   -0.1098   -0.0003    0.1744    0.1615    0.0000
          20   -0.0000    0.0000    0.1955   -0.0003    0.3726    0.0007   -0.0001   -0.4781
          21   -0.0165   -0.0893   -0.0000   -0.0216   -0.0001    0.0395    0.0521    0.0000
          22   -0.1295    0.2493    0.0001   -0.1097   -0.0003    0.1745   -0.1613   -0.0000
          23   -0.0000   -0.0000   -0.1957   -0.0004    0.3726    0.0007    0.0001    0.4785
          24    0.0166   -0.0891   -0.0000    0.0216    0.0001   -0.0396    0.0521    0.0000
          25   -0.1292    0.2493   -0.0001   -0.1098    0.0003   -0.1745    0.1612   -0.0000
          26    0.0000    0.0000   -0.1957    0.0003    0.3727    0.0007    0.0002   -0.4784
          27    0.0165   -0.0892    0.0000    0.0216   -0.0001    0.0395   -0.0520    0.0000
          28   -0.1294   -0.2493    0.0001   -0.1098    0.0003   -0.1744   -0.1613    0.0000
          29    0.0000   -0.0000    0.1955    0.0003    0.3726    0.0008   -0.0002    0.4780
          30   -0.0166   -0.0892    0.0000   -0.0216    0.0001   -0.0395   -0.0521    0.0000
          31    0.0428   -0.0000   -0.0000    0.3132    0.1884   -0.0054   -0.0000   -0.0001
          32   -0.1106   -0.0001    0.0000    0.2260    0.0360   -0.1232   -0.0000   -0.0001
          33    0.0000    0.2491    0.4021    0.0000    0.0001    0.0001   -0.2926    0.0641
          34    0.0428    0.0000    0.0000    0.3132   -0.1884    0.0053    0.0000   -0.0001
          35    0.1106    0.0000   -0.0000   -0.2260    0.0360   -0.1231   -0.0001    0.0001
          36   -0.0002    0.2493   -0.4021   -0.0000   -0.0001   -0.0002    0.2926    0.0641
          37    0.0431   -0.0000    0.0000    0.3120   -0.1880   -0.0054   -0.0000    0.0001
          38    0.1105    0.0001    0.0000   -0.2253    0.0354    0.1230    0.0000   -0.0001
          39    0.0001    0.2491   -0.4021    0.0000   -0.0001    0.0001   -0.2928   -0.0639
          40    0.0431    0.0000   -0.0000    0.3120    0.1880    0.0053    0.0000    0.0001
          41   -0.1105   -0.0000   -0.0000    0.2254    0.0354    0.1229    0.0001    0.0001
          42   -0.0002    0.2493    0.4021   -0.0000    0.0001   -0.0002    0.2928   -0.0639


   Root No.      17        18        19        20        21        22        23        24

                17 A      18 A      19 A      20 A      21 A      22 A      23 A      24 A   

                1076.2    1093.4    1157.8    1160.9    1227.9    1318.4    1363.8    1397.9
  
           1    0.0000    0.0004   -0.0062   -0.0663   -0.0003   -0.0085   -0.2881    0.3530
           2   -0.0001   -0.1325   -0.0289    0.0028    0.1983    0.0002    0.0003    0.0011
           3    0.0001   -0.0000    0.0000    0.0000   -0.0000    0.0000    0.0000    0.0000
           4   -0.0000    0.0004    0.0062    0.0663   -0.0003   -0.0085    0.2881    0.3530
           5   -0.0000    0.1325   -0.0289    0.0027   -0.1983   -0.0002    0.0003    0.0008
           6   -0.0001    0.0000    0.0000   -0.0000    0.0000   -0.0000    0.0001    0.0000
           7   -0.0000    0.0864   -0.0154   -0.0477    0.1519   -0.1465   -0.0259   -0.1652
           8    0.0000    0.0908    0.0127    0.0109    0.1156   -0.2040    0.0403   -0.1826
           9   -0.2113   -0.0000    0.0000    0.0000   -0.0000    0.0000   -0.0000   -0.0000
          10    0.0000    0.0864    0.0153    0.0477    0.1520   -0.1465    0.0259   -0.1654
          11    0.0000   -0.0908    0.0127    0.0109   -0.1156    0.2040    0.0403    0.1819
          12    0.2114   -0.0001   -0.0000    0.0000    0.0000   -0.0000   -0.0000    0.0000
          13    0.0000   -0.0867    0.0067   -0.0498   -0.1515   -0.1468   -0.0260   -0.1655
          14    0.0001    0.0916    0.0100   -0.0132    0.1145    0.2041   -0.0405    0.1819
          15    0.2111    0.0000   -0.0000    0.0000    0.0000    0.0000   -0.0000   -0.0000
          16   -0.0000   -0.0867   -0.0066    0.0499   -0.1515   -0.1467    0.0260   -0.1653
          17    0.0000   -0.0916    0.0100   -0.0132   -0.1145   -0.2040   -0.0405   -0.1825
          18   -0.2111    0.0001    0.0000    0.0000    0.0000   -0.0000   -0.0000    0.0000
          19   -0.0000    0.0002   -0.0053   -0.0579   -0.0003    0.3022    0.3529   -0.2160
          20   -0.4425   -0.4045    0.2308   -0.0203   -0.2117   -0.0000   -0.0000   -0.0004
          21    0.0000    0.0001   -0.0018   -0.0201   -0.0001    0.1972    0.2835   -0.2070
          22    0.0000    0.0002   -0.0053   -0.0579   -0.0003    0.3023    0.3531   -0.2161
          23    0.4424   -0.4042    0.2307   -0.0203   -0.2116   -0.0001   -0.0001   -0.0004
          24   -0.0000   -0.0001    0.0018    0.0201    0.0001   -0.1972   -0.2835    0.2070
          25   -0.0000    0.0002    0.0053    0.0579   -0.0002    0.3022   -0.3530   -0.2159
          26    0.4427    0.4040    0.2307   -0.0203    0.2116    0.0000   -0.0000   -0.0003
          27   -0.0000   -0.0001   -0.0018   -0.0201    0.0001   -0.1971    0.2835    0.2069
          28    0.0000    0.0002    0.0053    0.0579   -0.0002    0.3023   -0.3531   -0.2160
          29   -0.4425    0.4047    0.2308   -0.0203    0.2117    0.0001   -0.0000   -0.0003
          30    0.0000    0.0001    0.0018    0.0201   -0.0001    0.1972   -0.2836   -0.2070
          31   -0.0000    0.2118   -0.4194   -0.3924   -0.3359    0.2182   -0.0345    0.1771
          32   -0.0000    0.1297   -0.2413   -0.2212   -0.1908    0.0938   -0.0006    0.0784
          33    0.0979    0.0000   -0.0000   -0.0000    0.0000    0.0000    0.0000    0.0000
          34    0.0001    0.2118    0.4194    0.3924   -0.3359    0.2182    0.0345    0.1774
          35   -0.0001   -0.1298   -0.2413   -0.2211    0.1908   -0.0938   -0.0006   -0.0788
          36   -0.0979    0.0000   -0.0000   -0.0000   -0.0000    0.0000    0.0000   -0.0000
          37    0.0000   -0.2125    0.3441   -0.4601    0.3359    0.2190   -0.0344    0.1777
          38   -0.0000    0.1303   -0.1988    0.2600   -0.1910   -0.0942    0.0005   -0.0790
          39   -0.0976   -0.0000    0.0000   -0.0000   -0.0000   -0.0000    0.0000    0.0000
          40   -0.0001   -0.2124   -0.3441    0.4602    0.3359    0.2190    0.0344    0.1774
          41   -0.0001   -0.1303   -0.1988    0.2600    0.1910    0.0942    0.0005    0.0785
          42    0.0976   -0.0000    0.0000   -0.0000    0.0000    0.0000   -0.0000   -0.0000


   Root No.      25        26        27        28        29        30        31        32

                25 A      26 A      27 A      28 A      29 A      30 A      31 A      32 A   

                1398.5    1476.6    1873.4    1892.7    2931.0    2931.4    3008.9    3009.7
  
           1   -0.0005    0.0000   -0.0001   -0.1019    0.0000    0.0000   -0.1477   -0.1564
           2    0.5459   -0.5117   -0.1031    0.0001   -0.0000   -0.0000   -0.0000    0.0000
           3   -0.0000    0.0000    0.0000    0.0000   -0.2077   -0.2218   -0.0001   -0.0001
           4   -0.0007    0.0000    0.0001    0.1019   -0.0000   -0.0000    0.1554   -0.1488
           5    0.5458    0.5118   -0.1031    0.0001   -0.0000    0.0000   -0.0000   -0.0000
           6   -0.0000   -0.0000    0.0000    0.0000   -0.2208    0.2088   -0.0000    0.0000
           7    0.0618    0.1297    0.4813    0.4814   -0.0000   -0.0000    0.0069    0.0087
           8   -0.1774    0.2782    0.0814    0.0692    0.0000    0.0000   -0.0155   -0.0167
           9    0.0000   -0.0000   -0.0000   -0.0000   -0.0011    0.0008   -0.0000   -0.0000
          10   -0.0612    0.1297   -0.4813   -0.4814    0.0000    0.0000   -0.0074    0.0084
          11   -0.1780   -0.2782    0.0814    0.0692   -0.0000    0.0000   -0.0163    0.0159
          12    0.0000    0.0000   -0.0000    0.0000   -0.0010   -0.0009   -0.0000    0.0000
          13   -0.0611   -0.1297   -0.4805    0.4822   -0.0000   -0.0000    0.0069    0.0087
          14   -0.1779    0.2782    0.0812   -0.0693   -0.0000   -0.0000    0.0155    0.0167
          15    0.0000    0.0000    0.0000   -0.0000   -0.0011    0.0008   -0.0000   -0.0000
          16    0.0617   -0.1297    0.4805   -0.4822    0.0000    0.0000   -0.0073    0.0084
          17   -0.1773   -0.2782    0.0812   -0.0693    0.0000    0.0000    0.0163   -0.0159
          18   -0.0000   -0.0000   -0.0000   -0.0000   -0.0010   -0.0009   -0.0000    0.0000
          19    0.0002   -0.0000   -0.0000   -0.0163   -0.2834   -0.3007    0.2569    0.2706
          20   -0.2102    0.1323   -0.0274    0.0000    0.0000    0.0000   -0.0000   -0.0000
          21    0.0002   -0.0000    0.0000    0.0033    0.3647    0.3876   -0.3959   -0.4167
          22    0.0002   -0.0000   -0.0000   -0.0163    0.2832    0.3005    0.2569    0.2706
          23   -0.2102    0.1322   -0.0274    0.0000    0.0000    0.0000    0.0000    0.0000
          24   -0.0002    0.0000   -0.0000   -0.0033    0.3646    0.3875    0.3961    0.4169
          25    0.0006   -0.0000    0.0000    0.0163    0.3010   -0.2828   -0.2702    0.2572
          26   -0.2101   -0.1323   -0.0274    0.0000   -0.0000    0.0000    0.0000    0.0000
          27   -0.0005    0.0000    0.0000    0.0033    0.3876   -0.3647   -0.4165    0.3963
          28    0.0006   -0.0000    0.0000    0.0163   -0.3010    0.2829   -0.2703    0.2573
          29   -0.2102   -0.1323   -0.0274    0.0000    0.0000   -0.0000    0.0000   -0.0000
          30    0.0005   -0.0000   -0.0000   -0.0033    0.3875   -0.3647    0.4166   -0.3963
          31   -0.0865   -0.0852    0.0193    0.0058    0.0000    0.0000   -0.0330   -0.0309
          32   -0.1189    0.0083   -0.0753   -0.0868   -0.0000   -0.0000    0.0478    0.0463
          33   -0.0000   -0.0000    0.0000    0.0000   -0.0025   -0.0011    0.0000    0.0000
          34    0.0859   -0.0851   -0.0193   -0.0058    0.0000   -0.0000    0.0345   -0.0292
          35   -0.1186   -0.0083   -0.0753   -0.0868    0.0000   -0.0000    0.0500   -0.0438
          36   -0.0000    0.0000    0.0000    0.0000   -0.0026    0.0009    0.0000    0.0000
          37    0.0861    0.0853   -0.0192    0.0058    0.0000    0.0000   -0.0330   -0.0309
          38   -0.1187    0.0082   -0.0752    0.0869    0.0000    0.0000   -0.0477   -0.0462
          39    0.0000    0.0000   -0.0000    0.0000   -0.0025   -0.0010    0.0000    0.0000
          40   -0.0867    0.0852    0.0192   -0.0058    0.0000   -0.0000    0.0345   -0.0292
          41   -0.1189   -0.0082   -0.0752    0.0869   -0.0000    0.0000   -0.0500    0.0438
          42    0.0000    0.0000   -0.0000    0.0000   -0.0026    0.0009    0.0000   -0.0000


   Root No.      33        34        35        36

                33 A      34 A      35 A      36 A   

                3045.9    3047.5    3065.2    3068.3
  
           1    0.0004   -0.0164    0.0002   -0.0221
           2   -0.0013   -0.0000    0.0001    0.0000
           3    0.0000   -0.0000    0.0000   -0.0000
           4    0.0004   -0.0164   -0.0002    0.0221
           5    0.0013    0.0000    0.0001    0.0000
           6    0.0000    0.0000    0.0000   -0.0000
           7    0.0726   -0.0687    0.0942   -0.0932
           8   -0.1214    0.1168   -0.1183    0.1181
           9    0.0000   -0.0000    0.0000   -0.0000
          10    0.0724   -0.0686   -0.0943    0.0933
          11    0.1212   -0.1167   -0.1185    0.1182
          12   -0.0000    0.0000    0.0000   -0.0000
          13   -0.0692   -0.0721   -0.0926   -0.0947
          14   -0.1156   -0.1225   -0.1163   -0.1201
          15    0.0000    0.0000    0.0000    0.0000
          16   -0.0691   -0.0720    0.0927    0.0948
          17    0.1154    0.1225   -0.1165   -0.1202
          18    0.0000   -0.0000    0.0000    0.0000
          19   -0.0008    0.0312   -0.0003    0.0332
          20   -0.0048   -0.0001   -0.0042   -0.0000
          21    0.0011   -0.0464    0.0004   -0.0495
          22   -0.0008    0.0311   -0.0003    0.0332
          23   -0.0048   -0.0001   -0.0042   -0.0000
          24   -0.0011    0.0464   -0.0004    0.0495
          25   -0.0008    0.0311    0.0003   -0.0333
          26    0.0047    0.0001   -0.0042   -0.0000
          27   -0.0011    0.0463    0.0004   -0.0495
          28   -0.0008    0.0311    0.0003   -0.0333
          29    0.0048    0.0001   -0.0043   -0.0000
          30    0.0011   -0.0463   -0.0004    0.0495
          31   -0.2479    0.2344   -0.2466    0.2403
          32    0.4253   -0.4021    0.4125   -0.4017
          33   -0.0000    0.0000   -0.0000    0.0000
          34   -0.2475    0.2342    0.2470   -0.2405
          35   -0.4247    0.4017    0.4131   -0.4021
          36    0.0000   -0.0000   -0.0000    0.0000
          37    0.2362    0.2460    0.2425    0.2444
          38    0.4054    0.4221    0.4057    0.4087
          39   -0.0000   -0.0000   -0.0000   -0.0000
          40    0.2359    0.2458   -0.2428   -0.2446
          41   -0.4049   -0.4218    0.4062    0.4090
          42    0.0000    0.0000   -0.0000   -0.0000


          DESCRIPTION OF VIBRATIONS


 VIBRATION    1    1A         ATOM PAIR      ENERGY CONTRIBUTION    RADIAL
 FREQ.        98.48         C  2 -- C  6         +12.6% (445.8%)      0.0%
 T-DIPOLE    0.0924         C  2 -- C  4         +12.6% (445.8%)      0.0%
 TRAVEL      0.0510         C  1 -- C  3         +12.6% (445.8%)      0.0%
 RED. MASS   0.6185         C  1 -- C  5         +12.6% (445.8%)      0.0%
 EFF. MASS 263.1616         C  2 -- H 10         +11.2% (420.3%)     86.8%
                            C  2 -- H  9         +11.2% (420.3%)     86.8%
                            C  1 -- H  7         +11.2% (420.3%)     86.8%
                            C  1 -- H  8         +11.2% (420.3%)     86.8%

 VIBRATION    2    2A         ATOM PAIR      ENERGY CONTRIBUTION    RADIAL
 FREQ.       365.02         C  3 -- C  4         +21.7% (107.1%)      0.0%
 T-DIPOLE    0.0000         C  5 -- C  6         +21.3% (106.0%)      0.0%
 TRAVEL      0.1025         C  1 -- C  3          +7.5% ( 62.9%)      0.0%
 RED. MASS   1.1853         C  2 -- C  4          +7.5% ( 62.9%)      0.0%
 EFF. MASS  17.5796

 VIBRATION    3    3A         ATOM PAIR      ENERGY CONTRIBUTION    RADIAL
 FREQ.       367.65         C  1 -- H  7         +12.0% ( 90.0%)      5.1%
 T-DIPOLE    0.0004         C  1 -- H  8         +12.0% ( 90.0%)      5.1%
 TRAVEL      0.1114         C  2 -- H  9         +12.0% ( 90.0%)      5.1%
 RED. MASS   0.4737         C  2 -- H 10         +12.0% ( 90.0%)      5.1%
 EFF. MASS  14.7772         C  5 -- C  6         +10.1% ( 82.6%)      0.0%

 VIBRATION    4    4A         ATOM PAIR      ENERGY CONTRIBUTION    RADIAL
 FREQ.       539.38         C  1 -- C  5         +10.8% (110.8%)      0.3%
 T-DIPOLE    0.0003         C  2 -- C  4         +10.8% (110.8%)      0.3%
 TRAVEL      0.0778         C  2 -- C  6         +10.8% (110.8%)      0.3%
 RED. MASS   1.7658         C  1 -- C  3         +10.8% (110.8%)      0.3%
 EFF. MASS  20.6784

 VIBRATION    5    5A         ATOM PAIR      ENERGY CONTRIBUTION    RADIAL
 FREQ.       590.07         C  3 -- C  4         +12.8% (117.8%)      0.0%
 T-DIPOLE    0.0001         C  5 -- C  6         +12.8% (117.8%)      0.0%
 TRAVEL      0.0741         C  1 -- C  3         +10.3% (105.7%)      4.7%
 RED. MASS   2.1683         C  2 -- C  4         +10.3% (105.7%)      4.7%
 EFF. MASS  20.7959         C  2 -- C  6         +10.3% (105.7%)      4.7%
                            C  1 -- C  5         +10.3% (105.7%)      4.7%

 VIBRATION    6    6A         ATOM PAIR      ENERGY CONTRIBUTION    RADIAL
 FREQ.       683.48         C  2 -- H  9         +12.3% ( 52.7%)      6.8%
 T-DIPOLE    0.5955         C  2 -- H 10         +12.3% ( 52.7%)      6.8%
 TRAVEL      0.2146         C  1 -- H  7         +12.3% ( 52.7%)      6.8%
 RED. MASS   0.1374         C  1 -- H  8         +12.3% ( 52.7%)      6.8%
 EFF. MASS   2.1415

 VIBRATION    7    7A         ATOM PAIR      ENERGY CONTRIBUTION    RADIAL
 FREQ.       777.26         C  6 -- H 14         +20.9% ( 55.4%)      0.0%
 T-DIPOLE    0.0005         C  5 -- H 13         +20.9% ( 55.4%)      0.0%
 TRAVEL      0.2037         C  4 -- H 12         +20.9% ( 55.4%)      0.0%
 RED. MASS   0.2353         C  3 -- H 11         +20.9% ( 55.4%)      0.0%
 EFF. MASS   2.0898

 VIBRATION    8    8A         ATOM PAIR      ENERGY CONTRIBUTION    RADIAL
 FREQ.       856.36         C  1 -- H  7         +12.9% ( 52.6%)     14.6%
 T-DIPOLE    0.0003         C  1 -- H  8         +12.9% ( 52.6%)     14.5%
 TRAVEL      0.1334         C  2 -- H  9         +12.9% ( 52.6%)     14.6%
 RED. MASS   0.4220         C  2 -- H 10         +12.9% ( 52.6%)     14.5%
 EFF. MASS   4.4248

 VIBRATION    9    9A         ATOM PAIR      ENERGY CONTRIBUTION    RADIAL
 FREQ.       906.74         C  5 -- C  6         +12.2% ( 72.5%)      0.0%
 T-DIPOLE    0.0694         C  3 -- C  4         +12.2% ( 72.5%)      0.0%
 TRAVEL      0.0708         C  1 -- C  5         +11.0% ( 69.0%)      0.0%
 RED. MASS   1.5637         C  2 -- C  6         +11.0% ( 69.0%)      0.0%
 EFF. MASS  14.8258         C  1 -- C  3         +11.0% ( 69.0%)      0.0%
                            C  2 -- C  4         +11.0% ( 69.0%)      0.0%

 VIBRATION   10   10A         ATOM PAIR      ENERGY CONTRIBUTION    RADIAL
 FREQ.       940.99         C  1 -- H  7         +10.0% ( 46.5%)     16.7%
 T-DIPOLE    0.5967         C  2 -- H  9         +10.0% ( 46.5%)     16.7%
 TRAVEL      0.1082         C  1 -- H  8         +10.0% ( 46.5%)     16.7%
 RED. MASS   0.5818         C  2 -- H 10         +10.0% ( 46.5%)     16.7%
 EFF. MASS   6.1184

 VIBRATION   11   11A         ATOM PAIR      ENERGY CONTRIBUTION    RADIAL
 FREQ.       969.61         C  3 -- H 11         +16.7% ( 42.3%)      0.0%
 T-DIPOLE    0.0000         C  5 -- H 13         +16.6% ( 42.3%)      0.0%
 TRAVEL      0.1631         C  4 -- H 12         +16.6% ( 42.3%)      0.0%
 RED. MASS   0.2317         C  6 -- H 14         +16.6% ( 42.3%)      0.0%
 EFF. MASS   2.6141

 VIBRATION   12   12A         ATOM PAIR      ENERGY CONTRIBUTION    RADIAL
 FREQ.       991.82         C  2 -- C  4          +9.3% ( 46.9%)     77.0%
 T-DIPOLE    0.1631         C  2 -- C  6          +9.3% ( 46.9%)     76.9%
 TRAVEL      0.1008         C  1 -- C  3          +9.3% ( 46.9%)     77.0%
 RED. MASS   0.3626         C  1 -- C  5          +9.3% ( 46.9%)     76.9%
 EFF. MASS   6.6904

 VIBRATION   13   13A         ATOM PAIR      ENERGY CONTRIBUTION    RADIAL
 FREQ.      1007.03         C  2 -- C  6          +8.4% ( 41.4%)     52.6%
 T-DIPOLE    0.0004         C  1 -- C  5          +8.4% ( 41.3%)     52.6%
 TRAVEL      0.1069         C  2 -- C  4          +8.4% ( 41.2%)     52.4%
 RED. MASS   0.2637         C  1 -- C  3          +8.4% ( 41.2%)     52.4%
 EFF. MASS   5.8561

 VIBRATION   14   14A         ATOM PAIR      ENERGY CONTRIBUTION    RADIAL
 FREQ.      1026.56         C  1 -- C  3         +12.2% ( 63.1%)     97.0%
 T-DIPOLE    0.0005         C  2 -- C  4         +12.2% ( 63.1%)     97.0%
 TRAVEL      0.0714         C  1 -- C  5         +12.2% ( 63.0%)     96.9%
 RED. MASS   1.3410         C  2 -- C  6         +12.2% ( 63.0%)     96.9%
 EFF. MASS  12.8720

 VIBRATION   15   15A         ATOM PAIR      ENERGY CONTRIBUTION    RADIAL
 FREQ.      1032.81         C  5 -- H 13          +8.8% ( 36.8%)      0.0%
 T-DIPOLE    0.0002         C  6 -- H 14          +8.8% ( 36.8%)      0.0%
 TRAVEL      0.1015         C  3 -- H 11          +8.8% ( 36.8%)      0.0%
 RED. MASS   0.6496         C  4 -- H 12          +8.8% ( 36.8%)      0.0%
 EFF. MASS   6.3388

 VIBRATION   16   16A         ATOM PAIR      ENERGY CONTRIBUTION    RADIAL
 FREQ.      1054.97         C  1 -- H  8         +23.0% ( 48.2%)      0.0%
 T-DIPOLE    0.0002         C  2 -- H  9         +23.0% ( 48.2%)      0.0%
 TRAVEL      0.2127         C  1 -- H  7         +23.0% ( 48.2%)      0.0%
 RED. MASS   0.2252         C  2 -- H 10         +23.0% ( 48.2%)      0.0%
 EFF. MASS   1.4134

 VIBRATION   17   17A         ATOM PAIR      ENERGY CONTRIBUTION    RADIAL
 FREQ.      1076.22         C  2 -- H  9         +19.0% ( 43.7%)      0.0%
 T-DIPOLE    0.0000         C  1 -- H  7         +19.0% ( 43.7%)      0.0%
 TRAVEL      0.1638         C  2 -- H 10         +19.0% ( 43.7%)      0.0%
 RED. MASS   0.2506         C  1 -- H  8         +19.0% ( 43.7%)      0.0%
 EFF. MASS   2.3362

 VIBRATION   18   18A         ATOM PAIR      ENERGY CONTRIBUTION    RADIAL
 FREQ.      1093.35         C  2 -- H 10         +12.6% ( 38.5%)      0.0%
 T-DIPOLE    0.0006         C  1 -- H  7         +12.6% ( 38.5%)      0.0%
 TRAVEL      0.1582         C  1 -- H  8         +12.5% ( 38.4%)      0.0%
 RED. MASS   0.1426         C  2 -- H  9         +12.5% ( 38.4%)      0.0%
 EFF. MASS   2.4640

 VIBRATION   19   19A         ATOM PAIR      ENERGY CONTRIBUTION    RADIAL
 FREQ.      1157.75         C  4 -- H 12         +23.5% ( 47.4%)      0.0%
 T-DIPOLE    0.0167         C  3 -- H 11         +23.5% ( 47.4%)      0.0%
 TRAVEL      0.2357         C  6 -- H 14         +15.9% ( 39.1%)      0.0%
 RED. MASS   0.1722         C  5 -- H 13         +15.9% ( 39.1%)      0.0%
 EFF. MASS   1.0482

 VIBRATION   20   20A         ATOM PAIR      ENERGY CONTRIBUTION    RADIAL
 FREQ.      1160.91         C  6 -- H 14         +26.7% ( 51.4%)      0.2%
 T-DIPOLE    0.0011         C  5 -- H 13         +26.7% ( 51.4%)      0.2%
 TRAVEL      0.2116         C  3 -- H 11         +19.4% ( 43.7%)      0.3%
 RED. MASS   0.2411         C  4 -- H 12         +19.4% ( 43.7%)      0.3%
 EFF. MASS   1.2974

 VIBRATION   21   21A         ATOM PAIR      ENERGY CONTRIBUTION    RADIAL
 FREQ.      1227.85         C  4 -- H 12         +13.8% ( 44.9%)      0.0%
 T-DIPOLE    0.0008         C  3 -- H 11         +13.8% ( 44.9%)      0.0%
 TRAVEL      0.1502         C  5 -- H 13         +13.8% ( 44.8%)      0.0%
 RED. MASS   0.1983         C  6 -- H 14         +13.8% ( 44.8%)      0.0%
 EFF. MASS   2.4342

 VIBRATION   22   22A         ATOM PAIR      ENERGY CONTRIBUTION    RADIAL
 FREQ.      1318.40         C  5 -- H 13          +9.7% ( 33.9%)      2.1%
 T-DIPOLE    0.0576         C  6 -- H 14          +9.7% ( 33.9%)      2.1%
 TRAVEL      0.1231         C  3 -- H 11          +9.6% ( 33.9%)      2.1%
 RED. MASS   0.2727         C  4 -- H 12          +9.6% ( 33.9%)      2.1%
 EFF. MASS   3.3756

 VIBRATION   23   23A         ATOM PAIR      ENERGY CONTRIBUTION    RADIAL
 FREQ.      1363.78         C  2 -- H 10         +18.9% ( 44.6%)      5.2%
 T-DIPOLE    0.0002         C  1 -- H  8         +18.9% ( 44.6%)      5.2%
 TRAVEL      0.1360         C  2 -- H  9         +18.9% ( 44.6%)      5.2%
 RED. MASS   0.3352         C  1 -- H  7         +18.9% ( 44.6%)      5.2%
 EFF. MASS   2.6739

 VIBRATION   24   24A         ATOM PAIR      ENERGY CONTRIBUTION    RADIAL
 FREQ.      1397.91         C  1 -- C  3          +9.6% ( 40.9%)     63.1%
 T-DIPOLE    0.1109         C  2 -- C  6          +9.6% ( 40.9%)     63.0%
 TRAVEL      0.0888         C  1 -- C  5          +9.6% ( 40.9%)     62.6%
 RED. MASS   0.5871         C  2 -- C  4          +9.6% ( 40.9%)     62.7%
 EFF. MASS   6.1169

 VIBRATION   25   25A         ATOM PAIR      ENERGY CONTRIBUTION    RADIAL
 FREQ.      1398.50         C  1 -- C  5         +11.6% ( 52.3%)     62.3%
 T-DIPOLE    0.0100         C  2 -- C  4         +11.6% ( 52.3%)     62.3%
 TRAVEL      0.0740         C  1 -- C  3         +11.6% ( 52.3%)     62.1%
 RED. MASS   2.2017         C  2 -- C  6         +11.6% ( 52.3%)     62.1%
 EFF. MASS   8.8022         C  1 -- H  7         +11.2% ( 51.2%)      0.0%
                            C  1 -- H  8         +11.2% ( 51.2%)      0.0%
                            C  2 -- H 10         +11.2% ( 51.2%)      0.0%
                            C  2 -- H  9         +11.2% ( 51.2%)      0.0%

 VIBRATION   26   26A         ATOM PAIR      ENERGY CONTRIBUTION    RADIAL
 FREQ.      1476.63         C  2 -- C  6         +12.4% ( 55.4%)     83.8%
 T-DIPOLE    0.0006         C  2 -- C  4         +12.4% ( 55.4%)     83.8%
 TRAVEL      0.0648         C  1 -- C  5         +12.4% ( 55.4%)     83.8%
 RED. MASS   2.0759         C  1 -- C  3         +12.4% ( 55.4%)     83.8%
 EFF. MASS  10.8671

 VIBRATION   27   27A         ATOM PAIR      ENERGY CONTRIBUTION    RADIAL
 FREQ.      1873.41         C  3 -- C  4         +22.2% ( 69.8%)    100.0%
 T-DIPOLE    0.1349         C  5 -- C  6         +22.1% ( 69.6%)    100.0%
 TRAVEL      0.0550         C  1 -- C  3          +7.2% ( 39.8%)     65.5%
 RED. MASS   2.7221         C  2 -- C  4          +7.2% ( 39.8%)     65.5%
 EFF. MASS  11.8896

 VIBRATION   28   28A         ATOM PAIR      ENERGY CONTRIBUTION    RADIAL
 FREQ.      1892.74         C  5 -- C  6         +22.2% ( 69.1%)    100.0%
 T-DIPOLE    0.0004         C  3 -- C  4         +22.1% ( 69.0%)    100.0%
 TRAVEL      0.0548         C  1 -- C  5          +7.2% ( 39.4%)     41.1%
 RED. MASS   2.7005         C  2 -- C  6          +7.2% ( 39.4%)     41.1%
 EFF. MASS  11.8517

 VIBRATION   29   29A         ATOM PAIR      ENERGY CONTRIBUTION    RADIAL
 FREQ.      2931.04         C  2 -- H  9         +26.0% ( 52.8%)     96.6%
 T-DIPOLE    0.0349         C  2 -- H 10         +25.9% ( 52.8%)     96.6%
 TRAVEL      0.1226         C  1 -- H  7         +23.0% ( 49.7%)     96.6%
 RED. MASS   0.2595         C  1 -- H  8         +23.0% ( 49.7%)     96.6%
 EFF. MASS   1.5305

 VIBRATION   30   30A         ATOM PAIR      ENERGY CONTRIBUTION    RADIAL
 FREQ.      2931.44         C  1 -- H  7         +26.0% ( 52.8%)     96.5%
 T-DIPOLE    0.0011         C  1 -- H  8         +25.9% ( 52.8%)     96.5%
 TRAVEL      0.1222         C  2 -- H  9         +23.0% ( 49.7%)     96.5%
 RED. MASS   0.2600         C  2 -- H 10         +23.0% ( 49.7%)     96.5%
 EFF. MASS   1.5394

 VIBRATION   31   31A         ATOM PAIR      ENERGY CONTRIBUTION    RADIAL
 FREQ.      3008.91         C  2 -- H 10         +25.5% ( 49.8%)     97.8%
 T-DIPOLE    0.0028         C  2 -- H  9         +25.5% ( 49.8%)     97.7%
 TRAVEL      0.1324         C  1 -- H  8         +23.0% ( 47.4%)     97.8%
 RED. MASS   0.2354         C  1 -- H  7         +23.0% ( 47.3%)     97.8%
 EFF. MASS   1.2793

 VIBRATION   32   32A         ATOM PAIR      ENERGY CONTRIBUTION    RADIAL
 FREQ.      3009.65         C  1 -- H  8         +25.5% ( 49.9%)     97.7%
 T-DIPOLE    0.1086         C  1 -- H  7         +25.5% ( 49.8%)     97.7%
 TRAVEL      0.1320         C  2 -- H 10         +23.1% ( 47.4%)     97.7%
 RED. MASS   0.2365         C  2 -- H  9         +23.1% ( 47.4%)     97.7%
 EFF. MASS   1.2866

 VIBRATION   33   33A         ATOM PAIR      ENERGY CONTRIBUTION    RADIAL
 FREQ.      3045.90         C  3 -- H 11         +25.6% ( 51.4%)    100.0%
 T-DIPOLE    0.0098         C  4 -- H 12         +25.5% ( 51.3%)    100.0%
 TRAVEL      0.1237         C  5 -- H 13         +23.3% ( 49.0%)    100.0%
 RED. MASS   0.2330         C  6 -- H 14         +23.2% ( 48.9%)    100.0%
 EFF. MASS   1.4464

 VIBRATION   34   34A         ATOM PAIR      ENERGY CONTRIBUTION    RADIAL
 FREQ.      3047.55         C  5 -- H 13         +25.3% ( 51.0%)    100.0%
 T-DIPOLE    0.3960         C  6 -- H 14         +25.3% ( 51.0%)    100.0%
 TRAVEL      0.1230         C  3 -- H 11         +23.0% ( 48.6%)    100.0%
 RED. MASS   0.2270         C  4 -- H 12         +22.9% ( 48.6%)    100.0%
 EFF. MASS   1.4634

 VIBRATION   35   35A         ATOM PAIR      ENERGY CONTRIBUTION    RADIAL
 FREQ.      3065.22         C  4 -- H 12         +24.5% ( 50.3%)     99.9%
 T-DIPOLE    0.3875         C  3 -- H 11         +24.5% ( 50.2%)     99.9%
 TRAVEL      0.1183         C  6 -- H 14         +23.7% ( 49.4%)     99.9%
 RED. MASS   0.2330         C  5 -- H 13         +23.7% ( 49.4%)     99.9%
 EFF. MASS   1.5732

 VIBRATION   36   36A         ATOM PAIR      ENERGY CONTRIBUTION    RADIAL
 FREQ.      3068.32         C  6 -- H 14         +24.2% ( 49.8%)     99.9%
 T-DIPOLE    0.0040         C  5 -- H 13         +24.1% ( 49.8%)     99.9%
 TRAVEL      0.1170         C  4 -- H 12         +23.4% ( 49.0%)     99.9%
 RED. MASS   0.2264         C  3 -- H 11         +23.3% ( 49.0%)     99.9%
 EFF. MASS   1.6042

      SYMMETRY NUMBER FOR POINT-GROUP C1  =  1


          SYSTEM IS A GROUND STATE



 InChI=1S/C6H8/c1-2-4-6-5-3-1/h1-2,5-6H,3-4H2


          MOLECULE IS NOT LINEAR

          THERE ARE 36 GENUINE VIBRATIONS IN THIS SYSTEM
          THIS THERMODYNAMICS CALCULATION IS LIMITED TO
          MOLECULES WHICH HAVE NO INTERNAL ROTATIONS




                    CALCULATED THERMODYNAMIC PROPERTIES
                                          *
   TEMP. (K)   PARTITION FUNCTION   H.O.F.    ENTHALPY  HEAT CAPACITY ENTROPY
                                   KCAL/MOL   CAL/MOLE    CAL/K/MOL  CAL/K/MOL


 298.00  VIB.     0.5237D+01                  1575.0768    14.2988     8.5759
         ROT.     0.1050D+06                   888.2813     2.9808    25.9563
         INT.     0.5499D+06                  2463.3581    17.2796    34.5322
         TRA.     0.6934D+27                  1480.4688     4.9680    39.0554
         TOT.                       19.360    3943.8269    22.2476    73.5877

 200.00  VIB.     0.2420D+01                   544.4038     7.0264     4.4784
         ROT.     0.5773D+05                   596.1620     2.9808    24.7676
         INT.     0.1397D+06                  1140.5658    10.0072    29.2460
         TRA.     0.3813D+27                   993.6033     4.9680    37.0743
         TOT.                       17.550    2134.1690    14.9752    66.3203

 210.00  VIB.     0.2594D+01                   617.8694     7.6718     4.8367
         ROT.     0.6211D+05                   625.9700     2.9808    24.9131
         INT.     0.1611D+06                  1243.8394    10.6526    29.7498
         TRA.     0.4102D+27                  1043.2834     4.9680    37.3167
         TOT.                       17.703    2287.1228    15.6206    67.0665

 220.00  VIB.     0.2787D+01                   697.9368     8.3464     5.2090
         ROT.     0.6660D+05                   655.7781     2.9808    25.0517
         INT.     0.1856D+06                  1353.7150    11.3272    30.2608
         TRA.     0.4399D+27                  1092.9636     4.9680    37.5478
         TOT.                       17.862    2446.6785    16.2952    67.8086

 230.00  VIB.     0.3000D+01                   784.8864     9.0478     5.5954
         ROT.     0.7120D+05                   685.5862     2.9808    25.1842
         INT.     0.2136D+06                  1470.4726    12.0286    30.7797
         TRA.     0.4702D+27                  1142.6437     4.9680    37.7686
         TOT.                       18.029    2613.1163    16.9966    68.5483

 240.00  VIB.     0.3236D+01                   878.9721     9.7732     5.9958
         ROT.     0.7589D+05                   715.3943     2.9808    25.3111
         INT.     0.2455D+06                  1594.3665    12.7540    31.3069
         TRA.     0.5012D+27                  1192.3239     4.9680    37.9801
         TOT.                       18.202    2786.6904    17.7220    69.2869

 250.00  VIB.     0.3498D+01                   980.4197    10.5196     6.4098
         ROT.     0.8068D+05                   745.2024     2.9808    25.4328
         INT.     0.2822D+06                  1725.6221    13.5004    31.8426
         TRA.     0.5328D+27                  1242.0041     4.9680    38.1829
         TOT.                       18.383    2967.6262    18.4684    70.0255

 260.00  VIB.     0.3789D+01                  1089.4240    11.2840     6.8372
         ROT.     0.8557D+05                   775.0105     2.9808    25.5497
         INT.     0.3242D+06                  1864.4345    14.2648    32.3869
         TRA.     0.5651D+27                  1291.6842     4.9680    38.3777
         TOT.                       18.572    3156.1188    19.2328    70.7646

 270.00  VIB.     0.4113D+01                  1206.1494    12.0633     7.2776
         ROT.     0.9055D+05                   804.8186     2.9808    25.6622
         INT.     0.3725D+06                  2010.9680    15.0441    32.9398
         TRA.     0.5980D+27                  1341.3644     4.9680    38.5652
         TOT.                       18.768    3352.3324    20.0121    71.5051

 280.00  VIB.     0.4475D+01                  1330.7291    12.8544     7.7306
         ROT.     0.9563D+05                   834.6267     2.9808    25.7706
         INT.     0.4280D+06                  2165.3558    15.8352    33.5012
         TRA.     0.6316D+27                  1391.0445     4.9680    38.7459
         TOT.                       18.972    3556.4004    20.8032    72.2471

 290.00  VIB.     0.4880D+01                  1463.2664    13.6543     8.1956
         ROT.     0.1008D+06                   864.4348     2.9808    25.8752
         INT.     0.4919D+06                  2327.7012    16.6351    34.0708
         TRA.     0.6657D+27                  1440.7247     4.9680    38.9202
         TOT.                       19.184    3768.4259    21.6032    72.9911

 300.00  VIB.     0.5332D+01                  1603.8359    14.4604     8.6721
         ROT.     0.1061D+06                   894.2429     2.9808    25.9763
         INT.     0.5655D+06                  2498.0789    17.4412    34.6484
         TRA.     0.7004D+27                  1490.4049     4.9680    39.0887
         TOT.                       19.404    3988.4837    22.4092    73.7370

 310.00  VIB.     0.5838D+01                  1752.4852    15.2699     9.1594
         ROT.     0.1114D+06                   924.0510     2.9808    26.0740
         INT.     0.6504D+06                  2676.5362    18.2507    35.2334
         TRA.     0.7357D+27                  1540.0850     4.9680    39.2516
         TOT.                       19.632    4216.6213    23.2187    74.4850

 320.00  VIB.     0.6406D+01                  1909.2368    16.0804     9.6570
         ROT.     0.1168D+06                   953.8591     2.9808    26.1686
         INT.     0.7485D+06                  2863.0959    19.0613    35.8257
         TRA.     0.7716D+27                  1589.7652     4.9680    39.4093
         TOT.                       19.869    4452.8611    24.0293    75.2350

 330.00  VIB.     0.7043D+01                  2074.0904    16.8899    10.1643
         ROT.     0.1224D+06                   983.6672     2.9808    26.2604
         INT.     0.8618D+06                  3057.7576    19.8707    36.4246
         TRA.     0.8081D+27                  1639.4454     4.9680    39.5622
         TOT.                       20.113    4697.2029    24.8387    75.9868

 340.00  VIB.     0.7759D+01                  2247.0247    17.6963    10.6805
         ROT.     0.1280D+06                  1013.4753     2.9808    26.3493
         INT.     0.9929D+06                  3260.5001    20.6771    37.0298
         TRA.     0.8451D+27                  1689.1255     4.9680    39.7105
         TOT.                       20.365    4949.6256    25.6451    76.7403

 350.00  VIB.     0.8565D+01                  2428.0004    18.4979    11.2050
         ROT.     0.1336D+06                  1043.2834     2.9808    26.4357
         INT.     0.1145D+07                  3471.2838    21.4787    37.6408
         TRA.     0.8827D+27                  1738.8057     4.9680    39.8545
         TOT.                       20.626    5210.0895    26.4467    77.4952

 360.00  VIB.     0.9472D+01                  2616.9613    19.2931    11.7373
         ROT.     0.1394D+06                  1073.0915     2.9808    26.5197
         INT.     0.1321D+07                  3690.0528    22.2739    38.2570
         TRA.     0.9207D+27                  1788.4859     4.9680    39.9944
         TOT.                       20.894    5478.5387    27.2420    78.2514

 370.00  VIB.     0.1049D+02                  2813.8374    20.0807    12.2767
         ROT.     0.1453D+06                  1102.8996     2.9808    26.6014
         INT.     0.1525D+07                  3916.7370    23.0615    38.8780
         TRA.     0.9594D+27                  1838.1660     4.9680    40.1306
         TOT.                       21.171    5754.9031    28.0295    79.0086

 380.00  VIB.     0.1165D+02                  3018.5462    20.8595    12.8225
         ROT.     0.1512D+06                  1132.7077     2.9808    26.6809
         INT.     0.1761D+07                  4151.2539    23.8403    39.5034
         TRA.     0.9985D+27                  1887.8462     4.9680    40.2630
         TOT.                       21.455    6039.1001    28.8083    79.7665

 390.00  VIB.     0.1295D+02                  3230.9949    21.6285    13.3743
         ROT.     0.1572D+06                  1162.5158     2.9808    26.7583
         INT.     0.2036D+07                  4393.5107    24.6093    40.1326
         TRA.     0.1038D+28                  1937.5263     4.9680    40.3921
         TOT.                       21.747    6331.0370    29.5774    80.5247

 400.00  VIB.     0.1443D+02                  3451.0817    22.3870    13.9315
         ROT.     0.1633D+06                  1192.3239     2.9808    26.8338
         INT.     0.2355D+07                  4643.4056    25.3678    40.7653
         TRA.     0.1078D+28                  1987.2065     4.9680    40.5179
         TOT.                       22.046    6630.6121    30.3358    81.2832

   *: NOTE: HEATS OF FORMATION ARE RELATIVE TO THE
            ELEMENTS IN THEIR STANDARD STATE AT 298K
              (=  Standard Enthalpy of Formation).

            Hvib:  Zero-point energy is not included.
                   frequencies of less than zero cm-1 are not included.
            Hrot = (3/2)RT
            Htra = (3/2)RT + pV = (5/2)RT

            Heat capacity is Cp, not Cv

          For more information, see: HTTP://OpenMOPAC.net/Manual/thermochemistry.html


           FORCE CONSTANT IN CARTESIAN COORDINATES (Millidynes/A)

    ATOM   CHEMICAL       X               Y               Z
   NUMBER   SYMBOL  FORCE CONSTANT  FORCE CONSTANT  FORCE CONSTANT

      1       C        9.037327        9.408548        7.660421
      2       C        9.036981        9.408518        7.660306
      3       C       15.371800        9.585143        2.373001
      4       C       15.371571        9.585047        2.373143
      5       C       15.371731        9.584962        2.372981
      6       C       15.371509        9.584890        2.373253
      7       H        2.062207        0.671393        3.449970
      8       H        2.061646        0.671345        3.450828
      9       H        2.061574        0.671344        3.450458
     10       H        2.062126        0.671409        3.450182
     11       H        1.897587        4.003752        0.352038
     12       H        1.897558        4.003862        0.352004
     13       H        1.897538        4.004895        0.352038
     14       H        1.897616        4.004883        0.351999

 **********************
 *                    *
 * JOB ENDED NORMALLY *
 *                    *
 **********************



 TOTAL JOB TIME:             2.79 SECONDS

 == MOPAC DONE ==
