 *******************************************************************************
 ** Site#: 14399        For non-commercial use only    Version 18.184L 64BITS **
 *******************************************************************************
 ** Cite this program as: MOPAC2016, Version: 18.184L, James J. P. Stewart,   **
 ** Stewart Computational Chemistry, web: HTTP://OpenMOPAC.net. Days left:  20**
 *******************************************************************************
 **                                                                           **
 **                                MOPAC2016                                  **
 **                                                                           **
 *******************************************************************************

                              PM3 CALCULATION RESULTS

 *******************************************************************************
 *  CALCULATION DONE:                                Thu Jun 13 19:48:07 2019  *
 *  PM3        - The PM3 Hamiltonian to be used
 *  PRECISE    - CRITERIA TO BE INCREASED BY 100 TIMES
 *  NOSYM      - POINT-GROUP SYMMETRY SET TO C1
 *  THREADS=1  - MULTI-THREADING NOT USED
 *  T=         - A TIME OF 172800.0 SECONDS REQUESTED
 *  DUMP=N     - RESTART FILE WRITTEN EVERY  7200.000 SECONDS
 *******************************************************************************
pm3  precise nosym THREADS=1
 InChI=1S/C7H10/c1-3-4-7-5-6(7)2/h4H,2-3,5H2,1H3

   ATOM   CHEMICAL          X               Y               Z
  NUMBER   SYMBOL      (ANGSTROMS)     (ANGSTROMS)     (ANGSTROMS)
 
     1       C         -1.51880000  *   0.19460000  *   0.60280000  *
     2       C          2.03360000  *   0.85630000  *  -0.82240000  *
     3       C         -2.60530000  *  -0.46360000  *  -0.23910000  *
     4       C          0.71430000  *   0.65170000  *  -0.32800000  *
     5       C          1.93800000  *  -0.22710000  *   0.09620000  *
     6       C         -0.57360000  *   0.96420000  *  -0.26910000  *
     7       C          2.47140000  *  -1.22220000  *   0.78640000  *
     8       H         -1.98820000  *   0.89350000  *   1.32720000  *
     9       H         -0.98090000  *  -0.59100000  *   1.17910000  *
    10       H          2.17570000  *   0.54550000  *  -1.87800000  *
    11       H          2.53720000  *   1.75600000  *  -0.41270000  *
    12       H         -3.18530000  *   0.30590000  *  -0.79250000  *
    13       H         -2.15260000  *  -1.17400000  *  -0.96370000  *
    14       H         -3.29960000  *  -1.02400000  *   0.42190000  *
    15       H         -0.94370000  *   1.79180000  *  -0.86050000  *
    16       H          1.84940000  *  -1.82290000  *   1.43580000  *
    17       H          3.52830000  *  -1.43470000  *   0.70110000  *
 


          CARTESIAN COORDINATES 

    NO.       ATOM           X           Y           Z

     1         C         -1.5188      0.1946      0.6028
     2         C          2.0336      0.8563     -0.8224
     3         C         -2.6053     -0.4636     -0.2391
     4         C          0.7143      0.6517     -0.3280
     5         C          1.9380     -0.2271      0.0962
     6         C         -0.5736      0.9642     -0.2691
     7         C          2.4714     -1.2222      0.7864
     8         H         -1.9882      0.8935      1.3272
     9         H         -0.9809     -0.5910      1.1791
    10         H          2.1757      0.5455     -1.8780
    11         H          2.5372      1.7560     -0.4127
    12         H         -3.1853      0.3059     -0.7925
    13         H         -2.1526     -1.1740     -0.9637
    14         H         -3.2996     -1.0240      0.4219
    15         H         -0.9437      1.7918     -0.8605
    16         H          1.8494     -1.8229      1.4358
    17         H          3.5283     -1.4347      0.7011

  H: (PM3): J. J. P. STEWART, J. COMP. CHEM. 10, 209 (1989).
  C: (PM3): J. J. P. STEWART, J. COMP. CHEM. 10, 209 (1989).

           Empirical Formula: C7 H10  =    17 atoms



      MOLECULAR POINT GROUP   :   C1  


      RHF CALCULATION, NO. OF DOUBLY OCCUPIED LEVELS = 19


          Geometry optimization using EF

          DIAGONAL MATRIX USED AS START HESSIAN

 CYCLE:     1 TIME:   0.031 TIME LEFT:  2.00D  GRAD.:   143.356 HEAT:  72.64027
 CYCLE:     2 TIME:   0.039 TIME LEFT:  2.00D  GRAD.:   139.257 HEAT:  66.10068
 CYCLE:     3 TIME:   0.031 TIME LEFT:  2.00D  GRAD.:   100.682 HEAT:  63.19070
 CYCLE:     4 TIME:   0.023 TIME LEFT:  2.00D  GRAD.:    75.304 HEAT:  61.77325
 CYCLE:     5 TIME:   0.023 TIME LEFT:  2.00D  GRAD.:    85.664 HEAT:  60.77763
 CYCLE:     6 TIME:   0.023 TIME LEFT:  2.00D  GRAD.:    69.281 HEAT:  59.96886
 CYCLE:     7 TIME:   0.023 TIME LEFT:  2.00D  GRAD.:    58.720 HEAT:  59.55540
 CYCLE:     8 TIME:   0.016 TIME LEFT:  2.00D  GRAD.:    58.015 HEAT:  59.40176
 CYCLE:     9 TIME:   0.039 TIME LEFT:  2.00D  GRAD.:    24.715 HEAT:  58.66958
 CYCLE:    10 TIME:   0.031 TIME LEFT:  2.00D  GRAD.:    20.644 HEAT:  58.57681
 CYCLE:    11 TIME:   0.023 TIME LEFT:  2.00D  GRAD.:    20.488 HEAT:  58.53500
 CYCLE:    12 TIME:   0.023 TIME LEFT:  2.00D  GRAD.:    17.002 HEAT:  58.44522
 CYCLE:    13 TIME:   0.023 TIME LEFT:  2.00D  GRAD.:    10.522 HEAT:  58.38641
 CYCLE:    14 TIME:   0.031 TIME LEFT:  2.00D  GRAD.:     9.358 HEAT:  58.35721
 CYCLE:    15 TIME:   0.023 TIME LEFT:  2.00D  GRAD.:     7.484 HEAT:  58.32580
 CYCLE:    16 TIME:   0.023 TIME LEFT:  2.00D  GRAD.:     7.153 HEAT:  58.29268
 CYCLE:    17 TIME:   0.023 TIME LEFT:  2.00D  GRAD.:     6.477 HEAT:  58.26033
 CYCLE:    18 TIME:   0.023 TIME LEFT:  2.00D  GRAD.:     8.567 HEAT:  58.25052
 CYCLE:    19 TIME:   0.023 TIME LEFT:  2.00D  GRAD.:     4.853 HEAT:  58.23013
 CYCLE:    20 TIME:   0.023 TIME LEFT:  2.00D  GRAD.:     5.780 HEAT:  58.22079
 CYCLE:    21 TIME:   0.023 TIME LEFT:  2.00D  GRAD.:     4.931 HEAT:  58.21050
 CYCLE:    22 TIME:   0.023 TIME LEFT:  2.00D  GRAD.:     4.290 HEAT:  58.19766
 CYCLE:    23 TIME:   0.023 TIME LEFT:  2.00D  GRAD.:     2.618 HEAT:  58.18993
 CYCLE:    24 TIME:   0.023 TIME LEFT:  2.00D  GRAD.:     3.076 HEAT:  58.18242
 CYCLE:    25 TIME:   0.016 TIME LEFT:  2.00D  GRAD.:     2.972 HEAT:  58.17080
 CYCLE:    26 TIME:   0.031 TIME LEFT:  2.00D  GRAD.:     3.087 HEAT:  58.15141
 CYCLE:    27 TIME:   0.023 TIME LEFT:  2.00D  GRAD.:     2.860 HEAT:  58.13490
 CYCLE:    28 TIME:   0.023 TIME LEFT:  2.00D  GRAD.:     3.019 HEAT:  58.11905
 CYCLE:    29 TIME:   0.023 TIME LEFT:  2.00D  GRAD.:     3.240 HEAT:  58.10089
 CYCLE:    30 TIME:   0.023 TIME LEFT:  2.00D  GRAD.:     3.102 HEAT:  58.08335
 CYCLE:    31 TIME:   0.023 TIME LEFT:  2.00D  GRAD.:     2.774 HEAT:  58.07170
 CYCLE:    32 TIME:   0.023 TIME LEFT:  2.00D  GRAD.:     2.169 HEAT:  58.06479
 CYCLE:    33 TIME:   0.023 TIME LEFT:  2.00D  GRAD.:     1.477 HEAT:  58.05976
 CYCLE:    34 TIME:   0.023 TIME LEFT:  2.00D  GRAD.:     1.679 HEAT:  58.05326
 CYCLE:    35 TIME:   0.023 TIME LEFT:  2.00D  GRAD.:     1.814 HEAT:  58.04743
 CYCLE:    36 TIME:   0.016 TIME LEFT:  2.00D  GRAD.:     1.626 HEAT:  58.04008
 CYCLE:    37 TIME:   0.031 TIME LEFT:  2.00D  GRAD.:     0.835 HEAT:  58.03651
 CYCLE:    38 TIME:   0.016 TIME LEFT:  2.00D  GRAD.:     0.524 HEAT:  58.03554
 CYCLE:    39 TIME:   0.023 TIME LEFT:  2.00D  GRAD.:     0.454 HEAT:  58.03517
 CYCLE:    40 TIME:   0.023 TIME LEFT:  2.00D  GRAD.:     0.484 HEAT:  58.03460
 CYCLE:    41 TIME:   0.023 TIME LEFT:  2.00D  GRAD.:     0.531 HEAT:  58.03391
 CYCLE:    42 TIME:   0.023 TIME LEFT:  2.00D  GRAD.:     0.500 HEAT:  58.03326
 CYCLE:    43 TIME:   0.023 TIME LEFT:  2.00D  GRAD.:     0.492 HEAT:  58.03272
 CYCLE:    44 TIME:   0.023 TIME LEFT:  2.00D  GRAD.:     0.530 HEAT:  58.03221
 CYCLE:    45 TIME:   0.023 TIME LEFT:  2.00D  GRAD.:     0.637 HEAT:  58.03144
 CYCLE:    46 TIME:   0.023 TIME LEFT:  2.00D  GRAD.:     0.809 HEAT:  58.03014
 CYCLE:    47 TIME:   0.023 TIME LEFT:  2.00D  GRAD.:     1.139 HEAT:  58.02751
 CYCLE:    48 TIME:   0.023 TIME LEFT:  2.00D  GRAD.:     1.044 HEAT:  58.02538
 CYCLE:    49 TIME:   0.023 TIME LEFT:  2.00D  GRAD.:     0.968 HEAT:  58.02179
 CYCLE:    50 TIME:   0.023 TIME LEFT:  2.00D  GRAD.:     0.677 HEAT:  58.02086
 CYCLE:    51 TIME:   0.023 TIME LEFT:  2.00D  GRAD.:     0.531 HEAT:  58.01931
 CYCLE:    52 TIME:   0.023 TIME LEFT:  2.00D  GRAD.:     0.565 HEAT:  58.01847
 CYCLE:    53 TIME:   0.023 TIME LEFT:  2.00D  GRAD.:     0.693 HEAT:  58.01594
 CYCLE:    54 TIME:   0.023 TIME LEFT:  2.00D  GRAD.:     0.597 HEAT:  58.01517
 CYCLE:    55 TIME:   0.023 TIME LEFT:  2.00D  GRAD.:     0.653 HEAT:  58.01332
 CYCLE:    56 TIME:   0.023 TIME LEFT:  2.00D  GRAD.:     0.723 HEAT:  58.01218
 CYCLE:    57 TIME:   0.023 TIME LEFT:  2.00D  GRAD.:     0.991 HEAT:  58.00956
 CYCLE:    58 TIME:   0.016 TIME LEFT:  2.00D  GRAD.:     0.931 HEAT:  58.00766
 CYCLE:    59 TIME:   0.023 TIME LEFT:  2.00D  GRAD.:     1.488 HEAT:  58.00357
 CYCLE:    60 TIME:   0.023 TIME LEFT:  2.00D  GRAD.:     0.958 HEAT:  58.00213
 CYCLE:    61 TIME:   0.023 TIME LEFT:  2.00D  GRAD.:     0.586 HEAT:  58.00041
 CYCLE:    62 TIME:   0.023 TIME LEFT:  2.00D  GRAD.:     0.711 HEAT:  57.99758
 CYCLE:    63 TIME:   0.023 TIME LEFT:  2.00D  GRAD.:     1.089 HEAT:  57.99482
 CYCLE:    64 TIME:   0.023 TIME LEFT:  2.00D  GRAD.:     0.869 HEAT:  57.99238
 CYCLE:    65 TIME:   0.023 TIME LEFT:  2.00D  GRAD.:     0.651 HEAT:  57.99120
 CYCLE:    66 TIME:   0.023 TIME LEFT:  2.00D  GRAD.:     0.571 HEAT:  57.99012
 CYCLE:    67 TIME:   0.016 TIME LEFT:  2.00D  GRAD.:     0.546 HEAT:  57.98959
 CYCLE:    68 TIME:   0.023 TIME LEFT:  2.00D  GRAD.:     0.636 HEAT:  57.98878
 CYCLE:    69 TIME:   0.031 TIME LEFT:  2.00D  GRAD.:     0.457 HEAT:  57.98794
 CYCLE:    70 TIME:   0.023 TIME LEFT:  2.00D  GRAD.:     0.375 HEAT:  57.98738
 CYCLE:    71 TIME:   0.016 TIME LEFT:  2.00D  GRAD.:     0.372 HEAT:  57.98698
 CYCLE:    72 TIME:   0.023 TIME LEFT:  2.00D  GRAD.:     0.415 HEAT:  57.98662
 CYCLE:    73 TIME:   0.023 TIME LEFT:  2.00D  GRAD.:     0.474 HEAT:  57.98592
 CYCLE:    74 TIME:   0.023 TIME LEFT:  2.00D  GRAD.:     0.523 HEAT:  57.98518
 CYCLE:    75 TIME:   0.023 TIME LEFT:  2.00D  GRAD.:     0.556 HEAT:  57.98424
 CYCLE:    76 TIME:   0.023 TIME LEFT:  2.00D  GRAD.:     0.527 HEAT:  57.98374
 CYCLE:    77 TIME:   0.023 TIME LEFT:  2.00D  GRAD.:     0.822 HEAT:  57.98191
 CYCLE:    78 TIME:   0.023 TIME LEFT:  2.00D  GRAD.:     0.682 HEAT:  57.98106
 CYCLE:    79 TIME:   0.023 TIME LEFT:  2.00D  GRAD.:     0.589 HEAT:  57.97929
 CYCLE:    80 TIME:   0.023 TIME LEFT:  2.00D  GRAD.:     0.399 HEAT:  57.97882
 CYCLE:    81 TIME:   0.016 TIME LEFT:  2.00D  GRAD.:     0.339 HEAT:  57.97851
 CYCLE:    82 TIME:   0.023 TIME LEFT:  2.00D  GRAD.:     0.380 HEAT:  57.97775
 CYCLE:    83 TIME:   0.023 TIME LEFT:  2.00D  GRAD.:     0.399 HEAT:  57.97684
 CYCLE:    84 TIME:   0.023 TIME LEFT:  2.00D  GRAD.:     0.301 HEAT:  57.97639
 CYCLE:    85 TIME:   0.023 TIME LEFT:  2.00D  GRAD.:     0.171 HEAT:  57.97619
 CYCLE:    86 TIME:   0.023 TIME LEFT:  2.00D  GRAD.:     0.127 HEAT:  57.97615
 CYCLE:    87 TIME:   0.023 TIME LEFT:  2.00D  GRAD.:     0.111 HEAT:  57.97611
 CYCLE:    88 TIME:   0.023 TIME LEFT:  2.00D  GRAD.:     0.093 HEAT:  57.97609
 CYCLE:    89 TIME:   0.023 TIME LEFT:  2.00D  GRAD.:     0.197 HEAT:  57.97614
 CYCLE:    90 TIME:   0.023 TIME LEFT:  2.00D  GRAD.:     0.023 HEAT:  57.97607

     GRADIENT =  0.02289  IS LESS THAN CUTOFF =  0.05000



 -------------------------------------------------------------------------------
 pm3  precise nosym THREADS=1
 InChI=1S/C7H10/c1-3-4-7-5-6(7)2/h4H,2-3,5H2,1H3



     GEOMETRY OPTIMISED USING EIGENVECTOR FOLLOWING (EF).     
     SCF FIELD WAS ACHIEVED                                   


                              PM3 CALCULATION
                                                       MOPAC2016 (Version: 18.184L)
                                                       Thu Jun 13 19:48:10 2019
                                                       No. of days remaining =  20




          FINAL HEAT OF FORMATION =         57.97607 KCAL/MOL =     242.57189 KJ/MOL


          TOTAL ENERGY            =       -981.29562 EV
          ELECTRONIC ENERGY       =      -4328.40378 EV  POINT GROUP:     C1  
          CORE-CORE REPULSION     =       3347.10816 EV
          COSMO AREA              =        156.49 SQUARE ANGSTROMS
          COSMO VOLUME            =        144.57 CUBIC ANGSTROMS

          GRADIENT NORM           =          0.02289 = 0.00555 PER ATOM
          IONIZATION POTENTIAL    =          9.422695 EV
          HOMO LUMO ENERGIES (EV) =         -9.423  0.242
          NO. OF FILLED LEVELS    =         19
          MOLECULAR WEIGHT        =         94.1560

          MOLECULAR DIMENSIONS (Angstroms)

            Atom       Atom       Distance
            H    17    H    12     7.11512
            H    14    H    11     4.71767
            H     8    H    10     3.21085


          SCF CALCULATIONS        =         96
 
          WALL-CLOCK TIME         =          2.187 SECONDS
          COMPUTATION TIME        =          0.845 SECONDS




   ATOM   CHEMICAL          X               Y               Z
  NUMBER   SYMBOL      (ANGSTROMS)     (ANGSTROMS)     (ANGSTROMS)
 
     1       C         -1.46341542  *   0.04464907  *   0.56201529  *
     2       C          2.10005032  *   0.91872788  *  -0.86677157  *
     3       C         -2.70522514  *  -0.36401631  *  -0.20059988  *
     4       C          0.76901950  *   0.57782479  *  -0.32958146  *
     5       C          1.90198213  *  -0.16906512  *   0.11138700  *
     6       C         -0.52685187  *   0.81479229  *  -0.29993913  *
     7       C          2.41082028  *  -1.12790562  *   0.84799354  *
     8       H         -1.73703962  *   0.67891412  *   1.42946453  *
     9       H         -0.96432463  *  -0.84849847  *   0.98814171  *
    10       H          2.35022013  *   0.68410490  *  -1.90935295  *
    11       H          2.59496178  *   1.84997820  *  -0.56265603  *
    12       H         -3.23824594  *   0.50606325  *  -0.60659504  *
    13       H         -2.46203501  *  -1.02085628  *  -1.04572632  *
    14       H         -3.40617623  *  -0.90667859  *   0.44632256  *
    15       H         -0.95623851  *   1.60983021  *  -0.92127057  *
    16       H          1.79517941  *  -1.74541957  *   1.49490535  *
    17       H          3.47155260  *  -1.35803437  *   0.85239349  *

                             CARTESIAN COORDINATES

   1    C       -1.463415418     0.044649072     0.562015293
   2    C        2.100050317     0.918727879    -0.866771573
   3    C       -2.705225136    -0.364016308    -0.200599883
   4    C        0.769019500     0.577824787    -0.329581457
   5    C        1.901982128    -0.169065120     0.111387004
   6    C       -0.526851868     0.814792290    -0.299939134
   7    C        2.410820276    -1.127905616     0.847993536
   8    H       -1.737039620     0.678914123     1.429464532
   9    H       -0.964324633    -0.848498468     0.988141710
  10    H        2.350220128     0.684104900    -1.909352952
  11    H        2.594961781     1.849978200    -0.562656028
  12    H       -3.238245936     0.506063252    -0.606595039
  13    H       -2.462035009    -1.020856280    -1.045726324
  14    H       -3.406176226    -0.906678591     0.446322558
  15    H       -0.956238507     1.609830215    -0.921270572
  16    H        1.795179409    -1.745419567     1.494905348
  17    H        3.471552602    -1.358034375     0.852393490


           Empirical Formula: C7 H10  =    17 atoms



      MOLECULAR POINT GROUP   :   C1  


                  EIGENVALUES  
 -38.97370 -34.98040 -28.95811 -26.77056 -21.77710 -20.49976 -17.64704 -16.88505
 -15.75827 -15.30090 -15.13035 -14.61591 -13.73270 -12.89589 -12.08565 -11.83686
 -11.13458 -10.78832  -9.42270   0.24226   2.18974   2.77783   2.86705   2.96218
   3.66229   3.84963   3.85883   4.06560   4.13957   4.38567   4.54508   4.58646
   4.78353   4.83164   5.09528   5.44135   5.75641   6.30339


              NET ATOMIC CHARGES AND DIPOLE CONTRIBUTIONS

  ATOM NO.   TYPE          CHARGE      No. of ELECS.   s-Pop       p-Pop       
    1          C          -0.062861        4.0629     1.14452     2.91834
    2          C          -0.051399        4.0514     1.14361     2.90779
    3          C          -0.105962        4.1060     1.13764     2.96832
    4          C          -0.162717        4.1627     1.17731     2.98540
    5          C          -0.134577        4.1346     1.17565     2.95892
    6          C          -0.058270        4.0583     1.17323     2.88504
    7          C          -0.086157        4.0862     1.15787     2.92829
    8          H           0.055322        0.9447     0.94468
    9          H           0.057024        0.9430     0.94298
   10          H           0.080646        0.9194     0.91935
   11          H           0.080470        0.9195     0.91953
   12          H           0.037585        0.9624     0.96242
   13          H           0.040887        0.9591     0.95911
   14          H           0.037641        0.9624     0.96236
   15          H           0.102454        0.8975     0.89755
   16          H           0.084932        0.9151     0.91507
   17          H           0.084982        0.9150     0.91502
 DIPOLE           X         Y         Z       TOTAL
 POINT-CHG.    -0.198     0.022     0.029     0.201
 HYBRID         0.020     0.031    -0.029     0.047
 SUM           -0.178     0.053    -0.000     0.186


          ATOMIC ORBITAL ELECTRON POPULATIONS

     Atom    s        px        py        pz   
    1  C   1.14452   0.95504   0.99402   0.96927
    2  C   1.14361   0.96056   0.97435   0.97288
    3  C   1.13764   0.96582   1.00543   0.99707
    4  C   1.17731   0.92526   1.02627   1.03388
    5  C   1.17565   0.99818   0.96951   0.99124
    6  C   1.17323   0.91953   0.98314   0.98237
    7  C   1.15787   0.99329   0.95866   0.97634
    8  H   0.94468
    9  H   0.94298
   10  H   0.91935
   11  H   0.91953
   12  H   0.96242
   13  H   0.95911
   14  H   0.96236
   15  H   0.89755
   16  H   0.91507
   17  H   0.91502
 *******************************************************************************
 ** Site#: 14399        For non-commercial use only    Version 18.184L 64BITS **
 *******************************************************************************
 ** Cite this program as: MOPAC2016, Version: 18.184L, James J. P. Stewart,   **
 ** Stewart Computational Chemistry, web: HTTP://OpenMOPAC.net. Days left:  20**
 *******************************************************************************
 **                                                                           **
 **                                MOPAC2016                                  **
 **                                                                           **
 *******************************************************************************

                              PM3 CALCULATION RESULTS

 *******************************************************************************
 *  CALCULATION DONE:                                Thu Jun 13 19:48:10 2019  *
 *  PM3        - The PM3 Hamiltonian to be used
 *  OLDGEO     - PREVIOUS GEOMETRY TO BE USED
 *  PRECISE    - CRITERIA TO BE INCREASED BY 100 TIMES
 *  NOSYM      - POINT-GROUP SYMMETRY SET TO C1
 *  THREADS=1  - MULTI-THREADING NOT USED
 *  T=         - A TIME OF 172800.0 SECONDS REQUESTED
 *  DUMP=N     - RESTART FILE WRITTEN EVERY  7200.000 SECONDS
 *  THERMO     - THERMODYNAMIC QUANTITIES TO BE CALCULATED
 *******************************************************************************
oldgeo thermo nosym precise THREADS=1  pm3
 InChI=1S/C7H10/c1-3-4-7-5-6(7)2/h4H,2-3,5H2,1H3

   ATOM   CHEMICAL          X               Y               Z
  NUMBER   SYMBOL      (ANGSTROMS)     (ANGSTROMS)     (ANGSTROMS)
 
     1       C         -1.46341542  *   0.04464907  *   0.56201529  *
     2       C          2.10005032  *   0.91872788  *  -0.86677157  *
     3       C         -2.70522514  *  -0.36401631  *  -0.20059988  *
     4       C          0.76901950  *   0.57782479  *  -0.32958146  *
     5       C          1.90198213  *  -0.16906512  *   0.11138700  *
     6       C         -0.52685187  *   0.81479229  *  -0.29993913  *
     7       C          2.41082028  *  -1.12790562  *   0.84799354  *
     8       H         -1.73703962  *   0.67891412  *   1.42946453  *
     9       H         -0.96432463  *  -0.84849847  *   0.98814171  *
    10       H          2.35022013  *   0.68410490  *  -1.90935295  *
    11       H          2.59496178  *   1.84997820  *  -0.56265603  *
    12       H         -3.23824594  *   0.50606325  *  -0.60659504  *
    13       H         -2.46203501  *  -1.02085628  *  -1.04572632  *
    14       H         -3.40617623  *  -0.90667859  *   0.44632256  *
    15       H         -0.95623851  *   1.60983021  *  -0.92127057  *
    16       H          1.79517941  *  -1.74541957  *   1.49490535  *
    17       H          3.47155260  *  -1.35803437  *   0.85239349  *
 


          CARTESIAN COORDINATES 

    NO.       ATOM           X           Y           Z

     1         C         -1.4634      0.0446      0.5620
     2         C          2.1001      0.9187     -0.8668
     3         C         -2.7052     -0.3640     -0.2006
     4         C          0.7690      0.5778     -0.3296
     5         C          1.9020     -0.1691      0.1114
     6         C         -0.5269      0.8148     -0.2999
     7         C          2.4108     -1.1279      0.8480
     8         H         -1.7370      0.6789      1.4295
     9         H         -0.9643     -0.8485      0.9881
    10         H          2.3502      0.6841     -1.9094
    11         H          2.5950      1.8500     -0.5627
    12         H         -3.2382      0.5061     -0.6066
    13         H         -2.4620     -1.0209     -1.0457
    14         H         -3.4062     -0.9067      0.4463
    15         H         -0.9562      1.6098     -0.9213
    16         H          1.7952     -1.7454      1.4949
    17         H          3.4716     -1.3580      0.8524

  H: (PM3): J. J. P. STEWART, J. COMP. CHEM. 10, 209 (1989).
  C: (PM3): J. J. P. STEWART, J. COMP. CHEM. 10, 209 (1989).

           Empirical Formula: C7 H10  =    17 atoms



      MOLECULAR POINT GROUP   :   C1  


      RHF CALCULATION, NO. OF DOUBLY OCCUPIED LEVELS = 19



          HEAT OF FORMATION =      57.976073 KCALS/MOLE


          CARTESIAN COORDINATE DERIVATIVES

   NUMBER  ATOM         X            Y            Z

     1       C      0.000648     0.002245     0.000581
     2       C      0.000814    -0.000819    -0.001321
     3       C     -0.007158     0.000144     0.000811
     4       C      0.001307     0.000780    -0.000186
     5       C     -0.003969     0.005772     0.001608
     6       C     -0.002156     0.000245    -0.000542
     7       C      0.001923     0.001177    -0.004113
     8       H     -0.001998    -0.002495     0.002596
     9       H      0.005559    -0.000908    -0.004076
    10       H      0.006169    -0.003225     0.000715
    11       H     -0.004150     0.000982     0.001128
    12       H     -0.001718    -0.000881     0.003788
    13       H      0.001353     0.001615     0.001615
    14       H      0.001246     0.001151    -0.002735
    15       H      0.000997     0.001572     0.000320
    16       H      0.005407    -0.009332     0.004852
    17       H     -0.004272     0.001977    -0.005040
 


          GRADIENT NORM =   0.02241


          TIME FOR SCF CALCULATION =    0.02

          TIME FOR DERIVATIVES     =    0.01

          MOLECULAR WEIGHT =   94.16



          ROTATIONAL CONSTANTS IN CM(-1)

          A =    0.18641830   B =    0.04744165   C =    0.03994556



           PRINCIPAL MOMENTS OF INERTIA IN UNITS OF 10**(-40)*GRAM-CM**2

          A =      150.1611   B =      590.0465   C =      700.7731


          ORIENTATION OF MOLECULE IN FORCE CALCULATION

    NO.       ATOM         X         Y         Z

     1          C      -1.8066    0.0456    0.3859
     2          C       2.1309    0.0456    0.3859
     3          C      -2.7445    1.2335    0.3859
     4          C       0.6557    0.0448    0.3718
     5          C       1.3552   -0.6135   -0.6833
     6          C      -0.4753    0.4060    0.9435
     7          C       1.3356   -1.3039   -1.7985
     8          H      -2.2282   -0.7763    0.9994
     9          H      -1.7078   -0.3645   -0.6390
    10          H       2.6835    0.9704    0.1764
    11          H       2.6751   -0.5577    1.1238
    12          H      -2.8864    1.6400    1.3962
    13          H      -2.3635    2.0486   -0.2429
    14          H      -3.7340    0.9564    0.0009
    15          H      -0.4619    0.9908    1.8710
    16          H       0.4066   -1.5966   -2.2783
    17          H       2.2428   -1.6201   -2.3035


    FIRST DERIVATIVES WILL BE USED IN THE CALCULATION OF SECOND DERIVATIVES

          ESTIMATED TIME TO COMPLETE CALCULATION =        6.38 SECONDS

    FOR POINT-GROUP C1   THERE ARE   1 UNIQUE SYMMETRY FUNCTIONS.

 STEP:   1 TIME =     0.04 SECS, INTEGRAL =      0.04 TIME LEFT: 172799.93
 STEP:   2 TIME =     0.04 SECS, INTEGRAL =      0.08 TIME LEFT: 172799.89
 STEP:   3 TIME =     0.04 SECS, INTEGRAL =      0.12 TIME LEFT: 172799.85
 STEP:   4 TIME =     0.04 SECS, INTEGRAL =      0.16 TIME LEFT: 172799.81
 STEP:   5 TIME =     0.04 SECS, INTEGRAL =      0.20 TIME LEFT: 172799.77
 STEP:   6 TIME =     0.03 SECS, INTEGRAL =      0.23 TIME LEFT: 172799.74
 STEP:   7 TIME =     0.03 SECS, INTEGRAL =      0.26 TIME LEFT: 172799.71
 STEP:   8 TIME =     0.03 SECS, INTEGRAL =      0.29 TIME LEFT: 172799.68
 STEP:   9 TIME =     0.05 SECS, INTEGRAL =      0.34 TIME LEFT: 172799.63
 STEP:  10 TIME =     0.04 SECS, INTEGRAL =      0.38 TIME LEFT: 172799.59
 STEP:  11 TIME =     0.03 SECS, INTEGRAL =      0.41 TIME LEFT: 172799.56
 STEP:  12 TIME =     0.04 SECS, INTEGRAL =      0.45 TIME LEFT: 172799.52
 STEP:  13 TIME =     0.04 SECS, INTEGRAL =      0.48 TIME LEFT: 172799.48
 STEP:  14 TIME =     0.04 SECS, INTEGRAL =      0.52 TIME LEFT: 172799.45
 STEP:  15 TIME =     0.03 SECS, INTEGRAL =      0.55 TIME LEFT: 172799.41
 STEP:  16 TIME =     0.03 SECS, INTEGRAL =      0.59 TIME LEFT: 172799.38
 STEP:  17 TIME =     0.03 SECS, INTEGRAL =      0.62 TIME LEFT: 172799.35
 STEP:  18 TIME =     0.03 SECS, INTEGRAL =      0.65 TIME LEFT: 172799.32
 STEP:  19 TIME =     0.04 SECS, INTEGRAL =      0.69 TIME LEFT: 172799.28
 STEP:  20 TIME =     0.04 SECS, INTEGRAL =      0.73 TIME LEFT: 172799.24
 STEP:  21 TIME =     0.04 SECS, INTEGRAL =      0.77 TIME LEFT: 172799.20
 STEP:  22 TIME =     0.04 SECS, INTEGRAL =      0.80 TIME LEFT: 172799.16
 STEP:  23 TIME =     0.03 SECS, INTEGRAL =      0.84 TIME LEFT: 172799.13
 STEP:  24 TIME =     0.03 SECS, INTEGRAL =      0.87 TIME LEFT: 172799.10
 STEP:  25 TIME =     0.03 SECS, INTEGRAL =      0.90 TIME LEFT: 172799.07
 STEP:  26 TIME =     0.04 SECS, INTEGRAL =      0.94 TIME LEFT: 172799.03
 STEP:  27 TIME =     0.04 SECS, INTEGRAL =      0.98 TIME LEFT: 172798.99
 STEP:  28 TIME =     0.04 SECS, INTEGRAL =      1.02 TIME LEFT: 172798.95
 STEP:  29 TIME =     0.03 SECS, INTEGRAL =      1.05 TIME LEFT: 172798.92
 STEP:  30 TIME =     0.03 SECS, INTEGRAL =      1.08 TIME LEFT: 172798.89
 STEP:  31 TIME =     0.03 SECS, INTEGRAL =      1.11 TIME LEFT: 172798.86
 STEP:  32 TIME =     0.04 SECS, INTEGRAL =      1.15 TIME LEFT: 172798.82
 STEP:  33 TIME =     0.04 SECS, INTEGRAL =      1.19 TIME LEFT: 172798.78
 STEP:  34 TIME =     0.04 SECS, INTEGRAL =      1.23 TIME LEFT: 172798.74
 STEP:  35 TIME =     0.04 SECS, INTEGRAL =      1.27 TIME LEFT: 172798.70
 STEP:  36 TIME =     0.03 SECS, INTEGRAL =      1.30 TIME LEFT: 172798.67
 STEP:  37 TIME =     0.03 SECS, INTEGRAL =      1.33 TIME LEFT: 172798.64
 STEP:  38 TIME =     0.03 SECS, INTEGRAL =      1.36 TIME LEFT: 172798.61
 STEP:  39 TIME =     0.04 SECS, INTEGRAL =      1.40 TIME LEFT: 172798.57
 STEP:  40 TIME =     0.04 SECS, INTEGRAL =      1.44 TIME LEFT: 172798.53
 STEP:  41 TIME =     0.04 SECS, INTEGRAL =      1.48 TIME LEFT: 172798.49
 STEP:  42 TIME =     0.04 SECS, INTEGRAL =      1.52 TIME LEFT: 172798.45
 STEP:  43 TIME =     0.03 SECS, INTEGRAL =      1.55 TIME LEFT: 172798.42
 STEP:  44 TIME =     0.03 SECS, INTEGRAL =      1.58 TIME LEFT: 172798.39
 STEP:  45 TIME =     0.02 SECS, INTEGRAL =      1.60 TIME LEFT: 172798.37
 STEP:  46 TIME =     0.03 SECS, INTEGRAL =      1.63 TIME LEFT: 172798.34
 STEP:  47 TIME =     0.03 SECS, INTEGRAL =      1.66 TIME LEFT: 172798.30
 STEP:  48 TIME =     0.03 SECS, INTEGRAL =      1.70 TIME LEFT: 172798.27
 STEP:  49 TIME =     0.03 SECS, INTEGRAL =      1.73 TIME LEFT: 172798.24
 STEP:  50 TIME =     0.02 SECS, INTEGRAL =      1.75 TIME LEFT: 172798.22
 STEP:  51 TIME =     0.03 SECS, INTEGRAL =      1.78 TIME LEFT: 172798.19

(To convert to Hartree/Bohr^2, multiply by (10^(-21) x N x a0^2)/(4.184 x 627.51) =  0.0642)


           FORCE MATRIX IN MILLIDYNES/ANGSTROM


                  C  1       C  2       C  3       C  4       C  5       C  6
 ------------------------------------------------------------------------------
     C    1  14.683321
     C    2   0.163314  15.553646
     C    3   4.412436   0.019974  14.353918
     C    4   0.884298   5.616352   0.046888  22.262328
     C    5   0.123708   5.583781   0.012145   6.735160  22.237924
     C    6   4.940261   0.453509   0.715945  10.985449   0.657237  18.308956
     C    7   0.013804   0.453055   0.001935   0.657449  11.355959   0.097827
     H    8   4.416207   0.022075   0.445275   0.033609   0.015267   0.406559
     H    9   4.459677   0.004329   0.434251   0.047685   0.007928   0.456734
     H   10   0.022592   4.734924   0.003269   0.465693   0.466256   0.019600
     H   11   0.022658   4.733949   0.002750   0.465655   0.466445   0.019381
     H   12   0.464429   0.000589   4.725540   0.002528   0.000658   0.028298
     H   13   0.460419   0.000984   4.747719   0.002851   0.000822   0.016371
     H   14   0.448154   0.003265   4.752853   0.008213   0.001956   0.052012
     H   15   0.435034   0.106178   0.025684   0.456647   0.134692   4.784758
     H   16   0.006257   0.158932   0.001311   0.122502   0.480454   0.007789
     H   17   0.010092   0.126707   0.001196   0.157531   0.481234   0.010455


                  C  7       H  8       H  9       H 10       H 11       H 12
 ------------------------------------------------------------------------------
     C    7  18.132249
     H    8   0.001471   5.013771
     H    9   0.002513   0.562707   5.057799
     H   10   0.020964   0.003142   0.000550   5.340992
     H   11   0.021135   0.003466   0.000710   0.485758   5.340355
     H   12   0.000390   0.023802   0.047192   0.000185   0.000119   5.469642
     H   13   0.000410   0.048540   0.024506   0.000151   0.000169   0.576018
     H   14   0.000488   0.028685   0.030023   0.000669   0.000361   0.572363
     H   15   0.007653   0.014039   0.038595   0.013249   0.013240   0.019417
     H   16   5.089736   0.000787   0.007469   0.021567   0.021378   0.000346
     H   17   5.099625   0.001317   0.000643   0.016309   0.016012   0.000190


                  H 13       H 14       H 15       H 16       H 17
 ------------------------------------------------------------------
     H   13   5.485345
     H   14   0.573046   5.489424
     H   15   0.002545   0.002172   5.153893
     H   16   0.000263   0.000317   0.009174   5.447513
     H   17   0.000231   0.000159   0.012121   0.395588   5.459121


          HEAT OF FORMATION =      57.976073 KCALS/MOLE

          ZERO POINT ENERGY      92.076 KCAL/MOL


           NORMAL COORDINATE ANALYSIS (Total motion = 1 Angstrom)


   Root No.       1         2         3         4         5         6         7         8

                 1 A       2 A       3 A       4 A       5 A       6 A       7 A       8 A   

                  59.0     119.9     166.4     210.3     299.8     339.0     401.5     493.0
  
           1   -0.0003   -0.0352    0.0011    0.0038   -0.0055    0.0246    0.0132    0.0095
           2    0.0253   -0.0021   -0.0061   -0.0007   -0.0238    0.0241   -0.0362   -0.0119
           3   -0.0391    0.0297   -0.0209   -0.0356    0.0020   -0.0009   -0.0172   -0.0043
           4    0.0013   -0.0211   -0.0016    0.0027   -0.0033   -0.0100   -0.0234   -0.0166
           5   -0.0062    0.0214    0.0341    0.0189   -0.0191   -0.0177   -0.0006   -0.0065
           6    0.0060   -0.0077   -0.0172   -0.0020    0.0217   -0.0284   -0.0052    0.0147
           7   -0.0369    0.0115    0.0231    0.0125    0.0201   -0.0121    0.0525    0.0221
           8   -0.0036    0.0362    0.0120    0.0068   -0.0043   -0.0072   -0.0112   -0.0085
           9    0.0614    0.0181    0.0034    0.0067    0.0080   -0.0125    0.0146    0.0060
          10    0.0014   -0.0214   -0.0016    0.0027   -0.0023   -0.0083   -0.0172   -0.0104
          11    0.0043   -0.0204   -0.0061   -0.0069    0.0733    0.0098    0.0265   -0.0371
          12   -0.0165   -0.0234    0.0096    0.0126   -0.0475    0.0166    0.0004    0.0173
          13    0.0129    0.0092   -0.0034    0.0026    0.0046   -0.0495   -0.0406   -0.0065
          14   -0.0130   -0.0040    0.0084    0.0092    0.0511    0.0176   -0.0318    0.0507
          15    0.0019   -0.0137   -0.0003    0.0036   -0.0280   -0.0198    0.0243   -0.0320
          16   -0.0018   -0.0147   -0.0066   -0.0062   -0.0065    0.0072   -0.0138   -0.0020
          17    0.0211   -0.0278   -0.0303   -0.0260   -0.0190    0.0041    0.0313    0.0334
          18   -0.0333   -0.0057    0.0141    0.0055   -0.0002    0.0547   -0.0060   -0.0192
          19    0.0275    0.0647   -0.0131   -0.0165   -0.0075    0.0319    0.0076   -0.0024
          20   -0.0267   -0.0151   -0.0169   -0.0043   -0.0251   -0.0160    0.0144   -0.0113
          21    0.0100   -0.0079    0.0156    0.0125    0.0196   -0.0009   -0.0044    0.0064
          22    0.0333   -0.0536   -0.0244   -0.0099   -0.0116    0.0141    0.0208    0.0340
          23   -0.0311    0.0308   -0.0227   -0.0265   -0.0165   -0.0074   -0.0471   -0.0065
          24   -0.0913    0.0609   -0.0615   -0.0798    0.0073   -0.0504   -0.0283    0.0199
          25   -0.0041   -0.0713    0.0183    0.0177   -0.0140    0.0748    0.0233    0.0003
          26    0.1011   -0.0328    0.0310    0.0458   -0.0285    0.0633   -0.0241   -0.0316
          27   -0.0696    0.0391   -0.0342   -0.0528    0.0035   -0.0129   -0.0209    0.0029
          28    0.0113   -0.0473   -0.0369   -0.0212    0.0800   -0.0014    0.0011   -0.0364
          29   -0.0126    0.0377    0.0522    0.0329   -0.0582   -0.0216   -0.0287    0.0319
          30    0.0042   -0.0048   -0.0315   -0.0042    0.0740   -0.0221   -0.0652    0.1403
          31   -0.0143   -0.0100    0.0344    0.0262   -0.0922    0.0060   -0.0405   -0.0076
          32   -0.0020    0.0402    0.0540    0.0272   -0.0783   -0.0486    0.0313   -0.0938
          33    0.0210   -0.0007   -0.0278   -0.0128    0.0404   -0.0655    0.0330   -0.0611
          34   -0.0328    0.0537   -0.0647    0.1566    0.0346   -0.0237    0.0970    0.0362
          35   -0.0791    0.0724   -0.0832    0.0837   -0.0043    0.0030   -0.0203   -0.0153
          36    0.0923    0.0096    0.0293   -0.0037    0.0102   -0.0186    0.0254    0.0113
          37   -0.0729    0.0288    0.0999   -0.0690    0.0401   -0.0478    0.0789    0.0344
          38    0.0527    0.0019    0.0654   -0.0430   -0.0117   -0.0028   -0.0186   -0.0093
          39    0.1125   -0.0159    0.1190   -0.1072    0.0102   -0.0281    0.0200    0.0120
          40   -0.0348   -0.0095    0.0542   -0.0434    0.0120   -0.0031    0.0313    0.0156
          41   -0.0070    0.0651    0.0694   -0.0136    0.0230   -0.0528    0.0422    0.0121
          42    0.0585    0.0516   -0.1176    0.1657    0.0104   -0.0042    0.0346    0.0100
          43   -0.0041    0.0115   -0.0191   -0.0222   -0.0120    0.0035   -0.0367   -0.0020
          44    0.0302   -0.0327   -0.0504   -0.0493   -0.1005   -0.0425    0.0810    0.0985
          45   -0.0389   -0.0022    0.0268    0.0207    0.0515    0.0826   -0.0372   -0.0602
          46    0.0342    0.0914   -0.0182   -0.0270   -0.0153    0.0842    0.0400    0.0001
          47   -0.0282   -0.0558   -0.0455   -0.0149    0.0269   -0.0750    0.0300   -0.1481
          48   -0.0018   -0.0342    0.0427    0.0390    0.0026   -0.0640   -0.0755    0.0848
          49    0.0344    0.0924   -0.0182   -0.0272   -0.0162    0.0866    0.0420    0.0011
          50   -0.0373    0.0149   -0.0114   -0.0059   -0.1478    0.0095    0.0454    0.0560
          51    0.0289    0.0228    0.0032   -0.0053    0.0812    0.0792    0.0369   -0.0293


   Root No.       9        10        11        12        13        14        15        16

                 9 A      10 A      11 A      12 A      13 A      14 A      15 A      16 A   

                 517.2     650.1     787.2     856.5     881.0     929.8     939.3     969.5
  
           1   -0.0399   -0.0015   -0.0200    0.0028    0.0064    0.0118    0.0014   -0.0079
           2   -0.0197    0.0018   -0.0156    0.0025    0.0028    0.0147    0.0004   -0.0052
           3   -0.0084    0.0028    0.0232    0.0151   -0.0122    0.0055    0.0017    0.0030
           4    0.0535    0.0015    0.0075    0.0049   -0.0017   -0.0070    0.0005    0.0100
           5   -0.0238   -0.0020   -0.0036    0.0156    0.0121   -0.0155    0.0151   -0.0112
           6   -0.0324    0.0008   -0.0124    0.0168   -0.0070   -0.0241   -0.0135   -0.0006
           7   -0.0135   -0.0037   -0.0071   -0.0002    0.0028    0.0229    0.0054   -0.0191
           8    0.0113    0.0029    0.0004    0.0029    0.0082   -0.0025    0.0031   -0.0076
           9    0.0038   -0.0016    0.0020    0.0060   -0.0082    0.0081   -0.0022   -0.0198
          10    0.0326    0.0005   -0.0067    0.0181    0.0006   -0.0324   -0.0042   -0.0133
          11    0.0201    0.0373   -0.0004   -0.0058   -0.0046   -0.0250    0.0198   -0.0135
          12    0.0431   -0.0246    0.0014   -0.0073    0.0061   -0.0302   -0.0211   -0.0294
          13   -0.0230    0.0037    0.0190   -0.0197    0.0006   -0.0055   -0.0002    0.0116
          14    0.0186   -0.0232    0.0038    0.0034    0.0073    0.0196   -0.0258    0.0069
          15    0.0109    0.0131   -0.0050   -0.0004   -0.0068    0.0208    0.0208    0.0073
          16   -0.0194    0.0009   -0.0080    0.0155    0.0005   -0.0070   -0.0000    0.0129
          17   -0.0100   -0.0115    0.0060   -0.0301   -0.0312   -0.0162   -0.0134    0.0102
          18   -0.0301    0.0104    0.0213   -0.0229    0.0253   -0.0219    0.0041    0.0101
          19    0.0061    0.0002    0.0127   -0.0326    0.0023    0.0115   -0.0009   -0.0174
          20    0.0098    0.0006   -0.0018    0.0021   -0.0001    0.0318   -0.0113    0.0144
          21    0.0192   -0.0020   -0.0034    0.0021   -0.0039    0.0469    0.0170    0.0171
          22   -0.0421   -0.0172   -0.0445    0.0146   -0.0740    0.0365   -0.0409   -0.0575
          23    0.0118   -0.0091   -0.1087   -0.0423    0.0698    0.0044    0.0131   -0.0016
          24    0.0329   -0.0234   -0.1249   -0.0398    0.0260    0.0090   -0.0097   -0.0270
          25   -0.0844    0.0120    0.0524   -0.0111    0.0246   -0.0179    0.0183    0.0786
          26   -0.0542    0.0241    0.1249    0.0795   -0.0720    0.0358   -0.0040   -0.0215
          27    0.0032   -0.0053   -0.0298   -0.0190    0.0214   -0.0076    0.0049    0.0180
          28    0.0860    0.0875    0.0419    0.0178    0.0928    0.0344   -0.0376   -0.0163
          29   -0.0487   -0.0555   -0.0245    0.0123   -0.0498   -0.0617    0.0810   -0.0013
          30   -0.0549    0.0053   -0.0098    0.0419   -0.0180   -0.1126    0.1936   -0.0313
          31    0.0834   -0.0853   -0.0101   -0.0399   -0.0983   -0.0046    0.0430    0.0429
          32   -0.0694   -0.0278   -0.0258    0.0224   -0.0028   -0.0331   -0.1498    0.0109
          33   -0.0909    0.0477   -0.0156    0.0564    0.0560   -0.0423   -0.1755   -0.0092
          34    0.0063   -0.0093   -0.0204   -0.0542    0.0243   -0.0504   -0.0018    0.1029
          35    0.0065    0.0084    0.0687    0.0617   -0.0718    0.0240   -0.0187   -0.0841
          36    0.0090   -0.0050   -0.0291   -0.0277    0.0296   -0.0149    0.0059    0.0313
          37    0.0134   -0.0053    0.0674    0.0166   -0.0917   -0.0265   -0.0378    0.0191
          38    0.0050    0.0008   -0.0571   -0.0306    0.0780   -0.0018    0.0273    0.0174
          39    0.0118   -0.0055   -0.0314   -0.0292    0.0298   -0.0200    0.0049    0.0360
          40   -0.0264   -0.0013   -0.0075    0.0226   -0.0031    0.0638    0.0111   -0.0766
          41    0.0543   -0.0030    0.0419   -0.0340   -0.0324   -0.1171   -0.0333    0.1334
          42    0.0069   -0.0042   -0.0256   -0.0292    0.0333   -0.0194    0.0069    0.0340
          43   -0.0691    0.0040   -0.0010    0.0586   -0.0052    0.0660    0.0202    0.1321
          44    0.0096   -0.0429    0.1288    0.0478    0.1749   -0.0105    0.0444    0.0023
          45   -0.0399    0.0300   -0.0561   -0.0739   -0.1043   -0.0285   -0.0330    0.0114
          46    0.0358   -0.0034   -0.0220    0.0516   -0.0026   -0.0355   -0.0014    0.0155
          47   -0.0425   -0.2165    0.0373   -0.0659    0.0035    0.0595    0.1126   -0.0325
          48   -0.0036    0.1372    0.0379   -0.1146    0.0025    0.1272   -0.0565   -0.0119
          49    0.0396   -0.0019   -0.0255    0.0573   -0.0046    0.0021    0.0050    0.0367
          50    0.0517    0.2527   -0.0509    0.0610   -0.0324    0.0174    0.0716    0.0489
          51    0.0520   -0.1636   -0.0397    0.1226    0.0038    0.0487   -0.0232    0.0939


   Root No.      17        18        19        20        21        22        23        24

                17 A      18 A      19 A      20 A      21 A      22 A      23 A      24 A   

                 983.6    1016.1    1027.3    1063.5    1115.7    1128.2    1139.0    1166.5
  
           1   -0.0024   -0.0010    0.0178    0.0068    0.0112    0.0228    0.0108   -0.0120
           2   -0.0034   -0.0006    0.0080    0.0046   -0.0540   -0.0274   -0.0034   -0.0449
           3    0.0060    0.0012   -0.0181   -0.0198    0.0316   -0.0208   -0.0044   -0.0396
           4    0.0010    0.0005   -0.0116    0.0100   -0.0032    0.0033   -0.0280   -0.0003
           5   -0.0364   -0.0228   -0.0091   -0.0055   -0.0013   -0.0111    0.0332    0.0036
           6    0.0250    0.0147    0.0040   -0.0061   -0.0018   -0.0180    0.0529    0.0065
           7    0.0134    0.0017   -0.0280    0.0005   -0.0095   -0.0239   -0.0096    0.0009
           8    0.0061    0.0003   -0.0015    0.0009    0.0622    0.0254    0.0074    0.0217
           9    0.0013   -0.0000    0.0015    0.0122   -0.0295    0.0311    0.0109    0.0100
          10    0.0026    0.0002    0.0058   -0.0277   -0.0014    0.0029   -0.0003   -0.0021
          11    0.0312   -0.0012    0.0156   -0.0064   -0.0040   -0.0061    0.0014   -0.0016
          12   -0.0136    0.0012   -0.0075   -0.0193   -0.0011   -0.0057    0.0028   -0.0004
          13    0.0003    0.0007   -0.0196    0.0554    0.0037   -0.0047    0.0006   -0.0001
          14    0.0010    0.0392   -0.0000   -0.0006    0.0008    0.0010   -0.0009    0.0006
          15   -0.0030   -0.0247    0.0026    0.0010   -0.0002    0.0005   -0.0013    0.0000
          16   -0.0047   -0.0008    0.0132   -0.0171   -0.0034    0.0082   -0.0052    0.0237
          17   -0.0126   -0.0017   -0.0353    0.0059   -0.0008    0.0050   -0.0069    0.0272
          18    0.0036    0.0010    0.0133    0.0358   -0.0094   -0.0068   -0.0131    0.0376
          19   -0.0000   -0.0008    0.0133   -0.0291   -0.0015    0.0019   -0.0017   -0.0001
          20    0.0103   -0.0591    0.0049    0.0008    0.0012    0.0057   -0.0080   -0.0013
          21   -0.0122    0.0356    0.0053    0.0003    0.0024    0.0094   -0.0128   -0.0018
          22   -0.0763   -0.0122    0.1750    0.0883    0.2524   -0.0841   -0.0069   -0.0253
          23    0.0095    0.0004   -0.0032    0.0147   -0.2014    0.0264    0.0109   -0.0385
          24   -0.0262   -0.0049    0.0722    0.0505   -0.0023   -0.0209    0.0021   -0.0353
          25    0.0209    0.0056   -0.0581   -0.0543    0.0692    0.1929    0.1242   -0.2337
          26    0.0043    0.0002   -0.0194   -0.0339    0.0128   -0.1504   -0.0555   -0.0671
          27    0.0046    0.0013   -0.0129   -0.0089    0.0103    0.0434    0.0269   -0.0556
          28   -0.1599   -0.0428   -0.0600    0.0257   -0.0024   -0.0484    0.1224    0.0141
          29    0.0513   -0.0205    0.0189   -0.0186   -0.0036    0.0331   -0.1044   -0.0084
          30   -0.0461   -0.1112   -0.0043   -0.0269   -0.0086    0.0444   -0.1599   -0.0095
          31    0.1632    0.0448    0.0218    0.0392   -0.0046   -0.0506    0.1211    0.0148
          32    0.0692    0.0914    0.0037   -0.0152   -0.0047    0.0259   -0.0987   -0.0041
          33   -0.0174    0.0693   -0.0131   -0.0349   -0.0038    0.0512   -0.1642   -0.0109
          34   -0.0251   -0.0013    0.0119   -0.0367   -0.0037   -0.1062   -0.0273   -0.0874
          35   -0.0082   -0.0023    0.0394    0.0490   -0.0353    0.1389    0.0450    0.0667
          36    0.0016    0.0007   -0.0097   -0.0132    0.0132   -0.0268   -0.0070   -0.0227
          37   -0.0592   -0.0062    0.0835    0.0278   -0.1801    0.0112    0.0145   -0.0627
          38    0.0359    0.0041   -0.0529   -0.0303    0.1871   -0.0274   -0.0153    0.0313
          39   -0.0015    0.0005   -0.0024   -0.0134    0.0306   -0.0184   -0.0048   -0.0173
          40    0.0346    0.0034   -0.0561    0.0139   -0.0206   -0.0034   -0.0036    0.0254
          41   -0.0791   -0.0077    0.1238   -0.0119    0.0100    0.0225    0.0144   -0.0453
          42    0.0031    0.0009   -0.0100   -0.0131    0.0346   -0.0221   -0.0079   -0.0175
          43   -0.0185   -0.0006    0.0280   -0.1686   -0.0662   -0.0332    0.0540    0.2373
          44    0.0805    0.0308    0.0871    0.0531   -0.0254   -0.0198   -0.0138    0.0138
          45   -0.0546   -0.0195   -0.0647    0.0118    0.0072    0.0079   -0.0115    0.0409
          46    0.0020    0.0018   -0.0222    0.0385   -0.0011   -0.0159    0.0201    0.0045
          47   -0.0876    0.2068    0.0234   -0.0580    0.0024    0.0234   -0.0294   -0.0052
          48    0.0428   -0.1319    0.0620   -0.0897    0.0020    0.0363   -0.0479   -0.0094
          49   -0.0025    0.0021   -0.0150    0.0410    0.0056    0.0141   -0.0216   -0.0057
          50   -0.0314    0.2448   -0.0141    0.0547    0.0068    0.0168   -0.0261   -0.0059
          51    0.0085   -0.1497   -0.0304    0.0884    0.0122    0.0284   -0.0423   -0.0097


   Root No.      25        26        27        28        29        30        31        32

                25 A      26 A      27 A      28 A      29 A      30 A      31 A      32 A   

                1218.4    1242.8    1312.1    1363.0    1393.9    1406.9    1411.1    1414.8
  
           1   -0.0222   -0.0122   -0.0257    0.0243   -0.0328    0.0014    0.0031   -0.0026
           2    0.0144    0.0063    0.0076   -0.0186   -0.0192   -0.0095    0.0009   -0.0324
           3   -0.0124   -0.0024   -0.0075    0.0020   -0.0164   -0.0030    0.0013   -0.0085
           4    0.0328   -0.0566   -0.0030   -0.0085    0.0387   -0.0056   -0.0015   -0.0209
           5   -0.0041   -0.0186    0.0076   -0.0054    0.0139   -0.0016   -0.0005   -0.0055
           6   -0.0072   -0.0308    0.0118   -0.0086    0.0228   -0.0026   -0.0007   -0.0085
           7    0.0086    0.0027    0.0034    0.0091    0.0094    0.0015   -0.0338   -0.0268
           8    0.0014   -0.0004    0.0032   -0.0193   -0.0078    0.0146   -0.0189    0.0334
           9    0.0068    0.0015    0.0020   -0.0004    0.0018   -0.0340   -0.0117    0.0054
          10   -0.0199    0.0253    0.0086   -0.0087    0.0029    0.0008    0.0003    0.0050
          11    0.0048    0.0342    0.0029    0.0068   -0.0089    0.0002   -0.0000   -0.0011
          12    0.0054    0.0547    0.0040    0.0116   -0.0142    0.0005   -0.0001   -0.0010
          13   -0.0027    0.0648   -0.0040    0.0087   -0.0146    0.0012    0.0003    0.0028
          14    0.0028   -0.0035   -0.0135   -0.0013   -0.0006    0.0002    0.0001    0.0008
          15    0.0057   -0.0047   -0.0212   -0.0023   -0.0010    0.0002    0.0001    0.0008
          16   -0.0417   -0.0127   -0.0037   -0.0222    0.0079    0.0027    0.0009    0.0164
          17   -0.0043   -0.0097    0.0034   -0.0019    0.0079    0.0007   -0.0002    0.0031
          18    0.0040   -0.0126    0.0091   -0.0067    0.0129   -0.0001    0.0001    0.0017
          19    0.0008   -0.0131   -0.0000   -0.0014    0.0018   -0.0001   -0.0000   -0.0002
          20   -0.0038    0.0008   -0.0190   -0.0044   -0.0044    0.0013    0.0004    0.0059
          21   -0.0064    0.0011   -0.0310   -0.0070   -0.0071    0.0021    0.0007    0.0098
          22    0.1207    0.0356    0.0470   -0.0315    0.0291   -0.0079   -0.0087   -0.0168
          23   -0.0170   -0.0031   -0.0221    0.0911    0.0817    0.0251   -0.0148    0.0792
          24    0.0428    0.0164    0.0042    0.0936    0.1381    0.0298   -0.0232    0.1105
          25    0.1230    0.0497    0.0372    0.0080    0.0919    0.0118   -0.0209    0.0406
          26   -0.0421   -0.0027   -0.0283    0.1265    0.1248    0.0376   -0.0221    0.1226
          27    0.0233    0.0074    0.0114   -0.0475   -0.0490   -0.0180    0.0057   -0.0542
          28    0.0346   -0.1434    0.0619    0.0574   -0.1139    0.0127    0.0033    0.0428
          29    0.0155    0.0148   -0.0222   -0.0252    0.0644   -0.0080   -0.0021   -0.0285
          30    0.0730   -0.0934    0.0367    0.0593   -0.1199    0.0135    0.0035    0.0448
          31    0.0331   -0.1444    0.0616    0.0582   -0.1149    0.0131    0.0034    0.0443
          32    0.0575   -0.0894    0.0422    0.0639   -0.1354    0.0156    0.0041    0.0527
          33    0.0461   -0.0293   -0.0033    0.0042    0.0036   -0.0012   -0.0003   -0.0053
          34    0.0057    0.0093    0.0151   -0.0470   -0.0137   -0.1833    0.2482    0.0985
          35   -0.0023   -0.0076   -0.0221    0.0845    0.0401   -0.0186    0.2525   -0.0851
          36    0.0057    0.0040    0.0114   -0.0422   -0.0177   -0.0264   -0.0705    0.0563
          37    0.0225    0.0117    0.0238   -0.0822   -0.0268    0.2184    0.0908    0.0654
          38   -0.0178   -0.0091   -0.0177    0.0612    0.0278    0.0069    0.1609   -0.0660
          39   -0.0075   -0.0032   -0.0088    0.0334    0.0207    0.1244    0.2732   -0.0546
          40    0.0344    0.0137    0.0238   -0.0349    0.0073   -0.0944    0.0558    0.0503
          41   -0.0585   -0.0254   -0.0525    0.1077   -0.0020   -0.1226   -0.1622   -0.1075
          42   -0.0094   -0.0057   -0.0042    0.0032   -0.0009    0.3231   -0.0624   -0.0675
          43    0.1597    0.1500    0.0150    0.0517   -0.0129    0.0073   -0.0040   -0.0119
          44    0.0054   -0.0091    0.0081   -0.0079    0.0086   -0.0017    0.0011    0.0000
          45   -0.0062   -0.0166    0.0067   -0.0047    0.0137    0.0007   -0.0003    0.0038
          46    0.0341    0.0059   -0.1367   -0.0160   -0.0172    0.0043    0.0014    0.0183
          47   -0.0362   -0.0135    0.1060    0.0092    0.0120   -0.0026   -0.0009   -0.0099
          48   -0.0577   -0.0216    0.1718    0.0146    0.0195   -0.0041   -0.0013   -0.0165
          49   -0.0380    0.0341    0.1428    0.0206    0.0120   -0.0040   -0.0014   -0.0180
          50   -0.0375    0.0378    0.1010    0.0134    0.0043   -0.0019   -0.0008   -0.0083
          51   -0.0613    0.0612    0.1649    0.0221    0.0069   -0.0030   -0.0011   -0.0136


   Root No.      33        34        35        36        37        38        39        40

                33 A      34 A      35 A      36 A      37 A      38 A      39 A      40 A   

                1442.9    1946.9    2189.2    2946.1    3025.1    3043.1    3063.9    3081.3
  
           1    0.0703   -0.0184    0.0066    0.0171   -0.0080   -0.0003   -0.0000    0.0005
           2   -0.0121   -0.0018    0.0010    0.0155   -0.0331   -0.0048   -0.0002   -0.0004
           3    0.0170   -0.0035    0.0010   -0.0519   -0.0145   -0.0051    0.0001   -0.0026
           4    0.0417    0.0115   -0.0563    0.0001   -0.0001    0.0006   -0.0002   -0.0000
           5    0.0071   -0.0148   -0.0164    0.0000    0.0000    0.0002   -0.0520    0.0000
           6    0.0122   -0.0237   -0.0269    0.0000   -0.0000    0.0000    0.0323   -0.0000
           7   -0.0281   -0.0015    0.0013   -0.0009    0.0028    0.0008    0.0000    0.0030
           8    0.0267    0.0003   -0.0004   -0.0006    0.0015    0.0006   -0.0000    0.0013
           9   -0.0023   -0.0004    0.0002    0.0025    0.0018   -0.0002    0.0000   -0.0508
          10   -0.0242   -0.1429    0.1635   -0.0007    0.0006   -0.0060   -0.0000   -0.0000
          11    0.0049    0.0337   -0.0604    0.0001   -0.0003    0.0017   -0.0005    0.0000
          12    0.0086    0.0530   -0.0960    0.0000   -0.0004    0.0027    0.0004    0.0000
          13    0.0001    0.0176   -0.0130   -0.0000   -0.0001   -0.0003   -0.0000   -0.0000
          14    0.0001    0.0903    0.1018   -0.0001    0.0001   -0.0002   -0.0005   -0.0000
          15   -0.0003    0.1460    0.1642   -0.0001    0.0001   -0.0004    0.0003    0.0000
          16   -0.0525    0.1378   -0.0961    0.0005   -0.0008    0.0041    0.0000    0.0001
          17   -0.0024   -0.0301    0.0236    0.0011    0.0032   -0.0355   -0.0001    0.0001
          18   -0.0087   -0.0464    0.0365    0.0017    0.0050   -0.0562   -0.0000    0.0003
          19   -0.0004   -0.0026   -0.0011   -0.0002   -0.0003   -0.0001   -0.0000   -0.0000
          20   -0.0147   -0.0709   -0.0482   -0.0001   -0.0001   -0.0001   -0.0001   -0.0000
          21   -0.0237   -0.1147   -0.0778   -0.0001   -0.0002   -0.0001    0.0001   -0.0000
          22   -0.0612   -0.0037    0.0014   -0.1747    0.1443    0.0140    0.0003   -0.0015
          23    0.0188   -0.0046   -0.0000   -0.3455    0.2677    0.0257    0.0007   -0.0082
          24   -0.0281   -0.0051    0.0057    0.2534   -0.2339   -0.0270   -0.0007    0.0027
          25   -0.0919    0.0253   -0.0118   -0.0320   -0.0481   -0.0054   -0.0000   -0.0050
          26    0.0136   -0.0020    0.0017    0.1557    0.1360    0.0297    0.0001    0.0131
          27   -0.0105   -0.0007    0.0009    0.3700    0.4084    0.0842    0.0005    0.0264
          28   -0.0573   -0.0009   -0.0278    0.0004   -0.0004   -0.0002    0.2434    0.0001
          29    0.0461   -0.0022   -0.0342    0.0004   -0.0006   -0.0011    0.3877    0.0001
          30   -0.0597    0.0010    0.0032   -0.0001    0.0001    0.0003   -0.0800   -0.0000
          31   -0.0570   -0.0006   -0.0276   -0.0002    0.0003    0.0009   -0.2412    0.0001
          32   -0.0735    0.0017    0.0184    0.0001   -0.0003   -0.0002    0.2475   -0.0001
          33    0.0143   -0.0017   -0.0293   -0.0001    0.0003    0.0004   -0.3147    0.0001
          34    0.0509   -0.0010    0.0005    0.0000    0.0028   -0.0013   -0.0000   -0.0545
          35   -0.0627    0.0007   -0.0002   -0.0051   -0.0054    0.0013   -0.0000    0.1721
          36    0.0369   -0.0010    0.0006   -0.0207   -0.0170    0.0006    0.0000    0.4266
          37    0.0683   -0.0007    0.0001    0.0108   -0.0034   -0.0020    0.0000   -0.1140
          38   -0.0464   -0.0001    0.0005    0.0138   -0.0074   -0.0049    0.0001   -0.2281
          39   -0.0267    0.0005   -0.0002   -0.0130    0.0072    0.0037   -0.0000    0.1554
          40    0.0004   -0.0019    0.0020    0.0010   -0.0283   -0.0107    0.0000    0.1318
          41   -0.0378   -0.0024    0.0005    0.0003   -0.0119   -0.0035   -0.0000    0.0410
          42   -0.0110   -0.0012    0.0008    0.0008   -0.0118   -0.0046    0.0000    0.0253
          43    0.0641   -0.0378    0.0073    0.0022    0.0001    0.0167    0.0000    0.0010
          44   -0.0086   -0.0422    0.0386   -0.0117   -0.0369    0.4065    0.0012   -0.0024
          45   -0.0062   -0.0692    0.0632   -0.0209   -0.0578    0.6461    0.0005   -0.0035
          46   -0.0386   -0.0966   -0.0693    0.0017    0.0028    0.0012    0.0001    0.0004
          47    0.0186   -0.0142   -0.0171    0.0008    0.0012    0.0005   -0.0010    0.0001
          48    0.0296   -0.0233   -0.0282    0.0013    0.0019    0.0007    0.0007    0.0003
          49    0.0399    0.0999    0.0662   -0.0002   -0.0000   -0.0003    0.0001    0.0001
          50    0.0171   -0.0143   -0.0207    0.0001   -0.0001    0.0000    0.0007   -0.0000
          51    0.0284   -0.0224   -0.0326    0.0000   -0.0001    0.0002   -0.0005   -0.0000


   Root No.      41        42        43        44        45

                41 A      42 A      43 A      44 A      45 A   

                3086.2    3105.6    3130.8    3140.9    3183.1
  
           1   -0.0009   -0.0000   -0.0000    0.0000    0.0004
           2   -0.0024   -0.0000    0.0001    0.0001   -0.0002
           3   -0.0002   -0.0000    0.0003    0.0002    0.0001
           4    0.0000   -0.0383    0.0001    0.0002   -0.0000
           5    0.0000   -0.0114    0.0001    0.0002    0.0000
           6   -0.0000   -0.0184    0.0001    0.0003   -0.0000
           7   -0.0397   -0.0000    0.0000    0.0000    0.0156
           8   -0.0318   -0.0000    0.0000    0.0000   -0.0191
           9   -0.0031    0.0000    0.0000    0.0000    0.0014
          10   -0.0001    0.0011    0.0005   -0.0001    0.0000
          11    0.0000   -0.0005   -0.0001   -0.0002   -0.0000
          12    0.0001   -0.0009   -0.0002   -0.0002   -0.0000
          13   -0.0000   -0.0003    0.0000   -0.0004    0.0000
          14   -0.0000    0.0008    0.0041   -0.0008   -0.0000
          15    0.0000    0.0013    0.0067   -0.0012   -0.0000
          16    0.0004    0.0001    0.0001   -0.0000   -0.0001
          17   -0.0005    0.0000    0.0000    0.0000    0.0001
          18   -0.0004    0.0000    0.0000    0.0000    0.0001
          19   -0.0000   -0.0003   -0.0118   -0.0646   -0.0000
          20   -0.0000   -0.0003   -0.0245    0.0053    0.0000
          21   -0.0000   -0.0005   -0.0397    0.0081    0.0000
          22    0.0090    0.0001   -0.0004   -0.0003   -0.0002
          23    0.0236    0.0002   -0.0005   -0.0005   -0.0020
          24   -0.0186   -0.0001    0.0005    0.0005    0.0012
          25   -0.0039   -0.0000    0.0006    0.0004    0.0009
          26    0.0062   -0.0000   -0.0014   -0.0010   -0.0017
          27    0.0199   -0.0000   -0.0037   -0.0026   -0.0024
          28   -0.0002    0.2258   -0.0032   -0.0006    0.0000
          29   -0.0003    0.4012   -0.0052   -0.0012    0.0000
          30    0.0001   -0.1000    0.0010    0.0005    0.0000
          31   -0.0001    0.2208   -0.0031   -0.0005    0.0000
          32    0.0001   -0.2684    0.0032    0.0008   -0.0000
          33   -0.0001    0.3142   -0.0042   -0.0007    0.0000
          34   -0.0319   -0.0000    0.0001    0.0001   -0.0291
          35    0.0184   -0.0001   -0.0001   -0.0001    0.1016
          36    0.0907   -0.0001   -0.0002   -0.0003    0.2916
          37    0.1153    0.0001   -0.0000   -0.0000    0.1288
          38    0.2521    0.0002   -0.0000   -0.0000    0.2327
          39   -0.2151   -0.0002    0.0001    0.0000   -0.1912
          40    0.3910    0.0003   -0.0005   -0.0001   -0.2904
          41    0.1107    0.0001   -0.0001   -0.0000   -0.1005
          42    0.1612    0.0001   -0.0002   -0.0000   -0.1170
          43    0.0006   -0.0001   -0.0001   -0.0000    0.0004
          44    0.0027    0.0004   -0.0004   -0.0000   -0.0014
          45    0.0049    0.0006   -0.0005   -0.0001   -0.0019
          46    0.0005    0.0066    0.4682    0.3211   -0.0000
          47    0.0002    0.0020    0.1406    0.1063   -0.0000
          48    0.0003    0.0034    0.2305    0.1741   -0.0000
          49   -0.0001   -0.0027   -0.3281    0.4537    0.0001
          50    0.0000    0.0008    0.1058   -0.1603   -0.0001
          51    0.0001    0.0012    0.1688   -0.2561   -0.0001


           MASS-WEIGHTED COORDINATE ANALYSIS (NORMAL COORDINATES)


   Root No.       1         2         3         4         5         6         7         8

                 1 A       2 A       3 A       4 A       5 A       6 A       7 A       8 A   

                  59.0     119.9     166.4     210.3     299.8     339.0     401.5     493.0
  
           1   -0.0022   -0.2695    0.0102    0.0348   -0.0380    0.1930    0.1044    0.0757
           2    0.1914   -0.0164   -0.0555   -0.0063   -0.1635    0.1893   -0.2858   -0.0949
           3   -0.2954    0.2270   -0.1904   -0.3262    0.0137   -0.0074   -0.1358   -0.0342
           4    0.0102   -0.1616   -0.0150    0.0246   -0.0227   -0.0786   -0.1846   -0.1318
           5   -0.0472    0.1634    0.3104    0.1729   -0.1310   -0.1391   -0.0045   -0.0516
           6    0.0450   -0.0589   -0.1563   -0.0182    0.1490   -0.2230   -0.0409    0.1171
           7   -0.2789    0.0877    0.2107    0.1149    0.1384   -0.0948    0.4144    0.1755
           8   -0.0273    0.2768    0.1092    0.0619   -0.0293   -0.0564   -0.0886   -0.0674
           9    0.4642    0.1387    0.0314    0.0612    0.0547   -0.0980    0.1152    0.0481
          10    0.0109   -0.1639   -0.0144    0.0251   -0.0156   -0.0652   -0.1355   -0.0826
          11    0.0324   -0.1558   -0.0557   -0.0629    0.5044    0.0769    0.2090   -0.2952
          12   -0.1251   -0.1788    0.0870    0.1154   -0.3269    0.1299    0.0029    0.1379
          13    0.0975    0.0703   -0.0310    0.0237    0.0313   -0.3880   -0.3206   -0.0518
          14   -0.0985   -0.0306    0.0767    0.0841    0.3518    0.1378   -0.2512    0.4039
          15    0.0141   -0.1046   -0.0031    0.0332   -0.1924   -0.1552    0.1921   -0.2545
          16   -0.0138   -0.1128   -0.0603   -0.0569   -0.0448    0.0564   -0.1086   -0.0162
          17    0.1594   -0.2129   -0.2759   -0.2379   -0.1310    0.0323    0.2470    0.2660
          18   -0.2521   -0.0439    0.1288    0.0508   -0.0013    0.4291   -0.0473   -0.1525
          19    0.2081    0.4943   -0.1196   -0.1512   -0.0518    0.2500    0.0598   -0.0194
          20   -0.2018   -0.1154   -0.1542   -0.0397   -0.1729   -0.1257    0.1137   -0.0899
          21    0.0759   -0.0606    0.1421    0.1150    0.1351   -0.0069   -0.0350    0.0510
          22    0.0729   -0.1187   -0.0644   -0.0263   -0.0230    0.0320    0.0476    0.0784
          23   -0.0682    0.0682   -0.0599   -0.0704   -0.0329   -0.0169   -0.1078   -0.0151
          24   -0.2000    0.1350   -0.1623   -0.2119    0.0145   -0.1146   -0.0647    0.0459
          25   -0.0090   -0.1578    0.0482    0.0470   -0.0278    0.1700    0.0534    0.0007
          26    0.2215   -0.0727    0.0819    0.1217   -0.0568    0.1438   -0.0550   -0.0728
          27   -0.1524    0.0867   -0.0903   -0.1402    0.0069   -0.0293   -0.0478    0.0066
          28    0.0247   -0.1048   -0.0974   -0.0562    0.1593   -0.0032    0.0026   -0.0840
          29   -0.0276    0.0836    0.1378    0.0873   -0.1160   -0.0491   -0.0657    0.0735
          30    0.0092   -0.0106   -0.0831   -0.0112    0.1474   -0.0503   -0.1491    0.3235
          31   -0.0314   -0.0221    0.0909    0.0694   -0.1836    0.0136   -0.0926   -0.0175
          32   -0.0045    0.0891    0.1426    0.0722   -0.1559   -0.1105    0.0716   -0.2163
          33    0.0460   -0.0015   -0.0735   -0.0340    0.0804   -0.1488    0.0755   -0.1409
          34   -0.0718    0.1189   -0.1707    0.4158    0.0690   -0.0537    0.2218    0.0835
          35   -0.1734    0.1603   -0.2195    0.2221   -0.0087    0.0069   -0.0463   -0.0352
          36    0.2022    0.0213    0.0773   -0.0097    0.0203   -0.0423    0.0580    0.0260
          37   -0.1598    0.0638    0.2635   -0.1833    0.0798   -0.1086    0.1805    0.0793
          38    0.1154    0.0042    0.1726   -0.1142   -0.0233   -0.0063   -0.0425   -0.0214
          39    0.2464   -0.0352    0.3140   -0.2847    0.0202   -0.0638    0.0458    0.0277
          40   -0.0763   -0.0210    0.1431   -0.1153    0.0238   -0.0071    0.0715    0.0360
          41   -0.0154    0.1441    0.1831   -0.0361    0.0457   -0.1200    0.0965    0.0279
          42    0.1281    0.1142   -0.3102    0.4399    0.0207   -0.0095    0.0791    0.0231
          43   -0.0089    0.0255   -0.0504   -0.0590   -0.0239    0.0080   -0.0838   -0.0045
          44    0.0662   -0.0724   -0.1331   -0.1309   -0.2003   -0.0965    0.1852    0.2271
          45   -0.0853   -0.0050    0.0707    0.0548    0.1025    0.1877   -0.0852   -0.1389
          46    0.0749    0.2023   -0.0481   -0.0717   -0.0304    0.1913    0.0916    0.0003
          47   -0.0617   -0.1236   -0.1200   -0.0395    0.0537   -0.1704    0.0686   -0.3414
          48   -0.0040   -0.0757    0.1127    0.1034    0.0051   -0.1453   -0.1726    0.1956
          49    0.0753    0.2048   -0.0480   -0.0722   -0.0323    0.1968    0.0962    0.0026
          50   -0.0818    0.0329   -0.0301   -0.0157   -0.2945    0.0215    0.1039    0.1292
          51    0.0634    0.0506    0.0085   -0.0142    0.1617    0.1800    0.0843   -0.0675


   Root No.       9        10        11        12        13        14        15        16

                 9 A      10 A      11 A      12 A      13 A      14 A      15 A      16 A   

                 517.2     650.1     787.2     856.5     881.0     929.8     939.3     969.5
  
           1   -0.2920   -0.0112   -0.1930    0.0259    0.0595    0.0942    0.0114   -0.0739
           2   -0.1443    0.0129   -0.1506    0.0237    0.0259    0.1173    0.0035   -0.0488
           3   -0.0616    0.0208    0.2232    0.1419   -0.1138    0.0439    0.0147    0.0285
           4    0.3918    0.0111    0.0726    0.0461   -0.0155   -0.0560    0.0040    0.0933
           5   -0.1742   -0.0149   -0.0347    0.1458    0.1137   -0.1233    0.1276   -0.1052
           6   -0.2371    0.0061   -0.1192    0.1571   -0.0656   -0.1921   -0.1135   -0.0054
           7   -0.0987   -0.0273   -0.0681   -0.0019    0.0259    0.1825    0.0451   -0.1789
           8    0.0830    0.0216    0.0034    0.0275    0.0770   -0.0198    0.0259   -0.0713
           9    0.0277   -0.0121    0.0193    0.0561   -0.0766    0.0649   -0.0188   -0.1850
          10    0.2387    0.0040   -0.0648    0.1697    0.0060   -0.2580   -0.0357   -0.1247
          11    0.1473    0.2756   -0.0040   -0.0546   -0.0432   -0.1996    0.1669   -0.1259
          12    0.3160   -0.1821    0.0139   -0.0680    0.0570   -0.2407   -0.1778   -0.2747
          13   -0.1683    0.0272    0.1832   -0.1850    0.0060   -0.0436   -0.0014    0.1086
          14    0.1362   -0.1715    0.0366    0.0323    0.0687    0.1563   -0.2178    0.0646
          15    0.0795    0.0969   -0.0483   -0.0038   -0.0634    0.1654    0.1752    0.0683
          16   -0.1421    0.0069   -0.0767    0.1453    0.0051   -0.0561   -0.0003    0.1203
          17   -0.0732   -0.0853    0.0575   -0.2823   -0.2921   -0.1292   -0.1127    0.0958
          18   -0.2203    0.0769    0.2049   -0.2143    0.2364   -0.1750    0.0349    0.0944
          19    0.0443    0.0018    0.1218   -0.3054    0.0213    0.0915   -0.0077   -0.1624
          20    0.0717    0.0043   -0.0169    0.0196   -0.0011    0.2538   -0.0954    0.1343
          21    0.1408   -0.0147   -0.0322    0.0195   -0.0369    0.3741    0.1431    0.1602
          22   -0.0894   -0.0368   -0.1241    0.0396   -0.2006    0.0843   -0.0999   -0.1557
          23    0.0251   -0.0194   -0.3030   -0.1147    0.1893    0.0102    0.0319   -0.0042
          24    0.0699   -0.0501   -0.3483   -0.1082    0.0706    0.0208   -0.0237   -0.0731
          25   -0.1790    0.0257    0.1462   -0.0302    0.0667   -0.0413    0.0448    0.2130
          26   -0.1151    0.0515    0.3484    0.2157   -0.1952    0.0827   -0.0097   -0.0581
          27    0.0069   -0.0113   -0.0831   -0.0515    0.0579   -0.0175    0.0121    0.0487
          28    0.1826    0.1874    0.1168    0.0484    0.2515    0.0795   -0.0917   -0.0441
          29   -0.1033   -0.1188   -0.0682    0.0333   -0.1351   -0.1425    0.1976   -0.0034
          30   -0.1165    0.0114   -0.0274    0.1137   -0.0487   -0.2601    0.4724   -0.0849
          31    0.1770   -0.1826   -0.0282   -0.1082   -0.2665   -0.0106    0.1050    0.1162
          32   -0.1473   -0.0596   -0.0718    0.0607   -0.0076   -0.0763   -0.3657    0.0295
          33   -0.1930    0.1021   -0.0434    0.1532    0.1519   -0.0976   -0.4284   -0.0250
          34    0.0133   -0.0199   -0.0568   -0.1471    0.0659   -0.1163   -0.0043    0.2788
          35    0.0139    0.0181    0.1917    0.1676   -0.1946    0.0553   -0.0456   -0.2280
          36    0.0191   -0.0106   -0.0812   -0.0752    0.0803   -0.0345    0.0145    0.0849
          37    0.0284   -0.0114    0.1878    0.0452   -0.2486   -0.0612   -0.0923    0.0516
          38    0.0107    0.0016   -0.1591   -0.0830    0.2115   -0.0042    0.0667    0.0472
          39    0.0251   -0.0118   -0.0875   -0.0792    0.0808   -0.0462    0.0119    0.0977
          40   -0.0560   -0.0029   -0.0208    0.0614   -0.0083    0.1473    0.0271   -0.2076
          41    0.1153   -0.0065    0.1167   -0.0923   -0.0879   -0.2704   -0.0812    0.3614
          42    0.0147   -0.0090   -0.0714   -0.0793    0.0902   -0.0449    0.0169    0.0922
          43   -0.1466    0.0087   -0.0028    0.1592   -0.0140    0.1525    0.0493    0.3578
          44    0.0204   -0.0919    0.3591    0.1297    0.4743   -0.0242    0.1084    0.0063
          45   -0.0846    0.0643   -0.1565   -0.2006   -0.2828   -0.0659   -0.0806    0.0308
          46    0.0759   -0.0073   -0.0614    0.1401   -0.0070   -0.0819   -0.0033    0.0420
          47   -0.0901   -0.4637    0.1039   -0.1789    0.0094    0.1373    0.2749   -0.0882
          48   -0.0077    0.2939    0.1057   -0.3112    0.0067    0.2938   -0.1379   -0.0322
          49    0.0841   -0.0041   -0.0710    0.1555   -0.0125    0.0048    0.0122    0.0993
          50    0.1097    0.5412   -0.1419    0.1655   -0.0879    0.0401    0.1748    0.1324
          51    0.1104   -0.3505   -0.1106    0.3328    0.0104    0.1124   -0.0566    0.2543


   Root No.      17        18        19        20        21        22        23        24

                17 A      18 A      19 A      20 A      21 A      22 A      23 A      24 A   

                 983.6    1016.1    1027.3    1063.5    1115.7    1128.2    1139.0    1166.5
  
           1   -0.0216   -0.0070    0.1619    0.0569    0.0716    0.1876    0.0832   -0.0865
           2   -0.0309   -0.0043    0.0727    0.0384   -0.3438   -0.2255   -0.0258   -0.3235
           3    0.0540    0.0082   -0.1646   -0.1645    0.2012   -0.1713   -0.0335   -0.2848
           4    0.0087    0.0035   -0.1056    0.0831   -0.0205    0.0268   -0.2147   -0.0024
           5   -0.3260   -0.1528   -0.0823   -0.0457   -0.0080   -0.0915    0.2549    0.0262
           6    0.2244    0.0983    0.0365   -0.0505   -0.0114   -0.1484    0.4060    0.0467
           7    0.1203    0.0113   -0.2548    0.0040   -0.0603   -0.1966   -0.0735    0.0065
           8    0.0549    0.0019   -0.0135    0.0076    0.3963    0.2091    0.0568    0.1560
           9    0.0114   -0.0002    0.0137    0.1015   -0.1879    0.2561    0.0838    0.0720
          10    0.0233    0.0014    0.0530   -0.2310   -0.0088    0.0241   -0.0024   -0.0150
          11    0.2798   -0.0077    0.1416   -0.0530   -0.0255   -0.0500    0.0106   -0.0117
          12   -0.1219    0.0079   -0.0678   -0.1611   -0.0072   -0.0473    0.0216   -0.0032
          13    0.0026    0.0045   -0.1779    0.4618    0.0234   -0.0390    0.0047   -0.0006
          14    0.0091    0.2628   -0.0002   -0.0054    0.0054    0.0082   -0.0070    0.0043
          15   -0.0269   -0.1653    0.0235    0.0081   -0.0015    0.0043   -0.0099    0.0002
          16   -0.0424   -0.0051    0.1196   -0.1428   -0.0218    0.0672   -0.0400    0.1705
          17   -0.1129   -0.0116   -0.3208    0.0489   -0.0048    0.0408   -0.0527    0.1956
          18    0.0327    0.0065    0.1210    0.2983   -0.0596   -0.0558   -0.1009    0.2706
          19   -0.0001   -0.0056    0.1209   -0.2422   -0.0095    0.0154   -0.0133   -0.0009
          20    0.0926   -0.3964    0.0448    0.0066    0.0078    0.0471   -0.0611   -0.0090
          21   -0.1096    0.2383    0.0479    0.0027    0.0155    0.0771   -0.0986   -0.0128
          22   -0.1981   -0.0236    0.4605    0.2130    0.4655   -0.2006   -0.0153   -0.0527
          23    0.0247    0.0007   -0.0083    0.0355   -0.3714    0.0630    0.0242   -0.0803
          24   -0.0679   -0.0094    0.1900    0.1218   -0.0042   -0.0498    0.0046   -0.0737
          25    0.0542    0.0109   -0.1530   -0.1311    0.1277    0.4602    0.2763   -0.4873
          26    0.0111    0.0003   -0.0511   -0.0817    0.0236   -0.3587   -0.1234   -0.1398
          27    0.0120    0.0026   -0.0339   -0.0214    0.0189    0.1036    0.0598   -0.1159
          28   -0.4151   -0.0832   -0.1578    0.0620   -0.0044   -0.1153    0.2723    0.0293
          29    0.1332   -0.0399    0.0497   -0.0448   -0.0066    0.0790   -0.2322   -0.0176
          30   -0.1197   -0.2160   -0.0112   -0.0650   -0.0159    0.1060   -0.3559   -0.0198
          31    0.4237    0.0871    0.0573    0.0945   -0.0084   -0.1207    0.2694    0.0309
          32    0.1798    0.1775    0.0098   -0.0367   -0.0087    0.0618   -0.2196   -0.0086
          33   -0.0453    0.1347   -0.0345   -0.0842   -0.0070    0.1221   -0.3653   -0.0227
          34   -0.0651   -0.0026    0.0314   -0.0886   -0.0068   -0.2534   -0.0607   -0.1822
          35   -0.0213   -0.0044    0.1036    0.1181   -0.0651    0.3314    0.1002    0.1390
          36    0.0043    0.0013   -0.0254   -0.0319    0.0243   -0.0640   -0.0156   -0.0473
          37   -0.1538   -0.0120    0.2198    0.0670   -0.3321    0.0267    0.0323   -0.1308
          38    0.0932    0.0079   -0.1393   -0.0731    0.3452   -0.0655   -0.0341    0.0653
          39   -0.0038    0.0009   -0.0064   -0.0323    0.0564   -0.0439   -0.0106   -0.0360
          40    0.0898    0.0065   -0.1476    0.0336   -0.0381   -0.0082   -0.0080    0.0529
          41   -0.2055   -0.0150    0.3258   -0.0286    0.0185    0.0536    0.0320   -0.0945
          42    0.0081    0.0018   -0.0264   -0.0317    0.0639   -0.0527   -0.0177   -0.0364
          43   -0.0479   -0.0011    0.0736   -0.4069   -0.1220   -0.0793    0.1202    0.4949
          44    0.2089    0.0598    0.2292    0.1281   -0.0468   -0.0473   -0.0306    0.0287
          45   -0.1417   -0.0379   -0.1703    0.0286    0.0133    0.0187   -0.0257    0.0853
          46    0.0052    0.0035   -0.0583    0.0928   -0.0020   -0.0379    0.0447    0.0095
          47   -0.2275    0.4016    0.0617   -0.1400    0.0045    0.0559   -0.0654   -0.0107
          48    0.1112   -0.2560    0.1631   -0.2164    0.0037    0.0866   -0.1066   -0.0196
          49   -0.0066    0.0040   -0.0396    0.0989    0.0103    0.0337   -0.0480   -0.0118
          50   -0.0815    0.4754   -0.0371    0.1319    0.0126    0.0401   -0.0581   -0.0123
          51    0.0220   -0.2908   -0.0801    0.2132    0.0225    0.0677   -0.0940   -0.0203


   Root No.      25        26        27        28        29        30        31        32

                25 A      26 A      27 A      28 A      29 A      30 A      31 A      32 A   

                1218.4    1242.8    1312.1    1363.0    1393.9    1406.9    1411.1    1414.8
  
           1   -0.2021   -0.0819   -0.2111    0.2406   -0.2667    0.0095    0.0196   -0.0233
           2    0.1307    0.0422    0.0626   -0.1840   -0.1558   -0.0658    0.0059   -0.2914
           3   -0.1130   -0.0160   -0.0613    0.0199   -0.1334   -0.0210    0.0080   -0.0762
           4    0.2979   -0.3797   -0.0243   -0.0838    0.3145   -0.0386   -0.0097   -0.1884
           5   -0.0369   -0.1249    0.0620   -0.0537    0.1132   -0.0113   -0.0029   -0.0494
           6   -0.0653   -0.2063    0.0971   -0.0850    0.1851   -0.0178   -0.0044   -0.0767
           7    0.0783    0.0180    0.0278    0.0901    0.0765    0.0104   -0.2151   -0.2413
           8    0.0127   -0.0026    0.0266   -0.1911   -0.0636    0.1012   -0.1201    0.3008
           9    0.0622    0.0103    0.0160   -0.0044    0.0145   -0.2356   -0.0743    0.0487
          10   -0.1814    0.1698    0.0705   -0.0861    0.0233    0.0053    0.0016    0.0453
          11    0.0435    0.2291    0.0239    0.0674   -0.0720    0.0011   -0.0000   -0.0099
          12    0.0490    0.3665    0.0332    0.1152   -0.1157    0.0038   -0.0003   -0.0093
          13   -0.0250    0.4344   -0.0325    0.0863   -0.1185    0.0081    0.0016    0.0251
          14    0.0253   -0.0231   -0.1104   -0.0128   -0.0046    0.0015    0.0005    0.0071
          15    0.0515   -0.0318   -0.1744   -0.0228   -0.0078    0.0016    0.0005    0.0073
          16   -0.3794   -0.0852   -0.0307   -0.2202    0.0644    0.0187    0.0055    0.1477
          17   -0.0389   -0.0653    0.0278   -0.0188    0.0641    0.0051   -0.0015    0.0275
          18    0.0365   -0.0845    0.0748   -0.0664    0.1045   -0.0006    0.0003    0.0156
          19    0.0073   -0.0880   -0.0002   -0.0138    0.0149   -0.0007   -0.0001   -0.0020
          20   -0.0350    0.0051   -0.1561   -0.0432   -0.0356    0.0090    0.0029    0.0535
          21   -0.0582    0.0073   -0.2546   -0.0696   -0.0574    0.0148    0.0044    0.0878
          22    0.3179    0.0691    0.1118   -0.0904    0.0685   -0.0158   -0.0160   -0.0437
          23   -0.0448   -0.0061   -0.0524    0.2615    0.1923    0.0503   -0.0273    0.2065
          24    0.1127    0.0319    0.0101    0.2689    0.3250    0.0598   -0.0429    0.2882
          25    0.3240    0.0965    0.0883    0.0230    0.2162    0.0236   -0.0386    0.1060
          26   -0.1109   -0.0053   -0.0672    0.3632    0.2937    0.0753   -0.0408    0.3198
          27    0.0615    0.0144    0.0272   -0.1364   -0.1153   -0.0361    0.0105   -0.1414
          28    0.0913   -0.2786    0.1471    0.1647   -0.2679    0.0256    0.0060    0.1116
          29    0.0408    0.0287   -0.0528   -0.0724    0.1516   -0.0161   -0.0039   -0.0743
          30    0.1924   -0.1815    0.0873    0.1701   -0.2823    0.0270    0.0065    0.1169
          31    0.0871   -0.2804    0.1464    0.1672   -0.2705    0.0263    0.0063    0.1156
          32    0.1516   -0.1736    0.1002    0.1836   -0.3185    0.0312    0.0076    0.1374
          33    0.1215   -0.0568   -0.0078    0.0120    0.0084   -0.0023   -0.0006   -0.0139
          34    0.0151    0.0181    0.0358   -0.1350   -0.0321   -0.3675    0.4578    0.2568
          35   -0.0059   -0.0148   -0.0526    0.2425    0.0945   -0.0373    0.4658   -0.2220
          36    0.0151    0.0078    0.0271   -0.1211   -0.0416   -0.0529   -0.1300    0.1468
          37    0.0594    0.0227    0.0565   -0.2360   -0.0630    0.4377    0.1675    0.1706
          38   -0.0468   -0.0177   -0.0420    0.1758    0.0655    0.0139    0.2967   -0.1721
          39   -0.0198   -0.0062   -0.0209    0.0959    0.0488    0.2494    0.5039   -0.1423
          40    0.0907    0.0267    0.0566   -0.1003    0.0172   -0.1891    0.1029    0.1313
          41   -0.1542   -0.0493   -0.1248    0.3093   -0.0048   -0.2458   -0.2992   -0.2803
          42   -0.0248   -0.0110   -0.0101    0.0093   -0.0020    0.6477   -0.1152   -0.1761
          43    0.4209    0.2914    0.0356    0.1484   -0.0304    0.0147   -0.0074   -0.0311
          44    0.0142   -0.0176    0.0193   -0.0226    0.0201   -0.0035    0.0021    0.0001
[...]
 FREQ.      1166.52         C  1 -- C  6         +24.2% ( 63.7%)     49.4%
 T-DIPOLE    0.0278         C  1 -- H  9         +19.0% ( 56.4%)     30.3%
 TRAVEL      0.1009         C  6 -- H 15         +16.0% ( 51.8%)     34.9%
 RED. MASS   0.8389         C  1 -- C  3         +13.8% ( 48.1%)     27.8%
 EFF. MASS   5.6734

 VIBRATION   25   25A         ATOM PAIR      ENERGY CONTRIBUTION    RADIAL
 FREQ.      1218.43         C  6 -- H 15         +21.3% ( 63.6%)      0.0%
 T-DIPOLE    0.1063         C  2 -- C  4         +11.1% ( 45.9%)     91.7%
 TRAVEL      0.1087         C  1 -- C  6         +10.4% ( 44.4%)     25.0%
 RED. MASS   0.5134         C  1 -- H  9         +10.3% ( 44.1%)      0.2%
 EFF. MASS   4.6839

 VIBRATION   26   26A         ATOM PAIR      ENERGY CONTRIBUTION    RADIAL
 FREQ.      1242.80         C  2 -- C  4         +20.3% ( 64.1%)     40.8%
 T-DIPOLE    0.1299         C  2 -- C  5         +19.7% ( 63.1%)     51.1%
 TRAVEL      0.0805         C  4 -- C  5         +13.7% ( 52.7%)    100.0%
 RED. MASS   1.5239         C  2 -- H 11         +12.5% ( 50.3%)     90.1%
 EFF. MASS   8.3657         C  2 -- H 10         +12.5% ( 50.3%)     89.5%

 VIBRATION   27   27A         ATOM PAIR      ENERGY CONTRIBUTION    RADIAL
 FREQ.      1312.15         C  7 -- H 16         +28.2% ( 60.2%)      2.2%
 T-DIPOLE    0.0836         C  7 -- H 17         +27.6% ( 59.6%)      2.5%
 TRAVEL      0.1300         C  2 -- C  5          +7.5% ( 31.0%)     74.6%
 RED. MASS   0.3788         C  4 -- C  5          +6.3% ( 28.3%)     38.0%
 EFF. MASS   3.0391

 VIBRATION   28   28A         ATOM PAIR      ENERGY CONTRIBUTION    RADIAL
 FREQ.      1363.00         C  1 -- H  9         +13.9% ( 42.0%)      1.6%
 T-DIPOLE    0.1103         C  1 -- H  8         +13.7% ( 41.6%)      1.2%
 TRAVEL      0.1236         C  1 -- C  6         +11.0% ( 37.2%)     66.3%
 RED. MASS   0.2551         C  3 -- H 14          +9.5% ( 34.6%)      0.6%
 EFF. MASS   3.2398

 VIBRATION   29   29A         ATOM PAIR      ENERGY CONTRIBUTION    RADIAL
 FREQ.      1393.85         C  2 -- H 11         +17.0% ( 50.6%)      5.3%
 T-DIPOLE    0.0991         C  2 -- H 10         +17.0% ( 50.5%)      5.3%
 TRAVEL      0.1043         C  1 -- H  9         +12.2% ( 42.8%)      4.5%
 RED. MASS   0.5278         C  1 -- H  8         +12.2% ( 42.7%)      3.9%
 EFF. MASS   4.4503         C  2 -- C  5         +10.4% ( 39.5%)     73.9%

 VIBRATION   30   30A         ATOM PAIR      ENERGY CONTRIBUTION    RADIAL
 FREQ.      1406.91         C  3 -- H 14         +50.3% ( 62.3%)      0.2%
 T-DIPOLE    0.0436         C  3 -- H 13         +25.2% ( 44.1%)      8.9%
 TRAVEL      0.1703         C  3 -- H 12         +14.8% ( 33.8%)     14.0%
 RED. MASS   0.4051         C  1 -- C  3          +5.7% ( 20.9%)     23.1%
 EFF. MASS   1.6529

 VIBRATION   31   31A         ATOM PAIR      ENERGY CONTRIBUTION    RADIAL
 FREQ.      1411.07         C  3 -- H 12         +44.5% ( 57.9%)      0.8%
 T-DIPOLE    0.0599         C  3 -- H 13         +37.4% ( 53.1%)      1.9%
 TRAVEL      0.1735         C  3 -- H 14         +12.0% ( 30.1%)     38.3%
 RED. MASS   0.4018         C  1 -- C  3          +5.4% ( 20.2%)      2.8%
 EFF. MASS   1.5870

 VIBRATION   32   32A         ATOM PAIR      ENERGY CONTRIBUTION    RADIAL
 FREQ.      1414.79         C  3 -- H 12         +14.2% ( 45.0%)      5.3%
 T-DIPOLE    0.0618         C  3 -- H 14         +13.9% ( 44.6%)      2.3%
 TRAVEL      0.1051         C  1 -- C  3         +13.4% ( 43.8%)     87.0%
 RED. MASS   0.4828         C  3 -- H 13         +11.4% ( 40.4%)      2.3%
 EFF. MASS   4.3134         C  1 -- H  9         +10.6% ( 38.8%)      6.0%
                            C  1 -- H  8         +10.1% ( 38.0%)      6.7%

 VIBRATION   33   33A         ATOM PAIR      ENERGY CONTRIBUTION    RADIAL
 FREQ.      1442.92         C  1 -- C  6         +18.5% ( 66.3%)     86.7%
 T-DIPOLE    0.0574         C  1 -- C  3         +12.2% ( 54.0%)     72.3%
 TRAVEL      0.0725         C  1 -- H  9          +9.9% ( 48.6%)      0.2%
 RED. MASS   1.6442         C  1 -- H  8          +9.0% ( 46.2%)      0.5%
 EFF. MASS   8.8958

 VIBRATION   34   34A         ATOM PAIR      ENERGY CONTRIBUTION    RADIAL
 FREQ.      1946.86         C  5 -- C  7         +23.3% ( 74.0%)     99.7%
 T-DIPOLE    0.6332         C  4 -- C  6         +21.9% ( 71.7%)     98.0%
 TRAVEL      0.0539         C  4 -- C  5         +14.6% ( 58.6%)      0.7%
 RED. MASS   2.8674         C  2 -- C  5         +10.8% ( 50.4%)     75.1%
 EFF. MASS  11.9141

 VIBRATION   35   35A         ATOM PAIR      ENERGY CONTRIBUTION    RADIAL
 FREQ.      2189.24         C  4 -- C  5         +27.6% ( 77.5%)    100.0%
 T-DIPOLE    0.7938         C  4 -- C  6         +19.5% ( 65.1%)    100.0%
 TRAVEL      0.0509         C  5 -- C  7         +17.6% ( 61.9%)     99.7%
 RED. MASS   3.6340         C  2 -- C  4         +13.3% ( 53.9%)     87.3%
 EFF. MASS  11.9110         C  2 -- C  5         +12.7% ( 52.6%)     87.4%

 VIBRATION   36   36A         ATOM PAIR      ENERGY CONTRIBUTION    RADIAL
 FREQ.      2946.08         C  1 -- H  8         +54.8% ( 76.9%)     97.1%
 T-DIPOLE    0.0305         C  1 -- H  9         +42.5% ( 67.7%)     95.7%
 TRAVEL      0.1218         C  1 -- C  3          +1.2% ( 11.1%)      0.1%
 RED. MASS   0.5220         C  1 -- C  6          +1.1% ( 11.1%)      0.1%
 EFF. MASS   1.5425

 VIBRATION   37   37A         ATOM PAIR      ENERGY CONTRIBUTION    RADIAL
 FREQ.      3025.08         C  1 -- H  9         +54.5% ( 72.9%)     98.3%
 T-DIPOLE    0.0584         C  1 -- H  8         +42.1% ( 64.0%)     96.8%
 TRAVEL      0.1318         C  6 -- H 15          +1.5% ( 12.0%)     99.8%
 RED. MASS   0.4725         C  1 -- C  6          +0.7% (  8.1%)     29.1%
 EFF. MASS   1.2836

 VIBRATION   38   38A         ATOM PAIR      ENERGY CONTRIBUTION    RADIAL
 FREQ.      3043.06         C  6 -- H 15         +95.6% ( 99.1%)    100.0%
 T-DIPOLE    0.2960         C  4 -- C  6          +1.5% ( 12.5%)     39.8%
 TRAVEL      0.1210         C  1 -- C  6          +1.3% ( 11.6%)     14.4%
 RED. MASS   0.8993         C  1 -- H  9          +1.2% ( 11.2%)     99.5%
 EFF. MASS   1.5135

 VIBRATION   39   39A         ATOM PAIR      ENERGY CONTRIBUTION    RADIAL
 FREQ.      3063.87         C  2 -- H 11         +49.2% ( 72.4%)     97.3%
 T-DIPOLE    0.1450         C  2 -- H 10         +48.7% ( 72.0%)     97.2%
 TRAVEL      0.1197         C  2 -- C  4          +1.0% ( 10.6%)      0.0%
 RED. MASS   0.5187         C  2 -- C  5          +1.0% ( 10.6%)      0.0%
 EFF. MASS   1.5364

 VIBRATION   40   40A         ATOM PAIR      ENERGY CONTRIBUTION    RADIAL
 FREQ.      3081.34         C  3 -- H 12         +64.6% ( 82.9%)     98.7%
 T-DIPOLE    0.0102         C  3 -- H 13         +27.5% ( 54.1%)     91.8%
 TRAVEL      0.1207         C  3 -- H 14          +6.7% ( 26.6%)     63.6%
 RED. MASS   0.5245         C  1 -- C  3          +1.0% ( 10.2%)      0.0%
 EFF. MASS   1.5014

 VIBRATION   41   41A         ATOM PAIR      ENERGY CONTRIBUTION    RADIAL
 FREQ.      3086.21         C  3 -- H 14         +57.7% ( 78.4%)     98.2%
 T-DIPOLE    0.0153         C  3 -- H 13         +37.3% ( 63.0%)     94.8%
 TRAVEL      0.1205         C  3 -- H 12          +3.6% ( 19.5%)     42.7%
 RED. MASS   0.5019         C  1 -- C  3          +1.0% ( 10.3%)      0.0%
 EFF. MASS   1.5044

 VIBRATION   42   42A         ATOM PAIR      ENERGY CONTRIBUTION    RADIAL
 FREQ.      3105.61         C  2 -- H 10         +49.3% ( 69.9%)     96.4%
 T-DIPOLE    0.2358         C  2 -- H 11         +48.8% ( 69.5%)     96.3%
 TRAVEL      0.1287         C  2 -- C  5          +0.9% (  9.6%)     79.5%
 RED. MASS   0.4845         C  2 -- C  4          +0.9% (  9.6%)     79.2%
 EFF. MASS   1.3111

 VIBRATION   43   43A         ATOM PAIR      ENERGY CONTRIBUTION    RADIAL
 FREQ.      3130.83         C  7 -- H 16         +65.7% ( 81.2%)     97.5%
 T-DIPOLE    0.2975         C  7 -- H 17         +32.6% ( 57.2%)     90.3%
 TRAVEL      0.1237         C  5 -- C  7          +1.7% ( 12.9%)     96.1%
 RED. MASS   0.5347
 EFF. MASS   1.4085

 VIBRATION   44   44A         ATOM PAIR      ENERGY CONTRIBUTION    RADIAL
 FREQ.      3140.93         C  7 -- H 17         +65.2% ( 82.6%)     98.5%
 T-DIPOLE    0.2084         C  7 -- H 16         +33.5% ( 59.2%)     94.4%
 TRAVEL      0.1159         C  5 -- C  7          +1.3% ( 11.5%)      2.4%
 RED. MASS   0.5812
 EFF. MASS   1.5986

 VIBRATION   45   45A         ATOM PAIR      ENERGY CONTRIBUTION    RADIAL
 FREQ.      3183.06         C  3 -- H 14         +34.7% ( 56.7%)     97.3%
 T-DIPOLE    0.0267         C  3 -- H 13         +34.4% ( 56.4%)     97.3%
 TRAVEL      0.1366         C  3 -- H 12         +30.6% ( 53.2%)     96.7%
 RED. MASS   0.3279         C  1 -- C  3          +0.3% (  5.1%)     99.7%
 EFF. MASS   1.1361

      SYMMETRY NUMBER FOR POINT-GROUP C1  =  1


          SYSTEM IS A GROUND STATE



 InChI=1S/C7H10/c1-3-4-7-5-6(7)2/h4H,2-3,5H2,1H3


          MOLECULE IS NOT LINEAR

          THERE ARE 45 GENUINE VIBRATIONS IN THIS SYSTEM
          THIS THERMODYNAMICS CALCULATION IS LIMITED TO
          MOLECULES WHICH HAVE NO INTERNAL ROTATIONS




                    CALCULATED THERMODYNAMIC PROPERTIES
                                          *
   TEMP. (K)   PARTITION FUNCTION   H.O.F.    ENTHALPY  HEAT CAPACITY ENTROPY
                                   KCAL/MOL   CAL/MOLE    CAL/K/MOL  CAL/K/MOL


 298.00  VIB.     0.7169D+02                  3132.9319    22.4039    19.0032
         ROT.     0.2811D+06                   888.2813     2.9808    27.9132
         INT.     0.2015D+08                  4021.2132    25.3847    46.9164
         TRA.     0.8833D+27                  1480.4688     4.9680    39.5363
         TOT.                       57.976    5501.6821    30.3527    86.4526

 200.00  VIB.     0.1305D+02                  1353.8191    14.1245    11.8733
         ROT.     0.1546D+06                   596.1620     2.9808    26.7245
         INT.     0.2016D+07                  1949.9811    17.1053    38.5978
         TRA.     0.4856D+27                   993.6033     4.9680    37.5551
         TOT.                       55.418    2943.5843    22.0733    76.1529

 210.00  VIB.     0.1547D+02                  1498.9237    14.8996    12.5811
         ROT.     0.1663D+06                   625.9700     2.9808    26.8699
         INT.     0.2573D+07                  2124.8937    17.8804    39.4510
         TRA.     0.5225D+27                  1043.2834     4.9680    37.7975
         TOT.                       55.643    3168.1771    22.8484    77.2486

 220.00  VIB.     0.1837D+02                  1651.8747    15.6937    13.2925
         ROT.     0.1783D+06                   655.7781     2.9808    27.0086
         INT.     0.3275D+07                  2307.6528    18.6746    40.3011
         TRA.     0.5603D+27                  1092.9636     4.9680    38.0286
         TOT.                       55.875    3400.6164    23.6426    78.3297

 230.00  VIB.     0.2182D+02                  1812.8606    16.5065    14.0080
         ROT.     0.1906D+06                   685.5862     2.9808    27.1411
         INT.     0.4158D+07                  2498.4468    19.4873    41.1491
         TRA.     0.5989D+27                  1142.6437     4.9680    38.2495
         TOT.                       56.115    3641.0906    24.4553    79.3986

 240.00  VIB.     0.2593D+02                  1982.0629    17.3368    14.7280
         ROT.     0.2032D+06                   715.3943     2.9808    27.2680
         INT.     0.5269D+07                  2697.4572    20.3176    41.9959
         TRA.     0.6384D+27                  1192.3239     4.9680    38.4609
         TOT.                       56.364    3889.7811    25.2856    80.4568

 250.00  VIB.     0.3085D+02                  2159.6502    18.1832    15.4528
         ROT.     0.2160D+06                   745.2024     2.9808    27.3897
         INT.     0.6663D+07                  2904.8527    21.1640    42.8424
         TRA.     0.6787D+27                  1242.0041     4.9680    38.6637
         TOT.                       56.621    4146.8567    26.1320    81.5062

 260.00  VIB.     0.3672D+02                  2345.7742    19.0438    16.1827
         ROT.     0.2291D+06                   775.0105     2.9808    27.5066
         INT.     0.8411D+07                  3120.7847    22.0246    43.6892
         TRA.     0.7198D+27                  1291.6842     4.9680    38.8586
         TOT.                       56.887    4412.4690    26.9926    82.5478

 270.00  VIB.     0.4374D+02                  2540.5659    19.9164    16.9177
         ROT.     0.2424D+06                   804.8186     2.9808    27.6191
         INT.     0.1060D+08                  3345.3846    22.8972    44.5368
         TRA.     0.7618D+27                  1341.3644     4.9680    39.0461
         TOT.                       57.161    4686.7490    27.8652    83.5828

 280.00  VIB.     0.5214D+02                  2744.1343    20.7987    17.6579
         ROT.     0.2560D+06                   834.6267     2.9808    27.7275
         INT.     0.1335D+08                  3578.7610    23.7795    45.3854
         TRA.     0.8045D+27                  1391.0445     4.9680    39.2267
         TOT.                       57.444    4969.8056    28.7475    84.6122

 290.00  VIB.     0.6221D+02                  2956.5647    21.6884    18.4033
         ROT.     0.2699D+06                   864.4348     2.9808    27.8321
         INT.     0.1679D+08                  3820.9995    24.6692    46.2354
         TRA.     0.8479D+27                  1440.7247     4.9680    39.4011
         TOT.                       57.736    5261.7242    29.6372    85.6365

 300.00  VIB.     0.7428D+02                  3177.9189    22.5831    19.1536
         ROT.     0.2839D+06                   894.2429     2.9808    27.9331
         INT.     0.2109D+08                  4072.1618    25.5639    47.0868
         TRA.     0.8922D+27                  1490.4049     4.9680    39.5695
         TOT.                       58.037    5562.5667    30.5319    86.6563

 310.00  VIB.     0.8876D+02                  3408.2353    23.4805    19.9088
         ROT.     0.2982D+06                   924.0510     2.9808    28.0309
         INT.     0.2647D+08                  4332.2863    26.4613    47.9396
         TRA.     0.9372D+27                  1540.0850     4.9680    39.7324
         TOT.                       58.347    5872.3714    31.4293    87.6720

 320.00  VIB.     0.1061D+03                  3647.5301    24.3784    20.6684
         ROT.     0.3128D+06                   953.8591     2.9808    28.1255
         INT.     0.3320D+08                  4601.3892    27.3592    48.7939
         TRA.     0.9829D+27                  1589.7652     4.9680    39.8901
         TOT.                       58.666    6191.1544    32.3272    88.6841

 330.00  VIB.     0.1270D+03                  3895.7983    25.2748    21.4323
         ROT.     0.3276D+06                   983.6672     2.9808    28.2172
         INT.     0.4161D+08                  4879.4655    28.2556    49.6495
         TRA.     0.1029D+28                  1639.4454     4.9680    40.0430
         TOT.                       58.993    6518.9108    33.2236    89.6925

 340.00  VIB.     0.1521D+03                  4153.0150    26.1678    22.2001
         ROT.     0.3426D+06                  1013.4753     2.9808    28.3062
         INT.     0.5212D+08                  5166.4904    29.1486    50.5063
         TRA.     0.1076D+28                  1689.1255     4.9680    40.1913
         TOT.                       59.330    6855.6159    34.1167    90.6976

 350.00  VIB.     0.1824D+03                  4419.1379    27.0558    22.9715
         ROT.     0.3578D+06                  1043.2834     2.9808    28.3926
         INT.     0.6525D+08                  5462.4213    30.0366    51.3641
         TRA.     0.1124D+28                  1738.8057     4.9680    40.3353
         TOT.                       59.676    7201.2270    35.0046    91.6994

 360.00  VIB.     0.2187D+03                  4694.1081    27.9371    23.7460
         ROT.     0.3732D+06                  1073.0915     2.9808    28.4766
         INT.     0.8164D+08                  5767.1996    30.9179    52.2226
         TRA.     0.1173D+28                  1788.4859     4.9680    40.4753
         TOT.                       60.030    7555.6854    35.8859    92.6979

 370.00  VIB.     0.2626D+03                  4977.8524    28.8104    24.5234
         ROT.     0.3889D+06                  1102.8996     2.9808    28.5583
         INT.     0.1021D+09                  6080.7521    31.7912    53.0817
         TRA.     0.1222D+28                  1838.1660     4.9680    40.6114
         TOT.                       60.393    7918.9181    36.7592    93.6931

 380.00  VIB.     0.3154D+03                  5270.2854    29.6746    25.3032
         ROT.     0.4048D+06                  1132.7077     2.9808    28.6378
         INT.     0.1277D+09                  6402.9931    32.6554    53.9410
         TRA.     0.1272D+28                  1887.8462     4.9680    40.7439
         TOT.                       60.765    8290.8392    37.6234    94.6849

 390.00  VIB.     0.3791D+03                  5571.3103    30.5286    26.0851
         ROT.     0.4208D+06                  1162.5158     2.9808    28.7152
         INT.     0.1595D+09                  6733.8261    33.5094    54.8003
         TRA.     0.1322D+28                  1937.5263     4.9680    40.8729
         TOT.                       61.146    8671.3524    38.4775    95.6732

 400.00  VIB.     0.4560D+03                  5880.8213    31.3717    26.8687
         ROT.     0.4371D+06                  1192.3239     2.9808    28.7906
         INT.     0.1993D+09                  7073.1452    34.3525    55.6593
         TRA.     0.1374D+28                  1987.2065     4.9680    40.9987
         TOT.                       61.535    9060.3517    39.3205    96.6580

   *: NOTE: HEATS OF FORMATION ARE RELATIVE TO THE
            ELEMENTS IN THEIR STANDARD STATE AT 298K
              (=  Standard Enthalpy of Formation).

            Hvib:  Zero-point energy is not included.
                   frequencies of less than zero cm-1 are not included.
            Hrot = (3/2)RT
            Htra = (3/2)RT + pV = (5/2)RT

            Heat capacity is Cp, not Cv

          For more information, see: HTTP://OpenMOPAC.net/Manual/thermochemistry.html


           FORCE CONSTANT IN CARTESIAN COORDINATES (Millidynes/A)

    ATOM   CHEMICAL       X               Y               Z
   NUMBER   SYMBOL  FORCE CONSTANT  FORCE CONSTANT  FORCE CONSTANT

      1       C        8.837614        8.215186        8.350333
      2       C       10.620482        7.593997        7.004193
      3       C        8.412788        8.213965        8.232691
      4       C       17.094452        4.196501        7.625917
      5       C        5.201666        7.443338       16.117493
      6       C       14.066135        4.822586        8.320966
      7       C        8.838698        5.753294       11.902646
      8       H        1.271348        2.930200        2.063138
      9       H        0.774483        1.208954        4.401208
     10       H        1.817860        3.902493        0.759811
     11       H        1.782762        2.039459        2.658006
     12       H        0.763242        1.292284        4.728548
     13       H        1.325860        3.208047        2.251098
     14       H        4.465556        1.070071        1.260062
     15       H        0.732096        1.694662        3.744478
     16       H        4.143356        0.756147        1.472520
     17       H        3.997588        0.814514        1.574260

 **********************
 *                    *
 * JOB ENDED NORMALLY *
 *                    *
 **********************



 TOTAL JOB TIME:             6.79 SECONDS

 == MOPAC DONE ==
