 *******************************************************************************
 ** Site#: 14399        For non-commercial use only    Version 18.184L 64BITS **
 *******************************************************************************
 ** Cite this program as: MOPAC2016, Version: 18.184L, James J. P. Stewart,   **
 ** Stewart Computational Chemistry, web: HTTP://OpenMOPAC.net. Days left:  20**
 *******************************************************************************
 **                                                                           **
 **                                MOPAC2016                                  **
 **                                                                           **
 *******************************************************************************

                              PM3 CALCULATION RESULTS

 *******************************************************************************
 *  CALCULATION DONE:                                Thu Jun 13 15:52:42 2019  *
 *  PM3        - The PM3 Hamiltonian to be used
 *  PRECISE    - CRITERIA TO BE INCREASED BY 100 TIMES
 *  NOSYM      - POINT-GROUP SYMMETRY SET TO C1
 *  THREADS=1  - MULTI-THREADING NOT USED
 *  T=         - A TIME OF 172800.0 SECONDS REQUESTED
 *  DUMP=N     - RESTART FILE WRITTEN EVERY  7200.000 SECONDS
 *******************************************************************************
pm3  precise nosym THREADS=1
 InChI=1S/C10H10/c1-8-6-7-9-4-2-3-5-10(8)9/h2-7,9H,1H3

   ATOM   CHEMICAL          X               Y               Z
  NUMBER   SYMBOL      (ANGSTROMS)     (ANGSTROMS)     (ANGSTROMS)
 
     1       C         -0.54870000  *  -0.93540000  *   0.82660000  *
     2       C          2.37060000  *   0.90990000  *  -0.70180000  *
     3       C          0.22440000  *   0.28970000  *   0.45710000  *
     4       C          1.39820000  *  -0.03710000  *  -0.07090000  *
     5       C          0.34360000  *  -2.01160000  *   0.29800000  *
     6       C         -1.91960000  *  -0.90010000  *   0.19800000  *
     7       C          1.47520000  *  -1.48920000  *  -0.15570000  *
     8       C         -0.46120000  *   1.57850000  *   0.28780000  *
     9       C         -2.51160000  *   0.27410000  *  -0.08440000  *
    10       C         -1.77810000  *   1.56090000  *   0.04510000  *
    11       H         -0.64070000  *  -1.02320000  *   1.93020000  *
    12       H          2.73790000  *   1.62930000  *   0.05960000  *
    13       H          1.87670000  *   1.46610000  *  -1.52610000  *
    14       H          3.23730000  *   0.35300000  *  -1.11570000  *
    15       H         -2.48220000  *  -1.81970000  *   0.09500000  *
    16       H          0.13290000  *  -3.07250000  *   0.33250000  *
    17       H         -3.53370000  *   0.28490000  *  -0.44030000  *
    18       H         -2.30300000  *   2.49070000  *  -0.13180000  *
    19       H          0.09010000  *   2.51020000  *   0.27630000  *
    20       H          2.29200000  *  -2.05870000  *  -0.57930000  *
 


          CARTESIAN COORDINATES 

    NO.       ATOM           X           Y           Z

     1         C         -0.5487     -0.9354      0.8266
     2         C          2.3706      0.9099     -0.7018
     3         C          0.2244      0.2897      0.4571
     4         C          1.3982     -0.0371     -0.0709
     5         C          0.3436     -2.0116      0.2980
     6         C         -1.9196     -0.9001      0.1980
     7         C          1.4752     -1.4892     -0.1557
     8         C         -0.4612      1.5785      0.2878
     9         C         -2.5116      0.2741     -0.0844
    10         C         -1.7781      1.5609      0.0451
    11         H         -0.6407     -1.0232      1.9302
    12         H          2.7379      1.6293      0.0596
    13         H          1.8767      1.4661     -1.5261
    14         H          3.2373      0.3530     -1.1157
    15         H         -2.4822     -1.8197      0.0950
    16         H          0.1329     -3.0725      0.3325
    17         H         -3.5337      0.2849     -0.4403
    18         H         -2.3030      2.4907     -0.1318
    19         H          0.0901      2.5102      0.2763
    20         H          2.2920     -2.0587     -0.5793

  H: (PM3): J. J. P. STEWART, J. COMP. CHEM. 10, 209 (1989).
  C: (PM3): J. J. P. STEWART, J. COMP. CHEM. 10, 209 (1989).

           Empirical Formula: C10 H10  =    20 atoms



      MOLECULAR POINT GROUP   :   C1  


      RHF CALCULATION, NO. OF DOUBLY OCCUPIED LEVELS = 25


          Geometry optimization using EF

          DIAGONAL MATRIX USED AS START HESSIAN

 CYCLE:     1 TIME:   0.027 TIME LEFT:  2.00D  GRAD.:   144.463 HEAT:  65.92851
 CYCLE:     2 TIME:   0.043 TIME LEFT:  2.00D  GRAD.:   159.379 HEAT:  65.40432
 CYCLE:     3 TIME:   0.023 TIME LEFT:  2.00D  GRAD.:    87.676 HEAT:  62.67748
 CYCLE:     4 TIME:   0.031 TIME LEFT:  2.00D  GRAD.:    83.214 HEAT:  61.87514
 CYCLE:     5 TIME:   0.027 TIME LEFT:  2.00D  GRAD.:    42.509 HEAT:  60.80924
 CYCLE:     6 TIME:   0.031 TIME LEFT:  2.00D  GRAD.:    24.297 HEAT:  60.47310
 CYCLE:     7 TIME:   0.020 TIME LEFT:  2.00D  GRAD.:    19.525 HEAT:  60.24625
 CYCLE:     8 TIME:   0.023 TIME LEFT:  2.00D  GRAD.:    29.053 HEAT:  60.04576
 CYCLE:     9 TIME:   0.023 TIME LEFT:  2.00D  GRAD.:    39.890 HEAT:  59.96251
 CYCLE:    10 TIME:   0.023 TIME LEFT:  2.00D  GRAD.:    39.646 HEAT:  59.90837
 CYCLE:    11 TIME:   0.020 TIME LEFT:  2.00D  GRAD.:    42.779 HEAT:  59.89829
 CYCLE:    12 TIME:   0.031 TIME LEFT:  2.00D  GRAD.:    20.268 HEAT:  59.50842
 CYCLE:    13 TIME:   0.031 TIME LEFT:  2.00D  GRAD.:    17.626 HEAT:  59.45004
 CYCLE:    14 TIME:   0.020 TIME LEFT:  2.00D  GRAD.:    13.503 HEAT:  59.40334
 CYCLE:    15 TIME:   0.023 TIME LEFT:  2.00D  GRAD.:    15.886 HEAT:  59.37440
 CYCLE:    16 TIME:   0.020 TIME LEFT:  2.00D  GRAD.:    11.164 HEAT:  59.31594
 CYCLE:    17 TIME:   0.027 TIME LEFT:  2.00D  GRAD.:    11.998 HEAT:  59.26367
 CYCLE:    18 TIME:   0.031 TIME LEFT:  2.00D  GRAD.:     7.495 HEAT:  59.16696
 CYCLE:    19 TIME:   0.023 TIME LEFT:  2.00D  GRAD.:     8.687 HEAT:  59.07330
 CYCLE:    20 TIME:   0.023 TIME LEFT:  2.00D  GRAD.:    12.964 HEAT:  58.98927
 CYCLE:    21 TIME:   0.023 TIME LEFT:  2.00D  GRAD.:    13.450 HEAT:  58.92480
 CYCLE:    22 TIME:   0.023 TIME LEFT:  2.00D  GRAD.:    10.794 HEAT:  58.87449
 CYCLE:    23 TIME:   0.020 TIME LEFT:  2.00D  GRAD.:    11.177 HEAT:  58.83944
 CYCLE:    24 TIME:   0.023 TIME LEFT:  2.00D  GRAD.:     8.461 HEAT:  58.78378
 CYCLE:    25 TIME:   0.023 TIME LEFT:  2.00D  GRAD.:    10.153 HEAT:  58.74390
 CYCLE:    26 TIME:   0.023 TIME LEFT:  2.00D  GRAD.:    11.459 HEAT:  58.70120
 CYCLE:    27 TIME:   0.035 TIME LEFT:  2.00D  GRAD.:     8.789 HEAT:  58.66492
 CYCLE:    28 TIME:   0.020 TIME LEFT:  2.00D  GRAD.:     4.341 HEAT:  58.63193
 CYCLE:    29 TIME:   0.023 TIME LEFT:  2.00D  GRAD.:     3.064 HEAT:  58.61475
 CYCLE:    30 TIME:   0.023 TIME LEFT:  2.00D  GRAD.:     3.017 HEAT:  58.59381
 CYCLE:    31 TIME:   0.023 TIME LEFT:  2.00D  GRAD.:     3.279 HEAT:  58.58283
 CYCLE:    32 TIME:   0.023 TIME LEFT:  2.00D  GRAD.:     3.717 HEAT:  58.57936
 CYCLE:    33 TIME:   0.023 TIME LEFT:  2.00D  GRAD.:     2.951 HEAT:  58.57289
 CYCLE:    34 TIME:   0.023 TIME LEFT:  2.00D  GRAD.:     2.264 HEAT:  58.56658
 CYCLE:    35 TIME:   0.023 TIME LEFT:  2.00D  GRAD.:     1.687 HEAT:  58.55982
 CYCLE:    36 TIME:   0.020 TIME LEFT:  2.00D  GRAD.:     2.123 HEAT:  58.55186
 CYCLE:    37 TIME:   0.023 TIME LEFT:  2.00D  GRAD.:     1.650 HEAT:  58.54761
 CYCLE:    38 TIME:   0.023 TIME LEFT:  2.00D  GRAD.:     1.955 HEAT:  58.54062
 CYCLE:    39 TIME:   0.023 TIME LEFT:  2.00D  GRAD.:     1.916 HEAT:  58.53431
 CYCLE:    40 TIME:   0.023 TIME LEFT:  2.00D  GRAD.:     1.573 HEAT:  58.53052
 CYCLE:    41 TIME:   0.023 TIME LEFT:  2.00D  GRAD.:     1.255 HEAT:  58.52688
 CYCLE:    42 TIME:   0.023 TIME LEFT:  2.00D  GRAD.:     1.134 HEAT:  58.52401
 CYCLE:    43 TIME:   0.020 TIME LEFT:  2.00D  GRAD.:     0.880 HEAT:  58.52191
 CYCLE:    44 TIME:   0.023 TIME LEFT:  2.00D  GRAD.:     0.612 HEAT:  58.52052
 CYCLE:    45 TIME:   0.023 TIME LEFT:  2.00D  GRAD.:     0.386 HEAT:  58.51987
 CYCLE:    46 TIME:   0.023 TIME LEFT:  2.00D  GRAD.:     0.307 HEAT:  58.51961
 CYCLE:    47 TIME:   0.023 TIME LEFT:  2.00D  GRAD.:     0.269 HEAT:  58.51942
 CYCLE:    48 TIME:   0.020 TIME LEFT:  2.00D  GRAD.:     0.249 HEAT:  58.51924
 CYCLE:    49 TIME:   0.027 TIME LEFT:  2.00D  GRAD.:     0.241 HEAT:  58.51908
 CYCLE:    50 TIME:   0.020 TIME LEFT:  2.00D  GRAD.:     0.234 HEAT:  58.51893
 CYCLE:    51 TIME:   0.023 TIME LEFT:  2.00D  GRAD.:     0.207 HEAT:  58.51881
 CYCLE:    52 TIME:   0.023 TIME LEFT:  2.00D  GRAD.:     0.159 HEAT:  58.51871
 CYCLE:    53 TIME:   0.023 TIME LEFT:  2.00D  GRAD.:     0.114 HEAT:  58.51866
 CYCLE:    54 TIME:   0.023 TIME LEFT:  2.00D  GRAD.:     0.098 HEAT:  58.51862
 CYCLE:    55 TIME:   0.020 TIME LEFT:  2.00D  GRAD.:     0.090 HEAT:  58.51860
 CYCLE:    56 TIME:   0.023 TIME LEFT:  2.00D  GRAD.:     0.081 HEAT:  58.51858
 CYCLE:    57 TIME:   0.023 TIME LEFT:  2.00D  GRAD.:     0.066 HEAT:  58.51857
 CYCLE:    58 TIME:   0.023 TIME LEFT:  2.00D  GRAD.:     0.064 HEAT:  58.51855
 CYCLE:    59 TIME:   0.023 TIME LEFT:  2.00D  GRAD.:     0.053 HEAT:  58.51854
 CYCLE:    60 TIME:   0.023 TIME LEFT:  2.00D  GRAD.:     0.082 HEAT:  58.51853
 CYCLE:    61 TIME:   0.023 TIME LEFT:  2.00D  GRAD.:     0.074 HEAT:  58.51852
 CYCLE:    62 TIME:   0.023 TIME LEFT:  2.00D  GRAD.:     0.122 HEAT:  58.51847
 CYCLE:    63 TIME:   0.020 TIME LEFT:  2.00D  GRAD.:     0.154 HEAT:  58.51844
 CYCLE:    64 TIME:   0.023 TIME LEFT:  2.00D  GRAD.:     0.180 HEAT:  58.51835
 CYCLE:    65 TIME:   0.023 TIME LEFT:  2.00D  GRAD.:     0.220 HEAT:  58.51824
 CYCLE:    66 TIME:   0.023 TIME LEFT:  2.00D  GRAD.:     0.473 HEAT:  58.51787
 CYCLE:    67 TIME:   0.023 TIME LEFT:  2.00D  GRAD.:     0.726 HEAT:  58.51736
 CYCLE:    68 TIME:   0.031 TIME LEFT:  2.00D  GRAD.:     2.751 HEAT:  58.51739
 CYCLE:    69 TIME:   0.023 TIME LEFT:  2.00D  GRAD.:     0.937 HEAT:  58.51516
 CYCLE:    70 TIME:   0.023 TIME LEFT:  2.00D  GRAD.:     0.819 HEAT:  58.51331
 CYCLE:    71 TIME:   0.023 TIME LEFT:  2.00D  GRAD.:     4.363 HEAT:  58.51369
 CYCLE:    72 TIME:   0.023 TIME LEFT:  2.00D  GRAD.:     0.988 HEAT:  58.50906
 CYCLE:    73 TIME:   0.023 TIME LEFT:  2.00D  GRAD.:     1.242 HEAT:  58.50601
 CYCLE:    74 TIME:   0.023 TIME LEFT:  2.00D  GRAD.:     7.457 HEAT:  58.50855
 CYCLE:    75 TIME:   0.023 TIME LEFT:  2.00D  GRAD.:     0.993 HEAT:  58.49556
 CYCLE:    76 TIME:   0.020 TIME LEFT:  2.00D  GRAD.:     1.282 HEAT:  58.48772
 CYCLE:    77 TIME:   0.027 TIME LEFT:  2.00D  GRAD.:     7.606 HEAT:  58.47875
 CYCLE:    78 TIME:   0.020 TIME LEFT:  2.00D  GRAD.:     1.074 HEAT:  58.46390
 CYCLE:    79 TIME:   0.023 TIME LEFT:  2.00D  GRAD.:     1.632 HEAT:  58.45242
 CYCLE:    80 TIME:   0.031 TIME LEFT:  2.00D  GRAD.:     3.317 HEAT:  58.43911
 CYCLE:    81 TIME:   0.027 TIME LEFT:  2.00D  GRAD.:     7.158 HEAT:  58.44304
 CYCLE:    82 TIME:   0.051 TIME LEFT:  2.00D  GRAD.:     6.547 HEAT:  58.43502
 CYCLE:    83 TIME:   0.023 TIME LEFT:  2.00D  GRAD.:     2.467 HEAT:  58.41752
 CYCLE:    84 TIME:   0.020 TIME LEFT:  2.00D  GRAD.:     1.261 HEAT:  58.40661
 CYCLE:    85 TIME:   0.023 TIME LEFT:  2.00D  GRAD.:     1.430 HEAT:  58.39726
 CYCLE:    86 TIME:   0.023 TIME LEFT:  2.00D  GRAD.:     3.912 HEAT:  58.37738
 CYCLE:    87 TIME:   0.023 TIME LEFT:  2.00D  GRAD.:     4.004 HEAT:  58.36469
 CYCLE:    88 TIME:   0.023 TIME LEFT:  2.00D  GRAD.:     2.207 HEAT:  58.33338
 CYCLE:    89 TIME:   0.023 TIME LEFT:  2.00D  GRAD.:     6.288 HEAT:  58.32102
 CYCLE:    90 TIME:   0.023 TIME LEFT:  2.00D  GRAD.:     6.825 HEAT:  58.30926
 CYCLE:    91 TIME:   0.020 TIME LEFT:  2.00D  GRAD.:     3.007 HEAT:  58.27143
 CYCLE:    92 TIME:   0.023 TIME LEFT:  2.00D  GRAD.:     2.930 HEAT:  58.26151
 CYCLE:    93 TIME:   0.023 TIME LEFT:  2.00D  GRAD.:     5.009 HEAT:  58.25081
 CYCLE:    94 TIME:   0.035 TIME LEFT:  2.00D  GRAD.:     1.608 HEAT:  58.24001
 CYCLE:    95 TIME:   0.027 TIME LEFT:  2.00D  GRAD.:     1.702 HEAT:  58.23629
 CYCLE:    96 TIME:   0.023 TIME LEFT:  2.00D  GRAD.:     2.041 HEAT:  58.22688
 CYCLE:    97 TIME:   0.023 TIME LEFT:  2.00D  GRAD.:     4.548 HEAT:  58.22305
 CYCLE:    98 TIME:   0.023 TIME LEFT:  2.00D  GRAD.:     1.348 HEAT:  58.21507
 CYCLE:    99 TIME:   0.023 TIME LEFT:  2.00D  GRAD.:     0.860 HEAT:  58.20862
 CYCLE:   100 TIME:   0.023 TIME LEFT:  2.00D  GRAD.:     2.317 HEAT:  58.20062
 CYCLE:   101 TIME:   0.020 TIME LEFT:  2.00D  GRAD.:     1.383 HEAT:  58.19590
 CYCLE:   102 TIME:   0.023 TIME LEFT:  2.00D  GRAD.:     2.532 HEAT:  58.19246
 CYCLE:   103 TIME:   0.023 TIME LEFT:  2.00D  GRAD.:     2.495 HEAT:  58.19278
 CYCLE:   104 TIME:   0.023 TIME LEFT:  2.00D  GRAD.:     0.699 HEAT:  58.18809
 CYCLE:   105 TIME:   0.023 TIME LEFT:  2.00D  GRAD.:     0.837 HEAT:  58.18702
 CYCLE:   106 TIME:   0.023 TIME LEFT:  2.00D  GRAD.:     1.492 HEAT:  58.18564
 CYCLE:   107 TIME:   0.020 TIME LEFT:  2.00D  GRAD.:     0.511 HEAT:  58.18478
 CYCLE:   108 TIME:   0.023 TIME LEFT:  2.00D  GRAD.:     0.398 HEAT:  58.18411
 CYCLE:   109 TIME:   0.023 TIME LEFT:  2.00D  GRAD.:     1.311 HEAT:  58.18332
 CYCLE:   110 TIME:   0.023 TIME LEFT:  2.00D  GRAD.:     0.345 HEAT:  58.18269
 CYCLE:   111 TIME:   0.023 TIME LEFT:  2.00D  GRAD.:     0.199 HEAT:  58.18237
 CYCLE:   112 TIME:   0.023 TIME LEFT:  2.00D  GRAD.:     0.284 HEAT:  58.18214
 CYCLE:   113 TIME:   0.023 TIME LEFT:  2.00D  GRAD.:     0.227 HEAT:  58.18204
 CYCLE:   114 TIME:   0.020 TIME LEFT:  2.00D  GRAD.:     0.091 HEAT:  58.18200
 CYCLE:   115 TIME:   0.023 TIME LEFT:  2.00D  GRAD.:     0.070 HEAT:  58.18197
 CYCLE:   116 TIME:   0.023 TIME LEFT:  2.00D  GRAD.:     0.040 HEAT:  58.18195

     GRADIENT =  0.04033  IS LESS THAN CUTOFF =  0.05000



 -------------------------------------------------------------------------------
 pm3  precise nosym THREADS=1
 InChI=1S/C10H10/c1-8-6-7-9-4-2-3-5-10(8)9/h2-7,9H,1H3



     GEOMETRY OPTIMISED USING EIGENVECTOR FOLLOWING (EF).     
     SCF FIELD WAS ACHIEVED                                   


                              PM3 CALCULATION
                                                       MOPAC2016 (Version: 18.184L)
                                                       Thu Jun 13 15:52:45 2019
                                                       No. of days remaining =  20




          FINAL HEAT OF FORMATION =         58.18195 KCAL/MOL =     243.43329 KJ/MOL


          TOTAL ENERGY            =      -1337.20793 EV
          ELECTRONIC ENERGY       =      -7084.90111 EV  POINT GROUP:     C1  
          CORE-CORE REPULSION     =       5747.69318 EV
          COSMO AREA              =        172.80 SQUARE ANGSTROMS
          COSMO VOLUME            =        174.15 CUBIC ANGSTROMS

          GRADIENT NORM           =          0.04033 = 0.00902 PER ATOM
          IONIZATION POTENTIAL    =          8.381494 EV
          HOMO LUMO ENERGIES (EV) =         -8.381 -0.418
          NO. OF FILLED LEVELS    =         25
          MOLECULAR WEIGHT        =        130.1890

          MOLECULAR DIMENSIONS (Angstroms)

            Atom       Atom       Distance
            H    17    H    14     7.06912
            H    18    H    16     5.65230
            H    11    H    13     3.58951


          SCF CALCULATIONS        =        131
 
          WALL-CLOCK TIME         =          2.855 SECONDS
          COMPUTATION TIME        =          1.123 SECONDS




   ATOM   CHEMICAL          X               Y               Z
  NUMBER   SYMBOL      (ANGSTROMS)     (ANGSTROMS)     (ANGSTROMS)
 
     1       C         -0.56044299  *  -0.91880336  *   0.71223947  *
     2       C          2.50136919  *   0.85202319  *  -0.65695030  *
     3       C          0.19262263  *   0.32587262  *   0.29590024  *
     4       C          1.41929071  *  -0.02267881  *  -0.18055397  *
     5       C          0.34785319  *  -2.02308697  *   0.24336918  *
     6       C         -1.96875844  *  -0.88592544  *   0.24285808  *
     7       C          1.50541691  *  -1.48839979  *  -0.20841240  *
     8       C         -0.51671061  *   1.58139206  *   0.28756692  *
     9       C         -2.57232373  *   0.29397993  *   0.02293190  *
    10       C         -1.85828995  *   1.55299684  *   0.15659886  *
    11       H         -0.58650764  *  -0.97410138  *   1.83170859  *
    12       H          2.26361972  *   1.91382134  *  -0.51082470  *
    13       H          2.68649176  *   0.69291298  *  -1.72791906  *
    14       H          3.43688523  *   0.63800976  *  -0.12286784  *
    15       H         -2.48632603  *  -1.84281608  *   0.12747402  *
    16       H          0.08054213  *  -3.07451480  *   0.32097644  *
    17       H         -3.62443687  *   0.34359888  *  -0.27598272  *
    18       H         -2.44644976  *   2.47536555  *   0.12208574  *
    19       H          0.05422477  *   2.51386958  *   0.33960722  *
    20       H          2.38403756  *  -2.02156571  *  -0.56780498  *

                             CARTESIAN COORDINATES

   1    C       -0.560442987    -0.918803361     0.712239473
   2    C        2.501369192     0.852023185    -0.656950302
   3    C        0.192622634     0.325872617     0.295900236
   4    C        1.419290706    -0.022678812    -0.180553968
   5    C        0.347853192    -2.023086975     0.243369181
   6    C       -1.968758437    -0.885925442     0.242858085
   7    C        1.505416910    -1.488399794    -0.208412401
   8    C       -0.516710612     1.581392055     0.287566922
   9    C       -2.572323726     0.293979929     0.022931898
  10    C       -1.858289945     1.552996838     0.156598859
  11    H       -0.586507639    -0.974101385     1.831708595
  12    H        2.263619723     1.913821340    -0.510824697
  13    H        2.686491755     0.692912975    -1.727919062
  14    H        3.436885232     0.638009762    -0.122867839
  15    H       -2.486326025    -1.842816078     0.127474021
  16    H        0.080542125    -3.074514803     0.320976438
  17    H       -3.624436870     0.343598878    -0.275982720
  18    H       -2.446449755     2.475365549     0.122085742
  19    H        0.054224770     2.513869581     0.339607217
  20    H        2.384037564    -2.021565708    -0.567804979


           Empirical Formula: C10 H10  =    20 atoms



      MOLECULAR POINT GROUP   :   C1  


                  EIGENVALUES  
 -41.51761 -35.23524 -32.02788 -28.73082 -26.75263 -23.82453 -21.27012 -19.91176
 -18.96275 -17.11816 -16.88329 -15.94907 -15.32122 -14.86516 -14.36976 -14.14388
 -13.76715 -13.65773 -12.86962 -12.53563 -12.08780 -11.60053 -10.82466  -9.70709
  -8.38149  -0.41769   0.73952   1.71907   2.28714   3.17414   3.19013   3.37615
   3.40491   3.54162   3.83029   3.94594   4.04924   4.11627   4.28110   4.41264
   4.47825   4.54680   4.71033   4.93580   5.38973   5.48790   5.69880   5.97211
   6.23022   6.33232


              NET ATOMIC CHARGES AND DIPOLE CONTRIBUTIONS

  ATOM NO.   TYPE          CHARGE      No. of ELECS.   s-Pop       p-Pop       
    1          C           0.001193        3.9988     1.14754     2.85126
    2          C          -0.048268        4.0483     1.11562     2.93264
    3          C          -0.111948        4.1119     1.18942     2.92252
    4          C          -0.077839        4.0778     1.18864     2.88920
    5          C          -0.146216        4.1462     1.20561     2.94061
    6          C          -0.106449        4.1064     1.19002     2.91643
    7          C          -0.110403        4.1104     1.19111     2.91930
    8          C          -0.066495        4.0665     1.17097     2.89552
    9          C          -0.115204        4.1152     1.18003     2.93518
   10          C          -0.106252        4.1063     1.18185     2.92440
   11          H           0.103485        0.8965     0.89652
   12          H           0.043802        0.9562     0.95620
   13          H           0.048295        0.9517     0.95171
   14          H           0.045921        0.9541     0.95408
   15          H           0.104837        0.8952     0.89516
   16          H           0.117160        0.8828     0.88284
   17          H           0.101618        0.8984     0.89838
   18          H           0.101216        0.8988     0.89878
   19          H           0.106298        0.8937     0.89370
   20          H           0.115250        0.8847     0.88475
 DIPOLE           X         Y         Z       TOTAL
 POINT-CHG.     0.032    -0.069     0.099     0.125
 HYBRID         0.030    -0.061     0.117     0.135
 SUM            0.062    -0.130     0.216     0.260


          ATOMIC ORBITAL ELECTRON POPULATIONS

     Atom    s        px        py        pz   
    1  C   1.14754   0.93155   0.92664   0.99307
    2  C   1.11562   0.95860   0.97720   0.99684
    3  C   1.18942   0.95487   0.94773   1.01992
    4  C   1.18864   0.95665   0.94255   0.98999
    5  C   1.20561   0.97149   0.97489   0.99422
    6  C   1.19002   0.95018   0.97510   0.99115
    7  C   1.19111   0.97665   0.93765   1.00500
    8  C   1.17097   0.94569   0.95270   0.99713
    9  C   1.18003   0.98394   0.93611   1.01512
   10  C   1.18185   0.95038   0.96532   1.00871
   11  H   0.89652
   12  H   0.95620
   13  H   0.95171
   14  H   0.95408
   15  H   0.89516
   16  H   0.88284
   17  H   0.89838
   18  H   0.89878
   19  H   0.89370
   20  H   0.88475
 *******************************************************************************
 ** Site#: 14399        For non-commercial use only    Version 18.184L 64BITS **
 *******************************************************************************
 ** Cite this program as: MOPAC2016, Version: 18.184L, James J. P. Stewart,   **
 ** Stewart Computational Chemistry, web: HTTP://OpenMOPAC.net. Days left:  20**
 *******************************************************************************
 **                                                                           **
 **                                MOPAC2016                                  **
 **                                                                           **
 *******************************************************************************

                              PM3 CALCULATION RESULTS

 *******************************************************************************
 *  CALCULATION DONE:                                Thu Jun 13 15:52:45 2019  *
 *  PM3        - The PM3 Hamiltonian to be used
 *  OLDGEO     - PREVIOUS GEOMETRY TO BE USED
 *  PRECISE    - CRITERIA TO BE INCREASED BY 100 TIMES
 *  NOSYM      - POINT-GROUP SYMMETRY SET TO C1
 *  THREADS=1  - MULTI-THREADING NOT USED
 *  T=         - A TIME OF 172800.0 SECONDS REQUESTED
 *  DUMP=N     - RESTART FILE WRITTEN EVERY  7200.000 SECONDS
 *  THERMO     - THERMODYNAMIC QUANTITIES TO BE CALCULATED
 *******************************************************************************
oldgeo thermo nosym precise THREADS=1  pm3
 InChI=1S/C10H10/c1-8-6-7-9-4-2-3-5-10(8)9/h2-7,9H,1H3

   ATOM   CHEMICAL          X               Y               Z
  NUMBER   SYMBOL      (ANGSTROMS)     (ANGSTROMS)     (ANGSTROMS)
 
     1       C         -0.56044299  *  -0.91880336  *   0.71223947  *
     2       C          2.50136919  *   0.85202319  *  -0.65695030  *
     3       C          0.19262263  *   0.32587262  *   0.29590024  *
     4       C          1.41929071  *  -0.02267881  *  -0.18055397  *
     5       C          0.34785319  *  -2.02308697  *   0.24336918  *
     6       C         -1.96875844  *  -0.88592544  *   0.24285808  *
     7       C          1.50541691  *  -1.48839979  *  -0.20841240  *
     8       C         -0.51671061  *   1.58139206  *   0.28756692  *
     9       C         -2.57232373  *   0.29397993  *   0.02293190  *
    10       C         -1.85828995  *   1.55299684  *   0.15659886  *
    11       H         -0.58650764  *  -0.97410138  *   1.83170859  *
    12       H          2.26361972  *   1.91382134  *  -0.51082470  *
    13       H          2.68649176  *   0.69291298  *  -1.72791906  *
    14       H          3.43688523  *   0.63800976  *  -0.12286784  *
    15       H         -2.48632603  *  -1.84281608  *   0.12747402  *
    16       H          0.08054213  *  -3.07451480  *   0.32097644  *
    17       H         -3.62443687  *   0.34359888  *  -0.27598272  *
    18       H         -2.44644976  *   2.47536555  *   0.12208574  *
    19       H          0.05422477  *   2.51386958  *   0.33960722  *
    20       H          2.38403756  *  -2.02156571  *  -0.56780498  *
 


          CARTESIAN COORDINATES 

    NO.       ATOM           X           Y           Z

     1         C         -0.5604     -0.9188      0.7122
     2         C          2.5014      0.8520     -0.6570
     3         C          0.1926      0.3259      0.2959
     4         C          1.4193     -0.0227     -0.1806
     5         C          0.3479     -2.0231      0.2434
     6         C         -1.9688     -0.8859      0.2429
     7         C          1.5054     -1.4884     -0.2084
     8         C         -0.5167      1.5814      0.2876
     9         C         -2.5723      0.2940      0.0229
    10         C         -1.8583      1.5530      0.1566
    11         H         -0.5865     -0.9741      1.8317
    12         H          2.2636      1.9138     -0.5108
    13         H          2.6865      0.6929     -1.7279
    14         H          3.4369      0.6380     -0.1229
    15         H         -2.4863     -1.8428      0.1275
    16         H          0.0805     -3.0745      0.3210
    17         H         -3.6244      0.3436     -0.2760
    18         H         -2.4464      2.4754      0.1221
    19         H          0.0542      2.5139      0.3396
    20         H          2.3840     -2.0216     -0.5678

  H: (PM3): J. J. P. STEWART, J. COMP. CHEM. 10, 209 (1989).
  C: (PM3): J. J. P. STEWART, J. COMP. CHEM. 10, 209 (1989).

           Empirical Formula: C10 H10  =    20 atoms



      MOLECULAR POINT GROUP   :   C1  


      RHF CALCULATION, NO. OF DOUBLY OCCUPIED LEVELS = 25



          HEAT OF FORMATION =      58.181953 KCALS/MOLE


          CARTESIAN COORDINATE DERIVATIVES

   NUMBER  ATOM         X            Y            Z

     1       C      0.007747    -0.002332    -0.003866
     2       C      0.006382    -0.006380     0.003391
     3       C     -0.003570     0.013996     0.001234
     4       C      0.001506    -0.011636    -0.003546
     5       C      0.005190    -0.002669     0.005808
     6       C      0.006491    -0.006968    -0.000423
     7       C      0.014565     0.006035     0.004457
     8       C     -0.001655    -0.008461     0.002370
     9       C      0.007173    -0.000268     0.002482
    10       C     -0.013252     0.001678    -0.007920
    11       H      0.004442    -0.000697     0.003280
    12       H     -0.012378    -0.005109    -0.001515
    13       H     -0.013684     0.001718    -0.003754
    14       H      0.006508    -0.001710     0.006589
    15       H     -0.001938     0.003105    -0.008833
    16       H     -0.009885     0.010473    -0.000906
    17       H     -0.002861     0.001715     0.005008
    18       H      0.008023     0.000244     0.000096
    19       H     -0.007605     0.001323    -0.000983
    20       H     -0.001200     0.005944    -0.002968
 


          GRADIENT NORM =   0.04849


          TIME FOR SCF CALCULATION =    0.02

          TIME FOR DERIVATIVES     =    0.01

          MOLECULAR WEIGHT =  130.19



          ROTATIONAL CONSTANTS IN CM(-1)

          A =    0.08062056   B =    0.04386590   C =    0.02981521



           PRINCIPAL MOMENTS OF INERTIA IN UNITS OF 10**(-40)*GRAM-CM**2

          A =      347.2163   B =      638.1443   C =      938.8758


          ORIENTATION OF MOLECULE IN FORCE CALCULATION

    NO.       ATOM         X         Y         Z

     1          C      -0.9787   -0.4904    0.3501
     2          C       2.8141   -0.4904    0.3501
     3          C       0.3606    0.2137    0.3501
     4          C       1.3601   -0.7100    0.3205
     5          C      -0.5918   -1.9298    0.1433
     6          C      -1.9308    0.1501   -0.5922
     7          C       0.7554   -2.0420    0.1921
     8          C       0.3772    1.6479    0.2001
     9          C      -1.7878    1.4483   -0.9071
    10          C      -0.6718    2.2357   -0.4097
    11          H      -1.4297   -0.4201    1.3742
    12          H       3.0651    0.5683    0.4965
    13          H       3.2758   -0.8188   -0.5909
    14          H       3.2765   -1.0637    1.1648
    15          H      -2.7538   -0.4613   -0.9739
    16          H      -1.3265   -2.7226    0.0226
    17          H      -2.5061    1.9538   -1.5608
    18          H      -0.7035    3.3178   -0.5705
    19          H       1.2547    2.2070    0.5402
    20          H       1.3455   -2.9548    0.1282


    FIRST DERIVATIVES WILL BE USED IN THE CALCULATION OF SECOND DERIVATIVES

          ESTIMATED TIME TO COMPLETE CALCULATION =        8.44 SECONDS

    FOR POINT-GROUP C1   THERE ARE   1 UNIQUE SYMMETRY FUNCTIONS.

 STEP:   1 TIME =     0.05 SECS, INTEGRAL =      0.05 TIME LEFT: 172799.92
 STEP:   2 TIME =     0.05 SECS, INTEGRAL =      0.09 TIME LEFT: 172799.87
 STEP:   3 TIME =     0.05 SECS, INTEGRAL =      0.14 TIME LEFT: 172799.82
 STEP:   4 TIME =     0.05 SECS, INTEGRAL =      0.19 TIME LEFT: 172799.78
 STEP:   5 TIME =     0.05 SECS, INTEGRAL =      0.23 TIME LEFT: 172799.73
 STEP:   6 TIME =     0.04 SECS, INTEGRAL =      0.28 TIME LEFT: 172799.69
 STEP:   7 TIME =     0.05 SECS, INTEGRAL =      0.32 TIME LEFT: 172799.64
 STEP:   8 TIME =     0.05 SECS, INTEGRAL =      0.37 TIME LEFT: 172799.59
 STEP:   9 TIME =     0.05 SECS, INTEGRAL =      0.42 TIME LEFT: 172799.55
 STEP:  10 TIME =     0.05 SECS, INTEGRAL =      0.46 TIME LEFT: 172799.50
 STEP:  11 TIME =     0.05 SECS, INTEGRAL =      0.51 TIME LEFT: 172799.45
 STEP:  12 TIME =     0.05 SECS, INTEGRAL =      0.56 TIME LEFT: 172799.41
 STEP:  13 TIME =     0.05 SECS, INTEGRAL =      0.61 TIME LEFT: 172799.36
 STEP:  14 TIME =     0.05 SECS, INTEGRAL =      0.65 TIME LEFT: 172799.31
 STEP:  15 TIME =     0.05 SECS, INTEGRAL =      0.70 TIME LEFT: 172799.26
 STEP:  16 TIME =     0.05 SECS, INTEGRAL =      0.75 TIME LEFT: 172799.21
 STEP:  17 TIME =     0.04 SECS, INTEGRAL =      0.79 TIME LEFT: 172799.17
 STEP:  18 TIME =     0.05 SECS, INTEGRAL =      0.84 TIME LEFT: 172799.12
 STEP:  19 TIME =     0.05 SECS, INTEGRAL =      0.89 TIME LEFT: 172799.08
 STEP:  20 TIME =     0.05 SECS, INTEGRAL =      0.93 TIME LEFT: 172799.03
 STEP:  21 TIME =     0.05 SECS, INTEGRAL =      0.98 TIME LEFT: 172798.98
 STEP:  22 TIME =     0.05 SECS, INTEGRAL =      1.03 TIME LEFT: 172798.93
 STEP:  23 TIME =     0.05 SECS, INTEGRAL =      1.08 TIME LEFT: 172798.89
 STEP:  24 TIME =     0.05 SECS, INTEGRAL =      1.12 TIME LEFT: 172798.84
 STEP:  25 TIME =     0.05 SECS, INTEGRAL =      1.17 TIME LEFT: 172798.79
 STEP:  26 TIME =     0.05 SECS, INTEGRAL =      1.22 TIME LEFT: 172798.75
 STEP:  27 TIME =     0.05 SECS, INTEGRAL =      1.27 TIME LEFT: 172798.70
 STEP:  28 TIME =     0.05 SECS, INTEGRAL =      1.31 TIME LEFT: 172798.65
 STEP:  29 TIME =     0.05 SECS, INTEGRAL =      1.36 TIME LEFT: 172798.61
 STEP:  30 TIME =     0.05 SECS, INTEGRAL =      1.41 TIME LEFT: 172798.56
 STEP:  31 TIME =     0.05 SECS, INTEGRAL =      1.45 TIME LEFT: 172798.51
 STEP:  32 TIME =     0.05 SECS, INTEGRAL =      1.50 TIME LEFT: 172798.46
 STEP:  33 TIME =     0.04 SECS, INTEGRAL =      1.54 TIME LEFT: 172798.42
 STEP:  34 TIME =     0.05 SECS, INTEGRAL =      1.59 TIME LEFT: 172798.38
 STEP:  35 TIME =     0.04 SECS, INTEGRAL =      1.63 TIME LEFT: 172798.33
 STEP:  36 TIME =     0.05 SECS, INTEGRAL =      1.68 TIME LEFT: 172798.29
 STEP:  37 TIME =     0.05 SECS, INTEGRAL =      1.73 TIME LEFT: 172798.24
 STEP:  38 TIME =     0.05 SECS, INTEGRAL =      1.77 TIME LEFT: 172798.19
 STEP:  39 TIME =     0.05 SECS, INTEGRAL =      1.82 TIME LEFT: 172798.14
 STEP:  40 TIME =     0.05 SECS, INTEGRAL =      1.87 TIME LEFT: 172798.10
 STEP:  41 TIME =     0.05 SECS, INTEGRAL =      1.91 TIME LEFT: 172798.05
 STEP:  42 TIME =     0.04 SECS, INTEGRAL =      1.96 TIME LEFT: 172798.01
 STEP:  43 TIME =     0.05 SECS, INTEGRAL =      2.00 TIME LEFT: 172797.96
 STEP:  44 TIME =     0.05 SECS, INTEGRAL =      2.05 TIME LEFT: 172797.91
 STEP:  45 TIME =     0.05 SECS, INTEGRAL =      2.10 TIME LEFT: 172797.87
 STEP:  46 TIME =     0.05 SECS, INTEGRAL =      2.14 TIME LEFT: 172797.82
 STEP:  47 TIME =     0.05 SECS, INTEGRAL =      2.19 TIME LEFT: 172797.77
 STEP:  48 TIME =     0.05 SECS, INTEGRAL =      2.24 TIME LEFT: 172797.73
 STEP:  49 TIME =     0.05 SECS, INTEGRAL =      2.29 TIME LEFT: 172797.68
 STEP:  50 TIME =     0.05 SECS, INTEGRAL =      2.33 TIME LEFT: 172797.63
 STEP:  51 TIME =     0.05 SECS, INTEGRAL =      2.38 TIME LEFT: 172797.59
 STEP:  52 TIME =     0.05 SECS, INTEGRAL =      2.43 TIME LEFT: 172797.54
 STEP:  53 TIME =     0.05 SECS, INTEGRAL =      2.47 TIME LEFT: 172797.49
 STEP:  54 TIME =     0.05 SECS, INTEGRAL =      2.52 TIME LEFT: 172797.45
 STEP:  55 TIME =     0.05 SECS, INTEGRAL =      2.57 TIME LEFT: 172797.40
 STEP:  56 TIME =     0.05 SECS, INTEGRAL =      2.61 TIME LEFT: 172797.35
 STEP:  57 TIME =     0.05 SECS, INTEGRAL =      2.66 TIME LEFT: 172797.30
 STEP:  58 TIME =     0.05 SECS, INTEGRAL =      2.71 TIME LEFT: 172797.26
 STEP:  59 TIME =     0.05 SECS, INTEGRAL =      2.75 TIME LEFT: 172797.21
 STEP:  60 TIME =     0.05 SECS, INTEGRAL =      2.80 TIME LEFT: 172797.16

(To convert to Hartree/Bohr^2, multiply by (10^(-21) x N x a0^2)/(4.184 x 627.51) =  0.0642)


           FORCE MATRIX IN MILLIDYNES/ANGSTROM


                  C  1       C  2       C  3       C  4       C  5       C  6
 ------------------------------------------------------------------------------
     C    1  15.489208
     C    2   0.119786  14.872794
     C    3   4.018010   0.662239  19.002344
     C    4   1.160408   5.517429   8.838053  18.634068
     C    5   4.265694   0.055414   1.081957   1.556729  17.813492
     C    6   4.940211   0.020983   0.710102   0.067878   0.576796  17.901778
     C    7   1.261574   0.552704   1.590604   4.919452   9.648845   0.062911
     C    8   0.610784   0.055348   5.866912   0.901800   0.062120   0.194776
     C    9   0.932968   0.010003   0.202231   0.086780   0.062101  10.038766
     C   10   0.164754   0.016761   1.277547   0.187985   0.035420   1.123162
     H   11   4.059406   0.019265   0.393544   0.053259   0.367080   0.391579
     H   12   0.003169   4.734204   0.019146   0.466874   0.008664   0.001122
     H   13   0.017236   4.701098   0.028626   0.446109   0.004235   0.003569
     H   14   0.016891   4.706106   0.033828   0.455215   0.003966   0.002405
     H   15   0.435201   0.004147   0.040775   0.005760   0.011950   4.879818
     H   16   0.407974   0.006663   0.041715   0.103138   5.079792   0.011107
     H   17   0.113673   0.000696   0.003741   0.002367   0.013018   0.440859
     H   18   0.004835   0.002833   0.119053   0.010492   0.002242   0.048377
     H   19   0.036203   0.011912   0.446080   0.021767   0.008618   0.017717
     H   20   0.110258   0.008316   0.046059   0.426988   0.444682   0.015248


                  C  7       C  8       C  9       C 10       H 11       H 12
 ------------------------------------------------------------------------------
     C    7  18.195856
     C    8   0.154319  18.166542
     C    9   0.046025   1.144303  18.136846
     C   10   0.068693   9.703437   5.466015  18.018540
     H   11   0.056025   0.022227   0.034368   0.018531   4.520399
     H   12   0.044654   0.011910   0.000598   0.001732   0.000414   5.437808
     H   13   0.014911   0.006038   0.001556   0.001837   0.002704   0.559059
     H   14   0.015550   0.007944   0.001578   0.002584   0.003233   0.553209
     H   15   0.006656   0.016044   0.442777   0.119216   0.012705   0.000153
     H   16   0.442223   0.011271   0.003300   0.002502   0.012707   0.001494
     H   17   0.002351   0.047774   4.855926   0.431876   0.014563   0.000309
     H   18   0.008180   0.438401   0.431906   4.868486   0.001081   0.000403
     H   19   0.008930   4.853292   0.120158   0.445746   0.004115   0.019541
     H   20   5.051281   0.006652   0.002964   0.002375   0.015017   0.001753


                  H 13       H 14       H 15       H 16       H 17       H 18
 ------------------------------------------------------------------------------
     H   13   5.411019
     H   14   0.570112   5.413848
     H   15   0.000878   0.000417   5.256707
     H   16   0.000531   0.000640   0.005096   5.479325
     H   17   0.000139   0.000181   0.062328   0.000525   5.219378
     H   18   0.000169   0.000510   0.007253   0.000454   0.032033   5.234000
     H   19   0.001888   0.000850   0.008640   0.001669   0.006932   0.060324
     H   20   0.003079   0.004191   0.000745   0.042366   0.000798   0.000615


                  H 19       H 20
 ------------------------------
     H   19   5.230781
     H   20   0.000528   5.443146


          HEAT OF FORMATION =      58.181953 KCALS/MOLE

          ZERO POINT ENERGY     105.127 KCAL/MOL


           NORMAL COORDINATE ANALYSIS (Total motion = 1 Angstrom)


   Root No.       1         2         3         4         5         6         7         8

                 1 A       2 A       3 A       4 A       5 A       6 A       7 A       8 A   

                 116.3     123.4     185.7     244.1     288.0     390.4     423.0     483.0
  
           1   -0.0044    0.0093    0.0102   -0.0095   -0.0048    0.0035   -0.0150   -0.0137
           2    0.0006    0.0003    0.0055   -0.0181   -0.0027   -0.0050   -0.0236   -0.0256
           3    0.0066   -0.0119   -0.0380   -0.0244    0.0090   -0.0237   -0.0128    0.0205
           4   -0.0042    0.0076    0.0111   -0.0138   -0.0170    0.0105   -0.0043   -0.0261
           5    0.0076   -0.0096   -0.0237    0.0465    0.0533   -0.0030   -0.0200   -0.0118
           6   -0.0212    0.0557   -0.0071   -0.0208    0.0244    0.0019    0.0013   -0.0002
           7   -0.0041    0.0090    0.0130   -0.0131   -0.0018    0.0035   -0.0272   -0.0287
           8   -0.0002    0.0001    0.0006   -0.0165   -0.0151   -0.0073    0.0014    0.0114
           9    0.0104   -0.0262   -0.0462    0.0044   -0.0319   -0.0440    0.0122   -0.0151
          10   -0.0037    0.0077    0.0083   -0.0064   -0.0049    0.0094   -0.0087   -0.0240
          11    0.0009   -0.0033   -0.0060   -0.0094   -0.0150   -0.0012    0.0229    0.0218
          12    0.0025    0.0016   -0.0064    0.0280   -0.0491   -0.0329   -0.0206   -0.0059
          13   -0.0037    0.0066    0.0027    0.0047   -0.0158    0.0099    0.0213    0.0155
          14   -0.0005    0.0013   -0.0039   -0.0168   -0.0117   -0.0087   -0.0262   -0.0226
          15    0.0137   -0.0222    0.0270   -0.0223    0.0445   -0.0020    0.0339   -0.0134
          16    0.0081   -0.0233    0.0136   -0.0094    0.0086   -0.0397    0.0043    0.0042
          17   -0.0034    0.0078   -0.0014    0.0153   -0.0011    0.0250    0.0073    0.0002
          18   -0.0096    0.0288   -0.0460   -0.0021   -0.0052    0.0376   -0.0187    0.0243
          19   -0.0035    0.0062    0.0016    0.0044   -0.0118    0.0103    0.0255    0.0153
          20    0.0002   -0.0015   -0.0089   -0.0143   -0.0143   -0.0076    0.0113    0.0073
          21    0.0089   -0.0084    0.0525    0.0405   -0.0274    0.0288   -0.0115    0.0099
          22   -0.0027    0.0121   -0.0041    0.0168    0.0179   -0.0249   -0.0120    0.0148
          23    0.0002   -0.0030    0.0043   -0.0203   -0.0138    0.0020    0.0014    0.0117
          24    0.0132   -0.0470   -0.0139   -0.0111   -0.0064    0.0439    0.0137   -0.0335
          25    0.0134   -0.0312   -0.0209    0.0003    0.0181    0.0141   -0.0078    0.0397
          26   -0.0055    0.0093    0.0181    0.0209    0.0011    0.0034    0.0220   -0.0103
          27   -0.0157    0.0311    0.0164    0.0212    0.0038   -0.0324    0.0235   -0.0082
          28    0.0050   -0.0042   -0.0348    0.0256    0.0131    0.0069    0.0191   -0.0045
          29   -0.0018    0.0001    0.0173   -0.0003    0.0006    0.0009    0.0134    0.0322
          30   -0.0017   -0.0168    0.0502   -0.0051    0.0180   -0.0106   -0.0266    0.0251
          31   -0.0145    0.0367    0.0069   -0.0202    0.0065    0.0473   -0.0498   -0.0005
          32    0.0064   -0.0091    0.0397   -0.0436    0.0360   -0.0162   -0.0261   -0.0664
          33    0.0014    0.0018   -0.0408   -0.0264    0.0109   -0.0019   -0.0276    0.0278
          34   -0.0085    0.0064    0.0244   -0.0521   -0.0846    0.0062    0.0394    0.0129
          35   -0.0227   -0.0241   -0.0281    0.0601    0.0673   -0.0037   -0.0331   -0.0227
          36    0.2075    0.1632    0.0009   -0.0499    0.0464    0.0143    0.0140    0.0057
          37   -0.0527    0.0302    0.0031   -0.0363    0.0620    0.0395    0.0006   -0.0341
          38    0.2312    0.0802   -0.0212    0.0515    0.0859    0.0007   -0.0380   -0.0293
          39   -0.1234    0.0355   -0.0121   -0.0338    0.0528    0.0150    0.0100    0.0019
          40    0.0484   -0.0133    0.0075    0.0432   -0.0362   -0.0146   -0.0490   -0.0575
          41   -0.1753   -0.0889   -0.0372    0.0817    0.0783   -0.0068   -0.0480   -0.0354
          42   -0.1803    0.0118   -0.0146   -0.0291    0.0529    0.0137    0.0080    0.0015
          43    0.0127   -0.0411    0.0433   -0.0279    0.0140   -0.1068   -0.0033    0.0005
          44   -0.0049    0.0132   -0.0137    0.0378    0.0032    0.0610    0.0275    0.0168
          45   -0.0171    0.0582   -0.0893    0.0017   -0.0228    0.1246   -0.0347    0.0056
          46   -0.0038    0.0060    0.0002    0.0134   -0.0238    0.0147    0.0446    0.0374
          47   -0.0015    0.0037   -0.0056   -0.0205   -0.0146   -0.0159   -0.0590   -0.0388
          48    0.0207   -0.0341    0.0538   -0.0512    0.1123    0.0169    0.1086   -0.0385
          49    0.0234   -0.0574   -0.0275   -0.0133    0.0294    0.0318   -0.0453    0.0856
          50   -0.0092    0.0160    0.0308    0.0421    0.0051    0.0016    0.0405   -0.0419
          51   -0.0295    0.0651    0.0337    0.0522   -0.0055   -0.0534    0.0783   -0.0835
          52    0.0046    0.0029   -0.0634    0.0535    0.0067   -0.0003    0.0670   -0.0503
          53   -0.0020   -0.0012    0.0259   -0.0017    0.0040    0.0042    0.0050    0.0384
          54   -0.0027   -0.0281    0.1144   -0.0196    0.0443    0.0134   -0.0928    0.0800
          55   -0.0081    0.0289   -0.0002    0.0343    0.0253   -0.0718   -0.0019    0.0472
          56    0.0001   -0.0051    0.0025   -0.0372   -0.0273    0.0071   -0.0164   -0.0171
          57    0.0272   -0.0865   -0.0208   -0.0277   -0.0032    0.1558    0.0170   -0.0701
          58   -0.0034    0.0049   -0.0028    0.0083   -0.0192    0.0103    0.0546    0.0486
          59    0.0001   -0.0025   -0.0159   -0.0147   -0.0174   -0.0127    0.0299    0.0273
          60    0.0118   -0.0050    0.1109    0.0841   -0.0481    0.1005   -0.0155    0.0276


   Root No.       9        10        11        12        13        14        15        16

                 9 A      10 A      11 A      12 A      13 A      14 A      15 A      16 A   

                 535.9     547.6     611.2     682.6     726.7     763.1     802.6     832.1
  
           1    0.0296   -0.0212    0.0188    0.0231    0.0061   -0.0018    0.0063   -0.0239
           2   -0.0043    0.0119   -0.0005    0.0184   -0.0261   -0.0048    0.0043   -0.0003
           3    0.0084   -0.0219   -0.0343   -0.0231   -0.0298    0.0101    0.0085    0.0100
           4   -0.0302   -0.0006   -0.0282   -0.0395    0.0388    0.0004   -0.0129    0.0149
           5    0.0001    0.0003   -0.0032   -0.0062    0.0067    0.0017    0.0016   -0.0064
           6   -0.0011   -0.0020    0.0038   -0.0044    0.0013   -0.0029    0.0060   -0.0022
           7    0.0093   -0.0101    0.0082    0.0148    0.0090   -0.0034   -0.0055    0.0069
           8    0.0200    0.0195    0.0187    0.0165    0.0094   -0.0012   -0.0056    0.0062
           9   -0.0110   -0.0100   -0.0300    0.0608    0.0312    0.0153   -0.0128    0.0175
          10   -0.0195   -0.0048   -0.0175   -0.0173    0.0146   -0.0004   -0.0035    0.0032
          11   -0.0081    0.0372   -0.0065   -0.0169    0.0056    0.0080    0.0092   -0.0168
          12   -0.0281   -0.0311    0.0549   -0.0259    0.0016   -0.0081    0.0144   -0.0028
          13   -0.0092   -0.0106    0.0035    0.0269   -0.0397   -0.0057   -0.0013    0.0100
          14   -0.0083    0.0278   -0.0131    0.0067   -0.0306   -0.0014    0.0111    0.0010
          15   -0.0231   -0.0129    0.0201   -0.0029   -0.0120    0.0026   -0.0282   -0.0007
          16    0.0426   -0.0470   -0.0133   -0.0093    0.0025    0.0261    0.0157   -0.0381
          17   -0.0200   -0.0478   -0.0139    0.0127   -0.0071   -0.0028    0.0063   -0.0033
          18    0.0070   -0.0221   -0.0011   -0.0018    0.0057   -0.0128    0.0143   -0.0012
          19   -0.0150   -0.0117    0.0035    0.0219   -0.0362   -0.0057   -0.0009    0.0076
          20   -0.0201    0.0422   -0.0076   -0.0279    0.0118    0.0093    0.0197   -0.0236
          21    0.0191    0.0177   -0.0241   -0.0057   -0.0120    0.0063   -0.0222   -0.0018
          22   -0.0080    0.0578    0.0171    0.0196   -0.0038    0.0083    0.0036    0.0194
          23    0.0350    0.0097    0.0288    0.0128    0.0209   -0.0077   -0.0206    0.0266
          24    0.0173    0.0242    0.0058    0.0006   -0.0049   -0.0210   -0.0091   -0.0207
          25    0.0035    0.0132    0.0129   -0.0154    0.0185    0.0078   -0.0113   -0.0050
          26   -0.0118   -0.0453   -0.0149    0.0061   -0.0108   -0.0028    0.0045   -0.0006
          27    0.0291    0.0304    0.0057   -0.0251    0.0038   -0.0175    0.0009    0.0197
          28    0.0058    0.0327    0.0076   -0.0123   -0.0089    0.0062    0.0079    0.0118
          29    0.0192   -0.0499    0.0045   -0.0228    0.0233   -0.0068   -0.0180    0.0148
          30   -0.0247    0.0193   -0.0018    0.0138    0.0027   -0.0136   -0.0091   -0.0234
          31    0.0418   -0.0233    0.0461   -0.0094   -0.0119   -0.0555    0.0460   -0.0651
          32   -0.0171    0.0210    0.0393   -0.0243   -0.0725   -0.0074   -0.0295   -0.0462
          33    0.0145   -0.0232   -0.0235   -0.0334   -0.0334   -0.0136    0.0287   -0.0064
          34   -0.0525    0.0416   -0.0281   -0.0686    0.0348    0.0105    0.0149   -0.0358
          35    0.0037   -0.0125    0.0018   -0.0021    0.0089   -0.0026   -0.0031    0.0058
          36    0.0132    0.0141   -0.0341    0.0148   -0.0000    0.0099   -0.0144    0.0045
          37    0.0029    0.0161   -0.1074   -0.0002    0.0502    0.0210   -0.0686    0.0545
          38    0.0120   -0.0161   -0.0129    0.0065    0.0147   -0.0011   -0.0191    0.0218
          39    0.0119    0.0121   -0.0326    0.0117    0.0037    0.0087   -0.0147    0.0076
          40   -0.0514   -0.0550    0.0405   -0.0710    0.0554   -0.0308    0.0048    0.0347
          41    0.0028   -0.0272    0.0106   -0.0049    0.0169   -0.0093   -0.0074    0.0193
          42    0.0126    0.0104   -0.0274    0.0144   -0.0005    0.0077   -0.0111    0.0049
          43    0.0670   -0.0540   -0.0593   -0.0394   -0.0454   -0.0700    0.0783    0.0346
          44   -0.0415   -0.0385    0.0105    0.0104    0.0275    0.0388   -0.0393   -0.0176
          45   -0.0121   -0.0203    0.0594    0.0668    0.0524    0.1271   -0.0465   -0.1360
          46   -0.0302    0.0001   -0.0041    0.0073   -0.0425   -0.0014   -0.0053    0.0164
          47    0.0180    0.0192   -0.0132    0.0091   -0.0534    0.0026   -0.0185   -0.0075
          48   -0.0685   -0.0211    0.0686    0.1028    0.1420   -0.0499    0.1919    0.0119
          49   -0.0464    0.0235   -0.0091   -0.0028    0.0109   -0.1179   -0.0118    0.0412
          50   -0.0310    0.0033   -0.0006    0.0193   -0.0277    0.0431   -0.0066   -0.0053
          51    0.0693    0.0565    0.0408   -0.0290   -0.0011    0.1564   -0.0063   -0.0361
          52    0.0081    0.0143   -0.0373   -0.0236   -0.0297   -0.0904   -0.0057   -0.0835
          53    0.0096   -0.0561    0.0065   -0.0209    0.0198    0.0179   -0.0076    0.0279
          54   -0.0905   -0.0180    0.0193    0.0246   -0.0200    0.1752    0.0698    0.0773
          55   -0.0294    0.0714   -0.0110    0.0350    0.0163   -0.0434   -0.0329   -0.0677
          56    0.0473    0.0001    0.0395    0.0468    0.0307    0.0045   -0.0266    0.0683
          57    0.0519    0.0031    0.0600   -0.0936   -0.0718    0.0919    0.0934    0.1366
          58   -0.0148   -0.0097    0.0200    0.0236   -0.0481   -0.0008    0.0018   -0.0125
          59   -0.0240    0.0393    0.0096   -0.0335   -0.0020    0.0143    0.0099   -0.0379
          60    0.0805    0.0868   -0.1197    0.0847    0.0784   -0.0162    0.1531    0.0032


   Root No.      17        18        19        20        21        22        23        24

                17 A      18 A      19 A      20 A      21 A      22 A      23 A      24 A   

                 846.4     909.5     951.5     962.1     969.2     982.7     999.9    1015.9
  
           1   -0.0149   -0.0304    0.0068   -0.0034   -0.0015   -0.0054   -0.0084    0.0014
           2    0.0186   -0.0048   -0.0001   -0.0018    0.0001    0.0042    0.0025   -0.0046
           3    0.0077    0.0471   -0.0058    0.0049    0.0051    0.0164    0.0089   -0.0078
           4   -0.0001    0.0135    0.0007   -0.0032    0.0079    0.0030    0.0041    0.0000
           5   -0.0063   -0.0074    0.0095   -0.0080    0.0409    0.0118    0.0015   -0.0013
           6    0.0029    0.0120    0.0109    0.0023    0.0078   -0.0274   -0.0015   -0.0312
           7   -0.0119    0.0024    0.0006    0.0046   -0.0033    0.0029   -0.0032   -0.0023
           8   -0.0148    0.0080   -0.0016    0.0007    0.0009   -0.0016   -0.0010    0.0011
           9   -0.0014   -0.0297    0.0190   -0.0042   -0.0071    0.0047   -0.0151   -0.0232
          10    0.0022   -0.0011   -0.0000    0.0004   -0.0001   -0.0013   -0.0017   -0.0011
          11   -0.0169   -0.0076    0.0046   -0.0003    0.0049   -0.0014   -0.0013   -0.0023
          12    0.0039    0.0043   -0.0054    0.0003   -0.0012    0.0255    0.0018    0.0429
          13    0.0239    0.0041   -0.0052   -0.0009    0.0039   -0.0017    0.0024    0.0014
          14    0.0506   -0.0163   -0.0238   -0.0013    0.0049   -0.0197   -0.0041    0.0099
          15   -0.0114   -0.0085    0.0266    0.0046    0.0017   -0.0252   -0.0251    0.0287
          16   -0.0084    0.0009   -0.0107    0.0257    0.0038   -0.0089    0.0195    0.0068
          17   -0.0263    0.0080   -0.0026   -0.0024    0.0011   -0.0028   -0.0013    0.0035
          18   -0.0167   -0.0133   -0.0032   -0.0125   -0.0024   -0.0105   -0.0016    0.0082
          19    0.0191    0.0043    0.0010   -0.0007    0.0006   -0.0001    0.0009    0.0022
          20   -0.0168   -0.0128   -0.0041    0.0113   -0.0402   -0.0106   -0.0084    0.0047
          21   -0.0163   -0.0181   -0.0377   -0.0096   -0.0020    0.0027    0.0122   -0.0323
          22   -0.0329    0.0190   -0.0054    0.0160    0.0100    0.0060   -0.0061   -0.0011
          23   -0.0145    0.0329   -0.0029   -0.0020    0.0094    0.0029    0.0092    0.0041
          24   -0.0060    0.0212   -0.0008   -0.0245   -0.0017   -0.0120    0.0319    0.0148
          25    0.0404   -0.0065   -0.0022   -0.0168   -0.0072    0.0019   -0.0203   -0.0042
          26   -0.0236    0.0062    0.0022    0.0070    0.0019   -0.0002    0.0064    0.0012
          27    0.0171   -0.0317    0.0086    0.0189   -0.0015   -0.0056    0.0235   -0.0005
          28   -0.0029   -0.0068    0.0071   -0.0118   -0.0031   -0.0063    0.0177    0.0042
          29    0.0455   -0.0148    0.0067   -0.0063   -0.0024    0.0063   -0.0074   -0.0057
          30    0.0021    0.0123   -0.0125    0.0202    0.0058    0.0133   -0.0316   -0.0070
          31   -0.0558   -0.0386    0.0623   -0.1183   -0.0691    0.0732   -0.1192   -0.0652
          32    0.0469   -0.0059    0.1727    0.0155   -0.0785    0.1715    0.1408   -0.1128
          33   -0.0119    0.0409    0.0071   -0.0480   -0.0197    0.0386   -0.0508   -0.0293
          34   -0.0276   -0.0244    0.0614   -0.0466    0.2394    0.0464    0.0121   -0.0274
          35    0.0018    0.0072   -0.0022    0.0036   -0.0155   -0.0082   -0.0007   -0.0039
          36   -0.0068   -0.0204   -0.0153   -0.0046   -0.0040    0.0393    0.0022    0.0391
          37   -0.0071   -0.0249   -0.0730   -0.0038   -0.0982    0.1197    0.0139    0.1497
          38    0.0045    0.0103   -0.0235    0.0088   -0.0670    0.0033    0.0016    0.0233
          39   -0.0046   -0.0144   -0.0149   -0.0036   -0.0086    0.0349    0.0030    0.0362
          40    0.0331    0.1059    0.0204    0.0274   -0.0798   -0.1465   -0.0009   -0.1211
          41    0.0114    0.0303   -0.0097    0.0134   -0.0651   -0.0347   -0.0002   -0.0140
          42   -0.0039   -0.0151   -0.0142   -0.0008   -0.0151    0.0280    0.0006    0.0313
          43   -0.0823   -0.0201   -0.0106   -0.0647   -0.0083   -0.0226   -0.0150    0.0191
          44    0.0225    0.0280    0.0030    0.0350    0.0019    0.0091    0.0003   -0.0087
          45    0.0637   -0.0002   -0.0123    0.1220    0.0218    0.0001    0.0697    0.0006
          46   -0.0013    0.0376   -0.0036    0.0170   -0.0558    0.0190    0.0195   -0.0198
          47    0.0611   -0.0492    0.0027   -0.0123    0.0568   -0.0525   -0.0342    0.0443
          48    0.0789    0.0006   -0.1560   -0.0305    0.0137    0.0623    0.0681   -0.0672
          49   -0.0118   -0.0742    0.0290    0.0677    0.0021   -0.0023    0.0429   -0.0092
          50   -0.0184    0.0666   -0.0008   -0.0441   -0.0049    0.0291   -0.0623   -0.0201
          51    0.0796    0.0875   -0.0282   -0.1131   -0.0174    0.0211   -0.0986   -0.0113
          52    0.0083   -0.0008   -0.0234    0.0547    0.0009    0.0302   -0.0781   -0.0193
          53    0.0394   -0.0247    0.0168   -0.0228   -0.0081   -0.0028    0.0114   -0.0020
          54   -0.0427   -0.0597    0.0600   -0.1026   -0.0339   -0.0585    0.1157    0.0249
          55    0.0047    0.0370    0.0020   -0.0612    0.0004   -0.0251    0.0599    0.0310
          56   -0.0579    0.0616   -0.0084    0.0274    0.0058    0.0117   -0.0085   -0.0099
          57   -0.0334   -0.0700   -0.0106    0.1259    0.0291    0.0538   -0.1082   -0.0442
          58   -0.0337    0.0079    0.0207    0.0104   -0.0620    0.0273    0.0069   -0.0253
          59   -0.0588   -0.0202   -0.0077    0.0145   -0.0803    0.0064   -0.0012   -0.0220
          60    0.0970    0.1036    0.1874    0.0508   -0.0180   -0.0042   -0.0444    0.1058


   Root No.      25        26        27        28        29        30        31        32

                25 A      26 A      27 A      28 A      29 A      30 A      31 A      32 A   

                1028.8    1050.7    1074.7    1103.8    1134.7    1145.3    1182.6    1215.2
  
           1   -0.0033   -0.0043   -0.0045    0.0059    0.0064   -0.0084   -0.0238    0.0130
           2   -0.0043   -0.0079   -0.0024    0.0109   -0.0069   -0.0158    0.0130    0.0359
           3    0.0239    0.0016   -0.0056    0.0172   -0.0070   -0.0042   -0.0181   -0.0060
           4    0.0033   -0.0163   -0.0102   -0.0113    0.0100    0.0033    0.0084    0.0116
           5   -0.0016    0.0067    0.0033    0.0076   -0.0083   -0.0039    0.0054    0.0021
           6   -0.0021   -0.0007    0.0002    0.0005   -0.0006   -0.0005    0.0002    0.0001
           7   -0.0055    0.0239    0.0094    0.0350   -0.0307   -0.0078   -0.0194   -0.0139
           8    0.0028   -0.0051   -0.0009    0.0002    0.0078    0.0075   -0.0182    0.0210
           9    0.0012   -0.0047    0.0049   -0.0065   -0.0021   -0.0012    0.0009   -0.0016
          10   -0.0018    0.0113    0.0082    0.0108   -0.0118   -0.0042   -0.0084   -0.0287
          11    0.0010   -0.0063   -0.0073   -0.0112    0.0200    0.0115   -0.0142   -0.0010
          12    0.0031    0.0010   -0.0012    0.0009    0.0018    0.0008   -0.0012    0.0005
          13    0.0016    0.0002    0.0040   -0.0089    0.0086    0.0066   -0.0048   -0.0065
          14    0.0069    0.0105    0.0104   -0.0111   -0.0027    0.0028    0.0149    0.0076
          15    0.0020    0.0015    0.0061   -0.0025   -0.0005   -0.0014    0.0060    0.0037
          16    0.0057    0.0089   -0.0031   -0.0224    0.0057    0.0037    0.0067    0.0104
          17   -0.0180    0.0094   -0.0050   -0.0152   -0.0019   -0.0045    0.0110   -0.0017
          18   -0.0594    0.0044   -0.0019   -0.0113    0.0083    0.0053   -0.0041    0.0076
          19    0.0004   -0.0024   -0.0055   -0.0072    0.0046    0.0055   -0.0013   -0.0135
          20   -0.0034    0.0154    0.0164    0.0081   -0.0082   -0.0049   -0.0070   -0.0280
          21    0.0009    0.0004   -0.0008   -0.0002   -0.0006    0.0008   -0.0018   -0.0045
          22   -0.0037   -0.0188    0.0077   -0.0156   -0.0085    0.0024    0.0077   -0.0125
          23    0.0043   -0.0093    0.0043   -0.0062    0.0008    0.0012   -0.0068    0.0007
          24    0.0072   -0.0027    0.0035    0.0012   -0.0088   -0.0023    0.0022   -0.0065
          25   -0.0244    0.0286   -0.0140   -0.0021    0.0082   -0.0042    0.0126    0.0093
          26    0.0135   -0.0007    0.0003   -0.0011    0.0027   -0.0036    0.0080   -0.0103
          27    0.0235    0.0214   -0.0102   -0.0020    0.0030   -0.0043    0.0079    0.0092
          28    0.0101   -0.0109    0.0060    0.0075   -0.0026    0.0035    0.0093   -0.0118
          29    0.0001   -0.0282    0.0192    0.0175   -0.0153   -0.0031    0.0005   -0.0187
          30   -0.0170   -0.0084    0.0024   -0.0037   -0.0005    0.0045    0.0057   -0.0047
          31    0.2537   -0.0106    0.0303   -0.0821    0.0004    0.0224    0.0679   -0.0083
          32   -0.1580    0.0031   -0.0077   -0.0684    0.0468    0.0428   -0.0237   -0.0456
          33    0.1490   -0.0024    0.0101   -0.0183   -0.0126    0.0058    0.0268   -0.0095
          34   -0.0047    0.0078    0.0009    0.0109   -0.0160   -0.0123    0.0465    0.0748
          35    0.0000   -0.0014   -0.0003    0.0006   -0.0006    0.0002   -0.0035   -0.0089
          36    0.0026    0.0020    0.0003    0.0010   -0.0007   -0.0002   -0.0003   -0.0014
          37    0.0201   -0.0486   -0.0300   -0.0446    0.0437    0.0152    0.0160    0.0695
          38    0.0054   -0.0196   -0.0093   -0.0159    0.0151    0.0050   -0.0053    0.0155
          39    0.0037   -0.0061   -0.0043   -0.0065    0.0067    0.0020    0.0061    0.0195
          40    0.0036   -0.0629   -0.0320   -0.0496    0.0475    0.0154    0.0112    0.0686
          41    0.0034   -0.0241   -0.0105   -0.0185    0.0169    0.0049   -0.0052    0.0203
          42    0.0017    0.0027    0.0019    0.0027   -0.0031   -0.0010   -0.0070   -0.0143
          43   -0.1292   -0.0447    0.0220    0.0118    0.0627   -0.0305    0.0586   -0.0192
          44    0.0734    0.1440   -0.0699   -0.1000   -0.1198    0.0734   -0.1189    0.0702
          45    0.0846   -0.0889    0.0440    0.0460    0.0760   -0.0475    0.0909   -0.0379
          46   -0.0180    0.0722    0.2095    0.0126   -0.0151   -0.0512    0.0524    0.1231
          47    0.0234   -0.0543   -0.1723   -0.0319    0.0187    0.0541   -0.0344   -0.1078
          48    0.0119   -0.0059   -0.0318   -0.0004    0.0021    0.0105   -0.0122   -0.0172
          49    0.0991    0.0630   -0.0487    0.0476    0.1227   -0.0881   -0.0445    0.0228
          50    0.0426    0.0492   -0.0543    0.0835    0.1906   -0.1398   -0.0910    0.0085
          51   -0.0922    0.0230   -0.0147    0.0091    0.0235   -0.0156   -0.0035    0.0117
          52   -0.0073   -0.0661    0.0426    0.1408    0.0426    0.2388   -0.0604    0.0838
          53    0.0117   -0.0318    0.0230    0.0345   -0.0104    0.0201   -0.0067   -0.0101
          54    0.0611   -0.0192    0.0170    0.0772    0.0244    0.1230   -0.0317    0.0493
          55    0.0112   -0.0896    0.0350   -0.0362   -0.0510   -0.0655   -0.0809    0.0155
          56   -0.0018    0.1391   -0.0453    0.0556    0.0713    0.1322    0.1611   -0.0608
          57   -0.0204   -0.0710    0.0195   -0.0462   -0.0199   -0.0404   -0.0489    0.0188
          58   -0.0200   -0.0592   -0.2048    0.0887   -0.1173   -0.0499    0.0885    0.0758
          59   -0.0160   -0.0204   -0.1101    0.0688   -0.0857   -0.0400    0.0496    0.0276
          60   -0.0044   -0.0005   -0.0110    0.0123   -0.0120   -0.0071    0.0061    0.0058


   Root No.      33        34        35        36        37        38        39        40

                33 A      34 A      35 A      36 A      37 A      38 A      39 A      40 A   

                1289.5    1355.7    1373.7    1388.4    1391.4    1425.0    1484.6    1544.1
  
           1    0.0295    0.0271    0.0425    0.0000    0.0025   -0.0260    0.0914    0.0236
           2    0.0677   -0.0064    0.0150   -0.0009   -0.0085    0.0759   -0.0459    0.0159
           3    0.0241    0.0106    0.0044    0.0004    0.0028   -0.0184    0.0388    0.0041
           4    0.0007   -0.0410    0.0285   -0.0030   -0.0078    0.0101    0.0332   -0.0752
           5   -0.0086    0.0044   -0.0028    0.0059   -0.0377    0.0061    0.0101   -0.0189
           6   -0.0005    0.0020   -0.0010   -0.0429   -0.0045    0.0003    0.0015   -0.0022
           7   -0.0017   -0.0005   -0.0411    0.0015    0.0076   -0.0335   -0.0525   -0.0355
           8    0.0140   -0.0081   -0.0238    0.0003    0.0034   -0.0392   -0.0157   -0.0961
           9   -0.0070   -0.0021   -0.0024   -0.0002   -0.0006    0.0040   -0.0020    0.0048
          10   -0.0008   -0.0166    0.0004   -0.0017   -0.0088   -0.0005   -0.0254    0.1027
          11    0.0399   -0.0167    0.0126   -0.0021   -0.0041   -0.0687   -0.0588    0.0632
          12    0.0040   -0.0019    0.0013   -0.0010   -0.0007   -0.0050   -0.0037    0.0058
          13    0.0064    0.0051   -0.0069    0.0007    0.0029    0.0082   -0.0015   -0.0246
          14   -0.0649   -0.0019    0.0091   -0.0005    0.0019   -0.0520    0.0218    0.0084
          15   -0.0075   -0.0016    0.0000   -0.0002   -0.0001   -0.0036   -0.0012    0.0001
          16   -0.0284   -0.0078    0.0033   -0.0006   -0.0036    0.0265   -0.0461   -0.0075
          17    0.0144   -0.0107   -0.0228    0.0002    0.0001   -0.0054    0.0218    0.0135
          18   -0.0278   -0.0005    0.0115   -0.0004   -0.0022    0.0175   -0.0371   -0.0093
          19    0.0056    0.0041   -0.0101    0.0008    0.0010    0.0333   -0.0014   -0.0087
          20   -0.0035    0.0273   -0.0108    0.0026    0.0065    0.0606    0.0359   -0.0348
          21   -0.0007    0.0027   -0.0012    0.0004    0.0006    0.0054    0.0038   -0.0027
          22   -0.0132    0.0073    0.0176   -0.0002   -0.0011    0.0114   -0.0014    0.0162
          23   -0.0350   -0.0160   -0.0138   -0.0004   -0.0060    0.0370    0.0384    0.0619
          24   -0.0015    0.0057    0.0085   -0.0001    0.0003    0.0027   -0.0065   -0.0005
          25    0.0256   -0.0168   -0.0348    0.0004   -0.0001   -0.0044    0.0385    0.0154
          26    0.0119   -0.0006   -0.0138    0.0005    0.0029   -0.0245    0.0355   -0.0022
          27    0.0154   -0.0114   -0.0197    0.0001   -0.0010    0.0052    0.0136    0.0106
          28    0.0118    0.0164    0.0253    0.0000    0.0031   -0.0224   -0.0263   -0.0348
          29   -0.0099    0.0194    0.0303   -0.0001    0.0017    0.0016   -0.0306   -0.0096
          30    0.0068    0.0066    0.0106    0.0000    0.0015   -0.0125   -0.0092   -0.0164
          31   -0.0424   -0.0268   -0.0272   -0.0003   -0.0036    0.0182   -0.0456   -0.0063
          32   -0.0675    0.0053   -0.0098    0.0010    0.0052   -0.0348    0.0295   -0.0176
          33   -0.0014   -0.0149   -0.0241    0.0000   -0.0013    0.0107   -0.0281   -0.0052
          34   -0.0495    0.1509   -0.0757    0.0151    0.2015    0.0367   -0.0075    0.0389
          35    0.0035   -0.0318    0.0166   -0.0617   -0.0581   -0.0012    0.0148   -0.0369
          36    0.0003   -0.0166    0.0107    0.4190   -0.0139   -0.0013    0.0009   -0.0033
          37    0.0033    0.1538   -0.0724   -0.0891   -0.0532   -0.0320   -0.0415    0.0543
          38    0.0091   -0.0058    0.0007   -0.2298    0.2863    0.0039   -0.0196    0.0380
          39   -0.0041    0.0838   -0.0427    0.0238   -0.1302   -0.0176   -0.0204    0.0322
          40    0.0087    0.1487   -0.0672    0.1086   -0.0544   -0.0388   -0.0441    0.0592
          41    0.0089    0.0050   -0.0025    0.2236    0.2341   -0.0044   -0.0267    0.0484
          42    0.0058   -0.0871    0.0445    0.0798    0.2010    0.0183    0.0144   -0.0201
          43   -0.0106   -0.0253   -0.0430    0.0002   -0.0007    0.0001   -0.0088    0.0018
          44   -0.0313    0.0302    0.0849   -0.0015   -0.0064    0.0530   -0.0574   -0.0045
          45    0.0071   -0.0310   -0.0615    0.0006    0.0007   -0.0106    0.0056    0.0037
          46   -0.0464   -0.0109    0.0460   -0.0024   -0.0035   -0.0789    0.0248    0.0218
          47   -0.0189    0.0140   -0.0379    0.0025    0.0080    0.0289    0.0016   -0.0374
          48   -0.0058    0.0036   -0.0022   -0.0000    0.0018   -0.0085    0.0067   -0.0030
          49   -0.0644   -0.0069    0.0076   -0.0008   -0.0049    0.0382   -0.0329    0.0097
          50   -0.1395    0.0193    0.0612   -0.0013   -0.0045    0.0444   -0.0864   -0.0153
          51    0.0003   -0.0108   -0.0138    0.0000   -0.0022    0.0155   -0.0016    0.0104
          52   -0.0671   -0.0438   -0.0427   -0.0007   -0.0113    0.0671    0.0402    0.0633
          53   -0.0199    0.0146    0.0259   -0.0002    0.0002    0.0127   -0.0260    0.0021
          54   -0.0314   -0.0274   -0.0273   -0.0004   -0.0068    0.0365    0.0279    0.0361
          55   -0.0457   -0.0302   -0.0390   -0.0012   -0.0095    0.0302    0.0234    0.0478
          56    0.0236    0.0583    0.0990    0.0010    0.0090    0.0046   -0.0134    0.0107
          57   -0.0243   -0.0195   -0.0286   -0.0000   -0.0037    0.0144    0.0138    0.0165
          58   -0.1069   -0.0376    0.0208   -0.0033   -0.0085   -0.0730   -0.0098    0.0471
          59   -0.0765    0.0034    0.0094    0.0002    0.0013   -0.0062    0.0357   -0.0026
          60   -0.0091    0.0001    0.0019    0.0003    0.0003   -0.0053    0.0069    0.0011


   Root No.      41        42        43        44        45        46        47        48

                41 A      42 A      43 A      44 A      45 A      46 A      47 A      48 A   

                1747.0    1798.7    1829.2    1887.0    2835.3    3055.5    3060.2    3067.6
  
           1   -0.0106    0.0017   -0.0169    0.0011    0.0304    0.0000    0.0001   -0.0000
           2    0.0090   -0.0030    0.0221   -0.0108   -0.0049   -0.0003    0.0001    0.0000
           3   -0.0039    0.0009   -0.0140    0.0052   -0.0661    0.0002    0.0000   -0.0001
           4    0.0094   -0.0119   -0.0168   -0.0401    0.0001   -0.0001    0.0003    0.0007
           5    0.0043    0.0003   -0.0007   -0.0005    0.0000    0.0013   -0.0030    0.0019
           6    0.0005    0.0001   -0.0007   -0.0014   -0.0000    0.0004   -0.0011   -0.0542
           7    0.0144   -0.0221   -0.0350   -0.1128    0.0016   -0.0002   -0.0001   -0.0001
           8   -0.0526    0.0038    0.0336    0.1650   -0.0002    0.0000    0.0003    0.0001
           9    0.0019    0.0043    0.0014   -0.0076   -0.0003   -0.0001   -0.0000   -0.0002
          10   -0.0183    0.0393    0.0586    0.1607   -0.0010    0.0001   -0.0000    0.0001
          11    0.0137   -0.0287   -0.0276   -0.0858    0.0006    0.0000   -0.0001   -0.0000
          12    0.0003   -0.0005   -0.0003   -0.0005   -0.0002    0.0000   -0.0000   -0.0001
          13    0.2142    0.0179    0.0070    0.0227    0.0008    0.0000    0.0001    0.0000
          14   -0.0320   -0.0044   -0.0063   -0.0123   -0.0012    0.0000   -0.0000   -0.0000
          15    0.0064    0.0016   -0.0022   -0.0002   -0.0006    0.0000    0.0000   -0.0000
          16   -0.0005    0.0048    0.0065    0.0017   -0.0006    0.0095    0.0097   -0.0005
          17    0.0016    0.0578   -0.1620    0.0462    0.0011    0.0061    0.0066   -0.0004
          18    0.0018   -0.0157    0.0564   -0.0148   -0.0013    0.0047    0.0047   -0.0002
          19   -0.2124   -0.0194   -0.0132   -0.0408   -0.0008   -0.0000   -0.0000   -0.0000
          20    0.0094    0.0044   -0.0029   -0.0090   -0.0000   -0.0000    0.0000    0.0000
          21   -0.0080   -0.0008   -0.0007   -0.0020   -0.0002    0.0000   -0.0000   -0.0000
          22    0.0131   -0.1321   -0.0355    0.0342   -0.0001    0.0112   -0.0196    0.0001
          23    0.0095    0.1004    0.0251   -0.0731    0.0002    0.0076   -0.0125    0.0001
          24    0.0059   -0.0774   -0.0220    0.0234   -0.0002    0.0042   -0.0076    0.0001
          25    0.0054   -0.0434    0.0335   -0.0087   -0.0003   -0.0183   -0.0127    0.0003
          26    0.0034   -0.0709    0.1642   -0.0465   -0.0010    0.0137    0.0092   -0.0002
          27    0.0025   -0.0053   -0.0285    0.0083   -0.0001   -0.0169   -0.0116    0.0003
          28   -0.0214    0.1699    0.0309   -0.0246    0.0003    0.0009    0.0002    0.0001
          29    0.0042   -0.0475   -0.0374    0.0166    0.0001   -0.0212    0.0163   -0.0016
          30   -0.0115    0.0941    0.0217   -0.0152    0.0002    0.0033   -0.0021    0.0003
          31    0.0174    0.0054   -0.0037    0.0044   -0.3689    0.0005    0.0003    0.0001
          32    0.0098    0.0041   -0.0006    0.0221    0.0575   -0.0000    0.0001    0.0000
          33    0.0009   -0.0015    0.0020    0.0080    0.8221   -0.0003    0.0001    0.0000
          34    0.0016    0.0129    0.0116    0.0295    0.0000   -0.0030    0.0067    0.0113
          35    0.0074   -0.0053   -0.0070   -0.0160    0.0001   -0.0129    0.0287    0.0525
          36    0.0007   -0.0006   -0.0002   -0.0002    0.0000   -0.0017    0.0036   -0.0199
          37    0.0017   -0.0042   -0.0033   -0.0131    0.0001    0.0027   -0.0072   -0.1869
          38   -0.0007    0.0006    0.0015    0.0017    0.0000   -0.0014    0.0041    0.1459
          39   -0.0004    0.0026    0.0029    0.0050   -0.0001   -0.0058    0.0155    0.3829
          40    0.0021   -0.0045   -0.0065   -0.0200   -0.0001    0.0014   -0.0026    0.1667
          41   -0.0006    0.0009    0.0023    0.0038    0.0001   -0.0014    0.0022   -0.2218
          42   -0.0003   -0.0020   -0.0019   -0.0031   -0.0001    0.0031   -0.0057    0.2867
          43    0.0030    0.0283   -0.0837    0.0291    0.0026   -0.1134   -0.1171    0.0065
          44   -0.0022    0.0232   -0.0172    0.0056    0.0007   -0.0819   -0.0853    0.0048
          45    0.0020    0.0141   -0.0544    0.0189   -0.0010   -0.0536   -0.0551    0.0030
          46    0.0637    0.0029   -0.0012    0.0025    0.0037    0.0001    0.0000   -0.0000
          47    0.1560    0.0140    0.0011    0.0083    0.0022   -0.0000   -0.0001   -0.0000
          48    0.0226    0.0010   -0.0007   -0.0006   -0.0006    0.0001    0.0000   -0.0000
          49    0.0049   -0.0088   -0.0889    0.0290    0.0022    0.2159    0.1509   -0.0034
          50    0.0014   -0.0275   -0.0028    0.0051   -0.0015   -0.1519   -0.1031    0.0022
          51    0.0017    0.0056   -0.0637    0.0189    0.0007    0.1964    0.1364   -0.0030
          52    0.0121   -0.0292   -0.0477    0.0049    0.0001   -0.0078    0.0030   -0.0005
          53    0.0109   -0.0953   -0.0538    0.0234    0.0001    0.2486   -0.1958    0.0185
          54    0.0051   -0.0066   -0.0162    0.0027    0.0000   -0.0371    0.0273   -0.0027
          55    0.0194   -0.0647   -0.0187   -0.0214   -0.0004   -0.1331    0.2296   -0.0019
          56    0.0084   -0.0838   -0.0322    0.0300   -0.0004   -0.0870    0.1484   -0.0013
          57    0.0033   -0.0322   -0.0017    0.0035   -0.0003   -0.0516    0.0891   -0.0008
          58   -0.0457    0.0045    0.0134    0.0350   -0.0024    0.0000    0.0002    0.0003
          59    0.1605    0.0232    0.0132    0.0378    0.0033   -0.0000   -0.0003   -0.0005
          60    0.0141    0.0022    0.0019    0.0052   -0.0006   -0.0000   -0.0000   -0.0002


   Root No.      49        50        51        52        53        54

                49 A      50 A      51 A      52 A      53 A      54 A   

                3074.1    3076.1    3082.1    3129.7    3149.6    3164.3
  
           1    0.0000   -0.0000   -0.0001   -0.0005   -0.0010   -0.0000
           2    0.0000    0.0000   -0.0005    0.0004    0.0005   -0.0000
           3    0.0000   -0.0000    0.0003    0.0001    0.0003    0.0000
           4    0.0032    0.0035    0.0005    0.0001    0.0000   -0.0242
           5   -0.0236   -0.0240   -0.0031   -0.0004   -0.0002   -0.0041
           6   -0.0002   -0.0013   -0.0004   -0.0001   -0.0000   -0.0005
           7   -0.0004   -0.0002    0.0005   -0.0003    0.0002    0.0002
           8    0.0005   -0.0003   -0.0006    0.0007    0.0015   -0.0002
           9   -0.0000    0.0000    0.0002   -0.0000    0.0001    0.0000
          10    0.0002    0.0002   -0.0001    0.0004    0.0013   -0.0003
          11   -0.0002   -0.0000    0.0001    0.0001    0.0009    0.0000
          12   -0.0000    0.0000   -0.0000    0.0000    0.0001   -0.0000
          13   -0.0001    0.0001   -0.0000    0.0170   -0.0392   -0.0002
          14    0.0000    0.0000    0.0001    0.0204   -0.0357   -0.0001
          15   -0.0000    0.0000   -0.0001    0.0030   -0.0058   -0.0000
          16   -0.0093    0.0100   -0.0196    0.0000    0.0000    0.0000
          17   -0.0078    0.0085   -0.0174   -0.0000   -0.0001    0.0000
          18   -0.0041    0.0043   -0.0082    0.0000    0.0000   -0.0000
          19    0.0001    0.0001   -0.0000    0.0283    0.0208    0.0003
          20    0.0001    0.0001    0.0001   -0.0422   -0.0245   -0.0002
          21    0.0000    0.0000    0.0000   -0.0029   -0.0015   -0.0000
          22   -0.0120    0.0122    0.0117   -0.0000    0.0000    0.0005
          23   -0.0060    0.0064    0.0057   -0.0001   -0.0001    0.0004
          24   -0.0050    0.0050    0.0048    0.0000    0.0000    0.0002
          25   -0.0008    0.0023   -0.0120   -0.0000   -0.0000   -0.0000
          26    0.0020   -0.0032    0.0113    0.0000    0.0000   -0.0000
          27   -0.0012    0.0026   -0.0117   -0.0000   -0.0000   -0.0000
          28    0.0020   -0.0017   -0.0016   -0.0000    0.0000   -0.0000
          29   -0.0158    0.0110    0.0178   -0.0000    0.0001    0.0000
          30    0.0031   -0.0023   -0.0032    0.0000   -0.0000   -0.0000
          31   -0.0001    0.0001    0.0001    0.0004    0.0008    0.0000
          32   -0.0001    0.0002   -0.0004    0.0008   -0.0012   -0.0000
          33   -0.0003    0.0004   -0.0011   -0.0003   -0.0032   -0.0000
          34    0.0468    0.0474    0.0058   -0.0000   -0.0003    0.0568
          35    0.2040    0.2071    0.0256    0.0004   -0.0011    0.3192
          36    0.0298    0.0297    0.0036    0.0000   -0.0002    0.0443
          37   -0.0328   -0.0382   -0.0060   -0.0012   -0.0012    0.1160
          38    0.0148    0.0190    0.0034    0.0006    0.0007   -0.0992
          39    0.0761    0.0878    0.0137    0.0025    0.0026   -0.2781
          40   -0.0528   -0.0517   -0.0063   -0.0010   -0.0011    0.1161
          41    0.0617    0.0603    0.0074    0.0010    0.0012   -0.1709
          42   -0.1037   -0.1025   -0.0128   -0.0020   -0.0021    0.2399
          43    0.1108   -0.1176    0.2261    0.0003    0.0004   -0.0000
          44    0.0820   -0.0871    0.1680    0.0005   -0.0002   -0.0000
          45    0.0517   -0.0548    0.1053    0.0002    0.0002   -0.0000
          46    0.0002   -0.0001   -0.0005   -0.2208    0.3878    0.0010
          47    0.0004   -0.0003   -0.0002   -0.2421    0.4200    0.0011
          48    0.0000    0.0000   -0.0001   -0.0371    0.0646    0.0002
          49    0.0124   -0.0299    0.1395    0.0003    0.0004   -0.0000
          50   -0.0109    0.0228   -0.0981   -0.0002   -0.0002   -0.0000
          51    0.0119   -0.0277    0.1269    0.0003    0.0004   -0.0000
          52   -0.0057    0.0044    0.0049   -0.0000   -0.0000    0.0001
          53    0.1759   -0.1207   -0.1938    0.0002   -0.0010   -0.0004
          54   -0.0263    0.0183    0.0282   -0.0000    0.0001    0.0001
          55    0.1237   -0.1296   -0.1170    0.0003   -0.0005   -0.0058
          56    0.0784   -0.0823   -0.0741    0.0002   -0.0003   -0.0038
          57    0.0483   -0.0504   -0.0457    0.0001   -0.0001   -0.0022
          58    0.0009    0.0007    0.0004   -0.3131   -0.1746   -0.0019
          59   -0.0010   -0.0008   -0.0006    0.4892    0.2693    0.0026
          60   -0.0000   -0.0001   -0.0000    0.0341    0.0186    0.0002


           MASS-WEIGHTED COORDINATE ANALYSIS (NORMAL COORDINATES)


   Root No.       1         2         3         4         5         6         7         8

                 1 A       2 A       3 A       4 A       5 A       6 A       7 A       8 A   

                 116.3     123.4     185.7     244.1     288.0     390.4     423.0     483.0
  
           1   -0.0334    0.0714    0.0716   -0.0784   -0.0363    0.0250   -0.1243   -0.1092
           2    0.0045    0.0020    0.0386   -0.1489   -0.0200   -0.0358   -0.1951   -0.2034
           3    0.0503   -0.0913   -0.2658   -0.2005    0.0673   -0.1702   -0.1058    0.1631
           4   -0.0317    0.0586    0.0777   -0.1133   -0.1270    0.0754   -0.0359   -0.2075
           5    0.0575   -0.0739   -0.1659    0.3823    0.3995   -0.0215   -0.1656   -0.0939
           6   -0.1614    0.4289   -0.0494   -0.1710    0.1832    0.0134    0.0111   -0.0015
           7   -0.0312    0.0691    0.0910   -0.1075   -0.0138    0.0252   -0.2246   -0.2286
           8   -0.0015    0.0006    0.0042   -0.1358   -0.1129   -0.0526    0.0117    0.0905
           9    0.0792   -0.2019   -0.3228    0.0366   -0.2387   -0.3157    0.1007   -0.1201
          10   -0.0281    0.0595    0.0580   -0.0525   -0.0366    0.0678   -0.0723   -0.1911
          11    0.0068   -0.0255   -0.0416   -0.0773   -0.1122   -0.0085    0.1894    0.1732
          12    0.0193    0.0127   -0.0449    0.2305   -0.3678   -0.2362   -0.1704   -0.0471
          13   -0.0283    0.0504    0.0187    0.0387   -0.1181    0.0710    0.1763    0.1230
          14   -0.0035    0.0104   -0.0272   -0.1386   -0.0873   -0.0627   -0.2167   -0.1800
          15    0.1039   -0.1706    0.1891   -0.1835    0.3333   -0.0145    0.2806   -0.1063
          16    0.0612   -0.1796    0.0955   -0.0772    0.0644   -0.2848    0.0358    0.0336
          17   -0.0257    0.0599   -0.0099    0.1260   -0.0079    0.1795    0.0601    0.0013
          18   -0.0730    0.2216   -0.3220   -0.0176   -0.0388    0.2700   -0.1546    0.1933
          19   -0.0269    0.0477    0.0109    0.0363   -0.0883    0.0742    0.2107    0.1221
          20    0.0015   -0.0112   -0.0623   -0.1173   -0.1072   -0.0544    0.0931    0.0582
          21    0.0675   -0.0649    0.3672    0.3329   -0.2051    0.2066   -0.0948    0.0789
          22   -0.0207    0.0929   -0.0287    0.1381    0.1341   -0.1785   -0.0992    0.1181
          23    0.0016   -0.0231    0.0297   -0.1670   -0.1030    0.0140    0.0112    0.0931
          24    0.1001   -0.3620   -0.0970   -0.0912   -0.0482    0.3155    0.1130   -0.2666
          25    0.1021   -0.2401   -0.1459    0.0028    0.1356    0.1011   -0.0643    0.3159
[...]
 EFF. MASS   9.4296

 VIBRATION   34   34A         ATOM PAIR      ENERGY CONTRIBUTION    RADIAL
 FREQ.      1355.75         C  2 -- H 13         +13.8% ( 48.3%)      4.5%
 T-DIPOLE    0.1761         C  2 -- H 14         +13.7% ( 48.1%)      3.6%
 TRAVEL      0.0981         C  2 -- H 12         +13.4% ( 47.6%)      0.4%
 RED. MASS   0.4287         C  4 -- C  7          +6.6% ( 33.3%)    100.0%
 EFF. MASS   5.1663

 VIBRATION   35   35A         ATOM PAIR      ENERGY CONTRIBUTION    RADIAL
 FREQ.      1373.74         C  1 -- C  3         +12.6% ( 52.6%)     99.2%
 T-DIPOLE    0.1358         C  9 -- C 10         +12.0% ( 51.4%)     99.8%
 TRAVEL      0.0771         C  3 -- C  8          +6.3% ( 37.1%)      2.4%
 RED. MASS   0.8950         C  1 -- C  6          +5.6% ( 35.0%)      0.6%
 EFF. MASS   8.2639

 VIBRATION   36   36A         ATOM PAIR      ENERGY CONTRIBUTION    RADIAL
 FREQ.      1388.39         C  2 -- H 12         +54.4% ( 64.0%)      0.0%
 T-DIPOLE    0.0656         C  2 -- H 14         +20.9% ( 39.6%)     11.9%
 TRAVEL      0.1749         C  2 -- H 13         +19.2% ( 38.0%)     11.3%
 RED. MASS   0.4272         C  2 -- C  4          +5.2% ( 19.8%)      0.0%
 EFF. MASS   1.5881

 VIBRATION   37   37A         ATOM PAIR      ENERGY CONTRIBUTION    RADIAL
 FREQ.      1391.42         C  2 -- H 13         +36.6% ( 54.2%)      0.7%
 T-DIPOLE    0.0810         C  2 -- H 14         +35.4% ( 53.4%)      0.9%
 TRAVEL      0.1658         C  2 -- H 12         +16.1% ( 36.0%)     25.9%
 RED. MASS   0.3643         C  2 -- C  4          +5.1% ( 20.2%)      1.5%
 EFF. MASS   1.7628

 VIBRATION   38   38A         ATOM PAIR      ENERGY CONTRIBUTION    RADIAL
 FREQ.      1424.97         C  4 -- C  7         +11.8% ( 57.6%)     97.1%
 T-DIPOLE    0.3255         C  1 -- C  5         +11.0% ( 55.7%)     93.9%
 TRAVEL      0.0656         C  1 -- C  3          +9.1% ( 50.7%)     26.2%
 RED. MASS   1.6384         C  1 -- C  6          +8.2% ( 48.2%)     78.6%
 EFF. MASS  10.9984

 VIBRATION   39   39A         ATOM PAIR      ENERGY CONTRIBUTION    RADIAL
 FREQ.      1484.65         C  1 -- C  6         +16.2% ( 65.5%)     93.7%
 T-DIPOLE    0.4855         C  1 -- C  3         +12.9% ( 58.5%)     55.1%
 TRAVEL      0.0633         C  1 -- C  5         +10.0% ( 51.6%)     46.7%
 RED. MASS   2.0393         C  1 -- H 11          +9.6% ( 50.5%)      0.0%
 EFF. MASS  11.3474

 VIBRATION   40   40A         ATOM PAIR      ENERGY CONTRIBUTION    RADIAL
 FREQ.      1544.08         C  2 -- C  4         +16.0% ( 67.8%)     92.2%
 T-DIPOLE    0.4462         C  3 -- C  4         +15.5% ( 66.7%)      0.1%
 TRAVEL      0.0617         C  3 -- C  8         +12.1% ( 58.9%)     90.6%
 RED. MASS   2.5315         C  4 -- C  7         +11.1% ( 56.5%)     83.1%
 EFF. MASS  11.4875

 VIBRATION   41   41A         ATOM PAIR      ENERGY CONTRIBUTION    RADIAL
 FREQ.      1746.96         C  5 -- C  7         +34.5% ( 99.2%)    100.0%
 T-DIPOLE    0.4467         C  3 -- C  7         +11.0% ( 55.9%)     17.8%
 TRAVEL      0.0568         C  1 -- C  5         +10.7% ( 55.3%)     17.5%
 RED. MASS   4.9346         C  4 -- C  5         +10.6% ( 55.1%)     53.2%
 EFF. MASS  11.9763         C  4 -- C  7         +10.2% ( 53.8%)     18.9%

 VIBRATION   42   42A         ATOM PAIR      ENERGY CONTRIBUTION    RADIAL
 FREQ.      1798.72         C  8 -- C 10         +37.1% ( 91.2%)     99.8%
 T-DIPOLE    0.3650         C  9 -- C 10         +16.0% ( 59.9%)     79.2%
 TRAVEL      0.0560         C 10 -- H 18         +12.2% ( 52.3%)      3.7%
 RED. MASS   4.1374         C  3 -- C  8         +10.4% ( 48.3%)     38.0%
 EFF. MASS  11.9411         C  8 -- H 19         +10.1% ( 47.7%)      7.1%

 VIBRATION   43   43A         ATOM PAIR      ENERGY CONTRIBUTION    RADIAL
 FREQ.      1829.20         C  6 -- C  9         +35.9% ( 89.5%)     99.9%
 T-DIPOLE    0.3647         C  9 -- C 10         +12.1% ( 51.9%)     20.5%
 TRAVEL      0.0558         C  1 -- C  6         +11.9% ( 51.7%)     49.1%
 RED. MASS   3.8057         C  6 -- H 15         +10.7% ( 49.0%)      5.1%
 EFF. MASS  11.8350         C  9 -- H 17         +10.6% ( 48.7%)      6.1%

 VIBRATION   44   44A         ATOM PAIR      ENERGY CONTRIBUTION    RADIAL
 FREQ.      1887.01         C  3 -- C  4         +27.9% ( 87.1%)     99.8%
 T-DIPOLE    0.5146         C  3 -- C  8         +14.0% ( 61.6%)     71.7%
 TRAVEL      0.0548         C  3 -- C  7         +10.8% ( 54.1%)     94.3%
 RED. MASS   4.0168         C  1 -- C  3         +10.4% ( 53.1%)      0.8%
 EFF. MASS  11.9141

 VIBRATION   45   45A         ATOM PAIR      ENERGY CONTRIBUTION    RADIAL
 FREQ.      2835.28         C  1 -- H 11         +97.2% (100.0%)    100.0%
 T-DIPOLE    0.2711         C  1 -- C  3          +0.9% (  9.7%)     10.5%
 TRAVEL      0.1293         C  1 -- C  5          +0.9% (  9.7%)      7.8%
 RED. MASS   0.9298         C  1 -- C  6          +0.9% (  9.7%)      6.7%
 EFF. MASS   1.4223

 VIBRATION   46   46A         ATOM PAIR      ENERGY CONTRIBUTION    RADIAL
 FREQ.      3055.54         C  9 -- H 17         +47.5% ( 70.0%)    100.0%
 T-DIPOLE    0.1253         C 10 -- H 18         +27.8% ( 53.5%)    100.0%
 TRAVEL      0.1220         C  8 -- H 19         +12.2% ( 35.6%)    100.0%
 RED. MASS   0.3212         C  6 -- H 15          +9.8% ( 31.8%)     99.9%
 EFF. MASS   1.4837

 VIBRATION   47   47A         ATOM PAIR      ENERGY CONTRIBUTION    RADIAL
 FREQ.      3060.21         C  8 -- H 19         +40.5% ( 64.6%)    100.0%
 T-DIPOLE    0.3600         C  9 -- H 17         +25.4% ( 51.2%)    100.0%
 TRAVEL      0.1226         C 10 -- H 18         +19.1% ( 44.4%)     99.9%
 RED. MASS   0.2737         C  6 -- H 15         +11.7% ( 34.8%)    100.0%
 EFF. MASS   1.4654

 VIBRATION   48   48A         ATOM PAIR      ENERGY CONTRIBUTION    RADIAL
 FREQ.      3067.60         C  2 -- H 13         +54.4% ( 76.1%)     97.7%
 T-DIPOLE    0.0423         C  2 -- H 14         +42.9% ( 67.6%)     96.0%
 TRAVEL      0.1209         C  2 -- H 12          +1.6% ( 13.0%)     15.6%
 RED. MASS   0.5089         C  2 -- C  4          +1.0% ( 10.2%)      0.0%
 EFF. MASS   1.5037

 VIBRATION   49   49A         ATOM PAIR      ENERGY CONTRIBUTION    RADIAL
 FREQ.      3074.12         C  2 -- H 12         +30.3% ( 56.4%)     98.8%
 T-DIPOLE    0.3596         C 10 -- H 18         +20.5% ( 46.4%)     99.9%
 TRAVEL      0.1192         C  8 -- H 19         +15.4% ( 40.2%)     99.9%
 RED. MASS   0.2007         C  6 -- H 15         +14.0% ( 38.3%)    100.0%
 EFF. MASS   1.5430         C  2 -- H 14         +12.0% ( 35.4%)     90.1%

 VIBRATION   50   50A         ATOM PAIR      ENERGY CONTRIBUTION    RADIAL
 FREQ.      3076.14         C  2 -- H 12         +32.7% ( 58.6%)     98.8%
 T-DIPOLE    0.3237         C  8 -- H 19         +17.7% ( 43.1%)    100.0%
 TRAVEL      0.1193         C  6 -- H 15         +16.5% ( 41.6%)    100.0%
 RED. MASS   0.2030         C  2 -- H 14         +12.1% ( 35.6%)     88.9%
 EFF. MASS   1.5393         C 10 -- H 18         +10.1% ( 32.6%)     99.9%

 VIBRATION   51   51A         ATOM PAIR      ENERGY CONTRIBUTION    RADIAL
 FREQ.      3082.15         C  6 -- H 15         +44.3% ( 67.6%)     99.9%
 T-DIPOLE    0.3063         C  9 -- H 17         +22.1% ( 47.7%)     99.9%
 TRAVEL      0.1169         C 10 -- H 18         +18.8% ( 44.0%)    100.0%
 RED. MASS   0.2928         C  8 -- H 19         +10.5% ( 32.8%)     99.9%
 EFF. MASS   1.6014

 VIBRATION   52   52A         ATOM PAIR      ENERGY CONTRIBUTION    RADIAL
 FREQ.      3129.72         C  7 -- H 20         +72.5% ( 87.2%)    100.0%
 T-DIPOLE    0.3670         C  5 -- H 16         +23.1% ( 49.3%)    100.0%
 TRAVEL      0.1203         C  5 -- C  7          +1.3% ( 11.6%)      6.5%
 RED. MASS   0.5900         C  3 -- C  7          +1.2% ( 11.3%)     83.8%
 EFF. MASS   1.4893

 VIBRATION   53   53A         ATOM PAIR      ENERGY CONTRIBUTION    RADIAL
 FREQ.      3149.56         C  5 -- H 16         +71.5% ( 87.0%)    100.0%
 T-DIPOLE    0.4421         C  7 -- H 20         +22.5% ( 48.8%)     99.9%
 TRAVEL      0.1145         C  5 -- C  7          +2.3% ( 15.6%)     93.0%
 RED. MASS   0.5920         C  4 -- C  5          +1.3% ( 11.9%)     96.9%
 EFF. MASS   1.6333

 VIBRATION   54   54A         ATOM PAIR      ENERGY CONTRIBUTION    RADIAL
 FREQ.      3164.32         C  2 -- H 12         +34.8% ( 56.9%)     97.3%
 T-DIPOLE    0.0803         C  2 -- H 13         +32.5% ( 54.9%)     97.0%
 TRAVEL      0.1368         C  2 -- H 14         +32.4% ( 54.8%)     97.0%
 RED. MASS   0.3272         C  2 -- C  4          +0.3% (  5.4%)    100.0%
 EFF. MASS   1.1388

      SYMMETRY NUMBER FOR POINT-GROUP C1  =  1


          SYSTEM IS A GROUND STATE



 InChI=1S/C10H10/c1-8-6-7-9-4-2-3-5-10(8)9/h2-7,9H,1H3


          MOLECULE IS NOT LINEAR

          THERE ARE 54 GENUINE VIBRATIONS IN THIS SYSTEM
          THIS THERMODYNAMICS CALCULATION IS LIMITED TO
          MOLECULES WHICH HAVE NO INTERNAL ROTATIONS




                    CALCULATED THERMODYNAMIC PROPERTIES
                                          *
   TEMP. (K)   PARTITION FUNCTION   H.O.F.    ENTHALPY  HEAT CAPACITY ENTROPY
                                   KCAL/MOL   CAL/MOLE    CAL/K/MOL  CAL/K/MOL


 298.00  VIB.     0.4040D+02                  3365.6388    26.8713    18.6444
         ROT.     0.5145D+06                   888.2813     2.9808    29.1145
         INT.     0.2079D+08                  4253.9201    29.8521    47.7589
         TRA.     0.1436D+28                  1480.4688     4.9680    40.5022
         TOT.                       58.182    5734.3889    34.8201    88.2611

 200.00  VIB.     0.7083D+01                  1299.1605    15.5186    10.3861
         ROT.     0.2829D+06                   596.1620     2.9808    27.9259
         INT.     0.2004D+07                  1895.3224    18.4994    38.3119
         TRA.     0.7896D+27                   993.6033     4.9680    38.5210
         TOT.                       55.336    2888.9257    23.4674    76.8330

 210.00  VIB.     0.8353D+01                  1459.7280    16.5994    11.1693
         ROT.     0.3044D+06                   625.9700     2.9808    28.0713
         INT.     0.2543D+07                  2085.6980    19.5802    39.2406
         TRA.     0.8496D+27                  1043.2834     4.9680    38.7634
         TOT.                       55.577    3128.9814    24.5482    78.0040

 220.00  VIB.     0.9882D+01                  1631.2333    17.7057    11.9669
         ROT.     0.3264D+06                   655.7781     2.9808    28.2100
         INT.     0.3225D+07                  2287.0115    20.6865    40.1769
         TRA.     0.9110D+27                  1092.9636     4.9680    38.9945
         TOT.                       55.828    3379.9750    25.6546    79.1714

 230.00  VIB.     0.1173D+02                  1813.9186    18.8349    12.7788
         ROT.     0.3489D+06                   685.5862     2.9808    28.3425
         INT.     0.4091D+07                  2499.5048    21.8157    41.1213
         TRA.     0.9738D+27                  1142.6437     4.9680    39.2154
         TOT.                       56.090    3642.1486    26.7837    80.3366

 240.00  VIB.     0.1395D+02                  2007.9971    19.9838    13.6046
         ROT.     0.3719D+06                   715.3943     2.9808    28.4693
         INT.     0.5189D+07                  2723.3914    22.9647    42.0739
         TRA.     0.1038D+28                  1192.3239     4.9680    39.4268
         TOT.                       56.363    3915.7153    27.9327    81.5008

 250.00  VIB.     0.1665D+02                  2213.6508    21.1494    14.4440
         ROT.     0.3954D+06                   745.2024     2.9808    28.5910
         INT.     0.6584D+07                  2958.8532    24.1302    43.0350
         TRA.     0.1103D+28                  1242.0041     4.9680    39.6296
         TOT.                       56.648    4200.8573    29.0982    82.6646

 260.00  VIB.     0.1993D+02                  2431.0290    22.3282    15.2964
         ROT.     0.4193D+06                   775.0105     2.9808    28.7079
         INT.     0.8357D+07                  3206.0395    25.3090    44.0043
         TRA.     0.1170D+28                  1291.6842     4.9680    39.8245
         TOT.                       56.945    4497.7237    30.2770    83.8288

 270.00  VIB.     0.2392D+02                  2660.2477    23.5169    16.1613
         ROT.     0.4437D+06                   804.8186     2.9808    28.8204
         INT.     0.1061D+08                  3465.0663    26.4977    44.9818
         TRA.     0.1239D+28                  1341.3644     4.9680    40.0120
         TOT.                       57.254    4806.4307    31.4658    84.9937

 280.00  VIB.     0.2878D+02                  2901.3900    24.7124    17.0382
         ROT.     0.4686D+06                   834.6267     2.9808    28.9288
         INT.     0.1348D+08                  3736.0168    27.6932    45.9670
         TRA.     0.1308D+28                  1391.0445     4.9680    40.1926
         TOT.                       57.575    5127.0613    32.6612    86.1596

 290.00  VIB.     0.3471D+02                  3154.5075    25.9115    17.9263
         ROT.     0.4939D+06                   864.4348     2.9808    29.0334
         INT.     0.1714D+08                  4018.9424    28.8923    46.9597
         TRA.     0.1379D+28                  1440.7247     4.9680    40.3670
         TOT.                       57.907    5459.6671    33.8603    87.3267

 300.00  VIB.     0.4197D+02                  3419.6213    27.1112    18.8249
         ROT.     0.5197D+06                   894.2429     2.9808    29.1345
         INT.     0.2181D+08                  4313.8642    30.0920    47.9594
         TRA.     0.1451D+28                  1490.4049     4.9680    40.5354
         TOT.                       58.252    5804.2691    35.0600    88.4948

 310.00  VIB.     0.5088D+02                  3696.7239    28.3088    19.7334
         ROT.     0.5459D+06                   924.0510     2.9808    29.2322
         INT.     0.2777D+08                  4620.7749    31.2896    48.9657
         TRA.     0.1524D+28                  1540.0850     4.9680    40.6983
         TOT.                       58.608    6160.8600    36.2576    89.6640

 320.00  VIB.     0.6181D+02                  3985.7819    29.5018    20.6511
         ROT.     0.5725D+06                   953.8591     2.9808    29.3269
         INT.     0.3539D+08                  4939.6410    32.4826    49.9779
         TRA.     0.1598D+28                  1589.7652     4.9680    40.8560
         TOT.                       58.977    6529.4062    37.4507    90.8339

 330.00  VIB.     0.7527D+02                  4286.7377    30.6880    21.5771
         ROT.     0.5996D+06                   983.6672     2.9808    29.4186
         INT.     0.4513D+08                  5270.4049    33.6688    50.9956
         TRA.     0.1674D+28                  1639.4454     4.9680    41.0089
         TOT.                       59.357    6909.8502    38.6368    92.0045

 340.00  VIB.     0.9186D+02                  4599.5118    31.8652    22.5107
         ROT.     0.6270D+06                  1013.4753     2.9808    29.5076
         INT.     0.5760D+08                  5612.9871    34.8460    52.0183
         TRA.     0.1750D+28                  1689.1255     4.9680    41.1572
         TOT.                       59.750    7302.1127    39.8140    93.1755

 350.00  VIB.     0.1123D+03                  4924.0057    33.0316    23.4512
         ROT.     0.6549D+06                  1043.2834     2.9808    29.5940
         INT.     0.7357D+08                  5967.2891    36.0125    53.0452
         TRA.     0.1828D+28                  1738.8057     4.9680    41.3012
         TOT.                       60.154    7706.0948    40.9805    94.3464

 360.00  VIB.     0.1377D+03                  5260.1036    34.1857    24.3980
         ROT.     0.6832D+06                  1073.0915     2.9808    29.6780
         INT.     0.9405D+08                  6333.1951    37.1666    54.0759
         TRA.     0.1907D+28                  1788.4859     4.9680    41.4412
         TOT.                       60.569    8121.6809    42.1346    95.5171

 370.00  VIB.     0.1690D+03                  5607.6748    35.3261    25.3502
         ROT.     0.7118D+06                  1102.8996     2.9808    29.7596
         INT.     0.1203D+09                  6710.5744    38.3069    55.1098
         TRA.     0.1987D+28                  1838.1660     4.9680    41.5773
         TOT.                       60.996    8548.7404    43.2749    96.6871

 380.00  VIB.     0.2079D+03                  5966.5758    36.4515    26.3073
         ROT.     0.7409D+06                  1132.7077     2.9808    29.8391
         INT.     0.1540D+09                  7099.2835    39.4324    56.1464
         TRA.     0.2068D+28                  1887.8462     4.9680    41.7098
         TOT.                       61.435    8987.1297    44.4004    97.8562

 390.00  VIB.     0.2562D+03                  6336.6526    37.5611    27.2685
         ROT.     0.7703D+06                  1162.5158     2.9808    29.9165
         INT.     0.1973D+09                  7499.1684    40.5419    57.1851
         TRA.     0.2150D+28                  1937.5263     4.9680    41.8388
         TOT.                       61.884    9436.6947    45.5099    99.0239

 400.00  VIB.     0.3162D+03                  6717.7418    38.6539    28.2333
         ROT.     0.8001D+06                  1192.3239     2.9808    29.9920
         INT.     0.2530D+09                  7910.0657    41.6347    58.2253
         TRA.     0.2233D+28                  1987.2065     4.9680    41.9646
         TOT.                       62.345    9897.2722    46.6027   100.1899

   *: NOTE: HEATS OF FORMATION ARE RELATIVE TO THE
            ELEMENTS IN THEIR STANDARD STATE AT 298K
              (=  Standard Enthalpy of Formation).

            Hvib:  Zero-point energy is not included.
                   frequencies of less than zero cm-1 are not included.
            Hrot = (3/2)RT
            Htra = (3/2)RT + pV = (5/2)RT

            Heat capacity is Cp, not Cv

          For more information, see: HTTP://OpenMOPAC.net/Manual/thermochemistry.html


           FORCE CONSTANT IN CARTESIAN COORDINATES (Millidynes/A)

    ATOM   CHEMICAL       X               Y               Z
   NUMBER   SYMBOL  FORCE CONSTANT  FORCE CONSTANT  FORCE CONSTANT

      1       C        9.803266        9.093573        7.531210
      2       C        9.274744        8.469656        7.959222
      3       C       10.880579       14.878438        2.706218
      4       C       14.937413       10.620262        2.629257
      5       C       14.580043        9.565896        2.474423
      6       C        7.625208       14.005898        5.336075
      7       C       13.958685       10.984336        2.286464
      8       C       11.665707       11.168768        4.649016
      9       C        8.047246       13.878398        5.420014
     10       C       10.934061       11.337380        4.932046
     11       H        1.218319        0.567317        3.788063
     12       H        0.914023        5.068378        0.737047
     13       H        1.393266        1.081099        4.156110
     14       H        1.401040        1.964059        3.273004
     15       H        3.139554        2.086805        1.048189
     16       H        2.834852        3.214451        0.399719
     17       H        2.533741        1.661930        2.066619
     18       H        0.668083        5.066153        0.533672
     19       H        3.505174        1.900388        0.847709
     20       H        2.060381        4.004250        0.371080

 **********************
 *                    *
 * JOB ENDED NORMALLY *
 *                    *
 **********************



 TOTAL JOB TIME:             9.29 SECONDS

 == MOPAC DONE ==
