 *******************************************************************************
 ** Site#: 14399        For non-commercial use only    Version 18.184L 64BITS **
 *******************************************************************************
 ** Cite this program as: MOPAC2016, Version: 18.184L, James J. P. Stewart,   **
 ** Stewart Computational Chemistry, web: HTTP://OpenMOPAC.net. Days left:  20**
 *******************************************************************************
 **                                                                           **
 **                                MOPAC2016                                  **
 **                                                                           **
 *******************************************************************************

                              PM3 CALCULATION RESULTS

 *******************************************************************************
 *  CALCULATION DONE:                                Thu Jun 13 21:06:39 2019  *
 *  PM3        - The PM3 Hamiltonian to be used
 *  PRECISE    - CRITERIA TO BE INCREASED BY 100 TIMES
 *  NOSYM      - POINT-GROUP SYMMETRY SET TO C1
 *  THREADS=1  - MULTI-THREADING NOT USED
 *  T=         - A TIME OF 172800.0 SECONDS REQUESTED
 *  DUMP=N     - RESTART FILE WRITTEN EVERY  7200.000 SECONDS
 *******************************************************************************
pm3  precise nosym THREADS=1
 InChI=1S/C7H10/c1-3-7-5-4-6(7)2/h3-4,7H,1,5H2,2H3

   ATOM   CHEMICAL          X               Y               Z
  NUMBER   SYMBOL      (ANGSTROMS)     (ANGSTROMS)     (ANGSTROMS)
 
     1       C         -0.28850000  *   0.41720000  *  -0.41120000  *
     2       C         -0.51120000  *   1.58060000  *   0.40280000  *
     3       C          2.06150000  *  -0.86300000  *   0.25370000  *
     4       C          0.98730000  *   0.16930000  *   0.32960000  *
     5       C          0.77350000  *   1.30330000  *   1.11380000  *
     6       C         -1.29280000  *  -0.68650000  *  -0.18350000  *
     7       C         -2.01410000  *  -1.18900000  *  -1.18850000  *
     8       H         -0.10470000  *   0.65780000  *  -1.48330000  *
     9       H         -0.46220000  *   2.53350000  *  -0.16890000  *
    10       H         -1.38110000  *   1.52380000  *   1.09570000  *
    11       H          3.02980000  *  -0.37420000  *   0.02000000  *
    12       H          2.13860000  *  -1.38970000  *   1.22710000  *
    13       H          1.81880000  *  -1.59680000  *  -0.54250000  *
    14       H         -1.44490000  *  -1.07560000  *   0.82030000  *
    15       H          1.31940000  *   1.78860000  *   1.91550000  *
    16       H         -2.73400000  *  -1.97820000  *  -0.99750000  *
    17       H         -1.89550000  *  -0.82110000  *  -2.20310000  *
 


          CARTESIAN COORDINATES 

    NO.       ATOM           X           Y           Z

     1         C         -0.2885      0.4172     -0.4112
     2         C         -0.5112      1.5806      0.4028
     3         C          2.0615     -0.8630      0.2537
     4         C          0.9873      0.1693      0.3296
     5         C          0.7735      1.3033      1.1138
     6         C         -1.2928     -0.6865     -0.1835
     7         C         -2.0141     -1.1890     -1.1885
     8         H         -0.1047      0.6578     -1.4833
     9         H         -0.4622      2.5335     -0.1689
    10         H         -1.3811      1.5238      1.0957
    11         H          3.0298     -0.3742      0.0200
    12         H          2.1386     -1.3897      1.2271
    13         H          1.8188     -1.5968     -0.5425
    14         H         -1.4449     -1.0756      0.8203
    15         H          1.3194      1.7886      1.9155
    16         H         -2.7340     -1.9782     -0.9975
    17         H         -1.8955     -0.8211     -2.2031

  H: (PM3): J. J. P. STEWART, J. COMP. CHEM. 10, 209 (1989).
  C: (PM3): J. J. P. STEWART, J. COMP. CHEM. 10, 209 (1989).

           Empirical Formula: C7 H10  =    17 atoms



      MOLECULAR POINT GROUP   :   C1  


      RHF CALCULATION, NO. OF DOUBLY OCCUPIED LEVELS = 19


          Geometry optimization using EF

          DIAGONAL MATRIX USED AS START HESSIAN

 CYCLE:     1 TIME:   0.023 TIME LEFT:  2.00D  GRAD.:   218.728 HEAT:  59.49298
 CYCLE:     2 TIME:   0.031 TIME LEFT:  2.00D  GRAD.:   220.371 HEAT:  59.41372
 CYCLE:     3 TIME:   0.023 TIME LEFT:  2.00D  GRAD.:   174.670 HEAT:  53.99801
 CYCLE:     4 TIME:   0.023 TIME LEFT:  2.00D  GRAD.:    96.768 HEAT:  49.66148
 CYCLE:     5 TIME:   0.031 TIME LEFT:  2.00D  GRAD.:    42.563 HEAT:  47.69441
 CYCLE:     6 TIME:   0.031 TIME LEFT:  2.00D  GRAD.:    60.201 HEAT:  47.64653
 CYCLE:     7 TIME:   0.023 TIME LEFT:  2.00D  GRAD.:    44.826 HEAT:  47.25069
 CYCLE:     8 TIME:   0.023 TIME LEFT:  2.00D  GRAD.:    37.240 HEAT:  46.95959
 CYCLE:     9 TIME:   0.023 TIME LEFT:  2.00D  GRAD.:    23.455 HEAT:  46.64232
 CYCLE:    10 TIME:   0.023 TIME LEFT:  2.00D  GRAD.:    22.902 HEAT:  46.50277
 CYCLE:    11 TIME:   0.023 TIME LEFT:  2.00D  GRAD.:    19.205 HEAT:  46.42450
 CYCLE:    12 TIME:   0.023 TIME LEFT:  2.00D  GRAD.:    18.645 HEAT:  46.35108
 CYCLE:    13 TIME:   0.023 TIME LEFT:  2.00D  GRAD.:    13.928 HEAT:  46.32914
 CYCLE:    14 TIME:   0.023 TIME LEFT:  2.00D  GRAD.:    16.248 HEAT:  46.31577
 CYCLE:    15 TIME:   0.031 TIME LEFT:  2.00D  GRAD.:     5.088 HEAT:  46.25776
 CYCLE:    16 TIME:   0.031 TIME LEFT:  2.00D  GRAD.:     4.656 HEAT:  46.24937
 CYCLE:    17 TIME:   0.031 TIME LEFT:  2.00D  GRAD.:     2.685 HEAT:  46.24087
 CYCLE:    18 TIME:   0.031 TIME LEFT:  2.00D  GRAD.:     5.265 HEAT:  46.23741
 CYCLE:    19 TIME:   0.023 TIME LEFT:  2.00D  GRAD.:     3.397 HEAT:  46.22833
 CYCLE:    20 TIME:   0.031 TIME LEFT:  2.00D  GRAD.:     4.260 HEAT:  46.22694
 CYCLE:    21 TIME:   0.023 TIME LEFT:  2.00D  GRAD.:     1.766 HEAT:  46.22035
 CYCLE:    22 TIME:   0.023 TIME LEFT:  2.00D  GRAD.:     4.288 HEAT:  46.22246
 CYCLE:    23 TIME:   0.023 TIME LEFT:  2.00D  GRAD.:     1.098 HEAT:  46.21776
 CYCLE:    24 TIME:   0.023 TIME LEFT:  2.00D  GRAD.:     1.158 HEAT:  46.21681
 CYCLE:    25 TIME:   0.023 TIME LEFT:  2.00D  GRAD.:     0.932 HEAT:  46.21543
 CYCLE:    26 TIME:   0.023 TIME LEFT:  2.00D  GRAD.:     1.284 HEAT:  46.21373
 CYCLE:    27 TIME:   0.023 TIME LEFT:  2.00D  GRAD.:     0.987 HEAT:  46.21294
 CYCLE:    28 TIME:   0.023 TIME LEFT:  2.00D  GRAD.:     0.701 HEAT:  46.21224
 CYCLE:    29 TIME:   0.023 TIME LEFT:  2.00D  GRAD.:     0.630 HEAT:  46.21081
 CYCLE:    30 TIME:   0.023 TIME LEFT:  2.00D  GRAD.:     0.864 HEAT:  46.20964
 CYCLE:    31 TIME:   0.023 TIME LEFT:  2.00D  GRAD.:     0.816 HEAT:  46.20870
 CYCLE:    32 TIME:   0.023 TIME LEFT:  2.00D  GRAD.:     0.612 HEAT:  46.20775
 CYCLE:    33 TIME:   0.023 TIME LEFT:  2.00D  GRAD.:     0.460 HEAT:  46.20699
 CYCLE:    34 TIME:   0.023 TIME LEFT:  2.00D  GRAD.:     0.370 HEAT:  46.20667
 CYCLE:    35 TIME:   0.016 TIME LEFT:  2.00D  GRAD.:     0.311 HEAT:  46.20650
 CYCLE:    36 TIME:   0.023 TIME LEFT:  2.00D  GRAD.:     0.276 HEAT:  46.20632
 CYCLE:    37 TIME:   0.023 TIME LEFT:  2.00D  GRAD.:     0.288 HEAT:  46.20611
 CYCLE:    38 TIME:   0.023 TIME LEFT:  2.00D  GRAD.:     0.262 HEAT:  46.20596
 CYCLE:    39 TIME:   0.023 TIME LEFT:  2.00D  GRAD.:     0.218 HEAT:  46.20584
 CYCLE:    40 TIME:   0.023 TIME LEFT:  2.00D  GRAD.:     0.229 HEAT:  46.20573
 CYCLE:    41 TIME:   0.023 TIME LEFT:  2.00D  GRAD.:     0.234 HEAT:  46.20561
 CYCLE:    42 TIME:   0.023 TIME LEFT:  2.00D  GRAD.:     0.218 HEAT:  46.20549
 CYCLE:    43 TIME:   0.023 TIME LEFT:  2.00D  GRAD.:     0.206 HEAT:  46.20536
 CYCLE:    44 TIME:   0.023 TIME LEFT:  2.00D  GRAD.:     0.223 HEAT:  46.20524
 CYCLE:    45 TIME:   0.023 TIME LEFT:  2.00D  GRAD.:     0.281 HEAT:  46.20507
 CYCLE:    46 TIME:   0.023 TIME LEFT:  2.00D  GRAD.:     0.305 HEAT:  46.20490
 CYCLE:    47 TIME:   0.023 TIME LEFT:  2.00D  GRAD.:     0.376 HEAT:  46.20456
 CYCLE:    48 TIME:   0.023 TIME LEFT:  2.00D  GRAD.:     0.370 HEAT:  46.20436
 CYCLE:    49 TIME:   0.016 TIME LEFT:  2.00D  GRAD.:     0.509 HEAT:  46.20371
 CYCLE:    50 TIME:   0.023 TIME LEFT:  2.00D  GRAD.:     0.508 HEAT:  46.20335
 CYCLE:    51 TIME:   0.031 TIME LEFT:  2.00D  GRAD.:     1.024 HEAT:  46.20175
 CYCLE:    52 TIME:   0.023 TIME LEFT:  2.00D  GRAD.:     0.574 HEAT:  46.20104
 CYCLE:    53 TIME:   0.039 TIME LEFT:  2.00D  GRAD.:     0.473 HEAT:  46.20048
 CYCLE:    54 TIME:   0.023 TIME LEFT:  2.00D  GRAD.:     0.575 HEAT:  46.19926
 CYCLE:    55 TIME:   0.023 TIME LEFT:  2.00D  GRAD.:     0.689 HEAT:  46.19828
 CYCLE:    56 TIME:   0.023 TIME LEFT:  2.00D  GRAD.:     0.919 HEAT:  46.19679
 CYCLE:    57 TIME:   0.023 TIME LEFT:  2.00D  GRAD.:     1.030 HEAT:  46.19522
 CYCLE:    58 TIME:   0.031 TIME LEFT:  2.00D  GRAD.:     0.761 HEAT:  46.19316
 CYCLE:    59 TIME:   0.016 TIME LEFT:  2.00D  GRAD.:     0.752 HEAT:  46.19232
 CYCLE:    60 TIME:   0.023 TIME LEFT:  2.00D  GRAD.:     0.989 HEAT:  46.19025
 CYCLE:    61 TIME:   0.023 TIME LEFT:  2.00D  GRAD.:     0.801 HEAT:  46.18938
 CYCLE:    62 TIME:   0.023 TIME LEFT:  2.00D  GRAD.:     0.508 HEAT:  46.18827
 CYCLE:    63 TIME:   0.023 TIME LEFT:  2.00D  GRAD.:     0.844 HEAT:  46.18733
 CYCLE:    64 TIME:   0.031 TIME LEFT:  2.00D  GRAD.:     1.042 HEAT:  46.18570
 CYCLE:    65 TIME:   0.023 TIME LEFT:  2.00D  GRAD.:     1.436 HEAT:  46.18267
 CYCLE:    66 TIME:   0.016 TIME LEFT:  2.00D  GRAD.:     0.993 HEAT:  46.18124
 CYCLE:    67 TIME:   0.023 TIME LEFT:  2.00D  GRAD.:     0.975 HEAT:  46.17837
 CYCLE:    68 TIME:   0.023 TIME LEFT:  2.00D  GRAD.:     1.170 HEAT:  46.17603
 CYCLE:    69 TIME:   0.023 TIME LEFT:  2.00D  GRAD.:     1.169 HEAT:  46.17331
 CYCLE:    70 TIME:   0.023 TIME LEFT:  2.00D  GRAD.:     1.465 HEAT:  46.16983
 CYCLE:    71 TIME:   0.023 TIME LEFT:  2.00D  GRAD.:     1.717 HEAT:  46.16681
 CYCLE:    72 TIME:   0.023 TIME LEFT:  2.00D  GRAD.:     1.517 HEAT:  46.16436
 CYCLE:    73 TIME:   0.023 TIME LEFT:  2.00D  GRAD.:     0.941 HEAT:  46.16247
 CYCLE:    74 TIME:   0.023 TIME LEFT:  2.00D  GRAD.:     0.719 HEAT:  46.16130
 CYCLE:    75 TIME:   0.023 TIME LEFT:  2.00D  GRAD.:     0.623 HEAT:  46.16063
 CYCLE:    76 TIME:   0.023 TIME LEFT:  2.00D  GRAD.:     0.718 HEAT:  46.15970
 CYCLE:    77 TIME:   0.016 TIME LEFT:  2.00D  GRAD.:     0.701 HEAT:  46.15908
 CYCLE:    78 TIME:   0.031 TIME LEFT:  2.00D  GRAD.:     1.629 HEAT:  46.15558
 CYCLE:    79 TIME:   0.023 TIME LEFT:  2.00D  GRAD.:     0.858 HEAT:  46.15443
 CYCLE:    80 TIME:   0.023 TIME LEFT:  2.00D  GRAD.:     0.501 HEAT:  46.15242
 CYCLE:    81 TIME:   0.023 TIME LEFT:  2.00D  GRAD.:     1.082 HEAT:  46.15021
 CYCLE:    82 TIME:   0.023 TIME LEFT:  2.00D  GRAD.:     1.072 HEAT:  46.14867
 CYCLE:    83 TIME:   0.023 TIME LEFT:  2.00D  GRAD.:     0.993 HEAT:  46.14490
 CYCLE:    84 TIME:   0.023 TIME LEFT:  2.00D  GRAD.:     2.783 HEAT:  46.14423
 CYCLE:    85 TIME:   0.023 TIME LEFT:  2.00D  GRAD.:     1.323 HEAT:  46.13582
 CYCLE:    86 TIME:   0.016 TIME LEFT:  2.00D  GRAD.:     2.557 HEAT:  46.12977
 CYCLE:    87 TIME:   0.023 TIME LEFT:  2.00D  GRAD.:     2.602 HEAT:  46.11811
 CYCLE:    88 TIME:   0.023 TIME LEFT:  2.00D  GRAD.:     2.287 HEAT:  46.09510
 CYCLE:    89 TIME:   0.023 TIME LEFT:  2.00D  GRAD.:     4.697 HEAT:  46.08264
 CYCLE:    90 TIME:   0.031 TIME LEFT:  2.00D  GRAD.:     6.198 HEAT:  46.08151
 CYCLE:    91 TIME:   0.023 TIME LEFT:  2.00D  GRAD.:     3.908 HEAT:  46.06007
 CYCLE:    92 TIME:   0.031 TIME LEFT:  2.00D  GRAD.:     1.827 HEAT:  46.05518
 CYCLE:    93 TIME:   0.016 TIME LEFT:  2.00D  GRAD.:     1.495 HEAT:  46.05108
 CYCLE:    94 TIME:   0.023 TIME LEFT:  2.00D  GRAD.:     2.671 HEAT:  46.04268
 CYCLE:    95 TIME:   0.023 TIME LEFT:  2.00D  GRAD.:     5.198 HEAT:  46.03356
 CYCLE:    96 TIME:   0.023 TIME LEFT:  2.00D  GRAD.:     4.261 HEAT:  46.01737
 CYCLE:    97 TIME:   0.023 TIME LEFT:  2.00D  GRAD.:     2.706 HEAT:  45.99841
 CYCLE:    98 TIME:   0.023 TIME LEFT:  2.00D  GRAD.:     4.221 HEAT:  45.98012
 CYCLE:    99 TIME:   0.039 TIME LEFT:  2.00D  GRAD.:     4.786 HEAT:  45.97195
 CYCLE:   100 TIME:   0.023 TIME LEFT:  2.00D  GRAD.:     2.494 HEAT:  45.95964
 CYCLE:   101 TIME:   0.023 TIME LEFT:  2.00D  GRAD.:     2.536 HEAT:  45.95005
 CYCLE:   102 TIME:   0.031 TIME LEFT:  2.00D  GRAD.:     1.458 HEAT:  45.93963
 CYCLE:   103 TIME:   0.023 TIME LEFT:  2.00D  GRAD.:     0.983 HEAT:  45.92748
 CYCLE:   104 TIME:   0.031 TIME LEFT:  2.00D  GRAD.:     1.959 HEAT:  45.91386
 CYCLE:   105 TIME:   0.016 TIME LEFT:  2.00D  GRAD.:     3.734 HEAT:  45.89411
 CYCLE:   106 TIME:   0.023 TIME LEFT:  2.00D  GRAD.:     4.250 HEAT:  45.88310
 CYCLE:   107 TIME:   0.047 TIME LEFT:  2.00D  GRAD.:     4.276 HEAT:  45.88089
 CYCLE:   108 TIME:   0.016 TIME LEFT:  2.00D  GRAD.:     0.905 HEAT:  45.86802
 CYCLE:   109 TIME:   0.023 TIME LEFT:  2.00D  GRAD.:     1.171 HEAT:  45.86254
 CYCLE:   110 TIME:   0.023 TIME LEFT:  2.00D  GRAD.:     4.348 HEAT:  45.85838
 CYCLE:   111 TIME:   0.023 TIME LEFT:  2.00D  GRAD.:     1.424 HEAT:  45.85387
 CYCLE:   112 TIME:   0.023 TIME LEFT:  2.00D  GRAD.:     1.566 HEAT:  45.84941
 CYCLE:   113 TIME:   0.023 TIME LEFT:  2.00D  GRAD.:     1.407 HEAT:  45.84472
 CYCLE:   114 TIME:   0.023 TIME LEFT:  2.00D  GRAD.:     2.413 HEAT:  45.84174
 CYCLE:   115 TIME:   0.016 TIME LEFT:  2.00D  GRAD.:     0.698 HEAT:  45.83928
 CYCLE:   116 TIME:   0.023 TIME LEFT:  2.00D  GRAD.:     0.544 HEAT:  45.83817
 CYCLE:   117 TIME:   0.023 TIME LEFT:  2.00D  GRAD.:     0.831 HEAT:  45.83750
 CYCLE:   118 TIME:   0.023 TIME LEFT:  2.00D  GRAD.:     0.439 HEAT:  45.83725
 CYCLE:   119 TIME:   0.031 TIME LEFT:  2.00D  GRAD.:     0.316 HEAT:  45.83695
 CYCLE:   120 TIME:   0.023 TIME LEFT:  2.00D  GRAD.:     0.230 HEAT:  45.83668
 CYCLE:   121 TIME:   0.023 TIME LEFT:  2.00D  GRAD.:     0.177 HEAT:  45.83654
 CYCLE:   122 TIME:   0.023 TIME LEFT:  2.00D  GRAD.:     0.128 HEAT:  45.83650
 CYCLE:   123 TIME:   0.023 TIME LEFT:  2.00D  GRAD.:     0.120 HEAT:  45.83646
 CYCLE:   124 TIME:   0.023 TIME LEFT:  2.00D  GRAD.:     0.077 HEAT:  45.83645
 CYCLE:   125 TIME:   0.023 TIME LEFT:  2.00D  GRAD.:     0.051 HEAT:  45.83645
 CYCLE:   126 TIME:   0.023 TIME LEFT:  2.00D  GRAD.:     0.313 HEAT:  45.83648
 CYCLE:   127 TIME:   0.023 TIME LEFT:  2.00D  GRAD.:     0.051 HEAT:  45.83644
 CYCLE:   128 TIME:   0.023 TIME LEFT:  2.00D  GRAD.:     0.042 HEAT:  45.83644

     GRADIENT =  0.04221  IS LESS THAN CUTOFF =  0.05000



 -------------------------------------------------------------------------------
 pm3  precise nosym THREADS=1
 InChI=1S/C7H10/c1-3-7-5-4-6(7)2/h3-4,7H,1,5H2,2H3



     GEOMETRY OPTIMISED USING EIGENVECTOR FOLLOWING (EF).     
     SCF FIELD WAS ACHIEVED                                   


                              PM3 CALCULATION
                                                       MOPAC2016 (Version: 18.184L)
                                                       Thu Jun 13 21:06:42 2019
                                                       No. of days remaining =  20




          FINAL HEAT OF FORMATION =         45.83644 KCAL/MOL =     191.77968 KJ/MOL


          TOTAL ENERGY            =       -981.82204 EV
          ELECTRONIC ENERGY       =      -4474.63314 EV  POINT GROUP:     C1  
          CORE-CORE REPULSION     =       3492.81110 EV
          COSMO AREA              =        151.36 SQUARE ANGSTROMS
          COSMO VOLUME            =        144.06 CUBIC ANGSTROMS

          GRADIENT NORM           =          0.04221 = 0.01024 PER ATOM
          IONIZATION POTENTIAL    =          9.505743 EV
          HOMO LUMO ENERGIES (EV) =         -9.506  0.935
          NO. OF FILLED LEVELS    =         19
          MOLECULAR WEIGHT        =         94.1560

          MOLECULAR DIMENSIONS (Angstroms)

            Atom       Atom       Distance
            H    16    H    15     6.34037
            H    13    H    10     4.94379
            H     9    H    12     3.12885


          SCF CALCULATIONS        =        144
 
          WALL-CLOCK TIME         =          3.164 SECONDS
          COMPUTATION TIME        =          1.287 SECONDS




   ATOM   CHEMICAL          X               Y               Z
  NUMBER   SYMBOL      (ANGSTROMS)     (ANGSTROMS)     (ANGSTROMS)
 
     1       C         -0.31279991  *   0.36388897  *  -0.42449744  *
     2       C         -0.49461186  *   1.66755596  *   0.44459585  *
     3       C          2.02862342  *  -0.84072200  *   0.22318695  *
     4       C          1.00994959  *   0.19869854  *   0.33075231  *
     5       C          0.84821287  *   1.32466176  *   1.05892214  *
     6       C         -1.31974199  *  -0.69215021  *  -0.16651785  *
     7       C         -2.00858349  *  -1.28180805  *  -1.13687204  *
     8       H         -0.18089192  *   0.56318666  *  -1.50826233  *
     9       H         -0.52846165  *   2.60699939  *  -0.12442802  *
    10       H         -1.34631070  *   1.65249052  *   1.13974464  *
    11       H          2.87125092  *  -0.65385900  *   0.90045585  *
    12       H          1.60462354  *  -1.82361264  *   0.46975523  *
    13       H          2.42067969  *  -0.89466147  *  -0.80134175  *
    14       H         -1.47058073  *  -0.96479128  *   0.88509822  *
    15       H          1.42526089  *   1.84605188  *   1.81030553  *
    16       H         -2.74825525  *  -2.05260955  *  -0.94332900  *
    17       H         -1.88514107  *  -1.03948782  *  -2.18912636  *

                             CARTESIAN COORDINATES

   1    C       -0.312799910     0.363888972    -0.424497442
   2    C       -0.494611856     1.667555961     0.444595848
   3    C        2.028623417    -0.840721998     0.223186945
   4    C        1.009949590     0.198698544     0.330752314
   5    C        0.848212872     1.324661760     1.058922140
   6    C       -1.319741995    -0.692150207    -0.166517847
   7    C       -2.008583493    -1.281808046    -1.136872039
   8    H       -0.180891923     0.563186656    -1.508262332
   9    H       -0.528461650     2.606999393    -0.124428022
  10    H       -1.346310700     1.652490522     1.139744641
  11    H        2.871250917    -0.653859004     0.900455851
  12    H        1.604623538    -1.823612639     0.469755228
  13    H        2.420679692    -0.894661469    -0.801341749
  14    H       -1.470580732    -0.964791277     0.885098219
  15    H        1.425260893     1.846051878     1.810305535
  16    H       -2.748255251    -2.052609548    -0.943329003
  17    H       -1.885141071    -1.039487819    -2.189126360


           Empirical Formula: C7 H10  =    17 atoms



      MOLECULAR POINT GROUP   :   C1  


                  EIGENVALUES  
 -40.24694 -32.55387 -30.21773 -24.19847 -22.63180 -20.01026 -17.92765 -16.33396
 -16.02114 -15.47367 -14.95761 -14.02043 -13.39185 -12.91949 -12.58791 -12.08431
 -11.72070 -10.19244  -9.50574   0.93544   1.06948   3.19127   3.35260   3.47190
   3.67851   3.87279   3.92962   4.14078   4.19929   4.29324   4.42726   4.51479
   4.68695   4.85759   5.26179   5.60046   5.87606   6.23951


              NET ATOMIC CHARGES AND DIPOLE CONTRIBUTIONS

  ATOM NO.   TYPE          CHARGE      No. of ELECS.   s-Pop       p-Pop       
    1          C          -0.029627        4.0296     1.17694     2.85269
    2          C          -0.073504        4.0735     1.16955     2.90395
    3          C          -0.037171        4.0372     1.11056     2.92661
    4          C          -0.138966        4.1390     1.22073     2.91824
    5          C          -0.168333        4.1683     1.21695     2.95139
    6          C          -0.125243        4.1252     1.19102     2.93422
    7          C          -0.159082        4.1591     1.18304     2.97605
    8          H           0.079352        0.9206     0.92065
    9          H           0.061121        0.9389     0.93888
   10          H           0.064686        0.9353     0.93531
   11          H           0.043470        0.9565     0.95653
   12          H           0.048755        0.9512     0.95125
   13          H           0.046890        0.9531     0.95311
   14          H           0.101268        0.8987     0.89873
   15          H           0.126475        0.8735     0.87352
   16          H           0.078905        0.9211     0.92110
   17          H           0.081005        0.9190     0.91899
 DIPOLE           X         Y         Z       TOTAL
 POINT-CHG.     0.079    -0.100    -0.063     0.142
 HYBRID        -0.000    -0.003     0.014     0.015
 SUM            0.079    -0.104    -0.049     0.139


          ATOMIC ORBITAL ELECTRON POPULATIONS

     Atom    s        px        py        pz   
    1  C   1.17694   0.92567   0.94343   0.98359
    2  C   1.16955   0.96041   0.96358   0.97996
    3  C   1.11056   0.95889   0.96196   1.00576
    4  C   1.22073   0.96179   0.97146   0.98499
    5  C   1.21695   0.97862   0.97470   0.99806
    6  C   1.19102   0.97163   0.97328   0.98931
    7  C   1.18304   0.99491   0.99831   0.98283
    8  H   0.92065
    9  H   0.93888
   10  H   0.93531
   11  H   0.95653
   12  H   0.95125
   13  H   0.95311
   14  H   0.89873
   15  H   0.87352
   16  H   0.92110
   17  H   0.91899
 *******************************************************************************
 ** Site#: 14399        For non-commercial use only    Version 18.184L 64BITS **
 *******************************************************************************
 ** Cite this program as: MOPAC2016, Version: 18.184L, James J. P. Stewart,   **
 ** Stewart Computational Chemistry, web: HTTP://OpenMOPAC.net. Days left:  20**
 *******************************************************************************
 **                                                                           **
 **                                MOPAC2016                                  **
 **                                                                           **
 *******************************************************************************

                              PM3 CALCULATION RESULTS

 *******************************************************************************
 *  CALCULATION DONE:                                Thu Jun 13 21:06:42 2019  *
 *  PM3        - The PM3 Hamiltonian to be used
 *  OLDGEO     - PREVIOUS GEOMETRY TO BE USED
 *  PRECISE    - CRITERIA TO BE INCREASED BY 100 TIMES
 *  NOSYM      - POINT-GROUP SYMMETRY SET TO C1
 *  THREADS=1  - MULTI-THREADING NOT USED
 *  T=         - A TIME OF 172800.0 SECONDS REQUESTED
 *  DUMP=N     - RESTART FILE WRITTEN EVERY  7200.000 SECONDS
 *  THERMO     - THERMODYNAMIC QUANTITIES TO BE CALCULATED
 *******************************************************************************
oldgeo thermo nosym precise THREADS=1  pm3
 InChI=1S/C7H10/c1-3-7-5-4-6(7)2/h3-4,7H,1,5H2,2H3

   ATOM   CHEMICAL          X               Y               Z
  NUMBER   SYMBOL      (ANGSTROMS)     (ANGSTROMS)     (ANGSTROMS)
 
     1       C         -0.31279991  *   0.36388897  *  -0.42449744  *
     2       C         -0.49461186  *   1.66755596  *   0.44459585  *
     3       C          2.02862342  *  -0.84072200  *   0.22318695  *
     4       C          1.00994959  *   0.19869854  *   0.33075231  *
     5       C          0.84821287  *   1.32466176  *   1.05892214  *
     6       C         -1.31974199  *  -0.69215021  *  -0.16651785  *
     7       C         -2.00858349  *  -1.28180805  *  -1.13687204  *
     8       H         -0.18089192  *   0.56318666  *  -1.50826233  *
     9       H         -0.52846165  *   2.60699939  *  -0.12442802  *
    10       H         -1.34631070  *   1.65249052  *   1.13974464  *
    11       H          2.87125092  *  -0.65385900  *   0.90045585  *
    12       H          1.60462354  *  -1.82361264  *   0.46975523  *
    13       H          2.42067969  *  -0.89466147  *  -0.80134175  *
    14       H         -1.47058073  *  -0.96479128  *   0.88509822  *
    15       H          1.42526089  *   1.84605188  *   1.81030553  *
    16       H         -2.74825525  *  -2.05260955  *  -0.94332900  *
    17       H         -1.88514107  *  -1.03948782  *  -2.18912636  *
 


          CARTESIAN COORDINATES 

    NO.       ATOM           X           Y           Z

     1         C         -0.3128      0.3639     -0.4245
     2         C         -0.4946      1.6676      0.4446
     3         C          2.0286     -0.8407      0.2232
     4         C          1.0099      0.1987      0.3308
     5         C          0.8482      1.3247      1.0589
     6         C         -1.3197     -0.6922     -0.1665
     7         C         -2.0086     -1.2818     -1.1369
     8         H         -0.1809      0.5632     -1.5083
     9         H         -0.5285      2.6070     -0.1244
    10         H         -1.3463      1.6525      1.1397
    11         H          2.8713     -0.6539      0.9005
    12         H          1.6046     -1.8236      0.4698
    13         H          2.4207     -0.8947     -0.8013
    14         H         -1.4706     -0.9648      0.8851
    15         H          1.4253      1.8461      1.8103
    16         H         -2.7483     -2.0526     -0.9433
    17         H         -1.8851     -1.0395     -2.1891

  H: (PM3): J. J. P. STEWART, J. COMP. CHEM. 10, 209 (1989).
  C: (PM3): J. J. P. STEWART, J. COMP. CHEM. 10, 209 (1989).

           Empirical Formula: C7 H10  =    17 atoms



      MOLECULAR POINT GROUP   :   C1  


      RHF CALCULATION, NO. OF DOUBLY OCCUPIED LEVELS = 19



          HEAT OF FORMATION =      45.836443 KCALS/MOLE


          CARTESIAN COORDINATE DERIVATIVES

   NUMBER  ATOM         X            Y            Z

     1       C     -0.001137     0.000189    -0.001875
     2       C      0.000387     0.000773    -0.001071
     3       C      0.010974    -0.002201     0.001671
     4       C     -0.000582    -0.000645     0.001351
     5       C      0.002310     0.000944    -0.004578
     6       C      0.013848     0.010729     0.001239
     7       C     -0.009826    -0.010888    -0.003161
     8       H      0.000829    -0.001576    -0.000155
     9       H      0.000026    -0.001025    -0.000439
    10       H     -0.000690    -0.002657    -0.001552
    11       H      0.006163     0.014853     0.005031
    12       H     -0.004126    -0.001118    -0.016450
    13       H     -0.014304    -0.005362     0.009466
    14       H      0.001207     0.004355    -0.000878
    15       H      0.000790     0.001221     0.002637
    16       H     -0.000022    -0.001718    -0.000007
    17       H     -0.005847    -0.005874     0.008773
 


          GRADIENT NORM =   0.04227


          TIME FOR SCF CALCULATION =    0.02

          TIME FOR DERIVATIVES     =    0.02

          MOLECULAR WEIGHT =   94.16



          ROTATIONAL CONSTANTS IN CM(-1)

          A =    0.13580486   B =    0.07210529   C =    0.05141411



           PRINCIPAL MOMENTS OF INERTIA IN UNITS OF 10**(-40)*GRAM-CM**2

          A =      206.1250   B =      388.2208   C =      544.4570


          ORIENTATION OF MOLECULE IN FORCE CALCULATION

    NO.       ATOM         X         Y         Z

     1          C       0.0071   -0.5048    0.3409
     2          C       1.5844   -0.5048    0.3409
     3          C      -0.9015    2.0500    0.3409
     4          C       0.1343    1.0220    0.3424
     5          C       1.4847    1.0078    0.3560
     6          C      -0.6075   -1.0829   -0.8772
     7          C      -1.5501   -2.0174   -0.8332
     8          H      -0.4405   -0.9118    1.2713
     9          H       2.0513   -0.9570    1.2269
    10          H       2.0532   -0.9353   -0.5556
    11          H      -0.4710    3.0590    0.3600
    12          H      -1.5292    1.9642   -0.5565
    13          H      -1.5558    1.9423    1.2165
    14          H      -0.2360   -0.6939   -1.8330
    15          H       2.2632    1.7581    0.3770
    16          H      -1.9953   -2.4411   -1.7282
    17          H      -1.9439   -2.4253    0.0940


    FIRST DERIVATIVES WILL BE USED IN THE CALCULATION OF SECOND DERIVATIVES

          ESTIMATED TIME TO COMPLETE CALCULATION =        7.97 SECONDS

    FOR POINT-GROUP C1   THERE ARE   1 UNIQUE SYMMETRY FUNCTIONS.

 STEP:   1 TIME =     0.04 SECS, INTEGRAL =      0.04 TIME LEFT: 172799.92
 STEP:   2 TIME =     0.04 SECS, INTEGRAL =      0.08 TIME LEFT: 172799.88
 STEP:   3 TIME =     0.03 SECS, INTEGRAL =      0.11 TIME LEFT: 172799.85
 STEP:   4 TIME =     0.04 SECS, INTEGRAL =      0.15 TIME LEFT: 172799.81
 STEP:   5 TIME =     0.04 SECS, INTEGRAL =      0.19 TIME LEFT: 172799.77
 STEP:   6 TIME =     0.03 SECS, INTEGRAL =      0.22 TIME LEFT: 172799.74
 STEP:   7 TIME =     0.04 SECS, INTEGRAL =      0.26 TIME LEFT: 172799.70
 STEP:   8 TIME =     0.03 SECS, INTEGRAL =      0.29 TIME LEFT: 172799.67
 STEP:   9 TIME =     0.03 SECS, INTEGRAL =      0.32 TIME LEFT: 172799.64
 STEP:  10 TIME =     0.02 SECS, INTEGRAL =      0.34 TIME LEFT: 172799.62
 STEP:  11 TIME =     0.03 SECS, INTEGRAL =      0.38 TIME LEFT: 172799.59
 STEP:  12 TIME =     0.02 SECS, INTEGRAL =      0.40 TIME LEFT: 172799.56
 STEP:  13 TIME =     0.02 SECS, INTEGRAL =      0.42 TIME LEFT: 172799.54
 STEP:  14 TIME =     0.02 SECS, INTEGRAL =      0.45 TIME LEFT: 172799.52
 STEP:  15 TIME =     0.03 SECS, INTEGRAL =      0.48 TIME LEFT: 172799.48
 STEP:  16 TIME =     0.03 SECS, INTEGRAL =      0.51 TIME LEFT: 172799.45
 STEP:  17 TIME =     0.05 SECS, INTEGRAL =      0.55 TIME LEFT: 172799.41
 STEP:  18 TIME =     0.04 SECS, INTEGRAL =      0.59 TIME LEFT: 172799.37
 STEP:  19 TIME =     0.03 SECS, INTEGRAL =      0.62 TIME LEFT: 172799.34
 STEP:  20 TIME =     0.03 SECS, INTEGRAL =      0.66 TIME LEFT: 172799.30
 STEP:  21 TIME =     0.03 SECS, INTEGRAL =      0.69 TIME LEFT: 172799.27
 STEP:  22 TIME =     0.03 SECS, INTEGRAL =      0.72 TIME LEFT: 172799.24
 STEP:  23 TIME =     0.03 SECS, INTEGRAL =      0.75 TIME LEFT: 172799.21
 STEP:  24 TIME =     0.04 SECS, INTEGRAL =      0.79 TIME LEFT: 172799.17
 STEP:  25 TIME =     0.04 SECS, INTEGRAL =      0.83 TIME LEFT: 172799.13
 STEP:  26 TIME =     0.04 SECS, INTEGRAL =      0.87 TIME LEFT: 172799.09
 STEP:  27 TIME =     0.03 SECS, INTEGRAL =      0.90 TIME LEFT: 172799.06
 STEP:  28 TIME =     0.04 SECS, INTEGRAL =      0.94 TIME LEFT: 172799.02
 STEP:  29 TIME =     0.04 SECS, INTEGRAL =      0.98 TIME LEFT: 172798.98
 STEP:  30 TIME =     0.03 SECS, INTEGRAL =      1.01 TIME LEFT: 172798.95
 STEP:  31 TIME =     0.03 SECS, INTEGRAL =      1.04 TIME LEFT: 172798.92
 STEP:  32 TIME =     0.03 SECS, INTEGRAL =      1.07 TIME LEFT: 172798.89
 STEP:  33 TIME =     0.02 SECS, INTEGRAL =      1.09 TIME LEFT: 172798.87
 STEP:  34 TIME =     0.03 SECS, INTEGRAL =      1.12 TIME LEFT: 172798.84
 STEP:  35 TIME =     0.02 SECS, INTEGRAL =      1.15 TIME LEFT: 172798.81
 STEP:  36 TIME =     0.03 SECS, INTEGRAL =      1.18 TIME LEFT: 172798.78
 STEP:  37 TIME =     0.03 SECS, INTEGRAL =      1.21 TIME LEFT: 172798.75
 STEP:  38 TIME =     0.02 SECS, INTEGRAL =      1.23 TIME LEFT: 172798.73
 STEP:  39 TIME =     0.03 SECS, INTEGRAL =      1.27 TIME LEFT: 172798.70
 STEP:  40 TIME =     0.02 SECS, INTEGRAL =      1.29 TIME LEFT: 172798.67
 STEP:  41 TIME =     0.05 SECS, INTEGRAL =      1.34 TIME LEFT: 172798.62
 STEP:  42 TIME =     0.04 SECS, INTEGRAL =      1.38 TIME LEFT: 172798.59
 STEP:  43 TIME =     0.03 SECS, INTEGRAL =      1.41 TIME LEFT: 172798.55
 STEP:  44 TIME =     0.03 SECS, INTEGRAL =      1.44 TIME LEFT: 172798.52
 STEP:  45 TIME =     0.03 SECS, INTEGRAL =      1.47 TIME LEFT: 172798.49
 STEP:  46 TIME =     0.04 SECS, INTEGRAL =      1.51 TIME LEFT: 172798.45
 STEP:  47 TIME =     0.04 SECS, INTEGRAL =      1.55 TIME LEFT: 172798.41
 STEP:  48 TIME =     0.03 SECS, INTEGRAL =      1.58 TIME LEFT: 172798.38
 STEP:  49 TIME =     0.03 SECS, INTEGRAL =      1.61 TIME LEFT: 172798.35
 STEP:  50 TIME =     0.03 SECS, INTEGRAL =      1.64 TIME LEFT: 172798.32
 STEP:  51 TIME =     0.02 SECS, INTEGRAL =      1.66 TIME LEFT: 172798.30

(To convert to Hartree/Bohr^2, multiply by (10^(-21) x N x a0^2)/(4.184 x 627.51) =  0.0642)


           FORCE MATRIX IN MILLIDYNES/ANGSTROM


                  C  1       C  2       C  3       C  4       C  5       C  6
 ------------------------------------------------------------------------------
     C    1  14.702207
     C    2   2.784718  14.260394
     C    3   0.369692   0.126546  14.980377
     C    4   3.595753   2.262815   5.890732  18.981378
     C    5   2.203857   4.187671   0.582416  10.051617  18.309945
     C    6   5.108601   0.547931   0.017373   0.593152   0.054828  18.328506
     C    7   0.868369   0.035530   0.003539   0.037524   0.008334  11.057239
     H    8   4.429500   0.411455   0.006462   0.417490   0.041941   0.450985
     H    9   0.427618   4.716564   0.017611   0.039876   0.434359   0.026211
     H   10   0.432975   4.698277   0.017650   0.040702   0.434441   0.025322
     H   11   0.034848   0.004233   4.757483   0.471629   0.010421   0.003272
     H   12   0.008307   0.017167   4.699010   0.451951   0.030332   0.004608
     H   13   0.007781   0.016947   4.702854   0.451951   0.030914   0.001437
     H   14   0.438233   0.015419   0.003249   0.012075   0.004429   4.796584
     H   15   0.108697   0.340450   0.035581   0.431036   5.281867   0.018206
     H   16   0.138700   0.016050   0.001146   0.016914   0.002502   0.460826
     H   17   0.099734   0.009939   0.001133   0.010121   0.001776   0.490401


                  C  7       H  8       H  9       H 10       H 11       H 12
 ------------------------------------------------------------------------------
     C    7  18.031676
     H    8   0.048350   4.937961
     H    9   0.003779   0.025949   5.332146
     H   10   0.002501   0.023935   0.528653   5.316887
     H   11   0.000672   0.001485   0.000812   0.000778   5.448136
     H   12   0.000730   0.000922   0.002118   0.002899   0.553810   5.399774
     H   13   0.000618   0.002658   0.002952   0.002120   0.554735   0.569800
     H   14   0.452507   0.037339   0.001280   0.012973   0.000586   0.001643
     H   15   0.002393   0.013128   0.005475   0.005457   0.005675   0.004034
     H   16   5.107628   0.002016   0.001749   0.000879   0.000381   0.000382
     H   17   5.068589   0.028883   0.001303   0.000619   0.000347   0.000455


                  H 13       H 14       H 15       H 16       H 17
 ------------------------------------------------------------------
     H   13   5.405087
     H   14   0.000502   5.162118
     H   15   0.004076   0.001690   5.670872
     H   16   0.000348   0.078148   0.000688   5.494669
     H   17   0.000448   0.116561   0.000423   0.422044   5.464659


          HEAT OF FORMATION =      45.836443 KCALS/MOLE

          ZERO POINT ENERGY      92.253 KCAL/MOL


           NORMAL COORDINATE ANALYSIS (Total motion = 1 Angstrom)


   Root No.       1         2         3         4         5         6         7         8

                 1 A       2 A       3 A       4 A       5 A       6 A       7 A       8 A   

                  79.0     116.4     187.5     219.5     299.5     379.1     426.2     543.1
  
           1    0.0289    0.0021    0.0118    0.0046    0.0013    0.0208    0.0045   -0.0043
           2   -0.0178    0.0010   -0.0012   -0.0046   -0.0212   -0.0288    0.0182    0.0084
           3    0.0017   -0.0023   -0.0197    0.0393    0.0333   -0.0139    0.0080   -0.0251
           4    0.0284    0.0021    0.0118    0.0045    0.0046    0.0269    0.0142    0.0043
           5    0.0139    0.0021    0.0039   -0.0108    0.0098    0.0183    0.0200    0.0155
           6    0.0042   -0.0075   -0.0283    0.0092   -0.0310    0.0328    0.0034    0.0101
           7   -0.0253    0.0011   -0.0022   -0.0174    0.0206    0.0185    0.0009    0.0066
           8   -0.0387    0.0011   -0.0113   -0.0347    0.0315    0.0105   -0.0096   -0.0058
           9   -0.0130   -0.0027   -0.0377   -0.0260   -0.0153    0.0020    0.0038    0.0039
          10   -0.0019    0.0010    0.0067    0.0087   -0.0236   -0.0158    0.0310    0.0179
          11   -0.0150    0.0011   -0.0019   -0.0071   -0.0146   -0.0238    0.0228    0.0096
          12   -0.0006   -0.0015    0.0181    0.0164    0.0374   -0.0157   -0.0319    0.0737
          13   -0.0018    0.0010    0.0063    0.0090   -0.0232   -0.0166    0.0300    0.0185
          14    0.0122    0.0019    0.0030   -0.0085    0.0044    0.0135    0.0211    0.0157
          15    0.0034   -0.0015    0.0635   -0.0316   -0.0023   -0.0040    0.0148   -0.0154
          16    0.0298   -0.0037   -0.0267   -0.0176    0.0097   -0.0212   -0.0365   -0.0240
          17   -0.0194   -0.0037    0.0153    0.0503   -0.0168    0.0004   -0.0311   -0.0095
          18    0.0020    0.0031   -0.0070    0.0248    0.0269   -0.0100    0.0484   -0.0237
          19   -0.0513   -0.0036   -0.0055    0.0130   -0.0031   -0.0165   -0.0383   -0.0177
          20    0.0626   -0.0035   -0.0054    0.0190   -0.0054   -0.0058   -0.0366   -0.0217
          21    0.0042    0.0129    0.0221   -0.0170   -0.0243   -0.0028   -0.0452   -0.0075
          22    0.0369    0.0065    0.0324    0.0113    0.0356    0.0288    0.0150   -0.0057
          23   -0.0261    0.0029   -0.0164   -0.0142   -0.0479   -0.0461    0.0649   -0.0322
          24    0.0019    0.0009   -0.0152    0.0367    0.0364   -0.0170    0.0328   -0.0424
          25    0.0361    0.0055    0.0230    0.0191    0.0584    0.0030    0.0168   -0.0408
          26    0.0236   -0.0013   -0.0575    0.0147   -0.0033    0.0663    0.0073    0.0538
          27    0.0051   -0.0111   -0.0661    0.0146   -0.0669    0.0712   -0.0048    0.0555
          28    0.0390   -0.0008    0.0031   -0.0139   -0.0303    0.0779    0.0068    0.0455
          29    0.0233    0.0062    0.0696   -0.0398    0.0423    0.0022    0.0304   -0.0236
          30    0.0052   -0.0110   -0.0648    0.0137   -0.0660    0.0693   -0.0053    0.0533
          31   -0.0488   -0.0028   -0.0129   -0.0510    0.0805    0.0714   -0.0462   -0.0199
          32   -0.0286   -0.0026   -0.0062   -0.0207    0.0073   -0.0113    0.0095    0.0058
          33   -0.0182    0.2837   -0.0711   -0.0314   -0.0366    0.0112    0.0206   -0.0376
          34   -0.0183    0.1835    0.0178    0.0143    0.0471    0.0039   -0.0199    0.0694
          35   -0.0600    0.1801   -0.0560   -0.0729    0.0396    0.0569   -0.0162   -0.0842
          36   -0.0159   -0.1479   -0.0476   -0.0452   -0.0346    0.0086    0.0192   -0.0339
          37   -0.0277   -0.1773   -0.0197   -0.0426   -0.0151    0.0253    0.0294   -0.0494
          38   -0.0475   -0.1735    0.0187   -0.0411    0.1027    0.0332   -0.0658    0.0353
          39   -0.0160   -0.1579   -0.0472   -0.0458   -0.0342    0.0095    0.0190   -0.0341
          40    0.0945   -0.0083   -0.0800   -0.0628    0.0422   -0.0914   -0.0311   -0.0107
          41   -0.0854   -0.0084    0.0437    0.1328   -0.0159    0.0615   -0.0253   -0.0560
          42    0.0002   -0.0005   -0.0158    0.0402    0.0388   -0.0120    0.0502   -0.0369
          43   -0.0168    0.0005    0.0030    0.0124   -0.0381   -0.0441    0.0360    0.0233
          44    0.0278    0.0024    0.0046   -0.0105    0.0208    0.0422    0.0139    0.0140
          45    0.0044    0.0034    0.1252   -0.0902   -0.0307   -0.0052    0.0657   -0.1186
          46   -0.0596   -0.0084   -0.0412    0.0006    0.0306   -0.0855    0.0274    0.0217
          47    0.0704   -0.0080    0.0006    0.0741    0.0181    0.0554    0.0247   -0.0855
          48    0.0047    0.0175    0.0370   -0.0369   -0.0526    0.0024   -0.1093    0.0024
          49   -0.1161    0.0013    0.0494    0.0546   -0.0484    0.0565   -0.1042   -0.0496
          50    0.1285    0.0013   -0.0309   -0.0646   -0.0168   -0.0733   -0.1016    0.0256
          51    0.0057    0.0171    0.0344   -0.0364   -0.0492   -0.0013   -0.1038    0.0003


   Root No.       9        10        11        12        13        14        15        16

                 9 A      10 A      11 A      12 A      13 A      14 A      15 A      16 A   

                 645.0     721.4     815.3     874.1     910.3     935.2     963.6     972.9
  
           1   -0.0092   -0.0397   -0.0020   -0.0089   -0.0254    0.0001    0.0151    0.0180
           2   -0.0045    0.0042    0.0057   -0.0239    0.0349   -0.0142    0.0044   -0.0159
           3    0.0074    0.0154   -0.0039    0.0321    0.0001    0.0063    0.0050   -0.0062
           4    0.0156   -0.0391   -0.0110    0.0097    0.0540   -0.0114   -0.0142   -0.0176
           5    0.0114    0.0357    0.0014    0.0081   -0.0078    0.0053    0.0027    0.0017
           6    0.0025    0.0019   -0.0275    0.0153    0.0083   -0.0129   -0.0025    0.0344
           7    0.0212    0.0461    0.0060   -0.0025   -0.0088    0.0071   -0.0345   -0.0064
           8   -0.0254   -0.0461   -0.0087    0.0191   -0.0082    0.0076   -0.0227    0.0005
           9   -0.0029   -0.0005    0.0105   -0.0005    0.0101   -0.0159   -0.0072    0.0167
          10   -0.0061    0.0136   -0.0020    0.0093   -0.0076    0.0019    0.0084    0.0039
          11   -0.0328   -0.0252   -0.0052    0.0118   -0.0098    0.0032    0.0020    0.0024
          12   -0.0232   -0.0022    0.0096   -0.0015    0.0015    0.0043    0.0054   -0.0128
          13   -0.0093    0.0060   -0.0024    0.0097   -0.0059    0.0004    0.0223    0.0067
          14    0.0070    0.0373    0.0038   -0.0018   -0.0213    0.0013    0.0140    0.0103
          15    0.0024    0.0020   -0.0334   -0.0130   -0.0058    0.0071    0.0039   -0.0181
          16   -0.0386    0.0136    0.0047   -0.0054   -0.0138   -0.0220   -0.0039   -0.0067
          17    0.0464   -0.0109    0.0005   -0.0062    0.0104    0.0229   -0.0012    0.0097
          18    0.0027   -0.0125    0.0101   -0.0234   -0.0036    0.0024    0.0020   -0.0100
          19    0.0075    0.0015    0.0045   -0.0100   -0.0047   -0.0058   -0.0051   -0.0054
          20    0.0018    0.0022    0.0036   -0.0089   -0.0010    0.0069   -0.0034    0.0093
          21    0.0022   -0.0008    0.0052   -0.0255   -0.0068   -0.0018   -0.0163    0.0171
          22    0.0095   -0.0830    0.0139   -0.0018   -0.0887    0.0659    0.0422   -0.0027
          23   -0.0152    0.0290    0.0052   -0.0343    0.1362   -0.0905    0.0036   -0.0624
          24    0.0114    0.0051    0.0045    0.0284    0.0122    0.0052    0.0186   -0.0373
          25    0.0212   -0.0096   -0.0539    0.1288    0.1021   -0.0480   -0.0238    0.0713
          26    0.0213    0.0119    0.1239    0.0555   -0.0085    0.0362    0.0072   -0.0564
          27    0.0039   -0.0297    0.0624   -0.0254   -0.0207    0.0251    0.0062   -0.0462
          28    0.0201   -0.0911    0.0178   -0.0731    0.0237    0.0385   -0.0352   -0.1065
          29    0.0223    0.0588   -0.1348   -0.0016    0.0127   -0.0134   -0.0390    0.0591
          30    0.0009   -0.0375    0.0580   -0.0258   -0.0182    0.0243    0.0067   -0.0452
          31    0.0688    0.0717    0.0227   -0.0790    0.0480   -0.0464    0.1701    0.0138
          32   -0.0458   -0.0582   -0.0153    0.0513   -0.0314    0.0290   -0.1063   -0.0066
          33    0.0134    0.0029   -0.0260    0.0006   -0.0149    0.0224    0.0096   -0.0218
          34   -0.0017    0.0503    0.0575   -0.0037    0.0224   -0.0444   -0.0799    0.0454
          35    0.0205   -0.0471   -0.0533   -0.0187   -0.0061    0.0258    0.1503   -0.0337
          36    0.0100   -0.0018   -0.0224    0.0029   -0.0126    0.0194    0.0093   -0.0179
          37    0.0437    0.0589   -0.0420    0.0019   -0.0503    0.0663   -0.0366   -0.0656
          38   -0.0252   -0.0561    0.0469   -0.0245    0.0658   -0.0829    0.1082    0.0745
          39    0.0135    0.0065   -0.0205   -0.0015   -0.0129    0.0189    0.0071   -0.0198
          40    0.0220    0.0198    0.0144   -0.0001    0.0996    0.1810    0.0197    0.0096
          41   -0.0010    0.0010   -0.0055    0.0437   -0.1060   -0.1592   -0.0020   -0.0798
          42    0.0070   -0.0048    0.0111    0.0001   -0.0070    0.0073    0.0111   -0.0405
          43   -0.0445   -0.0202   -0.0122    0.0310   -0.0488    0.0183    0.0845    0.0381
          44    0.0421    0.0645    0.0041   -0.0256    0.0229   -0.0169   -0.0488   -0.0238
          45    0.0374   -0.0204    0.3056    0.0973    0.0102   -0.0085   -0.0046    0.0448
          46    0.2090   -0.0889    0.0097   -0.0883   -0.0478   -0.0008   -0.0460    0.0898
          47   -0.2052    0.0510    0.0359   -0.1164    0.0055   -0.0167   -0.0537    0.0148
          48    0.0005    0.0219   -0.0127    0.0662    0.0117    0.0074    0.0287   -0.0347
          49   -0.1223    0.0678   -0.0029    0.0621    0.0867    0.1237    0.0467   -0.0040
          50    0.1394   -0.0220   -0.0203    0.0918   -0.0593   -0.1037    0.0318   -0.0999
          51    0.0077    0.0176   -0.0094    0.0532    0.0070    0.0050    0.0228   -0.0322


   Root No.      17        18        19        20        21        22        23        24

                17 A      18 A      19 A      20 A      21 A      22 A      23 A      24 A   

                 981.3    1006.3    1022.5    1033.7    1096.0    1125.9    1180.9    1196.6
  
           1   -0.0103    0.0362   -0.0000    0.0046    0.0419    0.0489    0.0035    0.0017
           2    0.0068    0.0095   -0.0061   -0.0007    0.0306   -0.0644    0.0060   -0.0031
           3   -0.0044   -0.0050   -0.0013    0.0001   -0.0250    0.0014   -0.0557   -0.0049
           4    0.0110   -0.0049   -0.0065   -0.0034   -0.0208   -0.0241    0.0012   -0.0442
           5    0.0033   -0.0389    0.0093   -0.0032    0.0011   -0.0156   -0.0008   -0.0246
           6    0.0029    0.0050   -0.0234    0.0035    0.0204   -0.0146    0.0142    0.0039
           7   -0.0036    0.0034    0.0030   -0.0005    0.0227   -0.0025    0.0013   -0.0071
           8   -0.0012    0.0047   -0.0009    0.0007   -0.0114    0.0115   -0.0014   -0.0075
           9   -0.0250   -0.0026    0.0199    0.0099   -0.0060   -0.0049   -0.0018   -0.0007
          10    0.0004    0.0021   -0.0028    0.0011   -0.0271    0.0052   -0.0023    0.0219
          11   -0.0011    0.0014   -0.0002    0.0005    0.0045   -0.0080    0.0027    0.0255
          12    0.0249    0.0046   -0.0320   -0.0170    0.0172    0.0145    0.0066    0.0029
          13    0.0027   -0.0029   -0.0047    0.0012   -0.0389   -0.0013   -0.0034    0.0128
          14   -0.0061    0.0318   -0.0073    0.0043   -0.0137    0.0306    0.0003   -0.0311
          15    0.0017    0.0094    0.0468    0.0110   -0.0101   -0.0000   -0.0042   -0.0014
          16    0.0034   -0.0018    0.0046   -0.0271   -0.0033   -0.0180   -0.0072   -0.0004
          17   -0.0005   -0.0023   -0.0034    0.0274    0.0011    0.0175   -0.0064   -0.0024
          18   -0.0131    0.0016   -0.0005   -0.0010    0.0146   -0.0029    0.0199   -0.0086
          19    0.0045   -0.0111   -0.0079    0.0406    0.0010    0.0088   -0.0121   -0.0012
          20   -0.0016    0.0041    0.0118   -0.0408   -0.0017   -0.0083   -0.0127   -0.0010
          21    0.0186   -0.0124    0.0026   -0.0007   -0.0164    0.0039    0.0125    0.0043
          22   -0.0530    0.0325    0.0042    0.0603    0.1088   -0.2674   -0.0756    0.0874
          23   -0.0239    0.0445    0.0229   -0.0588    0.1072    0.2857   -0.0816    0.0226
          24   -0.0402    0.0093    0.0125    0.0013    0.0422    0.0030   -0.1364    0.0482
          25    0.1183    0.0071    0.0806    0.0279    0.0659    0.0028    0.0684    0.1158
          26    0.0973   -0.0692    0.1922    0.0160    0.0287    0.0535    0.0079    0.1587
          27   -0.0070   -0.0161    0.0261   -0.0028   -0.0118    0.0062   -0.0195    0.0127
          28   -0.0847   -0.1577   -0.0520   -0.0513   -0.0499    0.0581   -0.0676    0.0999
          29   -0.0741   -0.1978   -0.1200   -0.0476    0.0408    0.0392   -0.0153    0.1612
          30   -0.0107   -0.0009    0.0172   -0.0007   -0.0162    0.0015   -0.0183   -0.0089
          31    0.0109   -0.0203   -0.0020   -0.0020    0.0301   -0.0432    0.0095    0.0388
          32   -0.0082    0.0148    0.0016    0.0019   -0.0185    0.0303   -0.0055   -0.0263
          33    0.0325    0.0039   -0.0235   -0.0115    0.0078    0.0047    0.0019    0.0009
          34   -0.0895   -0.0032    0.0689    0.0306    0.0329   -0.0253    0.0017   -0.0114
          35    0.0915   -0.0029   -0.0697   -0.0291   -0.0513    0.0269   -0.0036    0.0228
          36    0.0283    0.0031   -0.0210   -0.0098   -0.0057    0.0087   -0.0011   -0.0001
          37    0.0749    0.0153   -0.0563   -0.0315    0.0698    0.0040    0.0105   -0.0088
          38   -0.0686   -0.0205    0.0517    0.0310   -0.0866   -0.0004   -0.0109    0.0206
          39    0.0276    0.0034   -0.0196   -0.0103    0.0174    0.0003    0.0035    0.0012
          40   -0.0516   -0.0082   -0.0072    0.0730   -0.0238    0.0557    0.2934    0.0207
          41   -0.0262   -0.0224    0.0126   -0.0858   -0.0343   -0.0205    0.2791    0.0225
          42   -0.0451   -0.0094    0.0012   -0.0084   -0.0082    0.0100    0.2498    0.0089
          43    0.0093   -0.1721    0.0491   -0.0094    0.0615    0.0500    0.0045   -0.1521
          44   -0.0130    0.2080   -0.0588    0.0166   -0.1235   -0.0225   -0.0082    0.1389
          45    0.0178   -0.0232   -0.1298   -0.0312    0.0123    0.0026   -0.0019    0.0001
          46    0.0410    0.0029    0.0514   -0.1593   -0.0316   -0.0036   -0.0063    0.0134
          47    0.0702   -0.0672   -0.0325    0.1634   -0.0253    0.0232   -0.0047    0.0115
          48   -0.0356    0.0142   -0.0058    0.0019    0.0112   -0.0046    0.0082   -0.0089
          49   -0.0736    0.0535    0.0331   -0.1352    0.0292   -0.0325   -0.0126   -0.0070
          50   -0.0406   -0.0105   -0.0378    0.1332    0.0385    0.0214   -0.0127   -0.0077
          51   -0.0337    0.0094   -0.0023    0.0011    0.0132   -0.0008    0.0158   -0.0018


   Root No.      25        26        27        28        29        30        31        32

                25 A      26 A      27 A      28 A      29 A      30 A      31 A      32 A   

                1209.7    1258.5    1294.2    1317.9    1384.6    1387.0    1399.3    1406.3
  
           1   -0.0160    0.0026   -0.0267   -0.0114   -0.0019   -0.0079    0.0229   -0.0309
           2   -0.0113   -0.0067    0.0109   -0.0292   -0.0014   -0.0031    0.0294   -0.0235
           3    0.0058   -0.0286   -0.0185   -0.0060   -0.0018   -0.0087    0.0312   -0.0316
           4    0.0087   -0.0060   -0.0065    0.0112   -0.0001    0.0019    0.0267    0.0138
           5    0.0114    0.0446   -0.0416    0.0105   -0.0003   -0.0041   -0.0399   -0.0201
           6    0.0061    0.0074    0.0048    0.0015    0.0002    0.0015   -0.0053    0.0053
           7   -0.0002    0.0022    0.0104   -0.0164   -0.0009   -0.0348    0.0034   -0.0263
           8    0.0036    0.0050   -0.0013    0.0061    0.0025   -0.0168   -0.0019    0.0359
           9   -0.0013   -0.0010   -0.0002   -0.0007   -0.0431   -0.0008   -0.0000    0.0006
          10   -0.0013    0.0050    0.0001    0.0041    0.0002    0.0015   -0.0040    0.0027
          11   -0.0123   -0.0369   -0.0321    0.0345   -0.0015   -0.0103   -0.0049   -0.0167
          12    0.0067    0.0058    0.0019    0.0020   -0.0006    0.0010   -0.0041    0.0036
          13    0.0047    0.0253    0.0027   -0.0036    0.0014    0.0061   -0.0089    0.0176
          14    0.0067   -0.0421    0.0486   -0.0059    0.0008    0.0037    0.0101    0.0179
          15   -0.0016   -0.0026   -0.0008   -0.0007   -0.0003   -0.0004    0.0017   -0.0013
          16   -0.0053   -0.0042   -0.0033   -0.0155    0.0007    0.0025   -0.0063    0.0071
          17   -0.0053   -0.0009   -0.0098   -0.0131    0.0005    0.0019   -0.0072    0.0054
          18   -0.0550    0.0258    0.0150    0.0025    0.0017    0.0070   -0.0259    0.0247
          19   -0.0080    0.0063    0.0016   -0.0041    0.0011    0.0043   -0.0157    0.0157
          20   -0.0080    0.0054    0.0035   -0.0048    0.0012    0.0045   -0.0153    0.0158
          21    0.0250   -0.0084   -0.0041    0.0001   -0.0003   -0.0012    0.0043   -0.0038
          22    0.2006    0.0157    0.0587   -0.0102    0.0026    0.0159   -0.0264    0.0503
          23    0.1673    0.0551   -0.0152    0.0113    0.0015    0.0090   -0.0423    0.0338
          24    0.1904    0.0061    0.0136    0.0123    0.0017    0.0085   -0.0245    0.0340
          25   -0.0342   -0.0691    0.1037   -0.0051    0.0017   -0.0059   -0.1652   -0.0316
          26   -0.0544    0.0268    0.0185   -0.0373    0.0004    0.0156    0.1375    0.0554
          27   -0.0033    0.0277   -0.0222   -0.0128   -0.0005    0.0138    0.1696    0.0600
          28   -0.0368   -0.1170    0.0736   -0.0131    0.0003   -0.0161   -0.1332   -0.0666
          29   -0.0421    0.0231    0.0166   -0.0381   -0.0000    0.0150    0.1457    0.0536
          30    0.0086   -0.0384    0.0184    0.0104    0.0002   -0.0154   -0.1610   -0.0655
          31   -0.0275   -0.1057   -0.0910    0.1089   -0.0017   -0.1166   -0.0145    0.1080
          32    0.0161    0.0560    0.0466   -0.0530   -0.0064    0.0408    0.0065   -0.0335
          33    0.0018    0.0000   -0.0009    0.0034    0.4201   -0.0018    0.0056   -0.0085
          34   -0.0142   -0.0585   -0.0393    0.0542   -0.0561    0.2362   -0.0003    0.0101
          35    0.0132    0.0609    0.0464   -0.0579   -0.2439    0.1238    0.0012   -0.0916
          36    0.0064    0.0287    0.0238   -0.0349    0.0478   -0.1861    0.0020   -0.0063
          37   -0.0060   -0.0521   -0.0370    0.0552    0.0555    0.2309   -0.0012    0.0098
          38    0.0063    0.0567    0.0451   -0.0577    0.2341    0.1173    0.0103   -0.1053
          39   -0.0037   -0.0272   -0.0234    0.0361    0.0564    0.1960   -0.0010    0.0023
          40    0.1024   -0.0226   -0.0245   -0.0091   -0.0020   -0.0061    0.0257   -0.0225
          41    0.1016   -0.0293   -0.0119   -0.0135   -0.0017   -0.0058    0.0250   -0.0217
          42    0.0259    0.0082    0.0073    0.0063   -0.0002    0.0008   -0.0025    0.0036
          43    0.0300   -0.0510    0.0736   -0.0171    0.0014    0.0069    0.0143    0.0269
          44   -0.0183    0.0367   -0.0227    0.0092    0.0010    0.0038   -0.0152    0.0129
          45   -0.0004   -0.0023   -0.0005    0.0001    0.0003   -0.0005    0.0020   -0.0017
          46    0.0513    0.0264    0.0573    0.1264   -0.0044   -0.0170    0.0492   -0.0473
          47    0.0514    0.0260    0.0606    0.1260   -0.0046   -0.0171    0.0511   -0.0472
          48   -0.0341   -0.0240   -0.0530   -0.1165    0.0049    0.0188   -0.0576    0.0558
          49   -0.0589    0.0623    0.0838    0.1345   -0.0035   -0.0125    0.0357   -0.0335
          50   -0.0600    0.0639    0.0752    0.1341   -0.0034   -0.0131    0.0328   -0.0334
          51   -0.0217    0.0383    0.0578    0.1113   -0.0040   -0.0152    0.0448   -0.0441


   Root No.      33        34        35        36        37        38        39        40

                33 A      34 A      35 A      36 A      37 A      38 A      39 A      40 A   

                1443.6    1861.6    1890.6    2957.1    3043.5    3048.4    3065.6    3078.3
  
           1   -0.0329   -0.0200    0.0090    0.0270    0.0012    0.0011   -0.0000   -0.0001
           2   -0.0491   -0.0168    0.0277    0.0248    0.0011    0.0009    0.0000    0.0002
           3   -0.0285   -0.0241    0.0088   -0.0558   -0.0022   -0.0024   -0.0000    0.0000
           4    0.0318   -0.0026   -0.0078    0.0009    0.0000    0.0014   -0.0000    0.0000
           5   -0.0133    0.0025    0.0207    0.0004   -0.0002   -0.0006    0.0000    0.0000
           6    0.0045    0.0001    0.0001    0.0040    0.0036   -0.0568   -0.0002   -0.0000
           7    0.0387   -0.0095   -0.0503   -0.0000    0.0000    0.0000   -0.0005   -0.0365
           8   -0.0505    0.0084    0.0436   -0.0000    0.0000    0.0000   -0.0003   -0.0361
           9   -0.0006   -0.0000   -0.0001   -0.0000   -0.0002    0.0001   -0.0576    0.0005
          10    0.0174    0.0398    0.2253    0.0008   -0.0000   -0.0000   -0.0000   -0.0005
          11    0.0741   -0.0136   -0.0709    0.0007   -0.0001    0.0001    0.0000    0.0001
          12    0.0040   -0.0007    0.0019   -0.0002   -0.0002   -0.0004   -0.0001   -0.0000
          13   -0.0458   -0.0277   -0.1630   -0.0007   -0.0000    0.0000    0.0000    0.0003
          14    0.0088    0.0024    0.0011   -0.0004   -0.0000   -0.0000   -0.0000   -0.0004
          15   -0.0019   -0.0007   -0.0016   -0.0003   -0.0000   -0.0003   -0.0002    0.0000
          16    0.0040    0.1466   -0.0274   -0.0010    0.0245    0.0015   -0.0001    0.0000
          17    0.0039    0.1440   -0.0297   -0.0010    0.0255    0.0012   -0.0000    0.0000
          18    0.0212    0.0317   -0.0085    0.0028   -0.0547   -0.0022    0.0001   -0.0000
          19    0.0144   -0.1258    0.0221    0.0001   -0.0010   -0.0000    0.0000    0.0000
          20    0.0140   -0.1246    0.0223    0.0001   -0.0011   -0.0000    0.0000    0.0000
          21   -0.0022    0.0025   -0.0008   -0.0006    0.0049    0.0002   -0.0000   -0.0000
          22    0.0345    0.0309    0.0113   -0.3317   -0.0102   -0.0172    0.0000   -0.0001
          23    0.0233    0.0233   -0.0203   -0.3004   -0.0094   -0.0116   -0.0002    0.0001
          24    0.0338    0.0149   -0.0168    0.6767    0.0288    0.0263   -0.0001    0.0000
          25   -0.0489    0.0025   -0.0129   -0.0082   -0.0132    0.1819    0.0004   -0.0000
          26    0.0086   -0.0014   -0.0165    0.0132    0.0128   -0.1749   -0.0004    0.0000
          27    0.0519   -0.0076   -0.0227   -0.0239   -0.0241    0.3245    0.0009   -0.0001
          28   -0.0781   -0.0062   -0.0099    0.0100    0.0108   -0.1999   -0.0003   -0.0001
          29    0.0074   -0.0049   -0.0159   -0.0129   -0.0107    0.1819    0.0003    0.0001
          30   -0.0577    0.0017    0.0237   -0.0260   -0.0221    0.3625    0.0007    0.0003
          31   -0.0667    0.0076    0.0401    0.0001   -0.0003   -0.0001    0.0052    0.1772
          32    0.0053    0.0007    0.0031    0.0000   -0.0005   -0.0002    0.0115    0.4074
          33    0.0006   -0.0001    0.0004   -0.0001   -0.0001    0.0000   -0.0284    0.0085
          34   -0.0462   -0.0027   -0.0161    0.0000    0.0009   -0.0006    0.2712    0.1196
          35    0.0972   -0.0005    0.0006    0.0000    0.0000   -0.0001    0.0480    0.0069
          36    0.0348   -0.0026   -0.0120   -0.0001    0.0011   -0.0008    0.3733    0.2058
          37   -0.0433   -0.0031   -0.0168   -0.0001   -0.0008    0.0005   -0.2706    0.1401
          38    0.0985   -0.0002    0.0003    0.0003   -0.0001    0.0001   -0.0557    0.0150
          39   -0.0332    0.0022    0.0116   -0.0000    0.0010   -0.0006    0.3457   -0.2204
          40   -0.0202   -0.0015    0.0019    0.0149   -0.2500   -0.0097    0.0005   -0.0002
          41   -0.0228    0.0008    0.0032    0.0155   -0.2629   -0.0108    0.0007   -0.0000
          42    0.0028   -0.1217    0.0233   -0.0301    0.6544    0.0277   -0.0013    0.0003
          43   -0.0138   -0.0141   -0.0967   -0.0050   -0.0003   -0.0004    0.0001    0.0020
          44   -0.0277   -0.0217   -0.1353   -0.0049   -0.0003   -0.0003    0.0001    0.0015
          45   -0.0015   -0.0001   -0.0022   -0.0006    0.0002   -0.0009    0.0004    0.0000
          46   -0.0269   -0.0218    0.0032   -0.0010   -0.0277   -0.0014    0.0000   -0.0000
          47   -0.0286   -0.0186    0.0048   -0.0010   -0.0262   -0.0012    0.0000    0.0000
          48    0.0385   -0.1305    0.0225   -0.0014   -0.0638   -0.0032    0.0001   -0.0000
          49   -0.0191   -0.0017    0.0021   -0.0033   -0.0038   -0.0007   -0.0000   -0.0000
          50   -0.0175   -0.0048    0.0003   -0.0034   -0.0039   -0.0008   -0.0000   -0.0000
          51   -0.0292    0.1392   -0.0252    0.0041    0.0052    0.0014    0.0000    0.0001


   Root No.      41        42        43        44        45

                41 A      42 A      43 A      44 A      45 A   

                3103.3    3134.4    3146.9    3163.5    3205.8
  
           1   -0.0010    0.0002    0.0005   -0.0001    0.0018
           2    0.0004    0.0002    0.0005    0.0001    0.0020
           3   -0.0001    0.0005   -0.0003    0.0000   -0.0003
           4   -0.0309   -0.0001   -0.0000    0.0000   -0.0011
           5    0.0296    0.0001   -0.0000   -0.0000    0.0014
           6   -0.0025    0.0001   -0.0001    0.0000   -0.0000
           7   -0.0001    0.0000    0.0000    0.0160   -0.0000
           8    0.0001   -0.0000   -0.0000   -0.0191    0.0004
           9    0.0000    0.0000   -0.0000   -0.0003    0.0000
          10    0.0014    0.0000   -0.0000    0.0001    0.0083
          11   -0.0010   -0.0000   -0.0001   -0.0000   -0.0018
          12   -0.0000    0.0000   -0.0000   -0.0000    0.0001
          13   -0.0007    0.0000   -0.0000   -0.0000   -0.0619
          14    0.0007    0.0000   -0.0000    0.0002   -0.0532
          15   -0.0000    0.0000   -0.0000    0.0000   -0.0015
          16    0.0001   -0.0025    0.0064    0.0000   -0.0001
          17    0.0002   -0.0024    0.0064   -0.0000   -0.0000
          18   -0.0002   -0.0014   -0.0047   -0.0000   -0.0001
          19   -0.0000    0.0186   -0.0323    0.0000    0.0000
          20   -0.0000    0.0196   -0.0313    0.0000    0.0000
          21    0.0001   -0.0634   -0.0348    0.0001   -0.0001
          22   -0.0010    0.0033   -0.0017    0.0001   -0.0019
          23    0.0001    0.0031   -0.0015   -0.0000   -0.0019
          24    0.0006   -0.0027    0.0048   -0.0001    0.0042
          25    0.1973   -0.0001    0.0002   -0.0000    0.0002
          26   -0.1905   -0.0000   -0.0000    0.0001   -0.0012
          27    0.4090    0.0002    0.0001   -0.0001    0.0019
          28    0.1802    0.0007   -0.0004   -0.0001   -0.0001
          29   -0.1633   -0.0006    0.0003    0.0000   -0.0007
          30   -0.3789   -0.0013    0.0005    0.0001   -0.0013
          31    0.0002    0.0000    0.0003    0.1529   -0.0000
          32    0.0003   -0.0001    0.0007    0.3109    0.0003
          33    0.0000   -0.0000    0.0000    0.0060    0.0000
          34   -0.0001   -0.0001   -0.0003   -0.1661   -0.0024
          35   -0.0000    0.0000   -0.0001   -0.0386   -0.0003
          36   -0.0001   -0.0001   -0.0005   -0.2581   -0.0035
          37    0.0001   -0.0000   -0.0004   -0.1767   -0.0025
          38    0.0000    0.0000   -0.0001   -0.0457   -0.0004
          39   -0.0001    0.0001    0.0006    0.2558    0.0033
          40   -0.0016   -0.0077   -0.0224   -0.0000    0.0001
          41   -0.0012   -0.0079   -0.0234   -0.0001   -0.0000
          42    0.0031    0.0118    0.0531    0.0002    0.0001
          43   -0.0023   -0.0005    0.0003   -0.0018    0.6383
          44   -0.0021   -0.0005    0.0003   -0.0021    0.6142
          45   -0.0001   -0.0000    0.0000   -0.0000    0.0171
          46   -0.0001    0.0769    0.2764   -0.0004   -0.0001
          47   -0.0001    0.0737    0.2627   -0.0003   -0.0002
          48   -0.0003    0.1283    0.5728   -0.0008   -0.0004
          49    0.0004   -0.2660    0.0521   -0.0000   -0.0004
          50    0.0003   -0.2756    0.0546   -0.0000   -0.0004
          51   -0.0009    0.6280   -0.1555    0.0001    0.0008


           MASS-WEIGHTED COORDINATE ANALYSIS (NORMAL COORDINATES)


   Root No.       1         2         3         4         5         6         7         8

                 1 A       2 A       3 A       4 A       5 A       6 A       7 A       8 A   

                  79.0     116.4     187.5     219.5     299.5     379.1     426.2     543.1
  
           1    0.2106    0.0142    0.0981    0.0371    0.0108    0.1881    0.0311   -0.0345
           2   -0.1296    0.0070   -0.0100   -0.0371   -0.1805   -0.2606    0.1268    0.0679
           3    0.0122   -0.0157   -0.1634    0.3153    0.2839   -0.1258    0.0555   -0.2017
           4    0.2068    0.0140    0.0979    0.0361    0.0395    0.2429    0.0989    0.0343
           5    0.1013    0.0143    0.0326   -0.0869    0.0838    0.1655    0.1390    0.1251
           6    0.0306   -0.0508   -0.2354    0.0738   -0.2639    0.2967    0.0239    0.0815
           7   -0.1841    0.0071   -0.0180   -0.1397    0.1753    0.1675    0.0066    0.0535
           8   -0.2818    0.0077   -0.0936   -0.2778    0.2678    0.0950   -0.0668   -0.0470
           9   -0.0951   -0.0184   -0.3131   -0.2082   -0.1299    0.0184    0.0263    0.0316
          10   -0.0140    0.0068    0.0557    0.0700   -0.2010   -0.1423    0.2156    0.1439
          11   -0.1094    0.0072   -0.0156   -0.0573   -0.1245   -0.2147    0.1587    0.0772
          12   -0.0044   -0.0101    0.1502    0.1314    0.3187   -0.1415   -0.2217    0.5928
          13   -0.0128    0.0071    0.0523    0.0722   -0.1971   -0.1500    0.2086    0.1486
          14    0.0889    0.0132    0.0250   -0.0679    0.0373    0.1220    0.1470    0.1267
          15    0.0251   -0.0099    0.5282   -0.2531   -0.0198   -0.0363    0.1032   -0.1237
          16    0.2172   -0.0248   -0.2224   -0.1411    0.0826   -0.1915   -0.2537   -0.1928
          17   -0.1415   -0.0253    0.1274    0.4032   -0.1433    0.0036   -0.2163   -0.0762
          18    0.0146    0.0211   -0.0585    0.1985    0.2292   -0.0903    0.3365   -0.1908
          19   -0.3742   -0.0243   -0.0461    0.1043   -0.0261   -0.1494   -0.2661   -0.1421
          20    0.4563   -0.0234   -0.0450    0.1522   -0.0456   -0.0525   -0.2544   -0.1743
          21    0.0309    0.0872    0.1836   -0.1361   -0.2069   -0.0249   -0.3145   -0.0600
          22    0.0779    0.0128    0.0780    0.0262    0.0878    0.0753    0.0302   -0.0133
          23   -0.0551    0.0056   -0.0395   -0.0330   -0.1181   -0.1206    0.1309   -0.0752
          24    0.0041    0.0017   -0.0366    0.0853    0.0897   -0.0446    0.0660   -0.0988
          25    0.0762    0.0108    0.0554    0.0443    0.1441    0.0078    0.0339   -0.0950
          26    0.0498   -0.0025   -0.1384    0.0341   -0.0080    0.1736    0.0148    0.1255
          27    0.0108   -0.0217   -0.1592    0.0339   -0.1650    0.1865   -0.0097    0.1293
          28    0.0823   -0.0016    0.0076   -0.0323   -0.0747    0.2039    0.0137    0.1060
          29    0.0492    0.0121    0.1677   -0.0924    0.1044    0.0058    0.0612   -0.0551
          30    0.0110   -0.0216   -0.1561    0.0318   -0.1628    0.1814   -0.0107    0.1244
          31   -0.1030   -0.0054   -0.0311   -0.1184    0.1985    0.1868   -0.0930   -0.0463
          32   -0.0603   -0.0051   -0.0149   -0.0482    0.0179   -0.0295    0.0191    0.0134
          33   -0.0384    0.5564   -0.1712   -0.0729   -0.0903    0.0294    0.0415   -0.0876
          34   -0.0386    0.3598    0.0428    0.0332    0.1161    0.0102   -0.0401    0.1618
          35   -0.1267    0.3532   -0.1350   -0.1693    0.0977    0.1489   -0.0326   -0.1964
          36   -0.0337   -0.2899   -0.1147   -0.1050   -0.0854    0.0225    0.0387   -0.0791
          37   -0.0585   -0.3476   -0.0474   -0.0990   -0.0372    0.0661    0.0593   -0.1151
          38   -0.1002   -0.3402    0.0449   -0.0953    0.2533    0.0869   -0.1326    0.0822
          39   -0.0337   -0.3097   -0.1138   -0.1063   -0.0844    0.0249    0.0383   -0.0794
          40    0.1996   -0.0163   -0.1927   -0.1458    0.1040   -0.2392   -0.0627   -0.0250
          41   -0.1802   -0.0164    0.1053    0.3084   -0.0391    0.1610   -0.0510   -0.1306
          42    0.0005   -0.0010   -0.0380    0.0934    0.0957   -0.0314    0.1011   -0.0860
          43   -0.0356    0.0009    0.0073    0.0289   -0.0939   -0.1154    0.0725    0.0543
          44    0.0587    0.0047    0.0112   -0.0244    0.0514    0.1105    0.0281    0.0326
          45    0.0092    0.0066    0.3015   -0.2094   -0.0756   -0.0137    0.1323   -0.2766
          46   -0.1259   -0.0166   -0.0992    0.0014    0.0756   -0.2238    0.0552    0.0507
          47    0.1486   -0.0158    0.0014    0.1720    0.0447    0.1450    0.0499   -0.1994
          48    0.0099    0.0343    0.0892   -0.0858   -0.1298    0.0063   -0.2202    0.0056
          49   -0.2451    0.0025    0.1189    0.1268   -0.1194    0.1480   -0.2100   -0.1156
          50    0.2714    0.0026   -0.0744   -0.1500   -0.0415   -0.1919   -0.2049    0.0596
          51    0.0121    0.0335    0.0829   -0.0846   -0.1214   -0.0033   -0.2093    0.0006


   Root No.       9        10        11        12        13        14        15        16

                 9 A      10 A      11 A      12 A      13 A      14 A      15 A      16 A   

                 645.0     721.4     815.3     874.1     910.3     935.2     963.6     972.9
  
           1   -0.0668   -0.3049   -0.0159   -0.0812   -0.2180    0.0012    0.1355    0.1758
           2   -0.0331    0.0324    0.0457   -0.2172    0.2998   -0.1275    0.0396   -0.1555
           3    0.0539    0.1182   -0.0311    0.2918    0.0009    0.0563    0.0447   -0.0604
           4    0.1137   -0.3005   -0.0888    0.0882    0.4635   -0.1022   -0.1278   -0.1722
           5    0.0829    0.2739    0.0111    0.0736   -0.0666    0.0474    0.0238    0.0170
           6    0.0186    0.0148   -0.2218    0.1391    0.0711   -0.1163   -0.0225    0.3370
           7    0.1549    0.3542    0.0483   -0.0224   -0.0757    0.0635   -0.3098   -0.0630
           8   -0.1853   -0.3539   -0.0703    0.1738   -0.0704    0.0687   -0.2035    0.0050
           9   -0.0214   -0.0038    0.0848   -0.0043    0.0869   -0.1431   -0.0649    0.1633
          10   -0.0447    0.1043   -0.0158    0.0842   -0.0656    0.0174    0.0755    0.0383
          11   -0.2394   -0.1932   -0.0418    0.1071   -0.0841    0.0284    0.0178    0.0232
          12   -0.1692   -0.0167    0.0774   -0.0138    0.0129    0.0382    0.0482   -0.1256
          13   -0.0681    0.0464   -0.0191    0.0881   -0.0510    0.0032    0.2002    0.0654
          14    0.0514    0.2862    0.0307   -0.0162   -0.1829    0.0118    0.1255    0.1008
          15    0.0172    0.0156   -0.2693   -0.1179   -0.0498    0.0641    0.0350   -0.1772
          16   -0.2818    0.1045    0.0377   -0.0488   -0.1185   -0.1981   -0.0348   -0.0652
          17    0.3388   -0.0833    0.0042   -0.0567    0.0897    0.2054   -0.0112    0.0948
          18    0.0197   -0.0961    0.0815   -0.2123   -0.0312    0.0220    0.0183   -0.0982
          19    0.0545    0.0118    0.0366   -0.0911   -0.0406   -0.0519   -0.0454   -0.0525
          20    0.0133    0.0167    0.0293   -0.0805   -0.0084    0.0616   -0.0306    0.0906
          21    0.0164   -0.0062    0.0415   -0.2320   -0.0582   -0.0166   -0.1459    0.1672
          22    0.0201   -0.1847    0.0325   -0.0047   -0.2207    0.1716    0.1097   -0.0076
          23   -0.0321    0.0646    0.0121   -0.0903    0.3388   -0.2355    0.0095   -0.1772
          24    0.0242    0.0113    0.0104    0.0748    0.0304    0.0135    0.0484   -0.1058
          25    0.0448   -0.0214   -0.1257    0.3391    0.2542   -0.1250   -0.0619    0.2023
          26    0.0451    0.0265    0.2892    0.1461   -0.0212    0.0943    0.0188   -0.1601
          27    0.0083   -0.0660    0.1457   -0.0670   -0.0515    0.0652    0.0162   -0.1310
          28    0.0425   -0.2027    0.0415   -0.1926    0.0589    0.1002   -0.0915   -0.3021
          29    0.0471    0.1307   -0.3145   -0.0042    0.0315   -0.0349   -0.1014    0.1678
          30    0.0019   -0.0833    0.1354   -0.0679   -0.0452    0.0632    0.0173   -0.1282
          31    0.1454    0.1594    0.0530   -0.2080    0.1194   -0.1208    0.4423    0.0391
          32   -0.0969   -0.1295   -0.0357    0.1350   -0.0781    0.0754   -0.2763   -0.0186
          33    0.0284    0.0065   -0.0607    0.0017   -0.0370    0.0582    0.0250   -0.0619
          34   -0.0036    0.1119    0.1342   -0.0097    0.0558   -0.1155   -0.2076    0.1289
          35    0.0434   -0.1048   -0.1245   -0.0494   -0.0152    0.0671    0.3907   -0.0956
          36    0.0211   -0.0040   -0.0524    0.0077   -0.0313    0.0506    0.0243   -0.0507
          37    0.0923    0.1309   -0.0980    0.0049   -0.1252    0.1726   -0.0952   -0.1861
          38   -0.0534   -0.1247    0.1094   -0.0644    0.1638   -0.2159    0.2812    0.2115
          39    0.0285    0.0144   -0.0479   -0.0040   -0.0320    0.0493    0.0185   -0.0563
          40    0.0465    0.0441    0.0336   -0.0003    0.2478    0.4711    0.0511    0.0272
          41   -0.0021    0.0022   -0.0127    0.1149   -0.2638   -0.4145   -0.0051   -0.2264
          42    0.0148   -0.0106    0.0260    0.0002   -0.0174    0.0189    0.0288   -0.1150
          43   -0.0941   -0.0449   -0.0284    0.0815   -0.1214    0.0475    0.2197    0.1082
          44    0.0890    0.1434    0.0096   -0.0674    0.0570   -0.0439   -0.1269   -0.0675
          45    0.0791   -0.0455    0.7130    0.2563    0.0254   -0.0221   -0.0119    0.1273
          46    0.4419   -0.1977    0.0226   -0.2324   -0.1189   -0.0022   -0.1196    0.2547
          47   -0.4339    0.1134    0.0837   -0.3066    0.0136   -0.0434   -0.1396    0.0421
          48    0.0010    0.0488   -0.0297    0.1742    0.0291    0.0192    0.0747   -0.0984
          49   -0.2587    0.1508   -0.0068    0.1637    0.2157    0.3219    0.1213   -0.0114
          50    0.2948   -0.0489   -0.0475    0.2417   -0.1475   -0.2698    0.0827   -0.2834
          51    0.0163    0.0392   -0.0219    0.1401    0.0173    0.0130    0.0593   -0.0915


   Root No.      17        18        19        20        21        22        23        24

                17 A      18 A      19 A      20 A      21 A      22 A      23 A      24 A   

                 981.3    1006.3    1022.5    1033.7    1096.0    1125.9    1180.9    1196.6
  
           1   -0.1031    0.2733   -0.0002    0.0370    0.3455    0.3132    0.0215    0.0131
           2    0.0679    0.0715   -0.0520   -0.0054    0.2522   -0.4125    0.0368   -0.0240
           3   -0.0440   -0.0381   -0.0110    0.0008   -0.2057    0.0091   -0.3391   -0.0381
           4    0.1104   -0.0369   -0.0551   -0.0272   -0.1710   -0.1544    0.0074   -0.3472
           5    0.0329   -0.2936    0.0794   -0.0259    0.0095   -0.0999   -0.0046   -0.1929
           6    0.0291    0.0381   -0.1994    0.0285    0.1682   -0.0934    0.0863    0.0307
           7   -0.0356    0.0260    0.0257   -0.0037    0.1867   -0.0162    0.0077   -0.0558
           8   -0.0125    0.0356   -0.0077    0.0055   -0.0941    0.0735   -0.0082   -0.0586
           9   -0.2507   -0.0199    0.1694    0.0797   -0.0490   -0.0315   -0.0107   -0.0053
          10    0.0042    0.0155   -0.0236    0.0086   -0.2232    0.0332   -0.0139    0.1723
          11   -0.0108    0.0109   -0.0015    0.0037    0.0368   -0.0511    0.0162    0.2006
          12    0.2498    0.0344   -0.2729   -0.1372    0.1417    0.0928    0.0400    0.0231
          13    0.0275   -0.0216   -0.0400    0.0100   -0.3209   -0.0085   -0.0205    0.1006
          14   -0.0609    0.2405   -0.0627    0.0346   -0.1133    0.1960    0.0020   -0.2441
          15    0.0167    0.0713    0.3995    0.0889   -0.0835   -0.0003   -0.0258   -0.0112
          16    0.0342   -0.0135    0.0389   -0.2186   -0.0274   -0.1156   -0.0439   -0.0031
          17   -0.0046   -0.0176   -0.0291    0.2210    0.0090    0.1121   -0.0389   -0.0192
          18   -0.1314    0.0118   -0.0040   -0.0079    0.1200   -0.0189    0.1214   -0.0676
          19    0.0447   -0.0840   -0.0675    0.3270    0.0078    0.0565   -0.0737   -0.0095
          20   -0.0159    0.0308    0.1005   -0.3287   -0.0142   -0.0529   -0.0773   -0.0076
          21    0.1861   -0.0936    0.0220   -0.0054   -0.1348    0.0252    0.0759    0.0340
          22   -0.1539    0.0712    0.0104    0.1407    0.2596   -0.4961   -0.1334    0.1988
          23   -0.0692    0.0973    0.0567   -0.1372    0.2557    0.5301   -0.1439    0.0514
          24   -0.1166    0.0204    0.0310    0.0031    0.1008    0.0056   -0.2407    0.1096
          25    0.3433    0.0155    0.1992    0.0652    0.1572    0.0053    0.1207    0.2634
          26    0.2825   -0.1515    0.4749    0.0372    0.0686    0.0992    0.0140    0.3610
          27   -0.0204   -0.0352    0.0646   -0.0065   -0.0281    0.0115   -0.0344    0.0288
          28   -0.2459   -0.3454   -0.1284   -0.1199   -0.1190    0.1078   -0.1193    0.2272
          29   -0.2150   -0.4330   -0.2966   -0.1112    0.0974    0.0727   -0.0269    0.3667
          30   -0.0311   -0.0020    0.0424   -0.0017   -0.0386    0.0028   -0.0323   -0.0202
          31    0.0318   -0.0445   -0.0049   -0.0047    0.0718   -0.0801    0.0168    0.0882
          32   -0.0238    0.0324    0.0040    0.0043   -0.0441    0.0562   -0.0096   -0.0597
          33    0.0943    0.0085   -0.0580   -0.0267    0.0186    0.0087    0.0034    0.0020
          34   -0.2597   -0.0069    0.1702    0.0715    0.0785   -0.0469    0.0029   -0.0260
          35    0.2656   -0.0063   -0.1723   -0.0679   -0.1225    0.0500   -0.0063    0.0518
          36    0.0821    0.0068   -0.0518   -0.0228   -0.0136    0.0162   -0.0020   -0.0003
          37    0.2174    0.0335   -0.1390   -0.0734    0.1666    0.0075    0.0186   -0.0201
          38   -0.1990   -0.0450    0.1278    0.0724   -0.2066   -0.0007   -0.0192    0.0467
          39    0.0801    0.0073   -0.0484   -0.0241    0.0415    0.0006    0.0061    0.0027
          40   -0.1497   -0.0179   -0.0179    0.1703   -0.0568    0.1034    0.5178    0.0471
          41   -0.0760   -0.0490    0.0310   -0.2004   -0.0819   -0.0380    0.4925    0.0511
          42   -0.1308   -0.0205    0.0031   -0.0196   -0.0196    0.0186    0.4408    0.0202
          43    0.0270   -0.3768    0.1214   -0.0220    0.1468    0.0929    0.0079   -0.3460
          44   -0.0376    0.4554   -0.1453    0.0388   -0.2948   -0.0418   -0.0144    0.3160
          45    0.0516   -0.0509   -0.3208   -0.0728    0.0293    0.0049   -0.0033    0.0003
          46    0.1190    0.0064    0.1271   -0.3719   -0.0755   -0.0068   -0.0112    0.0304
          47    0.2038   -0.1471   -0.0803    0.3814   -0.0603    0.0431   -0.0083    0.0263
          48   -0.1034    0.0312   -0.0144    0.0045    0.0268   -0.0085    0.0145   -0.0201
          49   -0.2135    0.1171    0.0818   -0.3156    0.0696   -0.0603   -0.0222   -0.0159
          50   -0.1177   -0.0231   -0.0933    0.3110    0.0919    0.0396   -0.0224   -0.0175
          51   -0.0977    0.0205   -0.0056    0.0026    0.0316   -0.0016    0.0278   -0.0041


   Root No.      25        26        27        28        29        30        31        32

                25 A      26 A      27 A      28 A      29 A      30 A      31 A      32 A   

                1209.7    1258.5    1294.2    1317.9    1384.6    1387.0    1399.3    1406.3
  
           1   -0.1218    0.0222   -0.2346   -0.0958   -0.0117   -0.0545    0.1640   -0.2697
           2   -0.0860   -0.0574    0.0962   -0.2468   -0.0082   -0.0215    0.2109   -0.2046
           3    0.0443   -0.2449   -0.1623   -0.0508   -0.0108   -0.0599    0.2239   -0.2759
           4    0.0663   -0.0514   -0.0573    0.0948   -0.0004    0.0132    0.1914    0.1207
           5    0.0867    0.3824   -0.3656    0.0884   -0.0019   -0.0284   -0.2859   -0.1749
           6    0.0463    0.0631    0.0424    0.0125    0.0010    0.0106   -0.0379    0.0459
           7   -0.0012    0.0185    0.0910   -0.1387   -0.0053   -0.2391    0.0247   -0.2294
           8    0.0273    0.0432   -0.0112    0.0519    0.0153   -0.1152   -0.0135    0.3132
           9   -0.0099   -0.0083   -0.0014   -0.0056   -0.2611   -0.0056   -0.0003    0.0052
          10   -0.0100    0.0430    0.0012    0.0348    0.0011    0.0101   -0.0290    0.0237
          11   -0.0934   -0.3167   -0.2820    0.2914   -0.0089   -0.0708   -0.0353   -0.1453
[...]
 RED. MASS   0.6829         C  1 -- C  2          +8.6% ( 34.8%)      0.1%
 EFF. MASS   2.8733

 VIBRATION   24   24A         ATOM PAIR      ENERGY CONTRIBUTION    RADIAL
 FREQ.      1196.59         C  2 -- H  9         +19.0% ( 55.0%)      0.1%
 T-DIPOLE    0.0382         C  2 -- H 10         +17.9% ( 53.4%)      0.7%
 TRAVEL      0.1253         C  5 -- H 15         +16.8% ( 51.8%)      0.9%
 RED. MASS   0.5491         C  2 -- C  4          +8.9% ( 37.7%)      1.2%
 EFF. MASS   3.5891

 VIBRATION   25   25A         ATOM PAIR      ENERGY CONTRIBUTION    RADIAL
 FREQ.      1209.68         C  1 -- H  8         +34.3% ( 70.8%)      1.0%
 T-DIPOLE    0.0505         C  6 -- H 14         +15.5% ( 47.6%)     14.5%
 TRAVEL      0.1192         C  6 -- C  7         +14.8% ( 46.6%)      0.7%
 RED. MASS   0.6819         C  1 -- C  6         +12.0% ( 41.8%)     48.4%
 EFF. MASS   3.9238

 VIBRATION   26   26A         ATOM PAIR      ENERGY CONTRIBUTION    RADIAL
 FREQ.      1258.54         C  2 -- C  5         +15.0% ( 59.4%)     91.4%
 T-DIPOLE    0.0538         C  2 -- C  4         +10.5% ( 49.7%)     65.7%
 TRAVEL      0.0849         C  4 -- C  5          +8.0% ( 43.4%)     80.7%
 RED. MASS   0.9001         C  1 -- C  5          +7.8% ( 42.7%)      3.5%
 EFF. MASS   7.4262

 VIBRATION   27   27A         ATOM PAIR      ENERGY CONTRIBUTION    RADIAL
 FREQ.      1294.20         C  2 -- C  5         +16.0% ( 58.4%)     96.7%
 T-DIPOLE    0.1190         C  4 -- C  5         +10.9% ( 48.2%)      0.0%
 TRAVEL      0.0871         C  1 -- C  5         +10.1% ( 46.4%)     87.3%
 RED. MASS   0.8486         C  5 -- H 15          +7.0% ( 38.7%)     18.2%
 EFF. MASS   6.8679

 VIBRATION   28   28A         ATOM PAIR      ENERGY CONTRIBUTION    RADIAL
 FREQ.      1317.86         C  7 -- H 17         +15.9% ( 46.1%)      0.4%
 T-DIPOLE    0.0386         C  7 -- H 16         +14.6% ( 44.2%)      0.5%
 TRAVEL      0.1240         C  1 -- C  4         +12.0% ( 40.0%)     96.2%
 RED. MASS   0.3444         C  3 -- H 11          +6.7% ( 29.9%)      0.0%
 EFF. MASS   3.3275

 VIBRATION   29   29A         ATOM PAIR      ENERGY CONTRIBUTION    RADIAL
 FREQ.      1384.57         C  3 -- H 11         +54.5% ( 64.2%)      0.0%
 T-DIPOLE    0.0630         C  3 -- H 12         +20.4% ( 39.3%)     11.6%
 TRAVEL      0.1746         C  3 -- H 13         +19.4% ( 38.2%)     11.8%
 RED. MASS   0.4291         C  3 -- C  4          +5.3% ( 20.0%)      0.7%
 EFF. MASS   1.5969

 VIBRATION   30   30A         ATOM PAIR      ENERGY CONTRIBUTION    RADIAL
 FREQ.      1387.04         C  3 -- H 12         +38.9% ( 56.4%)      2.4%
 T-DIPOLE    0.0738         C  3 -- H 13         +38.8% ( 56.3%)      2.4%
 TRAVEL      0.1622         C  3 -- H 11          +7.1% ( 24.0%)     87.1%
 RED. MASS   0.4167         C  3 -- C  4          +6.1% ( 22.3%)     33.0%
 EFF. MASS   1.8488

 VIBRATION   31   31A         ATOM PAIR      ENERGY CONTRIBUTION    RADIAL
 FREQ.      1399.35         C  2 -- H  9         +20.0% ( 56.9%)      2.9%
 T-DIPOLE    0.0597         C  2 -- H 10         +17.4% ( 53.1%)      5.4%
 TRAVEL      0.1055         C  1 -- C  2         +10.6% ( 41.4%)      0.2%
 RED. MASS   0.5635         C  1 -- C  6          +9.9% ( 40.0%)     98.6%
 EFF. MASS   4.3302

 VIBRATION   32   32A         ATOM PAIR      ENERGY CONTRIBUTION    RADIAL
 FREQ.      1406.26         C  1 -- C  6         +10.6% ( 48.6%)     98.7%
 T-DIPOLE    0.0637         C  1 -- C  5          +9.4% ( 45.9%)     81.4%
 TRAVEL      0.0829         C  1 -- C  2          +8.1% ( 42.5%)     59.3%
 RED. MASS   0.8490         C  1 -- H  8          +8.0% ( 42.2%)      0.4%
 EFF. MASS   6.9714

 VIBRATION   33   33A         ATOM PAIR      ENERGY CONTRIBUTION    RADIAL
 FREQ.      1443.62         C  1 -- C  4         +13.0% ( 59.3%)     85.9%
 T-DIPOLE    0.0903         C  3 -- C  4         +12.8% ( 58.8%)     66.1%
 TRAVEL      0.0690         C  4 -- C  5         +10.0% ( 52.1%)     47.2%
 RED. MASS   1.7204         C  1 -- C  5          +7.3% ( 44.4%)     25.2%
 EFF. MASS   9.8071

 VIBRATION   34   34A         ATOM PAIR      ENERGY CONTRIBUTION    RADIAL
 FREQ.      1861.62         C  6 -- C  7         +43.0% ( 97.6%)     98.8%
 T-DIPOLE    0.1276         C  1 -- C  6         +16.2% ( 59.8%)     55.7%
 TRAVEL      0.0554         C  6 -- H 14         +14.8% ( 57.3%)      3.8%
 RED. MASS   4.9645         C  7 -- H 17         +10.3% ( 47.9%)     10.9%
 EFF. MASS  11.8031         C  7 -- H 16         +10.1% ( 47.4%)     12.9%

 VIBRATION   35   35A         ATOM PAIR      ENERGY CONTRIBUTION    RADIAL
 FREQ.      1890.63         C  4 -- C  5         +31.2% ( 93.5%)     97.0%
 T-DIPOLE    0.2521         C  3 -- C  4         +17.2% ( 69.4%)     85.7%
 TRAVEL      0.0547         C  2 -- C  4         +14.5% ( 63.8%)     82.1%
 RED. MASS   5.2478         C  1 -- C  4         +14.4% ( 63.6%)     11.4%
 EFF. MASS  11.9229

 VIBRATION   36   36A         ATOM PAIR      ENERGY CONTRIBUTION    RADIAL
 FREQ.      2957.11         C  1 -- H  8         +95.2% ( 99.8%)    100.0%
 T-DIPOLE    0.0957         C  1 -- C  6          +1.1% ( 10.6%)     14.5%
 TRAVEL      0.1255         C  1 -- C  2          +1.1% ( 10.6%)     14.0%
 RED. MASS   0.9207         C  1 -- C  5          +1.1% ( 10.5%)     30.5%
 EFF. MASS   1.4472

 VIBRATION   37   37A         ATOM PAIR      ENERGY CONTRIBUTION    RADIAL
 FREQ.      3043.54         C  6 -- H 14         +95.8% ( 99.3%)    100.0%
 T-DIPOLE    0.2513         C  6 -- C  7          +1.4% ( 12.1%)     30.7%
 TRAVEL      0.1214         C  1 -- C  6          +1.3% ( 11.7%)     14.7%
 RED. MASS   0.9040         C  7 -- H 16          +0.9% (  9.8%)     95.5%
 EFF. MASS   1.5034

 VIBRATION   38   38A         ATOM PAIR      ENERGY CONTRIBUTION    RADIAL
 FREQ.      3048.39         C  2 -- H 10         +52.3% ( 75.2%)     97.5%
 T-DIPOLE    0.0868         C  2 -- H  9         +43.9% ( 68.9%)     96.5%
 TRAVEL      0.1198         C  2 -- C  4          +1.1% ( 10.9%)      0.1%
 RED. MASS   0.5169         C  2 -- C  5          +1.1% ( 10.9%)      0.0%
 EFF. MASS   1.5406

 VIBRATION   39   39A         ATOM PAIR      ENERGY CONTRIBUTION    RADIAL
 FREQ.      3065.57         C  3 -- H 12         +51.2% ( 73.8%)     97.3%
 T-DIPOLE    0.0414         C  3 -- H 13         +46.8% ( 70.6%)     96.7%
 TRAVEL      0.1209         C  3 -- C  4          +1.0% ( 10.2%)      0.0%
 RED. MASS   0.5107         C  3 -- H 11          +1.0% ( 10.1%)      1.0%
 EFF. MASS   1.5045

 VIBRATION   40   40A         ATOM PAIR      ENERGY CONTRIBUTION    RADIAL
 FREQ.      3078.26         C  3 -- H 11         +60.4% ( 80.2%)     98.7%
 T-DIPOLE    0.0498         C  3 -- H 13         +21.0% ( 47.3%)     87.4%
 TRAVEL      0.1203         C  3 -- H 12         +17.5% ( 43.2%)     84.4%
 RED. MASS   0.4716         C  3 -- C  4          +1.0% ( 10.5%)      0.0%
 EFF. MASS   1.5134

 VIBRATION   41   41A         ATOM PAIR      ENERGY CONTRIBUTION    RADIAL
 FREQ.      3103.31         C  2 -- H  9         +53.5% ( 72.7%)     97.5%
 T-DIPOLE    0.1123         C  2 -- H 10         +44.3% ( 66.1%)     96.2%
 TRAVEL      0.1302         C  2 -- C  4          +0.7% (  8.4%)     99.4%
 RED. MASS   0.4877         C  1 -- C  2          +0.7% (  8.3%)     51.0%
 EFF. MASS   1.2827

 VIBRATION   42   42A         ATOM PAIR      ENERGY CONTRIBUTION    RADIAL
 FREQ.      3134.43         C  7 -- H 17         +91.8% ( 97.5%)     99.9%
 T-DIPOLE    0.1975         C  7 -- H 16          +6.8% ( 26.6%)     71.5%
 TRAVEL      0.1183         C  6 -- C  7          +1.3% ( 11.7%)     22.2%
 RED. MASS   0.8533
 EFF. MASS   1.5383

 VIBRATION   43   43A         ATOM PAIR      ENERGY CONTRIBUTION    RADIAL
 FREQ.      3146.91         C  7 -- H 16         +91.7% ( 96.4%)     99.7%
 T-DIPOLE    0.2575         C  7 -- H 17          +5.8% ( 24.3%)     41.5%
 TRAVEL      0.1209         C  6 -- C  7          +1.6% ( 12.7%)     73.4%
 RED. MASS   0.8178         C  6 -- H 14          +0.8% (  9.0%)     94.9%
 EFF. MASS   1.4660

 VIBRATION   44   44A         ATOM PAIR      ENERGY CONTRIBUTION    RADIAL
 FREQ.      3163.51         C  3 -- H 11         +38.5% ( 59.8%)     97.8%
 T-DIPOLE    0.0763         C  3 -- H 13         +31.1% ( 53.8%)     96.7%
 TRAVEL      0.1367         C  3 -- H 12         +30.0% ( 52.8%)     96.5%
 RED. MASS   0.3305         C  3 -- C  4          +0.3% (  5.6%)     99.1%
 EFF. MASS   1.1406

 VIBRATION   45   45A         ATOM PAIR      ENERGY CONTRIBUTION    RADIAL
 FREQ.      3205.77         C  5 -- H 15         +94.2% ( 99.9%)    100.0%
 T-DIPOLE    0.4650         C  4 -- C  5          +2.0% ( 14.7%)     64.1%
 TRAVEL      0.1146         C  1 -- C  5          +1.9% ( 14.0%)     99.3%
 RED. MASS   0.9304         C  2 -- C  5          +1.9% ( 14.0%)     38.1%
 EFF. MASS   1.6005

      SYMMETRY NUMBER FOR POINT-GROUP C1  =  1


          SYSTEM IS A GROUND STATE



 InChI=1S/C7H10/c1-3-7-5-4-6(7)2/h3-4,7H,1,5H2,2H3


          MOLECULE IS NOT LINEAR

          THERE ARE 45 GENUINE VIBRATIONS IN THIS SYSTEM
          THIS THERMODYNAMICS CALCULATION IS LIMITED TO
          MOLECULES WHICH HAVE NO INTERNAL ROTATIONS




                    CALCULATED THERMODYNAMIC PROPERTIES
                                          *
   TEMP. (K)   PARTITION FUNCTION   H.O.F.    ENTHALPY  HEAT CAPACITY ENTROPY
                                   KCAL/MOL   CAL/MOLE    CAL/K/MOL  CAL/K/MOL


 298.00  VIB.     0.4501D+02                  2941.2613    21.6178    17.4349
         ROT.     0.2355D+06                   888.2813     2.9808    27.5612
         INT.     0.1060D+08                  3829.5426    24.5986    44.9961
         TRA.     0.8833D+27                  1480.4688     4.9680    39.5363
         TOT.                       45.836    5310.0115    29.5666    84.5324

 200.00  VIB.     0.9232D+01                  1246.6800    13.2398    10.6503
         ROT.     0.1295D+06                   596.1620     2.9808    26.3725
         INT.     0.1195D+07                  1842.8419    16.2206    37.0229
         TRA.     0.4856D+27                   993.6033     4.9680    37.5551
         TOT.                       43.363    2836.4452    21.1886    74.5780

 210.00  VIB.     0.1080D+02                  1382.8948    14.0073    11.3148
         ROT.     0.1393D+06                   625.9700     2.9808    26.5180
         INT.     0.1505D+07                  2008.8649    16.9881    37.8327
         TRA.     0.5225D+27                  1043.2834     4.9680    37.7975
         TOT.                       43.579    3052.1483    21.9561    75.6303

 220.00  VIB.     0.1266D+02                  1526.9070    14.7991    11.9846
         ROT.     0.1494D+06                   655.7781     2.9808    26.6566
         INT.     0.1891D+07                  2182.6851    17.7799    38.6412
         TRA.     0.5603D+27                  1092.9636     4.9680    38.0286
         TOT.                       43.802    3275.6487    22.7480    76.6699

 230.00  VIB.     0.1484D+02                  1678.9555    15.6144    12.6603
         ROT.     0.1597D+06                   685.5862     2.9808    26.7891
         INT.     0.2370D+07                  2364.5417    18.5952    39.4495
         TRA.     0.5989D+27                  1142.6437     4.9680    38.2495
         TOT.                       44.034    3507.1855    23.5632    77.6989

 240.00  VIB.     0.1742D+02                  1839.2672    16.4515    13.3425
         ROT.     0.1702D+06                   715.3943     2.9808    26.9160
         INT.     0.2965D+07                  2554.6615    19.4323    40.2585
         TRA.     0.6384D+27                  1192.3239     4.9680    38.4609
         TOT.                       44.273    3746.9854    24.4003    78.7194

 250.00  VIB.     0.2047D+02                  2008.0509    17.3084    14.0314
         ROT.     0.1809D+06                   745.2024     2.9808    27.0377
         INT.     0.3703D+07                  2753.2533    20.2892    41.0690
         TRA.     0.6787D+27                  1242.0041     4.9680    38.6637
         TOT.                       44.522    3995.2574    25.2572    79.7328

 260.00  VIB.     0.2407D+02                  2185.4933    18.1828    14.7272
         ROT.     0.1919D+06                   775.0105     2.9808    27.1546
         INT.     0.4619D+07                  2960.5038    21.1636    41.8818
         TRA.     0.7198D+27                  1291.6842     4.9680    38.8586
         TOT.                       44.779    4252.1881    26.1316    80.7404

 270.00  VIB.     0.2834D+02                  2371.7561    19.0720    15.4301
         ROT.     0.2031D+06                   804.8186     2.9808    27.2671
         INT.     0.5755D+07                  3176.5748    22.0528    42.6971
         TRA.     0.7618D+27                  1341.3644     4.9680    39.0461
         TOT.                       45.044    4517.9392    27.0209    81.7432

 280.00  VIB.     0.3340D+02                  2566.9744    19.9734    16.1399
         ROT.     0.2145D+06                   834.6267     2.9808    27.3755
         INT.     0.7163D+07                  3401.6012    22.9542    43.5154
         TRA.     0.8045D+27                  1391.0445     4.9680    39.2267
         TOT.                       45.319    4792.6457    27.9222    82.7422

 290.00  VIB.     0.3940D+02                  2771.2558    20.8842    16.8567
         ROT.     0.2260D+06                   864.4348     2.9808    27.4801
         INT.     0.8907D+07                  3635.6907    23.8650    44.3368
         TRA.     0.8479D+27                  1440.7247     4.9680    39.4011
         TOT.                       45.603    5076.4154    28.8330    83.7378

 300.00  VIB.     0.4653D+02                  2984.6807    21.8017    17.5801
         ROT.     0.2378D+06                   894.2429     2.9808    27.5811
         INT.     0.1107D+08                  3878.9236    24.7825    45.1613
         TRA.     0.8922D+27                  1490.4049     4.9680    39.5695
         TOT.                       45.896    5369.3285    29.7505    84.7308

 310.00  VIB.     0.5501D+02                  3207.3029    22.7232    18.3100
         ROT.     0.2498D+06                   924.0510     2.9808    27.6789
         INT.     0.1374D+08                  4131.3539    25.7040    45.9889
         TRA.     0.9372D+27                  1540.0850     4.9680    39.7324
         TOT.                       46.198    5671.4390    30.6721    85.7213

 320.00  VIB.     0.6511D+02                  3439.1508    23.6464    19.0460
         ROT.     0.2620D+06                   953.8591     2.9808    27.7735
         INT.     0.1706D+08                  4393.0100    26.6272    46.8196
         TRA.     0.9829D+27                  1589.7652     4.9680    39.8901
         TOT.                       46.509    5982.7752    31.5953    86.7097

 330.00  VIB.     0.7714D+02                  3680.2293    24.5690    19.7878
         ROT.     0.2744D+06                   983.6672     2.9808    27.8652
         INT.     0.2117D+08                  4663.8965    27.5498    47.6530
         TRA.     0.1029D+28                  1639.4454     4.9680    40.0430
         TOT.                       46.830    6303.3419    32.5178    87.6961

 340.00  VIB.     0.9149D+02                  3930.5209    25.4887    20.5349
         ROT.     0.2870D+06                  1013.4753     2.9808    27.9542
         INT.     0.2625D+08                  4943.9963    28.4695    48.4892
         TRA.     0.1076D+28                  1689.1255     4.9680    40.1913
         TOT.                       47.160    6633.1218    33.4376    88.6805

 350.00  VIB.     0.1086D+03                  4189.9885    26.4038    21.2870
         ROT.     0.2997D+06                  1043.2834     2.9808    28.0406
         INT.     0.3255D+08                  5233.2719    29.3847    49.3276
         TRA.     0.1124D+28                  1738.8057     4.9680    40.3353
         TOT.                       47.499    6972.0776    34.3527    89.6630

 360.00  VIB.     0.1291D+03                  4458.5765    27.3126    22.0436
         ROT.     0.3126D+06                  1073.0915     2.9808    28.1246
         INT.     0.4036D+08                  5531.6681    30.2934    50.1682
         TRA.     0.1173D+28                  1788.4859     4.9680    40.4753
         TOT.                       47.847    7320.1539    35.2614    90.6435

 370.00  VIB.     0.1535D+03                  4736.2137    28.2134    22.8042
         ROT.     0.3258D+06                  1102.8996     2.9808    28.2063
         INT.     0.5002D+08                  5839.1133    31.1942    51.0105
         TRA.     0.1222D+28                  1838.1660     4.9680    40.6114
         TOT.                       48.204    7677.2794    36.1623    91.6219

 380.00  VIB.     0.1828D+03                  5022.8146    29.1051    23.5685
         ROT.     0.3391D+06                  1132.7077     2.9808    28.2858
         INT.     0.6199D+08                  6155.5223    32.0859    51.8542
         TRA.     0.1272D+28                  1887.8462     4.9680    40.7439
         TOT.                       48.570    8043.3685    37.0539    92.5981

 390.00  VIB.     0.2179D+03                  5318.2814    29.9865    24.3359
         ROT.     0.3525D+06                  1162.5158     2.9808    28.3632
         INT.     0.7682D+08                  6480.7972    32.9673    52.6991
         TRA.     0.1322D+28                  1937.5263     4.9680    40.8729
         TOT.                       48.945    8418.3236    37.9353    93.5721

 400.00  VIB.     0.2599D+03                  5622.5062    30.8566    25.1061
         ROT.     0.3662D+06                  1192.3239     2.9808    28.4387
         INT.     0.9519D+08                  6814.8301    33.8374    53.5448
         TRA.     0.1374D+28                  1987.2065     4.9680    40.9987
         TOT.                       49.328    8802.0366    38.8054    94.5435

   *: NOTE: HEATS OF FORMATION ARE RELATIVE TO THE
            ELEMENTS IN THEIR STANDARD STATE AT 298K
              (=  Standard Enthalpy of Formation).

            Hvib:  Zero-point energy is not included.
                   frequencies of less than zero cm-1 are not included.
            Hrot = (3/2)RT
            Htra = (3/2)RT + pV = (5/2)RT

            Heat capacity is Cp, not Cv

          For more information, see: HTTP://OpenMOPAC.net/Manual/thermochemistry.html


           FORCE CONSTANT IN CARTESIAN COORDINATES (Millidynes/A)

    ATOM   CHEMICAL       X               Y               Z
   NUMBER   SYMBOL  FORCE CONSTANT  FORCE CONSTANT  FORCE CONSTANT

      1       C        7.521140        8.028442        9.110920
      2       C        7.242644        8.337636        8.399666
      3       C        8.881979        9.039901        7.942022
      4       C       15.534991        9.505127        2.634882
      5       C       15.078784        9.286059        2.179224
      6       C        9.125810        8.988355        9.254332
      7       C        8.799916        8.669949        9.032721
      8       H        1.397963        1.231165        3.603526
      9       H        1.487797        1.392443        3.693322
     10       H        1.503587        1.317593        3.743424
     11       H        1.480227        4.564150        0.650325
     12       H        2.093847        0.687694        3.825625
     13       H        2.225564        0.711347        3.678343
     14       H        1.047209        1.090299        4.072577
     15       H        3.224428        3.029240        0.334315
     16       H        1.305445        1.227427        3.949439
     17       H        1.140289        1.181969        4.145653

 **********************
 *                    *
 * JOB ENDED NORMALLY *
 *                    *
 **********************



 TOTAL JOB TIME:             8.59 SECONDS

 == MOPAC DONE ==
