 *******************************************************************************
 ** Site#: 14399        For non-commercial use only    Version 18.184L 64BITS **
 *******************************************************************************
 ** Cite this program as: MOPAC2016, Version: 18.184L, James J. P. Stewart,   **
 ** Stewart Computational Chemistry, web: HTTP://OpenMOPAC.net. Days left:  20**
 *******************************************************************************
 **                                                                           **
 **                                MOPAC2016                                  **
 **                                                                           **
 *******************************************************************************

                              PM3 CALCULATION RESULTS

 *******************************************************************************
 *  CALCULATION DONE:                                Thu Jun 13 15:57:23 2019  *
 *  PM3        - The PM3 Hamiltonian to be used
 *  PRECISE    - CRITERIA TO BE INCREASED BY 100 TIMES
 *  NOSYM      - POINT-GROUP SYMMETRY SET TO C1
 *  THREADS=1  - MULTI-THREADING NOT USED
 *  T=         - A TIME OF 172800.0 SECONDS REQUESTED
 *  DUMP=N     - RESTART FILE WRITTEN EVERY  7200.000 SECONDS
 *******************************************************************************
pm3  precise nosym THREADS=1
 InChI=1S/C10H10/c1-3-6-10-8-5-4-7-9(10)2/h4-5,7H,1,8H2,2H3

   ATOM   CHEMICAL          X               Y               Z
  NUMBER   SYMBOL      (ANGSTROMS)     (ANGSTROMS)     (ANGSTROMS)
 
     1       C         -0.55640000  *  -1.72770000  *   0.18800000  *
     2       C         -0.03950000  *   2.20340000  *  -0.25530000  *
     3       C         -0.70670000  *   0.85840000  *  -0.11380000  *
     4       C          0.10490000  *  -0.37760000  *   0.04580000  *
     5       C         -2.06050000  *  -1.66660000  *   0.14980000  *
     6       C         -2.04430000  *   0.76970000  *  -0.13130000  *
     7       C         -2.73410000  *  -0.52310000  *   0.00370000  *
     8       C          3.99380000  *  -0.19850000  *   0.10580000  *
     9       C          1.41300000  *  -0.31870000  *   0.06610000  *
    10       C          2.69320000  *  -0.25970000  *   0.08590000  *
    11       H         -0.25080000  *  -2.18370000  *   1.15430000  *
    12       H         -0.21370000  *  -2.39050000  *  -0.63550000  *
    13       H         -0.77640000  *   3.02780000  *  -0.36590000  *
    14       H          0.61540000  *   2.20090000  *  -1.15190000  *
    15       H          0.57810000  *   2.40840000  *   0.64420000  *
    16       H         -2.61420000  *  -2.59230000  *   0.24520000  *
    17       H         -2.65260000  *   1.65860000  *  -0.24660000  *
    18       H         -3.81630000  *  -0.54270000  *  -0.01650000  *
    19       H          4.57590000  *  -1.10230000  *   0.22230000  *
    20       H          4.49150000  *   0.75640000  *   0.00590000  *
 


          CARTESIAN COORDINATES 

    NO.       ATOM           X           Y           Z

     1         C         -0.5564     -1.7277      0.1880
     2         C         -0.0395      2.2034     -0.2553
     3         C         -0.7067      0.8584     -0.1138
     4         C          0.1049     -0.3776      0.0458
     5         C         -2.0605     -1.6666      0.1498
     6         C         -2.0443      0.7697     -0.1313
     7         C         -2.7341     -0.5231      0.0037
     8         C          3.9938     -0.1985      0.1058
     9         C          1.4130     -0.3187      0.0661
    10         C          2.6932     -0.2597      0.0859
    11         H         -0.2508     -2.1837      1.1543
    12         H         -0.2137     -2.3905     -0.6355
    13         H         -0.7764      3.0278     -0.3659
    14         H          0.6154      2.2009     -1.1519
    15         H          0.5781      2.4084      0.6442
    16         H         -2.6142     -2.5923      0.2452
    17         H         -2.6526      1.6586     -0.2466
    18         H         -3.8163     -0.5427     -0.0165
    19         H          4.5759     -1.1023      0.2223
    20         H          4.4915      0.7564      0.0059

  H: (PM3): J. J. P. STEWART, J. COMP. CHEM. 10, 209 (1989).
  C: (PM3): J. J. P. STEWART, J. COMP. CHEM. 10, 209 (1989).

           Empirical Formula: C10 H10  =    20 atoms



      MOLECULAR POINT GROUP   :   C1  


      RHF CALCULATION, NO. OF DOUBLY OCCUPIED LEVELS = 25


          Geometry optimization using EF

          DIAGONAL MATRIX USED AS START HESSIAN

 CYCLE:     1 TIME:   0.035 TIME LEFT:  2.00D  GRAD.:    96.773 HEAT:  96.57236
 CYCLE:     2 TIME:   0.047 TIME LEFT:  2.00D  GRAD.:    69.234 HEAT:  95.25485
 CYCLE:     3 TIME:   0.027 TIME LEFT:  2.00D  GRAD.:    54.355 HEAT:  94.67406
 CYCLE:     4 TIME:   0.020 TIME LEFT:  2.00D  GRAD.:    36.209 HEAT:  94.26592
 CYCLE:     5 TIME:   0.031 TIME LEFT:  2.00D  GRAD.:    24.613 HEAT:  94.07892
 CYCLE:     6 TIME:   0.027 TIME LEFT:  2.00D  GRAD.:    18.074 HEAT:  93.96656
 CYCLE:     7 TIME:   0.023 TIME LEFT:  2.00D  GRAD.:    17.186 HEAT:  93.88033
 CYCLE:     8 TIME:   0.023 TIME LEFT:  2.00D  GRAD.:    15.479 HEAT:  93.75883
 CYCLE:     9 TIME:   0.020 TIME LEFT:  2.00D  GRAD.:    20.594 HEAT:  93.75633
 CYCLE:    10 TIME:   0.031 TIME LEFT:  2.00D  GRAD.:    12.646 HEAT:  93.66269
 CYCLE:    11 TIME:   0.031 TIME LEFT:  2.00D  GRAD.:     9.378 HEAT:  93.63273
 CYCLE:    12 TIME:   0.020 TIME LEFT:  2.00D  GRAD.:     5.654 HEAT:  93.61123
 CYCLE:    13 TIME:   0.031 TIME LEFT:  2.00D  GRAD.:     5.097 HEAT:  93.60308
 CYCLE:    14 TIME:   0.020 TIME LEFT:  2.00D  GRAD.:     4.038 HEAT:  93.59506
 CYCLE:    15 TIME:   0.023 TIME LEFT:  2.00D  GRAD.:     4.994 HEAT:  93.58743
 CYCLE:    16 TIME:   0.023 TIME LEFT:  2.00D  GRAD.:     5.792 HEAT:  93.58268
 CYCLE:    17 TIME:   0.023 TIME LEFT:  2.00D  GRAD.:     3.995 HEAT:  93.57240
 CYCLE:    18 TIME:   0.023 TIME LEFT:  2.00D  GRAD.:     4.346 HEAT:  93.57037
 CYCLE:    19 TIME:   0.020 TIME LEFT:  2.00D  GRAD.:     2.811 HEAT:  93.56522
 CYCLE:    20 TIME:   0.023 TIME LEFT:  2.00D  GRAD.:     2.308 HEAT:  93.56320
 CYCLE:    21 TIME:   0.023 TIME LEFT:  2.00D  GRAD.:     1.610 HEAT:  93.56063
 CYCLE:    22 TIME:   0.023 TIME LEFT:  2.00D  GRAD.:     1.724 HEAT:  93.55910
 CYCLE:    23 TIME:   0.023 TIME LEFT:  2.00D  GRAD.:     1.159 HEAT:  93.55713
 CYCLE:    24 TIME:   0.023 TIME LEFT:  2.00D  GRAD.:     1.305 HEAT:  93.55494
 CYCLE:    25 TIME:   0.023 TIME LEFT:  2.00D  GRAD.:     1.839 HEAT:  93.55423
 CYCLE:    26 TIME:   0.020 TIME LEFT:  2.00D  GRAD.:     0.795 HEAT:  93.55312
 CYCLE:    27 TIME:   0.023 TIME LEFT:  2.00D  GRAD.:     1.134 HEAT:  93.55292
 CYCLE:    28 TIME:   0.023 TIME LEFT:  2.00D  GRAD.:     0.620 HEAT:  93.55245
 CYCLE:    29 TIME:   0.023 TIME LEFT:  2.00D  GRAD.:     0.604 HEAT:  93.55232
 CYCLE:    30 TIME:   0.023 TIME LEFT:  2.00D  GRAD.:     0.324 HEAT:  93.55210
 CYCLE:    31 TIME:   0.023 TIME LEFT:  2.00D  GRAD.:     0.307 HEAT:  93.55204
 CYCLE:    32 TIME:   0.020 TIME LEFT:  2.00D  GRAD.:     0.199 HEAT:  93.55199
 CYCLE:    33 TIME:   0.023 TIME LEFT:  2.00D  GRAD.:     0.146 HEAT:  93.55197
 CYCLE:    34 TIME:   0.023 TIME LEFT:  2.00D  GRAD.:     0.102 HEAT:  93.55195
 CYCLE:    35 TIME:   0.023 TIME LEFT:  2.00D  GRAD.:     0.103 HEAT:  93.55193
 CYCLE:    36 TIME:   0.023 TIME LEFT:  2.00D  GRAD.:     0.061 HEAT:  93.55192
 CYCLE:    37 TIME:   0.023 TIME LEFT:  2.00D  GRAD.:     0.061 HEAT:  93.55192
 CYCLE:    38 TIME:   0.023 TIME LEFT:  2.00D  GRAD.:     0.052 HEAT:  93.55191
 CYCLE:    39 TIME:   0.020 TIME LEFT:  2.00D  GRAD.:     0.038 HEAT:  93.55190

     GRADIENT =  0.03799  IS LESS THAN CUTOFF =  0.05000



 -------------------------------------------------------------------------------
 pm3  precise nosym THREADS=1
 InChI=1S/C10H10/c1-3-6-10-8-5-4-7-9(10)2/h4-5,7H,1,8H2,2H3



     GEOMETRY OPTIMISED USING EIGENVECTOR FOLLOWING (EF).     
     SCF FIELD WAS ACHIEVED                                   


                              PM3 CALCULATION
                                                       MOPAC2016 (Version: 18.184L)
                                                       Thu Jun 13 15:57:24 2019
                                                       No. of days remaining =  20




          FINAL HEAT OF FORMATION =         93.55190 KCAL/MOL =     391.42116 KJ/MOL


          TOTAL ENERGY            =      -1335.67414 EV
          ELECTRONIC ENERGY       =      -6775.95046 EV  POINT GROUP:     C1  
          CORE-CORE REPULSION     =       5440.27632 EV
          COSMO AREA              =        185.85 SQUARE ANGSTROMS
          COSMO VOLUME            =        182.29 CUBIC ANGSTROMS

          GRADIENT NORM           =          0.03799 = 0.00850 PER ATOM
          IONIZATION POTENTIAL    =          8.166922 EV
          HOMO LUMO ENERGIES (EV) =         -8.167 -0.791
          NO. OF FILLED LEVELS    =         25
          MOLECULAR WEIGHT        =        130.1890

          MOLECULAR DIMENSIONS (Angstroms)

            Atom       Atom       Distance
            H    20    H    18     8.45890
            H    13    H    12     5.37675
            H    14    H    11     2.46630


          SCF CALCULATIONS        =         47
 
          WALL-CLOCK TIME         =          1.012 SECONDS
          COMPUTATION TIME        =          0.403 SECONDS




   ATOM   CHEMICAL          X               Y               Z
  NUMBER   SYMBOL      (ANGSTROMS)     (ANGSTROMS)     (ANGSTROMS)
 
     1       C         -0.56581617  *  -1.68918771  *   0.18369293  *
     2       C         -0.03002051  *   2.15269854  *  -0.24897675  *
     3       C         -0.71867724  *   0.84317217  *  -0.11230201  *
     4       C          0.10184988  *  -0.35636291  *   0.04337261  *
     5       C         -2.04780915  *  -1.65341719  *   0.14857447  *
     6       C         -2.06638982  *   0.75523804  *  -0.13039756  *
     7       C         -2.74043688  *  -0.51566108  *   0.00241801  *
     8       C          3.98517358  *  -0.20209270  *   0.10580693  *
     9       C          1.42166151  *  -0.29324736  *   0.06335076  *
    10       C          2.68236056  *  -0.24873303  *   0.08427155  *
    11       H         -0.24507163  *  -2.16109331  *   1.13608823  *
    12       H         -0.20840529  *  -2.36455220  *  -0.62175949  *
    13       H         -0.73558084  *   2.98658905  *  -0.36003630  *
    14       H          0.63055181  *   2.15410410  *  -1.12683662  *
    15       H          0.59355050  *   2.35705057  *   0.63215695  *
    16       H         -2.55666866  *  -2.61842503  *   0.24964598  *
    17       H         -2.68827173  *   1.65037907  *  -0.24688431  *
    18       H         -3.83515965  *  -0.51421392  *  -0.02069917  *
    19       H          4.59379497  *  -1.09415381  *   0.22154001  *
    20       H          4.53143641  *   0.73166389  *   0.00916216  *

                             CARTESIAN COORDINATES

   1    C       -0.565816174    -1.689187712     0.183692930
   2    C       -0.030020512     2.152698538    -0.248976751
   3    C       -0.718677235     0.843172167    -0.112302008
   4    C        0.101849875    -0.356362913     0.043372607
   5    C       -2.047809146    -1.653417189     0.148574471
   6    C       -2.066389816     0.755238043    -0.130397556
   7    C       -2.740436877    -0.515661079     0.002418014
   8    C        3.985173584    -0.202092703     0.105806925
   9    C        1.421661512    -0.293247358     0.063350761
  10    C        2.682360564    -0.248733027     0.084271548
  11    H       -0.245071628    -2.161093309     1.136088226
  12    H       -0.208405289    -2.364552201    -0.621759491
  13    H       -0.735580837     2.986589053    -0.360036303
  14    H        0.630551808     2.154104096    -1.126836624
  15    H        0.593550502     2.357050566     0.632156948
  16    H       -2.556668655    -2.618425026     0.249645978
  17    H       -2.688271727     1.650379072    -0.246884310
  18    H       -3.835159652    -0.514213919    -0.020699172
  19    H        4.593794974    -1.094153807     0.221540010
  20    H        4.531436411     0.731663888     0.009162159


           Empirical Formula: C10 H10  =    20 atoms



      MOLECULAR POINT GROUP   :   C1  


                  EIGENVALUES  
 -40.16260 -33.76226 -32.72107 -30.39657 -26.37801 -25.01534 -22.24104 -20.67414
 -18.25412 -16.85725 -16.67676 -16.11892 -15.32646 -15.09375 -14.76703 -14.36622
 -14.12174 -13.30195 -12.64929 -12.59813 -12.44757 -11.40065  -9.97809  -9.96436
  -8.16692  -0.79100   0.58291   1.14587   1.98458   2.63010   2.98143   3.16040
   3.27402   3.40129   3.66131   3.87124   3.89319   4.25781   4.29218   4.32725
   4.39533   4.56994   4.64992   4.91425   5.10460   5.18062   5.36033   5.92145
   6.18531   6.97032


              NET ATOMIC CHARGES AND DIPOLE CONTRIBUTIONS

  ATOM NO.   TYPE          CHARGE      No. of ELECS.   s-Pop       p-Pop       
    1          C          -0.022381        4.0224     1.13275     2.88963
    2          C          -0.069655        4.0697     1.12465     2.94500
    3          C          -0.066187        4.0662     1.18127     2.88492
    4          C           0.055280        3.9447     1.14753     2.79718
    5          C          -0.132089        4.1321     1.19561     2.93648
    6          C          -0.096654        4.0967     1.17979     2.91687
    7          C          -0.112336        4.1123     1.17726     2.93508
    8          C          -0.085936        4.0859     1.14806     2.93788
    9          C          -0.171151        4.1712     1.16221     3.00894
   10          C          -0.086190        4.0862     1.16323     2.92296
   11          H           0.071656        0.9283     0.92834
   12          H           0.071656        0.9283     0.92834
   13          H           0.042643        0.9574     0.95736
   14          H           0.052270        0.9477     0.94773
   15          H           0.052266        0.9477     0.94773
   16          H           0.100531        0.8995     0.89947
   17          H           0.105873        0.8941     0.89413
   18          H           0.103120        0.8969     0.89688
   19          H           0.093651        0.9063     0.90635
   20          H           0.093633        0.9064     0.90637
 DIPOLE           X         Y         Z       TOTAL
 POINT-CHG.    -0.257    -0.153     0.013     0.299
 HYBRID         0.070    -0.042     0.006     0.081
 SUM           -0.187    -0.195     0.019     0.271


          ATOMIC ORBITAL ELECTRON POPULATIONS

     Atom    s        px        py        pz   
    1  C   1.13275   0.93092   0.94532   1.01339
    2  C   1.12465   0.99696   0.93402   1.01403
    3  C   1.18127   0.94381   0.94147   0.99964
    4  C   1.14753   0.88749   0.93681   0.97289
    5  C   1.19561   0.95856   0.97888   0.99904
    6  C   1.17979   0.94364   0.96825   1.00498
    7  C   1.17726   0.98194   0.93793   1.01521
    8  C   1.14806   0.90984   1.00578   1.02225
    9  C   1.16221   0.92545   1.03720   1.04628
   10  C   1.16323   0.92930   0.99571   0.99795
   11  H   0.92834
   12  H   0.92834
   13  H   0.95736
   14  H   0.94773
   15  H   0.94773
   16  H   0.89947
   17  H   0.89413
   18  H   0.89688
   19  H   0.90635
   20  H   0.90637
 *******************************************************************************
 ** Site#: 14399        For non-commercial use only    Version 18.184L 64BITS **
 *******************************************************************************
 ** Cite this program as: MOPAC2016, Version: 18.184L, James J. P. Stewart,   **
 ** Stewart Computational Chemistry, web: HTTP://OpenMOPAC.net. Days left:  20**
 *******************************************************************************
 **                                                                           **
 **                                MOPAC2016                                  **
 **                                                                           **
 *******************************************************************************

                              PM3 CALCULATION RESULTS

 *******************************************************************************
 *  CALCULATION DONE:                                Thu Jun 13 15:57:24 2019  *
 *  PM3        - The PM3 Hamiltonian to be used
 *  OLDGEO     - PREVIOUS GEOMETRY TO BE USED
 *  PRECISE    - CRITERIA TO BE INCREASED BY 100 TIMES
 *  NOSYM      - POINT-GROUP SYMMETRY SET TO C1
 *  THREADS=1  - MULTI-THREADING NOT USED
 *  T=         - A TIME OF 172800.0 SECONDS REQUESTED
 *  DUMP=N     - RESTART FILE WRITTEN EVERY  7200.000 SECONDS
 *  THERMO     - THERMODYNAMIC QUANTITIES TO BE CALCULATED
 *******************************************************************************
oldgeo thermo nosym precise THREADS=1  pm3
 InChI=1S/C10H10/c1-3-6-10-8-5-4-7-9(10)2/h4-5,7H,1,8H2,2H3

   ATOM   CHEMICAL          X               Y               Z
  NUMBER   SYMBOL      (ANGSTROMS)     (ANGSTROMS)     (ANGSTROMS)
 
     1       C         -0.56581617  *  -1.68918771  *   0.18369293  *
     2       C         -0.03002051  *   2.15269854  *  -0.24897675  *
     3       C         -0.71867724  *   0.84317217  *  -0.11230201  *
     4       C          0.10184988  *  -0.35636291  *   0.04337261  *
     5       C         -2.04780915  *  -1.65341719  *   0.14857447  *
     6       C         -2.06638982  *   0.75523804  *  -0.13039756  *
     7       C         -2.74043688  *  -0.51566108  *   0.00241801  *
     8       C          3.98517358  *  -0.20209270  *   0.10580693  *
     9       C          1.42166151  *  -0.29324736  *   0.06335076  *
    10       C          2.68236056  *  -0.24873303  *   0.08427155  *
    11       H         -0.24507163  *  -2.16109331  *   1.13608823  *
    12       H         -0.20840529  *  -2.36455220  *  -0.62175949  *
    13       H         -0.73558084  *   2.98658905  *  -0.36003630  *
    14       H          0.63055181  *   2.15410410  *  -1.12683662  *
    15       H          0.59355050  *   2.35705057  *   0.63215695  *
    16       H         -2.55666866  *  -2.61842503  *   0.24964598  *
    17       H         -2.68827173  *   1.65037907  *  -0.24688431  *
    18       H         -3.83515965  *  -0.51421392  *  -0.02069917  *
    19       H          4.59379497  *  -1.09415381  *   0.22154001  *
    20       H          4.53143641  *   0.73166389  *   0.00916216  *
 


          CARTESIAN COORDINATES 

    NO.       ATOM           X           Y           Z

     1         C         -0.5658     -1.6892      0.1837
     2         C         -0.0300      2.1527     -0.2490
     3         C         -0.7187      0.8432     -0.1123
     4         C          0.1018     -0.3564      0.0434
     5         C         -2.0478     -1.6534      0.1486
     6         C         -2.0664      0.7552     -0.1304
     7         C         -2.7404     -0.5157      0.0024
     8         C          3.9852     -0.2021      0.1058
     9         C          1.4217     -0.2932      0.0634
    10         C          2.6824     -0.2487      0.0843
    11         H         -0.2451     -2.1611      1.1361
    12         H         -0.2084     -2.3646     -0.6218
    13         H         -0.7356      2.9866     -0.3600
    14         H          0.6306      2.1541     -1.1268
    15         H          0.5936      2.3571      0.6322
    16         H         -2.5567     -2.6184      0.2496
    17         H         -2.6883      1.6504     -0.2469
    18         H         -3.8352     -0.5142     -0.0207
    19         H          4.5938     -1.0942      0.2215
    20         H          4.5314      0.7317      0.0092

  H: (PM3): J. J. P. STEWART, J. COMP. CHEM. 10, 209 (1989).
  C: (PM3): J. J. P. STEWART, J. COMP. CHEM. 10, 209 (1989).

           Empirical Formula: C10 H10  =    20 atoms



      MOLECULAR POINT GROUP   :   C1  


      RHF CALCULATION, NO. OF DOUBLY OCCUPIED LEVELS = 25



          HEAT OF FORMATION =      93.551904 KCALS/MOLE


          CARTESIAN COORDINATE DERIVATIVES

   NUMBER  ATOM         X            Y            Z

     1       C      0.003875    -0.006871     0.000461
     2       C     -0.006716    -0.002599     0.000676
     3       C     -0.009530    -0.000483     0.000336
     4       C     -0.001383     0.007036    -0.001700
     5       C     -0.000855    -0.009276    -0.003596
     6       C     -0.007416     0.009119     0.000191
     7       C     -0.002252     0.003331    -0.000333
     8       C      0.005303     0.006427    -0.003017
     9       C     -0.005528     0.002172    -0.002573
    10       C     -0.015055     0.006598     0.001941
    11       H     -0.001718    -0.001358     0.001436
    12       H     -0.000260     0.004627     0.001125
    13       H      0.011269    -0.007581     0.000126
    14       H      0.002829     0.001918     0.002344
    15       H     -0.001493     0.002429    -0.001190
    16       H      0.004244    -0.009406     0.003240
    17       H      0.011560    -0.007160    -0.001557
    18       H      0.004811    -0.001920    -0.000080
    19       H      0.003395    -0.000900     0.001180
    20       H      0.004922     0.003896     0.000990
 


          GRADIENT NORM =   0.03918


          TIME FOR SCF CALCULATION =    0.03

          TIME FOR DERIVATIVES     =    0.01

          MOLECULAR WEIGHT =  130.19



          ROTATIONAL CONSTANTS IN CM(-1)

          A =    0.08906865   B =    0.02905381   C =    0.02208903



           PRINCIPAL MOMENTS OF INERTIA IN UNITS OF 10**(-40)*GRAM-CM**2

          A =      314.2831   B =      963.4803   C =     1267.2706


          ORIENTATION OF MOLECULE IN FORCE CALCULATION

    NO.       ATOM         X         Y         Z

     1          C      -1.6587    0.3441    0.0005
     2          C       2.2444    0.3441    0.0005
     3          C       0.8458    0.8456    0.0005
     4          C      -0.2396   -0.1334    0.0000
     5          C      -1.8230    1.8178    0.0012
     6          C       0.5762    2.1691    0.0010
     7          C      -0.7820    2.6615    0.0013
     8          C       0.4384   -3.9607   -0.0026
     9          C       0.0015   -1.4327   -0.0009
    10          C       0.2161   -2.6760   -0.0017
    11          H      -2.1847   -0.0717    0.8854
    12          H      -2.1851   -0.0708   -0.8845
    13          H       2.9807    1.1586    0.0009
    14          H       2.4338   -0.2777   -0.8852
    15          H       2.4335   -0.2783    0.8859
    16          H      -2.8540    2.1887    0.0016
    17          H       1.3849    2.9092    0.0013
    18          H      -0.9283    3.7467    0.0017
    19          H      -0.3689   -4.6872   -0.0030
    20          H       1.4432   -4.3730   -0.0030


    FIRST DERIVATIVES WILL BE USED IN THE CALCULATION OF SECOND DERIVATIVES

          ESTIMATED TIME TO COMPLETE CALCULATION =        9.38 SECONDS

    FOR POINT-GROUP C1   THERE ARE   1 UNIQUE SYMMETRY FUNCTIONS.

 STEP:   1 TIME =     0.05 SECS, INTEGRAL =      0.05 TIME LEFT: 172799.91
 STEP:   2 TIME =     0.04 SECS, INTEGRAL =      0.09 TIME LEFT: 172799.87
 STEP:   3 TIME =     0.05 SECS, INTEGRAL =      0.14 TIME LEFT: 172799.82
 STEP:   4 TIME =     0.04 SECS, INTEGRAL =      0.18 TIME LEFT: 172799.78
 STEP:   5 TIME =     0.04 SECS, INTEGRAL =      0.23 TIME LEFT: 172799.73
 STEP:   6 TIME =     0.04 SECS, INTEGRAL =      0.27 TIME LEFT: 172799.69
 STEP:   7 TIME =     0.04 SECS, INTEGRAL =      0.31 TIME LEFT: 172799.65
 STEP:   8 TIME =     0.04 SECS, INTEGRAL =      0.36 TIME LEFT: 172799.61
 STEP:   9 TIME =     0.05 SECS, INTEGRAL =      0.41 TIME LEFT: 172799.55
 STEP:  10 TIME =     0.04 SECS, INTEGRAL =      0.45 TIME LEFT: 172799.51
 STEP:  11 TIME =     0.05 SECS, INTEGRAL =      0.50 TIME LEFT: 172799.46
 STEP:  12 TIME =     0.05 SECS, INTEGRAL =      0.54 TIME LEFT: 172799.42
 STEP:  13 TIME =     0.05 SECS, INTEGRAL =      0.59 TIME LEFT: 172799.37
 STEP:  14 TIME =     0.05 SECS, INTEGRAL =      0.64 TIME LEFT: 172799.32
 STEP:  15 TIME =     0.05 SECS, INTEGRAL =      0.68 TIME LEFT: 172799.28
 STEP:  16 TIME =     0.04 SECS, INTEGRAL =      0.73 TIME LEFT: 172799.23
 STEP:  17 TIME =     0.05 SECS, INTEGRAL =      0.77 TIME LEFT: 172799.19
 STEP:  18 TIME =     0.05 SECS, INTEGRAL =      0.82 TIME LEFT: 172799.14
 STEP:  19 TIME =     0.04 SECS, INTEGRAL =      0.86 TIME LEFT: 172799.10
 STEP:  20 TIME =     0.05 SECS, INTEGRAL =      0.91 TIME LEFT: 172799.05
 STEP:  21 TIME =     0.05 SECS, INTEGRAL =      0.96 TIME LEFT: 172799.00
 STEP:  22 TIME =     0.05 SECS, INTEGRAL =      1.00 TIME LEFT: 172798.96
 STEP:  23 TIME =     0.05 SECS, INTEGRAL =      1.05 TIME LEFT: 172798.91
 STEP:  24 TIME =     0.05 SECS, INTEGRAL =      1.10 TIME LEFT: 172798.86
 STEP:  25 TIME =     0.05 SECS, INTEGRAL =      1.14 TIME LEFT: 172798.82
 STEP:  26 TIME =     0.05 SECS, INTEGRAL =      1.19 TIME LEFT: 172798.77
 STEP:  27 TIME =     0.05 SECS, INTEGRAL =      1.24 TIME LEFT: 172798.72
 STEP:  28 TIME =     0.05 SECS, INTEGRAL =      1.29 TIME LEFT: 172798.67
 STEP:  29 TIME =     0.04 SECS, INTEGRAL =      1.34 TIME LEFT: 172798.62
 STEP:  30 TIME =     0.05 SECS, INTEGRAL =      1.38 TIME LEFT: 172798.58
 STEP:  31 TIME =     0.05 SECS, INTEGRAL =      1.43 TIME LEFT: 172798.53
 STEP:  32 TIME =     0.04 SECS, INTEGRAL =      1.47 TIME LEFT: 172798.49
 STEP:  33 TIME =     0.05 SECS, INTEGRAL =      1.52 TIME LEFT: 172798.44
 STEP:  34 TIME =     0.05 SECS, INTEGRAL =      1.57 TIME LEFT: 172798.39
 STEP:  35 TIME =     0.05 SECS, INTEGRAL =      1.61 TIME LEFT: 172798.35
 STEP:  36 TIME =     0.05 SECS, INTEGRAL =      1.66 TIME LEFT: 172798.30
 STEP:  37 TIME =     0.04 SECS, INTEGRAL =      1.70 TIME LEFT: 172798.26
 STEP:  38 TIME =     0.04 SECS, INTEGRAL =      1.75 TIME LEFT: 172798.21
 STEP:  39 TIME =     0.05 SECS, INTEGRAL =      1.79 TIME LEFT: 172798.17
 STEP:  40 TIME =     0.05 SECS, INTEGRAL =      1.84 TIME LEFT: 172798.12
 STEP:  41 TIME =     0.05 SECS, INTEGRAL =      1.89 TIME LEFT: 172798.07
 STEP:  42 TIME =     0.05 SECS, INTEGRAL =      1.93 TIME LEFT: 172798.03
 STEP:  43 TIME =     0.05 SECS, INTEGRAL =      1.98 TIME LEFT: 172797.98
 STEP:  44 TIME =     0.05 SECS, INTEGRAL =      2.03 TIME LEFT: 172797.93
 STEP:  45 TIME =     0.05 SECS, INTEGRAL =      2.07 TIME LEFT: 172797.89
 STEP:  46 TIME =     0.04 SECS, INTEGRAL =      2.12 TIME LEFT: 172797.84
 STEP:  47 TIME =     0.05 SECS, INTEGRAL =      2.16 TIME LEFT: 172797.80
 STEP:  48 TIME =     0.05 SECS, INTEGRAL =      2.21 TIME LEFT: 172797.75
 STEP:  49 TIME =     0.05 SECS, INTEGRAL =      2.26 TIME LEFT: 172797.70
 STEP:  50 TIME =     0.04 SECS, INTEGRAL =      2.30 TIME LEFT: 172797.66
 STEP:  51 TIME =     0.05 SECS, INTEGRAL =      2.35 TIME LEFT: 172797.61
 STEP:  52 TIME =     0.05 SECS, INTEGRAL =      2.39 TIME LEFT: 172797.57
 STEP:  53 TIME =     0.04 SECS, INTEGRAL =      2.44 TIME LEFT: 172797.52
 STEP:  54 TIME =     0.05 SECS, INTEGRAL =      2.48 TIME LEFT: 172797.48
 STEP:  55 TIME =     0.04 SECS, INTEGRAL =      2.53 TIME LEFT: 172797.43
 STEP:  56 TIME =     0.04 SECS, INTEGRAL =      2.57 TIME LEFT: 172797.39
 STEP:  57 TIME =     0.05 SECS, INTEGRAL =      2.62 TIME LEFT: 172797.34
 STEP:  58 TIME =     0.05 SECS, INTEGRAL =      2.67 TIME LEFT: 172797.29
 STEP:  59 TIME =     0.05 SECS, INTEGRAL =      2.72 TIME LEFT: 172797.24
 STEP:  60 TIME =     0.05 SECS, INTEGRAL =      2.77 TIME LEFT: 172797.19

(To convert to Hartree/Bohr^2, multiply by (10^(-21) x N x a0^2)/(4.184 x 627.51) =  0.0642)


           FORCE MATRIX IN MILLIDYNES/ANGSTROM


                  C  1       C  2       C  3       C  4       C  5       C  6
 ------------------------------------------------------------------------------
     C    1  14.923266
     C    2   0.046349  14.700969
     C    3   0.593266   4.998460  18.394771
     C    4   4.529055   0.632230   5.058561  18.473099
     C    5   5.059036   0.017021   0.237705   0.698594  18.015130
     C    6   0.145591   0.832065   9.461993   1.110079   1.221597  18.252239
     C    7   0.877162   0.137270   1.175898   0.180016  10.168764   5.752154
     C    8   0.032824   0.002113   0.087516   0.330787   0.010879   0.038464
     C    9   0.942853   0.063908   1.293464   9.939271   0.079554   0.236967
     C   10   0.119130   0.016206   0.252501   1.401511   0.033863   0.108356
     H   11   4.363421   0.005180   0.028892   0.414631   0.414916   0.015194
     H   12   4.363672   0.005163   0.028880   0.414654   0.414945   0.015172
     H   13   0.007114   4.731614   0.468899   0.047395   0.001379   0.054956
     H   14   0.003174   4.703637   0.447992   0.025594   0.002058   0.032324
     H   15   0.003186   4.703702   0.447908   0.025628   0.002060   0.032327
     H   16   0.421597   0.009731   0.006906   0.048955   4.834519   0.121775
     H   17   0.004356   0.071712   0.451409   0.107767   0.047869   4.818873
     H   18   0.120227   0.008762   0.049662   0.002046   0.443538   0.433613
     H   19   0.044657   0.000933   0.053135   0.011065   0.002173   0.003219
     H   20   0.043979   0.000943   0.055680   0.010260   0.001542   0.003003


                  C  7       C  8       C  9       C 10       H 11       H 12
 ------------------------------------------------------------------------------
     C    7  18.382624
     C    8   0.016361  17.764763
     C    9   0.103946   1.389787  24.578980
     C   10   0.046380  11.004693  11.840929  24.673339
     H   11   0.041486   0.004585   0.043271   0.015028   4.953963
     H   12   0.041522   0.004559   0.043239   0.014991   0.568355   4.954176
     H   13   0.002082   0.000407   0.004143   0.000955   0.000752   0.000759
     H   14   0.018452   0.000789   0.007213   0.004467   0.000294   0.000754
     H   15   0.018424   0.000806   0.007156   0.004465   0.000757   0.000280
     H   16   0.443300   0.000683   0.009414   0.002438   0.029839   0.029864
     H   17   0.431792   0.000924   0.007998   0.005110   0.000957   0.000952
     H   18   4.855472   0.000821   0.002361   0.001398   0.015490   0.015365
     H   19   0.003925   5.047697   0.040471   0.474842   0.005202   0.005195
     H   20   0.003813   5.047882   0.043868   0.474328   0.004884   0.004865


                  H 13       H 14       H 15       H 16       H 17       H 18
 ------------------------------------------------------------------------------
     H   13   5.451021
     H   14   0.557809   5.421775
     H   15   0.557732   0.574969   5.421736
     H   16   0.000235   0.001344   0.001325   5.209368
     H   17   0.029344   0.008156   0.008171   0.007265   5.185066
     H   18   0.000634   0.001078   0.001079   0.064652   0.032755   5.218270
     H   19   0.000081   0.000262   0.000259   0.001582   0.003760   0.000251
     H   20   0.000138   0.000339   0.000345   0.001659   0.004139   0.000261


                  H 19       H 20
 ------------------------------
     H   19   5.415720
     H   20   0.403678   5.415704


          HEAT OF FORMATION =      93.551904 KCALS/MOLE

          ZERO POINT ENERGY     102.956 KCAL/MOL


           NORMAL COORDINATE ANALYSIS (Total motion = 1 Angstrom)


   Root No.       1         2         3         4         5         6         7         8

                 1 A       2 A       3 A       4 A       5 A       6 A       7 A       8 A   

                  47.4      92.9     112.1     155.9     176.0     296.5     344.3     364.6
  
           1    0.0000   -0.0238   -0.0002    0.0000   -0.0000   -0.0079   -0.0000   -0.0099
           2   -0.0000    0.0244    0.0002   -0.0000   -0.0000   -0.0066   -0.0001    0.0259
           3    0.0619   -0.0001    0.0084   -0.0332    0.0228   -0.0000   -0.0087    0.0000
           4    0.0000   -0.0252   -0.0001    0.0000   -0.0000   -0.0353    0.0001   -0.0064
           5    0.0000   -0.0488   -0.0003    0.0001   -0.0001   -0.0651   -0.0001    0.0425
           6    0.0403    0.0001   -0.0082   -0.0284   -0.0443   -0.0000   -0.0181   -0.0000
           7    0.0000   -0.0149   -0.0001    0.0000   -0.0000   -0.0066    0.0001   -0.0275
           8   -0.0000   -0.0198   -0.0002    0.0000   -0.0000    0.0107   -0.0000   -0.0190
           9    0.0124   -0.0001    0.0027    0.0099    0.0210    0.0000    0.0656    0.0002
          10    0.0000   -0.0333   -0.0002    0.0000   -0.0000   -0.0049    0.0000   -0.0224
          11   -0.0000   -0.0006   -0.0000   -0.0000    0.0000    0.0135    0.0000   -0.0278
          12    0.0274   -0.0000    0.0045    0.0432    0.0064    0.0000    0.0617    0.0001
          13   -0.0000    0.0043    0.0000   -0.0000   -0.0000   -0.0074   -0.0000    0.0094
          14   -0.0000    0.0281    0.0002   -0.0000    0.0000   -0.0058   -0.0001    0.0346
          15   -0.0102    0.0001   -0.0067   -0.0180   -0.0601    0.0001    0.0120    0.0000
          16   -0.0000    0.0107    0.0001   -0.0000    0.0000   -0.0013    0.0000   -0.0055
          17    0.0000   -0.0150   -0.0001    0.0000   -0.0000    0.0100   -0.0000   -0.0138
          18   -0.0309   -0.0001    0.0005   -0.0067    0.0670   -0.0001   -0.0099   -0.0000
          19   -0.0000    0.0196    0.0001   -0.0000    0.0000   -0.0087   -0.0000    0.0144
          20    0.0000    0.0094    0.0001   -0.0000    0.0000   -0.0028   -0.0001    0.0274
          21   -0.0544    0.0000   -0.0091   -0.0012   -0.0027   -0.0000   -0.0258   -0.0000
          22   -0.0000    0.0763    0.0005   -0.0001    0.0001   -0.0291    0.0000   -0.0047
          23    0.0000    0.0184    0.0001    0.0000    0.0000    0.0135    0.0001   -0.0368
          24   -0.0437   -0.0001    0.0013   -0.0663    0.0044    0.0000    0.0188    0.0000
          25    0.0000   -0.0367   -0.0003    0.0000   -0.0000    0.0475   -0.0000   -0.0059
          26   -0.0000   -0.0012   -0.0000   -0.0001    0.0000    0.0244    0.0001   -0.0298
          27    0.0075    0.0001    0.0061    0.0971   -0.0037   -0.0000   -0.0194   -0.0001
          28   -0.0000    0.0110    0.0001    0.0000    0.0000    0.0849   -0.0002    0.0647
          29    0.0000    0.0071    0.0000   -0.0000    0.0000    0.0323    0.0001   -0.0220
          30   -0.0166    0.0000    0.0046    0.0506   -0.0029    0.0000   -0.0520   -0.0002
          31    0.0407   -0.0313    0.0065   -0.0603    0.0368   -0.0047   -0.0726   -0.0225
          32    0.0492    0.0339    0.0109   -0.0191    0.0641   -0.0107   -0.0403    0.0428
          33    0.1095   -0.0001    0.0175   -0.0787    0.0756   -0.0001   -0.0723    0.0001
          34   -0.0406   -0.0311   -0.0069    0.0603   -0.0368   -0.0046    0.0727   -0.0223
          35   -0.0493    0.0341   -0.0105    0.0191   -0.0642   -0.0106    0.0402    0.0429
          36    0.1094   -0.0002    0.0175   -0.0787    0.0756    0.0000   -0.0723   -0.0003
          37   -0.0000   -0.0083   -0.0001    0.0000    0.0000    0.0138    0.0001   -0.0465
          38    0.0000   -0.0641   -0.0005    0.0001   -0.0001   -0.1114   -0.0001    0.0805
          39    0.0314   -0.0017    0.2698   -0.0537   -0.0940    0.0001   -0.0552   -0.0002
          40    0.0107   -0.0385    0.0709   -0.0277   -0.0501   -0.0768   -0.0639    0.0277
          41   -0.0193   -0.0543    0.2391   -0.0018   -0.0084   -0.0794    0.0191    0.0548
          42    0.0561    0.0010   -0.1611   -0.0332   -0.0494    0.0003   -0.0461   -0.0007
          43   -0.0107   -0.0377   -0.0713    0.0278    0.0500   -0.0768    0.0639    0.0281
          44    0.0193   -0.0513   -0.2396    0.0019    0.0082   -0.0796   -0.0192    0.0548
          45    0.0561    0.0010   -0.1613   -0.0332   -0.0494   -0.0005   -0.0461    0.0006
          46   -0.0000    0.0112    0.0001   -0.0000   -0.0000   -0.0077   -0.0000    0.0131
          47   -0.0000    0.0474    0.0003   -0.0000    0.0001   -0.0064   -0.0001    0.0448
          48   -0.0225    0.0003   -0.0144   -0.0240   -0.1521    0.0001    0.0327    0.0001
          49   -0.0000    0.0246    0.0002   -0.0000    0.0000   -0.0027   -0.0000    0.0143
          50    0.0000   -0.0302   -0.0002    0.0000   -0.0000    0.0105    0.0001   -0.0342
          51   -0.0487   -0.0001    0.0037   -0.0323    0.1170   -0.0001   -0.0744   -0.0002
          52   -0.0000    0.0393    0.0003   -0.0000    0.0000   -0.0164   -0.0001    0.0382
          53    0.0000    0.0121    0.0001   -0.0000    0.0000   -0.0038   -0.0001    0.0304
          54   -0.1065    0.0001   -0.0191    0.0111   -0.0335   -0.0001   -0.0589   -0.0001
          55   -0.0000    0.1153    0.0008   -0.0001    0.0001   -0.1161    0.0002   -0.0641
          56    0.0000   -0.0248   -0.0002    0.0001    0.0000    0.1089   -0.0001    0.0276
          57   -0.0455    0.0000    0.0009   -0.1282    0.0039   -0.0000    0.0000   -0.0000
          58   -0.0000    0.0984    0.0007   -0.0001    0.0001   -0.0784    0.0002   -0.0400
          59    0.0000    0.0722    0.0005   -0.0001    0.0000   -0.1041    0.0003   -0.1214
          60   -0.0659   -0.0002   -0.0015   -0.1075    0.0112    0.0000    0.1039    0.0002


   Root No.       9        10        11        12        13        14        15        16

                 9 A      10 A      11 A      12 A      13 A      14 A      15 A      16 A   

                 424.2     424.9     469.2     538.8     557.6     607.5     651.6     739.5
  
           1    0.0007   -0.0392   -0.0000   -0.0362   -0.0000   -0.0375   -0.0000    0.0633
           2    0.0001   -0.0082   -0.0000   -0.0541   -0.0000    0.0153   -0.0000   -0.0053
           3    0.0020    0.0000   -0.0009   -0.0000   -0.0077    0.0000   -0.0292    0.0000
           4   -0.0009    0.0516    0.0000   -0.0521   -0.0000   -0.0006   -0.0000   -0.0294
           5   -0.0003    0.0158    0.0000    0.0376    0.0000    0.0025   -0.0000    0.0022
           6    0.0055    0.0001    0.0035    0.0000    0.0022   -0.0000    0.0050   -0.0000
           7   -0.0004    0.0244    0.0000   -0.0430   -0.0000   -0.0162   -0.0000   -0.0272
           8    0.0007   -0.0372    0.0000    0.0150   -0.0000   -0.0354   -0.0000   -0.0414
           9   -0.0017   -0.0001   -0.0117   -0.0000    0.0734   -0.0000    0.0500   -0.0000
          10    0.0005   -0.0258    0.0000   -0.0310   -0.0000   -0.0251   -0.0000    0.0114
          11   -0.0003    0.0177   -0.0000   -0.0021    0.0000   -0.0060    0.0000   -0.0132
          12    0.0287    0.0006    0.0279    0.0000   -0.0176   -0.0000   -0.0582   -0.0000
          13    0.0004   -0.0205    0.0000    0.0679    0.0000   -0.0208    0.0000    0.0377
          14    0.0002   -0.0123   -0.0000   -0.0459   -0.0000    0.0316   -0.0000   -0.0147
          15   -0.0471   -0.0011   -0.0132   -0.0000   -0.0054    0.0000    0.0033    0.0000
          16   -0.0002    0.0128   -0.0000    0.0536    0.0000   -0.0079    0.0000   -0.0415
          17    0.0008   -0.0434    0.0000    0.0305    0.0000   -0.0420    0.0000   -0.0506
          18   -0.0447   -0.0010    0.0024    0.0000   -0.0210    0.0000   -0.0075    0.0000
          19   -0.0002    0.0102   -0.0000    0.0514    0.0000    0.0093    0.0000   -0.0032
          20    0.0009   -0.0508    0.0000   -0.0195    0.0000   -0.0056   -0.0000    0.0312
          21    0.0649    0.0014    0.0061   -0.0000    0.0066   -0.0000   -0.0092    0.0000
          22    0.0002   -0.0105   -0.0000   -0.0033    0.0000   -0.0085   -0.0000   -0.0078
          23   -0.0007    0.0410   -0.0000    0.0137    0.0000    0.0032    0.0000    0.0471
          24    0.0067    0.0002    0.0068    0.0000   -0.0158    0.0000    0.0047    0.0000
          25    0.0006   -0.0355    0.0000    0.0081    0.0000    0.1435    0.0000   -0.0056
          26   -0.0004    0.0252   -0.0000    0.0096    0.0001    0.0272   -0.0000    0.0089
          27    0.0022    0.0001    0.0095    0.0000   -0.0796    0.0000    0.0584    0.0000
          28   -0.0005    0.0272    0.0000   -0.0084   -0.0000   -0.0429   -0.0000   -0.0047
          29   -0.0007    0.0430    0.0000    0.0103   -0.0001   -0.0038    0.0000    0.0320
          30   -0.0241   -0.0005   -0.0302   -0.0000    0.0892    0.0000   -0.0371    0.0000
          31    0.0152   -0.0361   -0.0490   -0.0488    0.0287   -0.0454    0.1088    0.0745
          32    0.0669   -0.0121   -0.0098   -0.0449    0.0147    0.0268    0.0491   -0.0107
          33    0.0435    0.0002   -0.0358   -0.0024    0.0174   -0.0004    0.0619    0.0043
          34   -0.0139   -0.0369    0.0489   -0.0488   -0.0288   -0.0454   -0.1088    0.0745
          35   -0.0664   -0.0151    0.0099   -0.0449   -0.0148    0.0267   -0.0491   -0.0105
          36    0.0434    0.0018   -0.0358    0.0023    0.0174    0.0005    0.0619   -0.0044
          37   -0.0001    0.0058   -0.0000   -0.0664   -0.0000   -0.0399   -0.0000   -0.0788
          38   -0.0011    0.0594    0.0000    0.0519    0.0000    0.0396    0.0000    0.0477
          39    0.0168    0.0004    0.0122    0.0000   -0.0386   -0.0000   -0.0328    0.0000
          40    0.0115    0.0927    0.0135   -0.0427   -0.0731    0.0320   -0.0648    0.0039
          41   -0.0011    0.0294   -0.0032    0.0444    0.0243    0.0140    0.0211    0.0162
          42    0.0090    0.0002    0.0089   -0.0020   -0.0318   -0.0006   -0.0249   -0.0020
          43   -0.0148    0.0920   -0.0135   -0.0428    0.0731    0.0320    0.0648    0.0039
          44   -0.0000    0.0296    0.0032    0.0444   -0.0243    0.0140   -0.0210    0.0162
          45    0.0090    0.0004    0.0089    0.0020   -0.0318    0.0006   -0.0249    0.0021
          46    0.0001   -0.0087   -0.0000    0.0813    0.0000   -0.0083    0.0000    0.0158
          47   -0.0003    0.0197   -0.0000   -0.0075   -0.0000    0.0660   -0.0000   -0.0789
          48   -0.1063   -0.0024   -0.0366   -0.0000    0.0114    0.0000    0.1166   -0.0003
          49   -0.0001    0.0034   -0.0000    0.0737    0.0000    0.0085    0.0000   -0.0045
          50    0.0006   -0.0329    0.0000    0.0079    0.0000   -0.0599    0.0000   -0.0921
          51   -0.1634   -0.0036    0.0106    0.0001   -0.1316    0.0001   -0.0378   -0.0001
          52   -0.0005    0.0307   -0.0000    0.0063    0.0000    0.0611   -0.0000    0.0164
          53    0.0008   -0.0478   -0.0000   -0.0257   -0.0000    0.0016   -0.0000    0.0326
          54    0.1960    0.0044    0.0151   -0.0000    0.0467   -0.0000    0.0515   -0.0002
          55    0.0009   -0.0495   -0.0001    0.0025    0.0000    0.0561    0.0000   -0.0195
          56   -0.0015    0.0840   -0.0001    0.0077   -0.0000   -0.0661   -0.0000    0.0625
          57   -0.0261   -0.0005    0.3542   -0.0001    0.0319   -0.0001    0.0747    0.0001
          58    0.0006   -0.0308   -0.0001    0.0014   -0.0000    0.0294   -0.0000   -0.0039
          59    0.0001   -0.0058    0.0001    0.0252    0.0001    0.0918    0.0000    0.0610
          60    0.0694    0.0015   -0.3034    0.0001   -0.1811    0.0001   -0.0101    0.0000


   Root No.      17        18        19        20        21        22        23        24

                17 A      18 A      19 A      20 A      21 A      22 A      23 A      24 A   

                 760.8     826.9     873.7     919.7     933.3     970.0     989.3     991.7
  
           1    0.0000   -0.0516    0.0000   -0.0000    0.0027   -0.0000   -0.0098    0.0001
           2   -0.0000   -0.0428   -0.0000    0.0000    0.0016   -0.0000   -0.0099    0.0001
           3   -0.0127   -0.0000    0.0388   -0.0422   -0.0001   -0.0007    0.0002    0.0208
           4   -0.0000    0.0598    0.0000   -0.0000    0.0002    0.0000    0.0105   -0.0001
           5   -0.0000   -0.0263   -0.0000    0.0000   -0.0003    0.0000    0.0488   -0.0005
           6   -0.0014    0.0000    0.0152    0.0109    0.0000   -0.0002    0.0003    0.0275
           7   -0.0000    0.0119   -0.0000    0.0000    0.0002    0.0000    0.0113   -0.0001
           8   -0.0000    0.0001   -0.0000   -0.0000    0.0005    0.0000   -0.0002    0.0000
           9   -0.0123   -0.0000    0.0097   -0.0033    0.0000    0.0000   -0.0003   -0.0229
          10    0.0000   -0.0235   -0.0000    0.0000   -0.0012    0.0000    0.0059   -0.0001
          11   -0.0000   -0.0052    0.0000   -0.0000    0.0001   -0.0000   -0.0049    0.0000
          12    0.0411   -0.0000   -0.0275    0.0290    0.0001    0.0022   -0.0001   -0.0108
          13    0.0000    0.0589   -0.0000    0.0000    0.0006   -0.0000    0.0054   -0.0001
          14   -0.0000   -0.0159    0.0000   -0.0000   -0.0018    0.0000    0.0034   -0.0000
          15   -0.0254    0.0000   -0.0014    0.0272    0.0001   -0.0004   -0.0004   -0.0411
          16   -0.0000   -0.0376    0.0000   -0.0000    0.0010   -0.0000   -0.0213    0.0002
          17   -0.0000    0.0070    0.0000    0.0000    0.0017   -0.0000   -0.0272    0.0003
          18   -0.0044    0.0000   -0.0352   -0.0442   -0.0001   -0.0009    0.0000   -0.0009
          19   -0.0000   -0.0214    0.0000    0.0000   -0.0005   -0.0000    0.0070   -0.0001
          20    0.0000    0.0898    0.0000   -0.0000   -0.0010   -0.0000    0.0004   -0.0000
          21   -0.0328    0.0000   -0.0087    0.0290    0.0001    0.0013    0.0004    0.0379
          22   -0.0000   -0.0010   -0.0000    0.0001   -0.0893    0.0000   -0.0013    0.0000
          23    0.0000    0.0001   -0.0000    0.0000   -0.0155    0.0001    0.0048   -0.0000
          24   -0.0003   -0.0000   -0.0003    0.0007   -0.0001   -0.1017    0.0000    0.0004
          25   -0.0000    0.0048    0.0000    0.0000   -0.0184    0.0000   -0.0014    0.0000
          26    0.0000    0.0013   -0.0000    0.0000   -0.0032   -0.0000   -0.0018    0.0000
          27   -0.0185    0.0000    0.0081   -0.0072   -0.0000   -0.0053    0.0000    0.0013
          28   -0.0000   -0.0009    0.0000   -0.0001    0.0811   -0.0000    0.0005    0.0000
          29    0.0000   -0.0002    0.0000   -0.0000    0.0140   -0.0000    0.0017   -0.0000
          30    0.0079   -0.0000   -0.0024    0.0014    0.0001    0.0361   -0.0000   -0.0004
          31    0.0038   -0.0861   -0.0605    0.0692    0.0038   -0.0012   -0.0145   -0.0752
          32    0.0719   -0.0224   -0.0786    0.0732    0.0015    0.0043   -0.0125    0.0191
          33    0.0253   -0.0085   -0.0370    0.0361    0.0005    0.0007   -0.0035   -0.0161
          34   -0.0037   -0.0861    0.0605   -0.0692    0.0035    0.0011   -0.0129    0.0755
          35   -0.0718   -0.0223    0.0786   -0.0732    0.0010   -0.0042   -0.0129   -0.0188
          36    0.0252    0.0085   -0.0370    0.0361   -0.0003    0.0007    0.0031   -0.0162
          37   -0.0000    0.0668    0.0000    0.0000    0.0002    0.0001    0.2091   -0.0020
          38    0.0000   -0.0318   -0.0000   -0.0000   -0.0003   -0.0000   -0.1390    0.0013
          39   -0.0007   -0.0000   -0.0330   -0.0208   -0.0000    0.0007   -0.0005   -0.0401
          40    0.0035    0.0799   -0.0830   -0.0542    0.0011    0.0011   -0.1844   -0.1165
          41   -0.0015   -0.0301    0.0297    0.0197    0.0000   -0.0004   -0.0096    0.0439
          42    0.0003    0.0058   -0.0255   -0.0160   -0.0000    0.0003   -0.0017   -0.0312
          43   -0.0034    0.0799    0.0830    0.0542    0.0012   -0.0012   -0.1816    0.1200
          44    0.0015   -0.0301   -0.0297   -0.0197   -0.0000    0.0004   -0.0106   -0.0437
          45    0.0003   -0.0057   -0.0255   -0.0160    0.0000    0.0003    0.0009   -0.0312
          46    0.0001    0.0504   -0.0000   -0.0000   -0.0010    0.0000    0.0185   -0.0001
          47   -0.0001   -0.0370    0.0000    0.0000   -0.0062    0.0001    0.0371   -0.0004
          48    0.2647   -0.0000   -0.1075   -0.0907   -0.0002    0.0042    0.0020    0.1796
          49   -0.0000   -0.0262   -0.0000   -0.0000   -0.0009   -0.0000    0.0072   -0.0001
          50   -0.0001   -0.0057   -0.0001   -0.0001    0.0038   -0.0000   -0.0606    0.0006
          51    0.1808    0.0000    0.1638    0.2071    0.0005    0.0041   -0.0004   -0.0222
          52   -0.0000   -0.0732    0.0000   -0.0000   -0.0064   -0.0000    0.0815   -0.0008
          53   -0.0001    0.0843   -0.0001    0.0001   -0.0018    0.0000    0.0104   -0.0000
          54    0.2207   -0.0001    0.1382   -0.1417   -0.0004   -0.0064   -0.0017   -0.1622
          55   -0.0000    0.0023    0.0000   -0.0002    0.2021   -0.0003   -0.0031    0.0000
          56    0.0001   -0.0034   -0.0000    0.0003   -0.3288    0.0001    0.0074   -0.0001
          57   -0.0138   -0.0000   -0.0032    0.0008    0.0001    0.4123   -0.0001   -0.0081
          58   -0.0000    0.0008    0.0000   -0.0001    0.0791    0.0001    0.0013   -0.0000
          59    0.0000    0.0043    0.0000   -0.0003    0.3767   -0.0003    0.0118   -0.0001
          60   -0.0027    0.0000    0.0116   -0.0100    0.0004    0.4120    0.0000    0.0053


   Root No.      25        26        27        28        29        30        31        32

                25 A      26 A      27 A      28 A      29 A      30 A      31 A      32 A   

                1022.8    1042.7    1066.4    1096.3    1141.7    1158.7    1186.5    1231.1
  
           1   -0.0000    0.0127    0.0001   -0.0077   -0.0041    0.0000   -0.0102    0.0195
           2   -0.0001    0.0418    0.0002   -0.0078    0.0128   -0.0083   -0.0175    0.0031
           3    0.0183    0.0001   -0.0012    0.0000    0.0000   -0.0000    0.0000    0.0000
           4   -0.0000    0.0073    0.0000   -0.0180   -0.0108    0.0010   -0.0186    0.0174
           5    0.0000    0.0065    0.0000   -0.0090    0.0019   -0.0029   -0.0066   -0.0044
           6   -0.0361   -0.0001    0.0067   -0.0000    0.0000   -0.0000   -0.0000   -0.0000
           7    0.0000   -0.0000   -0.0000    0.0201    0.0145    0.0016    0.0184   -0.0380
           8   -0.0000   -0.0034   -0.0000    0.0085   -0.0002    0.0089    0.0135    0.0181
           9    0.0477    0.0001   -0.0121   -0.0000   -0.0000    0.0000   -0.0000    0.0000
          10    0.0000   -0.0151   -0.0001    0.0254   -0.0112   -0.0015    0.0569   -0.0233
          11    0.0000   -0.0075   -0.0001    0.0124    0.0612   -0.0192    0.0055   -0.0008
          12   -0.0185   -0.0001    0.0335    0.0000    0.0000   -0.0000    0.0000    0.0000
          13   -0.0001    0.0311    0.0001    0.0258    0.0158   -0.0077   -0.0107    0.0027
          14    0.0001   -0.0340   -0.0001   -0.0040   -0.0164    0.0003   -0.0100   -0.0221
          15   -0.0287    0.0000   -0.0380   -0.0000   -0.0000   -0.0000   -0.0000   -0.0000
          16    0.0000   -0.0082    0.0000   -0.0458   -0.0130    0.0054   -0.0068   -0.0202
          17   -0.0000   -0.0026   -0.0000   -0.0137   -0.0209    0.0102   -0.0012    0.0221
          18   -0.0354   -0.0001   -0.0009   -0.0000   -0.0000    0.0000   -0.0000    0.0000
          19    0.0000   -0.0039   -0.0000    0.0130    0.0020    0.0013   -0.0148   -0.0078
          20    0.0000   -0.0267   -0.0001   -0.0181    0.0021    0.0020    0.0038   -0.0179
          21    0.0310    0.0000    0.0117    0.0000   -0.0000    0.0000    0.0000   -0.0000
          22    0.0000   -0.0001   -0.0000    0.0009    0.0067   -0.0019   -0.0002    0.0000
          23   -0.0000    0.0021    0.0000   -0.0056   -0.0383    0.0104    0.0019   -0.0005
          24    0.0005    0.0000   -0.0002   -0.0000   -0.0000    0.0000    0.0000   -0.0000
          25   -0.0000    0.0078    0.0000   -0.0055   -0.0053    0.0017   -0.0073    0.0007
          26    0.0000    0.0005    0.0000    0.0035    0.0382   -0.0116   -0.0038    0.0043
          27    0.0043    0.0000   -0.0034    0.0000    0.0000   -0.0000   -0.0000    0.0000
          28   -0.0000   -0.0014   -0.0000    0.0013   -0.0004    0.0003    0.0018   -0.0010
          29   -0.0000    0.0002   -0.0000   -0.0006    0.0011   -0.0014   -0.0005    0.0025
          30   -0.0009   -0.0000    0.0005   -0.0000    0.0000   -0.0000    0.0000    0.0000
          31   -0.0292   -0.0763    0.2355   -0.0291    0.0106   -0.0610   -0.1281    0.0453
          32   -0.0272    0.1893   -0.2811    0.0140   -0.0070    0.0571    0.1031    0.0391
          33   -0.0126    0.0149    0.0065   -0.0033    0.0011   -0.0037   -0.0123    0.0275
          34    0.0294   -0.0751   -0.2358   -0.0292    0.0106   -0.0611   -0.1282    0.0453
          35    0.0265    0.1882    0.2822    0.0143   -0.0070    0.0572    0.1033    0.0391
          36   -0.0126   -0.0148    0.0068    0.0033   -0.0011    0.0038    0.0125   -0.0275
          37    0.0001    0.0420    0.0002   -0.0811   -0.0352   -0.0051   -0.0709    0.0791
          38   -0.0001   -0.0265   -0.0001    0.0465    0.0235    0.0026    0.0421   -0.0552
          39    0.0488    0.0001   -0.0080   -0.0000   -0.0000    0.0000    0.0000    0.0000
          40    0.1481   -0.0236   -0.0258    0.0021   -0.0185    0.0100    0.0058    0.0799
          41   -0.0555   -0.0052    0.0097    0.0044    0.0099   -0.0023    0.0139   -0.0241
          42    0.0380    0.0010   -0.0062   -0.0040   -0.0058    0.0013   -0.0076    0.0220
          43   -0.1483   -0.0242    0.0256    0.0022   -0.0184    0.0101    0.0058    0.0799
          44    0.0555   -0.0050   -0.0098    0.0044    0.0098   -0.0023    0.0138   -0.0241
          45    0.0379   -0.0009   -0.0062    0.0040    0.0058   -0.0013    0.0076   -0.0220
          46    0.0000    0.0164    0.0000    0.1062   -0.0357   -0.0830    0.0121    0.0494
          47    0.0001   -0.0719   -0.0004    0.2090   -0.1607   -0.2050    0.0584    0.1012
          48    0.0910   -0.0001    0.0607    0.0001   -0.0000   -0.0000    0.0000    0.0000
          49    0.0001   -0.0572   -0.0001   -0.2025    0.0177   -0.0662    0.1703    0.0664
          50   -0.0002    0.0485    0.0001    0.1551   -0.0562    0.0914   -0.1942   -0.0731
          51    0.1249    0.0002    0.0057    0.0001   -0.0000    0.0000   -0.0001   -0.0000
          52    0.0003   -0.1604   -0.0008    0.1116    0.0824    0.2706    0.0363    0.1401
          53    0.0001   -0.0506   -0.0002   -0.0041    0.0117    0.0389    0.0104    0.0008
          54   -0.1006   -0.0002   -0.0204   -0.0000   -0.0000   -0.0000   -0.0000   -0.0000
          55   -0.0000   -0.0029    0.0000    0.0095    0.0955   -0.0317   -0.0084    0.0207
          56    0.0000    0.0055   -0.0000   -0.0163   -0.1476    0.0469    0.0118   -0.0252
          57    0.0011   -0.0000    0.0039   -0.0000    0.0000    0.0000   -0.0000    0.0000
          58   -0.0000    0.0004    0.0000   -0.0032   -0.0404    0.0141    0.0043   -0.0112
          59   -0.0000    0.0039    0.0000   -0.0177   -0.1716    0.0551    0.0144   -0.0307
          60   -0.0036    0.0000   -0.0023   -0.0000   -0.0000    0.0000   -0.0000   -0.0000


   Root No.      33        34        35        36        37        38        39        40

                33 A      34 A      35 A      36 A      37 A      38 A      39 A      40 A   

                1304.0    1339.7    1373.1    1387.8    1396.7    1409.9    1455.3    1523.1
  
           1   -0.0196   -0.0221    0.0349   -0.0000   -0.0254   -0.0299   -0.0282    0.0521
           2    0.0287   -0.0272    0.0142    0.0000    0.0076    0.0366    0.0622   -0.0456
           3    0.0000    0.0000   -0.0000   -0.0001    0.0000    0.0000    0.0000   -0.0000
           4   -0.0017    0.0101    0.0306    0.0000   -0.0120    0.0278   -0.0495   -0.0593
           5   -0.0039   -0.0074   -0.0249    0.0000   -0.0256   -0.0061    0.0160    0.0099
           6   -0.0000    0.0000    0.0000   -0.0434    0.0000    0.0000    0.0000    0.0000
           7    0.0120    0.0195    0.0034    0.0000   -0.0080    0.0058    0.0467    0.1336
           8    0.0137   -0.0071   -0.0028    0.0000    0.0138    0.0219   -0.0142    0.0587
           9    0.0000   -0.0000   -0.0000   -0.0011    0.0000    0.0000    0.0000    0.0000
          10   -0.0101   -0.0114   -0.0335   -0.0000    0.0220    0.0087    0.0022   -0.1178
          11    0.0324   -0.0054   -0.0028   -0.0000   -0.0105   -0.0325   -0.0226   -0.0379
          12    0.0000   -0.0000    0.0000    0.0000   -0.0000   -0.0000   -0.0000   -0.0000
          13    0.0177   -0.0066   -0.0025    0.0000    0.0085    0.0155    0.0098   -0.0014
          14   -0.0150   -0.0092   -0.0189   -0.0000    0.0132   -0.0013   -0.0529    0.0408
          15   -0.0000   -0.0000   -0.0000    0.0000    0.0000   -0.0000   -0.0000    0.0000
          16   -0.0222    0.0188    0.0096   -0.0000   -0.0225   -0.0304    0.0358   -0.0459
          17   -0.0023   -0.0000    0.0103    0.0000    0.0014    0.0174   -0.0059    0.0019
          18    0.0000   -0.0000    0.0000   -0.0002    0.0000    0.0000   -0.0000   -0.0000
          19    0.0032   -0.0183   -0.0214    0.0000    0.0213    0.0131   -0.0532    0.0262
          20   -0.0102    0.0167    0.0037   -0.0000   -0.0137   -0.0196    0.0201   -0.0161
          21   -0.0000    0.0000    0.0000   -0.0001   -0.0000   -0.0000    0.0000   -0.0000
          22    0.0074   -0.0006    0.0003   -0.0000   -0.0021   -0.0053   -0.0036   -0.0032
          23   -0.0427    0.0030   -0.0025    0.0000    0.0126    0.0304    0.0207    0.0160
          24   -0.0000    0.0000   -0.0000    0.0000    0.0000    0.0000    0.0000    0.0000
          25    0.0010    0.0008    0.0031    0.0000   -0.0003    0.0039    0.0062    0.0077
          26    0.0039   -0.0006    0.0018   -0.0000   -0.0082   -0.0204   -0.0155   -0.0123
          27    0.0000    0.0000    0.0000    0.0001   -0.0000   -0.0000   -0.0000   -0.0000
          28    0.0037   -0.0003   -0.0005   -0.0000    0.0001   -0.0003   -0.0001   -0.0007
          29   -0.0224    0.0006   -0.0005    0.0000    0.0013    0.0020   -0.0013   -0.0048
          30   -0.0000    0.0000   -0.0000   -0.0000    0.0000    0.0000   -0.0000   -0.0000
          31    0.0623    0.1430   -0.0650    0.0001    0.0327    0.0392    0.0297   -0.0068
          32   -0.0329    0.1200   -0.0465    0.0001   -0.0079   -0.0517   -0.0598    0.0156
          33    0.0175    0.1436   -0.0750   -0.0000    0.0230   -0.0006   -0.0195   -0.0034
          34    0.0623    0.1430   -0.0650   -0.0000    0.0327    0.0392    0.0297   -0.0068
          35   -0.0329    0.1202   -0.0466   -0.0001   -0.0079   -0.0517   -0.0598    0.0156
          36   -0.0175   -0.1436    0.0750   -0.0000   -0.0230    0.0006    0.0194    0.0034
          37   -0.0252   -0.0627   -0.0567   -0.0000    0.0910   -0.1095    0.0568   -0.0136
          38    0.0175    0.0540    0.0535   -0.0002   -0.0950    0.1019   -0.0681   -0.0191
          39    0.0000   -0.0000   -0.0000    0.4298   -0.0001   -0.0000   -0.0000   -0.0000
          40   -0.0006   -0.0761   -0.1004   -0.2037    0.0538   -0.0694    0.0688    0.0716
          41    0.0050    0.0383    0.1091   -0.1557    0.1735   -0.0620    0.0152    0.0106
          42   -0.0048   -0.0418   -0.1047    0.0515   -0.1172    0.0220    0.0177    0.0199
          43   -0.0006   -0.0761   -0.1005    0.2036    0.0537   -0.0694    0.0688    0.0716
          44    0.0050    0.0382    0.1090    0.1559    0.1733   -0.0620    0.0151    0.0106
          45    0.0048    0.0418    0.1047    0.0519    0.1173   -0.0221   -0.0177   -0.0199
          46    0.0124    0.0099    0.0299    0.0000   -0.0183   -0.0019    0.0483   -0.0167
          47   -0.0351    0.0398    0.0680   -0.0000   -0.0619   -0.0538    0.0506   -0.0050
          48   -0.0000    0.0000    0.0000    0.0002   -0.0000   -0.0000    0.0000    0.0000
          49    0.0339    0.0076    0.0232    0.0000   -0.0049    0.0410    0.0144    0.0561
          50   -0.0657    0.0154   -0.0018   -0.0000   -0.0212   -0.0608    0.0225   -0.1117
          51   -0.0000   -0.0000    0.0000    0.0010   -0.0000   -0.0000   -0.0000   -0.0001
          52    0.0216    0.0289    0.0516   -0.0000   -0.0266    0.0114    0.0807   -0.0539
          53   -0.0096    0.0253    0.0142   -0.0000   -0.0222   -0.0228    0.0406   -0.0295
          54   -0.0000   -0.0000    0.0000    0.0003   -0.0000   -0.0000    0.0000   -0.0000
          55   -0.1655    0.0075   -0.0048    0.0000    0.0220    0.0498    0.0278    0.0173
          56    0.1581   -0.0063    0.0033   -0.0000   -0.0143   -0.0308   -0.0134   -0.0055
          57   -0.0000   -0.0000   -0.0000   -0.0001    0.0000    0.0000    0.0000   -0.0000
          58    0.1026   -0.0049    0.0033   -0.0000   -0.0159   -0.0366   -0.0217   -0.0147
          59    0.2049   -0.0082    0.0051   -0.0000   -0.0214   -0.0458   -0.0221   -0.0095
          60    0.0000    0.0000    0.0000   -0.0000    0.0000   -0.0000   -0.0000    0.0000


   Root No.      41        42        43        44        45        46        47        48

                41 A      42 A      43 A      44 A      45 A      46 A      47 A      48 A   

                1832.0    1854.6    1898.4    2361.2    2924.0    3005.5    3048.3    3053.6
  
           1   -0.0015    0.0050    0.0100   -0.0009   -0.0000   -0.0317    0.0007   -0.0015
           2   -0.0153    0.0200   -0.0186   -0.0004    0.0000   -0.0252    0.0005   -0.0011
           3   -0.0000    0.0000   -0.0000    0.0000   -0.0609   -0.0000   -0.0000   -0.0000
           4    0.0191    0.0123   -0.0001    0.0004    0.0000   -0.0000   -0.0004   -0.0004
           5   -0.0121   -0.0092    0.0036    0.0000   -0.0000    0.0000   -0.0013   -0.0013
           6   -0.0000   -0.0000    0.0000   -0.0000   -0.0000   -0.0000   -0.0000   -0.0000
           7   -0.0473   -0.0258   -0.0075    0.0007   -0.0000    0.0004   -0.0005   -0.0007
           8    0.1561    0.1121   -0.0401    0.0110    0.0000   -0.0001    0.0021    0.0021
           9    0.0001    0.0000   -0.0000    0.0000   -0.0002   -0.0000    0.0000    0.0000
          10   -0.0022   -0.0135   -0.0221   -0.0198    0.0000   -0.0009   -0.0000    0.0001
          11   -0.0160    0.0190    0.1591    0.0962   -0.0000    0.0007    0.0006    0.0001
          12   -0.0000    0.0000    0.0001    0.0001   -0.0001    0.0000    0.0000    0.0000
          13    0.0941   -0.0818    0.0265    0.0027   -0.0000    0.0040    0.0162   -0.0295
          14    0.0971   -0.0957    0.0280    0.0008    0.0000   -0.0021   -0.0062    0.0097
          15    0.0000   -0.0000    0.0000   -0.0000   -0.0001   -0.0000   -0.0000    0.0000
          16    0.0837    0.0212   -0.0033    0.0032    0.0000   -0.0002   -0.0241   -0.0198
          17   -0.1445   -0.0997    0.0169   -0.0099    0.0000    0.0002   -0.0242   -0.0198
          18   -0.0001   -0.0000    0.0000   -0.0000    0.0001    0.0000   -0.0000   -0.0000
          19   -0.1445    0.0941   -0.0297   -0.0035    0.0000    0.0003   -0.0027    0.0036
          20   -0.0539    0.0708   -0.0195   -0.0004   -0.0000    0.0001    0.0238   -0.0140
          21   -0.0000    0.0000   -0.0000   -0.0000   -0.0003    0.0000    0.0000   -0.0000
          22   -0.0003   -0.0055   -0.0210    0.0163    0.0000    0.0000    0.0000    0.0000
          23    0.0017    0.0318    0.1216   -0.0941    0.0000   -0.0000   -0.0001   -0.0000
          24    0.0000    0.0000    0.0001   -0.0001    0.0000    0.0000   -0.0000   -0.0000
          25   -0.0050    0.0042    0.0228    0.0494   -0.0000   -0.0000    0.0001    0.0000
          26    0.0039   -0.0313   -0.1235   -0.2792    0.0000   -0.0007   -0.0002   -0.0001
          27    0.0000   -0.0000   -0.0001   -0.0002   -0.0001   -0.0000   -0.0000   -0.0000
          28    0.0009    0.0055    0.0225   -0.0491    0.0000   -0.0001   -0.0000   -0.0000
          29   -0.0045   -0.0319   -0.1299    0.2839   -0.0000    0.0005    0.0001    0.0001
          30   -0.0000   -0.0000   -0.0001    0.0002   -0.0001    0.0000    0.0000    0.0000
          31    0.0044    0.0004   -0.0092   -0.0041   -0.2254    0.1913   -0.0040    0.0078
          32   -0.0199    0.0137    0.0121    0.0047   -0.1788    0.1512   -0.0045    0.0085
          33   -0.0036   -0.0022    0.0037    0.0076    0.3687   -0.3750    0.0088   -0.0168
          34    0.0044    0.0004   -0.0092   -0.0041    0.2254    0.1916   -0.0040    0.0078
          35   -0.0199    0.0137    0.0121    0.0047    0.1784    0.1509   -0.0045    0.0085
          36    0.0036    0.0022   -0.0037   -0.0075    0.3685    0.3753   -0.0088    0.0168
          37   -0.0279   -0.0188    0.0128    0.0005    0.0000    0.0002    0.0091    0.0091
          38    0.0313    0.0196   -0.0077    0.0011    0.0000    0.0002    0.0085    0.0089
          39    0.0000    0.0000    0.0000   -0.0000    0.0000   -0.0000    0.0000    0.0000
          40    0.0164    0.0138   -0.0044    0.0009    0.0000   -0.0000   -0.0007   -0.0007
          41   -0.0084   -0.0046    0.0018    0.0004   -0.0001    0.0000    0.0017    0.0018
          42    0.0025    0.0004    0.0002    0.0008   -0.0001    0.0001    0.0033    0.0036
          43    0.0164    0.0138   -0.0044    0.0009   -0.0000   -0.0000   -0.0007   -0.0007
          44   -0.0084   -0.0046    0.0018    0.0004    0.0001    0.0000    0.0016    0.0019
          45   -0.0025   -0.0004   -0.0002   -0.0008   -0.0001   -0.0000   -0.0033   -0.0036
          46    0.0652   -0.0474    0.0184    0.0038    0.0000   -0.0475   -0.1921    0.3429
          47   -0.0439    0.0572   -0.0180   -0.0028   -0.0000    0.0138    0.0722   -0.1265
          48   -0.0000    0.0000   -0.0000    0.0000   -0.0015    0.0000    0.0001   -0.0001
          49   -0.0517   -0.0876    0.0139   -0.0070   -0.0000   -0.0001    0.2848    0.2355
          50   -0.0275   -0.0040   -0.0003   -0.0066   -0.0000   -0.0001    0.2638    0.2147
          51   -0.0000    0.0000    0.0000    0.0000    0.0000   -0.0000    0.0001    0.0001
          52    0.0089   -0.0599    0.0145   -0.0006    0.0000    0.0000    0.0371   -0.0275
          53   -0.0538    0.0682   -0.0193   -0.0002   -0.0000    0.0039   -0.2810    0.1723
          54   -0.0000    0.0000   -0.0000   -0.0000   -0.0007   -0.0000   -0.0001    0.0001
          55    0.0003    0.0219    0.0833   -0.0577   -0.0000   -0.0010    0.0004    0.0001
          56    0.0008    0.0088    0.0375   -0.0604   -0.0000   -0.0009    0.0003    0.0001
          57   -0.0000    0.0000    0.0001   -0.0001    0.0003   -0.0000    0.0000    0.0000
          58   -0.0006   -0.0236   -0.0909    0.0747   -0.0000    0.0012   -0.0005   -0.0002
          59    0.0004    0.0007    0.0070   -0.0373    0.0000   -0.0005    0.0002    0.0001
          60    0.0000    0.0000    0.0000   -0.0000   -0.0003   -0.0000   -0.0000   -0.0000


   Root No.      49        50        51        52        53        54

                49 A      50 A      51 A      52 A      53 A      54 A   

                3068.6    3072.3    3076.8    3120.4    3131.4    3167.7
  
           1   -0.0000    0.0016   -0.0001    0.0002   -0.0000   -0.0000
           2   -0.0000    0.0014   -0.0000    0.0001   -0.0000   -0.0000
           3   -0.0000    0.0000    0.0000   -0.0000   -0.0000    0.0000
           4   -0.0000   -0.0011   -0.0170    0.0001    0.0000    0.0234
           5   -0.0000   -0.0029   -0.0449    0.0001    0.0000   -0.0082
           6   -0.0578   -0.0000    0.0000   -0.0000   -0.0000   -0.0000
           7    0.0000   -0.0006    0.0003   -0.0000    0.0000    0.0005
           8   -0.0000    0.0010   -0.0007   -0.0001   -0.0000   -0.0002
           9   -0.0001    0.0000   -0.0000    0.0000    0.0000   -0.0000
          10   -0.0000   -0.0001    0.0004   -0.0001   -0.0000   -0.0001
          11   -0.0000    0.0004   -0.0001    0.0006   -0.0000   -0.0000
          12   -0.0001    0.0000    0.0000    0.0000   -0.0000    0.0000
          13   -0.0000    0.0274   -0.0015    0.0001   -0.0000   -0.0000
          14    0.0000   -0.0056    0.0003   -0.0001    0.0000   -0.0000
          15    0.0000   -0.0000    0.0000    0.0000    0.0000   -0.0000
          16    0.0000   -0.0088    0.0013   -0.0001   -0.0000   -0.0004
          17    0.0000   -0.0078    0.0022   -0.0000   -0.0000   -0.0000
          18   -0.0002   -0.0000    0.0000   -0.0000   -0.0000   -0.0000
          19   -0.0000    0.0016   -0.0001    0.0000   -0.0000    0.0001
          20    0.0000   -0.0363    0.0023   -0.0001   -0.0000   -0.0000
          21   -0.0001   -0.0000    0.0000   -0.0000    0.0000    0.0000
          22   -0.0000    0.0000   -0.0000   -0.0082   -0.0641    0.0000
          23   -0.0000   -0.0001    0.0000    0.0462   -0.0113   -0.0000
          24   -0.0000   -0.0000   -0.0000    0.0000    0.0000   -0.0000
          25    0.0000    0.0000    0.0000    0.0000   -0.0002    0.0000
          26    0.0000   -0.0001    0.0001   -0.0001   -0.0000    0.0000
          27   -0.0000   -0.0000   -0.0000   -0.0000    0.0000   -0.0000
          28    0.0000    0.0000    0.0000    0.0013   -0.0004    0.0000
          29   -0.0000    0.0000   -0.0000   -0.0073   -0.0000    0.0000
          30   -0.0000   -0.0000   -0.0000   -0.0000    0.0000    0.0000
          31   -0.0001   -0.0073    0.0003   -0.0006    0.0000    0.0000
          32   -0.0000   -0.0075    0.0003   -0.0005    0.0000    0.0000
          33    0.0001    0.0155   -0.0007    0.0011   -0.0000   -0.0001
          34    0.0001   -0.0073    0.0003   -0.0006    0.0000    0.0000
          35    0.0000   -0.0075    0.0003   -0.0005    0.0000    0.0000
          36    0.0001   -0.0155    0.0007   -0.0011    0.0001    0.0001
          37    0.0003    0.0189    0.2859   -0.0007   -0.0001   -0.2069
          38    0.0004    0.0206    0.3198   -0.0008   -0.0001   -0.2556
          39   -0.0288    0.0000    0.0002   -0.0000   -0.0000   -0.0001
          40   -0.0712   -0.0026   -0.0426    0.0000    0.0000   -0.0377
          41    0.2689    0.0065    0.1071    0.0001   -0.0000    0.1769
          42    0.3615    0.0116    0.1897    0.0000   -0.0001    0.2639
          43    0.0710   -0.0026   -0.0426    0.0000    0.0000   -0.0376
          44   -0.2690    0.0065    0.1076    0.0000   -0.0000    0.1770
          45    0.3610   -0.0116   -0.1901   -0.0000    0.0001   -0.2637
          46    0.0001   -0.2813    0.0147   -0.0012    0.0001    0.0002
          47   -0.0000    0.1007   -0.0052    0.0004   -0.0000   -0.0001
          48    0.0000    0.0001   -0.0000   -0.0000   -0.0000   -0.0000
          49   -0.0001    0.0958   -0.0214    0.0012    0.0000    0.0035
          50   -0.0000    0.0847   -0.0177    0.0010    0.0000    0.0024
          51    0.0005    0.0000   -0.0000   -0.0000   -0.0000    0.0000
          52    0.0000   -0.0526    0.0034   -0.0002    0.0000   -0.0001
          53   -0.0000    0.3917   -0.0242    0.0014    0.0000    0.0001
          54    0.0000    0.0001   -0.0000    0.0000   -0.0000   -0.0000
          55    0.0000    0.0010   -0.0004   -0.3556    0.3436    0.0003
          56    0.0000    0.0009   -0.0003   -0.3026    0.3178    0.0002
          57    0.0000    0.0000    0.0000   -0.0002    0.0001    0.0000
          58   -0.0000   -0.0012    0.0006    0.4389    0.4283   -0.0004
          59    0.0000    0.0004   -0.0003   -0.1659   -0.1827    0.0001
          60    0.0000   -0.0000   -0.0000   -0.0001   -0.0001   -0.0000


           MASS-WEIGHTED COORDINATE ANALYSIS (NORMAL COORDINATES)


   Root No.       1         2         3         4         5         6         7         8

                 1 A       2 A       3 A       4 A       5 A       6 A       7 A       8 A   

                  47.4      92.9     112.1     155.9     176.0     296.5     344.3     364.6
  
           1    0.0001   -0.1702   -0.0012    0.0001   -0.0001   -0.0501   -0.0001   -0.0732
           2   -0.0002    0.1746    0.0012   -0.0000   -0.0000   -0.0418   -0.0004    0.1906
           3    0.4648   -0.0004    0.0575   -0.2083    0.1711   -0.0000   -0.0650    0.0000
           4    0.0001   -0.1802   -0.0010    0.0002   -0.0003   -0.2228    0.0004   -0.0471
           5    0.0000   -0.3494   -0.0020    0.0004   -0.0005   -0.4111   -0.0006    0.3128
           6    0.3028    0.0004   -0.0560   -0.1784   -0.3324   -0.0001   -0.1346   -0.0003
           7    0.0001   -0.1068   -0.0007    0.0001   -0.0001   -0.0418    0.0006   -0.2024
           8   -0.0000   -0.1420   -0.0010    0.0001   -0.0000    0.0673   -0.0001   -0.1398
           9    0.0934   -0.0004    0.0183    0.0623    0.1575    0.0002    0.4891    0.0013
          10    0.0001   -0.2381   -0.0016    0.0002   -0.0002   -0.0312    0.0003   -0.1649
          11   -0.0001   -0.0040   -0.0001   -0.0001    0.0001    0.0851    0.0003   -0.2045
          12    0.2054   -0.0001    0.0310    0.2709    0.0479    0.0002    0.4598    0.0010
          13   -0.0000    0.0308    0.0002   -0.0000   -0.0000   -0.0470   -0.0002    0.0694
          14   -0.0000    0.2014    0.0014   -0.0001    0.0002   -0.0365   -0.0006    0.2543
          15   -0.0764    0.0007   -0.0460   -0.1130   -0.4506    0.0004    0.0896    0.0002
          16   -0.0000    0.0768    0.0005   -0.0001    0.0001   -0.0083    0.0001   -0.0404
          17    0.0001   -0.1072   -0.0008    0.0001   -0.0001    0.0632   -0.0000   -0.1013
          18   -0.2320   -0.0006    0.0031   -0.0423    0.5027   -0.0003   -0.0741   -0.0001
          19   -0.0001    0.1401    0.0010   -0.0001    0.0000   -0.0550   -0.0001    0.1063
          20    0.0001    0.0675    0.0004   -0.0000    0.0001   -0.0179   -0.0006    0.2018
          21   -0.4082    0.0003   -0.0624   -0.0076   -0.0200   -0.0003   -0.1921   -0.0004
          22   -0.0001    0.5463    0.0036   -0.0005    0.0004   -0.1835    0.0003   -0.0342
          23    0.0002    0.1318    0.0008    0.0002    0.0002    0.0853    0.0007   -0.2705
          24   -0.3280   -0.0005    0.0086   -0.4162    0.0330    0.0001    0.1400    0.0002
          25    0.0000   -0.2630   -0.0019    0.0003   -0.0001    0.3002   -0.0002   -0.0435
          26   -0.0000   -0.0084   -0.0001   -0.0003    0.0001    0.1544    0.0007   -0.2192
          27    0.0565    0.0004    0.0419    0.6093   -0.0276   -0.0001   -0.1445   -0.0005
          28   -0.0002    0.0790    0.0004    0.0000    0.0002    0.5358   -0.0014    0.4759
          29    0.0001    0.0506    0.0003   -0.0002    0.0002    0.2039    0.0007   -0.1620
          30   -0.1246    0.0001    0.0316    0.3174   -0.0214    0.0000   -0.3877   -0.0012
          31    0.0885   -0.0649    0.0129   -0.1097    0.0799   -0.0086   -0.1568   -0.0480
          32    0.1071    0.0703    0.0216   -0.0348    0.1394   -0.0196   -0.0871    0.0913
          33    0.2381   -0.0003    0.0347   -0.1430    0.1643   -0.0002   -0.1561    0.0002
          34   -0.0884   -0.0645   -0.0138    0.1097   -0.0799   -0.0085    0.1568   -0.0474
          35   -0.1073    0.0708   -0.0207    0.0348   -0.1395   -0.0193    0.0867    0.0915
          36    0.2381   -0.0004    0.0347   -0.1430    0.1642    0.0000   -0.1560   -0.0007
          37   -0.0000   -0.0173   -0.0002    0.0000    0.0001    0.0252    0.0003   -0.0992
          38    0.0000   -0.1330   -0.0009    0.0001   -0.0002   -0.2037   -0.0002    0.1716
          39    0.0683   -0.0034    0.5341   -0.0976   -0.2043    0.0002   -0.1192   -0.0004
          40    0.0233   -0.0799    0.1404   -0.0503   -0.1090   -0.1404   -0.1379    0.0590
          41   -0.0421   -0.1126    0.4732   -0.0032   -0.0182   -0.1452    0.0412    0.1168
          42    0.1221    0.0021   -0.3190   -0.0603   -0.1075    0.0006   -0.0995   -0.0016
          43   -0.0232   -0.0782   -0.1410    0.0505    0.1086   -0.1405    0.1380    0.0598
          44    0.0421   -0.1064   -0.4742    0.0035    0.0178   -0.1456   -0.0415    0.1167
          45    0.1221    0.0021   -0.3193   -0.0603   -0.1074   -0.0010   -0.0995    0.0012
          46   -0.0000    0.0233    0.0002   -0.0000   -0.0001   -0.0141   -0.0001    0.0278
          47   -0.0000    0.0983    0.0007   -0.0001    0.0001   -0.0117   -0.0002    0.0955
          48   -0.0490    0.0005   -0.0284   -0.0436   -0.3306    0.0002    0.0706    0.0001
          49   -0.0000    0.0511    0.0003   -0.0000    0.0001   -0.0050   -0.0000    0.0305
          50    0.0000   -0.0627   -0.0004    0.0001   -0.0001    0.0192    0.0001   -0.0730
          51   -0.1059   -0.0003    0.0074   -0.0587    0.2542   -0.0002   -0.1606   -0.0004
          52   -0.0000    0.0814    0.0006   -0.0001    0.0000   -0.0299   -0.0001    0.0815
          53    0.0001    0.0251    0.0002   -0.0000    0.0000   -0.0069   -0.0002    0.0648
          54   -0.2316    0.0003   -0.0378    0.0202   -0.0728   -0.0002   -0.1272   -0.0003
          55   -0.0000    0.2391    0.0016   -0.0002    0.0001   -0.2123    0.0005   -0.1367
          56    0.0001   -0.0514   -0.0004    0.0002    0.0000    0.1992   -0.0002    0.0589
          57   -0.0990    0.0000    0.0018   -0.2331    0.0085   -0.0000    0.0000   -0.0001
          58   -0.0001    0.2042    0.0014   -0.0002    0.0001   -0.1434    0.0003   -0.0853
          59    0.0001    0.1497    0.0010   -0.0001    0.0001   -0.1904    0.0007   -0.2588
          60   -0.1434   -0.0004   -0.0030   -0.1954    0.0243    0.0001    0.2244    0.0005


   Root No.       9        10        11        12        13        14        15        16

                 9 A      10 A      11 A      12 A      13 A      14 A      15 A      16 A   

                 424.2     424.9     469.2     538.8     557.6     607.5     651.6     739.5
  
           1    0.0052   -0.2616   -0.0000   -0.2140   -0.0001   -0.2038   -0.0000    0.4292
           2    0.0010   -0.0546   -0.0001   -0.3202   -0.0001    0.0832   -0.0000   -0.0359
           3    0.0146    0.0003   -0.0059   -0.0001   -0.0469    0.0000   -0.2192    0.0000
           4   -0.0069    0.3441    0.0000   -0.3082   -0.0001   -0.0034   -0.0000   -0.1991
           5   -0.0023    0.1054    0.0001    0.2224    0.0001    0.0137   -0.0000    0.0148
           6    0.0411    0.0009    0.0237    0.0001    0.0135   -0.0001    0.0377   -0.0001
           7   -0.0033    0.1628    0.0000   -0.2542   -0.0001   -0.0884   -0.0000   -0.1848
           8    0.0049   -0.2481    0.0001    0.0886   -0.0002   -0.1924   -0.0001   -0.2807
           9   -0.0126   -0.0007   -0.0802   -0.0001    0.4479   -0.0003    0.3756   -0.0001
          10    0.0034   -0.1718    0.0000   -0.1832   -0.0001   -0.1364   -0.0000    0.0773
          11   -0.0024    0.1180   -0.0002   -0.0126    0.0001   -0.0329    0.0003   -0.0893
          12    0.2138    0.0040    0.1911    0.0001   -0.1077   -0.0001   -0.4377   -0.0003
          13    0.0028   -0.1369    0.0000    0.4016    0.0002   -0.1134    0.0001    0.2558
          14    0.0017   -0.0822   -0.0000   -0.2714   -0.0000    0.1717   -0.0001   -0.0997
          15   -0.3515   -0.0072   -0.0907   -0.0001   -0.0330    0.0001    0.0249    0.0001
          16   -0.0018    0.0853   -0.0000    0.3170    0.0000   -0.0431    0.0000   -0.2811
          17    0.0058   -0.2892    0.0000    0.1802    0.0000   -0.2283    0.0000   -0.3429
          18   -0.3337   -0.0067    0.0166    0.0001   -0.1282    0.0001   -0.0565    0.0000
          19   -0.0013    0.0681   -0.0000    0.3039    0.0001    0.0508    0.0000   -0.0214
          20    0.0067   -0.3389    0.0000   -0.1152    0.0000   -0.0303   -0.0001    0.2116
          21    0.4844    0.0097    0.0419   -0.0001    0.0405   -0.0001   -0.0689    0.0001
          22    0.0014   -0.0698   -0.0002   -0.0193    0.0001   -0.0462   -0.0001   -0.0528
          23   -0.0054    0.2736   -0.0001    0.0809    0.0000    0.0176    0.0001    0.3194
          24    0.0497    0.0011    0.0463    0.0001   -0.0962    0.0000    0.0351    0.0002
          25    0.0048   -0.2369    0.0003    0.0479    0.0001    0.7805    0.0001   -0.0378
          26   -0.0033    0.1683   -0.0000    0.0569    0.0003    0.1477   -0.0002    0.0606
          27    0.0168    0.0004    0.0653    0.0001   -0.4862    0.0001    0.4391    0.0002
          28   -0.0036    0.1817    0.0001   -0.0497   -0.0001   -0.2332   -0.0000   -0.0322
[...]
 FREQ.      1303.97         C  8 -- H 20         +20.5% ( 58.0%)      3.0%
 T-DIPOLE    0.1334         C  8 -- H 19         +20.4% ( 57.9%)      3.0%
 TRAVEL      0.1022         C  1 -- C  4          +7.1% ( 34.2%)     58.9%
 RED. MASS   0.4561         C  1 -- C  5          +6.8% ( 33.5%)     68.5%
 EFF. MASS   4.9513

 VIBRATION   34   34A         ATOM PAIR      ENERGY CONTRIBUTION    RADIAL
 FREQ.      1339.69         C  1 -- H 12         +24.7% ( 52.0%)      4.2%
 T-DIPOLE    0.1483         C  1 -- H 11         +24.7% ( 52.0%)      4.2%
 TRAVEL      0.1285         C  6 -- C  7          +7.2% ( 28.1%)     99.4%
 RED. MASS   0.3313         C  1 -- C  4          +5.3% ( 24.1%)      1.7%
 EFF. MASS   3.0502

 VIBRATION   35   35A         ATOM PAIR      ENERGY CONTRIBUTION    RADIAL
 FREQ.      1373.14         C  2 -- H 14         +15.0% ( 46.9%)      4.1%
 T-DIPOLE    0.1217         C  2 -- H 15         +15.0% ( 46.9%)      4.1%
 TRAVEL      0.1016         C  1 -- C  4         +11.5% ( 41.0%)     71.2%
 RED. MASS   0.4666         C  2 -- H 13          +8.1% ( 34.5%)      0.1%
 EFF. MASS   4.7603

 VIBRATION   36   36A         ATOM PAIR      ENERGY CONTRIBUTION    RADIAL
 FREQ.      1387.76         C  2 -- H 13         +54.0% ( 63.5%)      0.0%
 T-DIPOLE    0.0672         C  2 -- H 15         +20.5% ( 39.1%)     11.2%
 TRAVEL      0.1765         C  2 -- H 14         +20.5% ( 39.1%)     11.3%
 RED. MASS   0.4215         C  2 -- C  3          +5.0% ( 19.4%)      0.0%
 EFF. MASS   1.5592

 VIBRATION   37   37A         ATOM PAIR      ENERGY CONTRIBUTION    RADIAL
 FREQ.      1396.69         C  2 -- H 14         +18.0% ( 46.9%)      1.5%
 T-DIPOLE    0.0560         C  2 -- H 15         +17.9% ( 46.8%)      1.5%
 TRAVEL      0.1097         C  6 -- C  7          +7.8% ( 30.8%)    100.0%
 RED. MASS   0.3046         C  1 -- C  4          +7.7% ( 30.7%)     99.8%
 EFF. MASS   4.0085

 VIBRATION   38   38A         ATOM PAIR      ENERGY CONTRIBUTION    RADIAL
 FREQ.      1409.86         C  1 -- C  4         +12.0% ( 49.3%)     54.8%
 T-DIPOLE    0.1280         C  6 -- C  7          +7.5% ( 39.0%)     87.8%
 TRAVEL      0.0804         C  2 -- H 13          +7.3% ( 38.5%)      3.8%
 RED. MASS   0.6934         C  3 -- C  4          +7.2% ( 38.1%)     39.6%
 EFF. MASS   7.3910

 VIBRATION   39   39A         ATOM PAIR      ENERGY CONTRIBUTION    RADIAL
 FREQ.      1455.33         C  1 -- C  5         +14.0% ( 57.4%)     95.7%
 T-DIPOLE    0.0726         C  2 -- C  3          +9.8% ( 47.9%)     99.8%
 TRAVEL      0.0676         C  6 -- C  7          +9.6% ( 47.5%)     99.6%
 RED. MASS   1.3770         C  5 -- C  7          +7.9% ( 43.0%)      0.1%
 EFF. MASS  10.1533

 VIBRATION   40   40A         ATOM PAIR      ENERGY CONTRIBUTION    RADIAL
 FREQ.      1523.06         C  3 -- C  4         +27.4% ( 78.5%)     87.1%
 T-DIPOLE    0.2203         C  2 -- C  3         +16.3% ( 60.6%)     68.8%
 TRAVEL      0.0623         C  3 -- C  6         +13.3% ( 54.8%)      1.1%
 RED. MASS   3.1329         C  1 -- C  4         +12.5% ( 53.2%)     92.4%
 EFF. MASS  11.4044

 VIBRATION   41   41A         ATOM PAIR      ENERGY CONTRIBUTION    RADIAL
 FREQ.      1832.03         C  3 -- C  6         +24.0% ( 73.5%)     95.7%
 T-DIPOLE    0.5653         C  5 -- C  7         +18.9% ( 65.2%)     98.6%
 TRAVEL      0.0555         C  6 -- C  7         +16.2% ( 60.4%)     99.9%
 RED. MASS   2.9259         C  2 -- C  3          +8.0% ( 42.4%)     43.5%
 EFF. MASS  11.9486

 VIBRATION   42   42A         ATOM PAIR      ENERGY CONTRIBUTION    RADIAL
 FREQ.      1854.60         C  5 -- C  7         +23.6% ( 70.9%)     99.4%
 T-DIPOLE    0.6089         C  3 -- C  6         +18.4% ( 62.5%)    100.0%
 TRAVEL      0.0555         C  6 -- C  7         +11.3% ( 49.1%)      0.3%
 RED. MASS   2.4649         C  1 -- C  5          +8.2% ( 41.9%)     53.1%
 EFF. MASS  11.7919

 VIBRATION   43   43A         ATOM PAIR      ENERGY CONTRIBUTION    RADIAL
 FREQ.      1898.35         C  4 -- C  9         +28.3% ( 75.7%)     99.9%
 T-DIPOLE    0.9007         C  8 -- C 10         +24.3% ( 70.2%)    100.0%
 TRAVEL      0.0545         C  3 -- C  4         +10.9% ( 47.0%)     37.7%
 RED. MASS   2.6688         C  9 -- C 10         +10.1% ( 45.3%)     95.6%
 EFF. MASS  11.9506         C  1 -- C  4         +10.0% ( 45.1%)     23.2%

 VIBRATION   44   44A         ATOM PAIR      ENERGY CONTRIBUTION    RADIAL
 FREQ.      2361.18         C  9 -- C 10         +49.6% ( 90.5%)    100.0%
 T-DIPOLE    2.2680         C  8 -- C 10         +23.3% ( 62.0%)    100.0%
 TRAVEL      0.0489         C  4 -- C  9         +22.3% ( 60.7%)    100.0%
 RED. MASS   4.8202         C  1 -- C  4          +1.3% ( 14.4%)     24.5%
 EFF. MASS  11.9646

 VIBRATION   45   45A         ATOM PAIR      ENERGY CONTRIBUTION    RADIAL
 FREQ.      2924.01         C  1 -- H 11         +49.0% ( 72.6%)     96.5%
 T-DIPOLE    0.1162         C  1 -- H 12         +48.9% ( 72.6%)     96.5%
 TRAVEL      0.1227         C  1 -- C  5          +1.1% ( 10.7%)      0.0%
 RED. MASS   0.5171         C  1 -- C  4          +1.1% ( 10.7%)      0.0%
 EFF. MASS   1.5318

 VIBRATION   46   46A         ATOM PAIR      ENERGY CONTRIBUTION    RADIAL
 FREQ.      3005.51         C  1 -- H 12         +49.0% ( 69.0%)     97.8%
 T-DIPOLE    0.1528         C  1 -- H 11         +49.0% ( 68.9%)     97.8%
 TRAVEL      0.1325         C  5 -- H 16          +0.7% (  8.1%)    100.0%
 RED. MASS   0.4779         C  1 -- C  5          +0.6% (  7.9%)     20.1%
 EFF. MASS   1.2777

 VIBRATION   47   47A         ATOM PAIR      ENERGY CONTRIBUTION    RADIAL
 FREQ.      3048.33         C  6 -- H 17         +53.6% ( 74.4%)    100.0%
 T-DIPOLE    0.1336         C  7 -- H 18         +28.6% ( 54.3%)    100.0%
 TRAVEL      0.1214         C  5 -- H 16         +14.9% ( 39.3%)    100.0%
 RED. MASS   0.3854         C  6 -- C  7          +1.2% ( 11.1%)      0.5%
 EFF. MASS   1.5021

 VIBRATION   48   48A         ATOM PAIR      ENERGY CONTRIBUTION    RADIAL
 FREQ.      3053.62         C  5 -- H 16         +48.7% ( 70.8%)    100.0%
 T-DIPOLE    0.4399         C  6 -- H 17         +37.1% ( 61.8%)    100.0%
 TRAVEL      0.1218         C  7 -- H 18         +11.1% ( 33.8%)     99.8%
 RED. MASS   0.3807         C  5 -- C  7          +0.7% (  8.7%)      7.1%
 EFF. MASS   1.4886

 VIBRATION   49   49A         ATOM PAIR      ENERGY CONTRIBUTION    RADIAL
 FREQ.      3068.60         C  2 -- H 14         +49.1% ( 72.3%)     97.0%
 T-DIPOLE    0.0732         C  2 -- H 15         +49.0% ( 72.2%)     97.0%
 TRAVEL      0.1210         C  2 -- C  3          +1.0% ( 10.2%)      0.0%
 RED. MASS   0.5095         C  2 -- H 13          +0.9% (  9.9%)      0.0%
 EFF. MASS   1.5015

 VIBRATION   50   50A         ATOM PAIR      ENERGY CONTRIBUTION    RADIAL
 FREQ.      3072.25         C  7 -- H 18         +57.1% ( 76.7%)    100.0%
 T-DIPOLE    0.4733         C  5 -- H 16         +32.6% ( 58.0%)     99.9%
 TRAVEL      0.1173         C  6 -- H 17          +5.9% ( 24.7%)    100.0%
 RED. MASS   0.4376         C  5 -- C  7          +1.9% ( 14.0%)     96.4%
 EFF. MASS   1.5944

 VIBRATION   51   51A         ATOM PAIR      ENERGY CONTRIBUTION    RADIAL
 FREQ.      3076.78         C  2 -- H 13         +63.4% ( 82.2%)     98.9%
 T-DIPOLE    0.0137         C  2 -- H 15         +17.5% ( 43.2%)     85.0%
 TRAVEL      0.1203         C  2 -- H 14         +17.4% ( 43.1%)     84.9%
 RED. MASS   0.4941         C  2 -- C  3          +1.1% ( 10.6%)      0.1%
 EFF. MASS   1.5148

 VIBRATION   52   52A         ATOM PAIR      ENERGY CONTRIBUTION    RADIAL
 FREQ.      3120.41         C  8 -- H 20         +49.4% ( 70.4%)     95.3%
 T-DIPOLE    0.5430         C  8 -- H 19         +48.9% ( 70.0%)     95.2%
 TRAVEL      0.1246         C  8 -- C 10          +1.6% ( 12.7%)    100.0%
 RED. MASS   0.4856
 EFF. MASS   1.3909

 VIBRATION   53   53A         ATOM PAIR      ENERGY CONTRIBUTION    RADIAL
 FREQ.      3131.35         C  8 -- H 19         +49.6% ( 72.1%)     97.1%
 T-DIPOLE    0.2335         C  8 -- H 20         +49.2% ( 71.7%)     97.1%
 TRAVEL      0.1161         C  8 -- C 10          +1.2% ( 11.3%)      0.0%
 RED. MASS   0.5343
 EFF. MASS   1.5983

 VIBRATION   54   54A         ATOM PAIR      ENERGY CONTRIBUTION    RADIAL
 FREQ.      3167.74         C  2 -- H 13         +34.6% ( 56.7%)     97.2%
 T-DIPOLE    0.0699         C  2 -- H 14         +32.5% ( 54.9%)     97.0%
 TRAVEL      0.1368         C  2 -- H 15         +32.5% ( 54.9%)     97.0%
 RED. MASS   0.3272         C  2 -- C  3          +0.3% (  5.3%)    100.0%
 EFF. MASS   1.1378

      SYMMETRY NUMBER FOR POINT-GROUP C1  =  1


          SYSTEM IS A GROUND STATE



 InChI=1S/C10H10/c1-3-6-10-8-5-4-7-9(10)2/h4-5,7H,1,8H2,2H3


          MOLECULE IS NOT LINEAR

          THERE ARE 54 GENUINE VIBRATIONS IN THIS SYSTEM
          THIS THERMODYNAMICS CALCULATION IS LIMITED TO
          MOLECULES WHICH HAVE NO INTERNAL ROTATIONS




                    CALCULATED THERMODYNAMIC PROPERTIES
                                          *
   TEMP. (K)   PARTITION FUNCTION   H.O.F.    ENTHALPY  HEAT CAPACITY ENTROPY
                                   KCAL/MOL   CAL/MOLE    CAL/K/MOL  CAL/K/MOL


 298.00  VIB.     0.4739D+03                  4358.9612    30.6408    26.8705
         ROT.     0.6988D+06                   888.2813     2.9808    29.7229
         INT.     0.3311D+09                  5247.2425    33.6216    56.5934
         TRA.     0.1436D+28                  1480.4688     4.9680    40.5022
         TOT.                       93.552    6727.7114    38.5896    97.0955

 200.00  VIB.     0.4388D+02                  1894.1977    19.7225    16.9856
         ROT.     0.3842D+06                   596.1620     2.9808    28.5342
         INT.     0.1686D+08                  2490.3596    22.7033    45.5198
         TRA.     0.7896D+27                   993.6033     4.9680    38.5210
         TOT.                       90.308    3483.9629    27.6713    84.0409

 210.00  VIB.     0.5572D+02                  2096.8481    20.8094    17.9741
         ROT.     0.4134D+06                   625.9700     2.9808    28.6797
         INT.     0.2303D+08                  2722.8181    23.7902    46.6538
         TRA.     0.8496D+27                  1043.2834     4.9680    38.7634
         TOT.                       90.590    3766.1015    28.7583    85.4172

 220.00  VIB.     0.7081D+02                  2310.4208    21.9068    18.9675
         ROT.     0.4433D+06                   655.7781     2.9808    28.8183
         INT.     0.3139D+08                  2966.1990    24.8876    47.7858
         TRA.     0.9110D+27                  1092.9636     4.9680    38.9945
         TOT.                       90.883    4059.1626    29.8556    86.7803

 230.00  VIB.     0.9008D+02                  2535.0135    23.0132    19.9656
         ROT.     0.4738D+06                   685.5862     2.9808    28.9508
         INT.     0.4268D+08                  3220.5998    25.9940    48.9165
         TRA.     0.9738D+27                  1142.6437     4.9680    39.2154
         TOT.                       91.187    4363.2435    30.9620    88.1318

 240.00  VIB.     0.1147D+03                  2770.7095    24.1271    20.9686
         ROT.     0.5051D+06                   715.3943     2.9808    29.0777
         INT.     0.5793D+08                  3486.1039    27.1080    50.0463
         TRA.     0.1038D+28                  1192.3239     4.9680    39.4268
         TOT.                       91.503    4678.4278    32.0760    89.4731

 250.00  VIB.     0.1462D+03                  3017.5757    25.2469    21.9762
         ROT.     0.5370D+06                   745.2024     2.9808    29.1994
         INT.     0.7849D+08                  3762.7781    28.2277    51.1756
         TRA.     0.1103D+28                  1242.0041     4.9680    39.6296
         TOT.                       91.829    5004.7822    33.1957    90.8052

 260.00  VIB.     0.1865D+03                  3275.6605    26.3705    22.9883
         ROT.     0.5695D+06                   775.0105     2.9808    29.3163
         INT.     0.1062D+09                  4050.6710    29.3514    52.3045
         TRA.     0.1170D+28                  1291.6842     4.9680    39.8245
         TOT.                       92.167    5342.3552    34.3194    92.1290

 270.00  VIB.     0.2381D+03                  3544.9929    27.4961    24.0046
         ROT.     0.6027D+06                   804.8186     2.9808    29.4288
         INT.     0.1435D+09                  4349.8116    30.4769    53.4334
         TRA.     0.1239D+28                  1341.3644     4.9680    40.0120
         TOT.                       92.515    5691.1759    35.4449    93.4453

 280.00  VIB.     0.3042D+03                  3825.5820    28.6215    25.0249
         ROT.     0.6365D+06                   834.6267     2.9808    29.5372
         INT.     0.1936D+09                  4660.2087    31.6023    54.5621
         TRA.     0.1308D+28                  1391.0445     4.9680    40.1926
         TOT.                       92.875    6051.2533    36.5704    94.7547

 290.00  VIB.     0.3890D+03                  4117.4166    29.7449    26.0489
         ROT.     0.6709D+06                   864.4348     2.9808    29.6418
         INT.     0.2610D+09                  4981.8514    32.7257    55.6907
         TRA.     0.1379D+28                  1440.7247     4.9680    40.3670
         TOT.                       93.247    6422.5762    37.6937    96.0576

 300.00  VIB.     0.4979D+03                  4420.4663    30.8642    27.0762
         ROT.     0.7059D+06                   894.2429     2.9808    29.7428
         INT.     0.3514D+09                  5314.7092    33.8450    56.8190
         TRA.     0.1451D+28                  1490.4049     4.9680    40.5354
         TOT.                       93.629    6805.1141    38.8131    97.3544

 310.00  VIB.     0.6377D+03                  4734.6816    31.9777    28.1064
         ROT.     0.7414D+06                   924.0510     2.9808    29.8406
         INT.     0.4728D+09                  5658.7327    34.9585    57.9469
         TRA.     0.1524D+28                  1540.0850     4.9680    40.6983
         TOT.                       94.023    7198.8177    39.9266    98.6452

 320.00  VIB.     0.8175D+03                  5059.9959    33.0837    29.1391
         ROT.     0.7776D+06                   953.8591     2.9808    29.9352
         INT.     0.6357D+09                  6013.8550    36.0645    59.0743
         TRA.     0.1598D+28                  1589.7652     4.9680    40.8560
         TOT.                       94.428    7603.6202    41.0325    99.9303

 330.00  VIB.     0.1049D+04                  5396.3257    34.1806    30.1740
         ROT.     0.8143D+06                   983.6672     2.9808    30.0269
         INT.     0.8539D+09                  6379.9929    37.1614    60.2009
         TRA.     0.1674D+28                  1639.4454     4.9680    41.0089
         TOT.                       94.844    8019.4383    42.1294   101.2098

 340.00  VIB.     0.1346D+04                  5743.5732    35.2670    31.2105
         ROT.     0.8516D+06                  1013.4753     2.9808    30.1159
         INT.     0.1146D+10                  6757.0485    38.2478    61.3264
         TRA.     0.1750D+28                  1689.1255     4.9680    41.1572
         TOT.                       95.270    8446.1740    43.2158   102.4837

 350.00  VIB.     0.1729D+04                  6101.6268    36.3417    32.2483
         ROT.     0.8895D+06                  1043.2834     2.9808    30.2023
         INT.     0.1538D+10                  7144.9102    39.3225    62.4507
         TRA.     0.1828D+28                  1738.8057     4.9680    41.3012
         TOT.                       95.708    8883.7159    44.2905   103.7519

 360.00  VIB.     0.2222D+04                  6470.3636    37.4035    33.2870
         ROT.     0.9279D+06                  1073.0915     2.9808    30.2863
         INT.     0.2062D+10                  7543.4551    40.3843    63.5734
         TRA.     0.1907D+28                  1788.4859     4.9680    41.4412
         TOT.                       96.156    9331.9409    45.3523   105.0145

 370.00  VIB.     0.2858D+04                  6849.6500    38.4515    34.3262
         ROT.     0.9668D+06                  1102.8996     2.9808    30.3680
         INT.     0.2763D+10                  7952.5496    41.4323    64.6942
         TRA.     0.1987D+28                  1838.1660     4.9680    41.5773
         TOT.                       96.615    9790.7156    46.4003   106.2715

 380.00  VIB.     0.3677D+04                  7239.3440    39.4848    35.3654
         ROT.     0.1006D+07                  1132.7077     2.9808    30.4475
         INT.     0.3700D+10                  8372.0517    42.4657    65.8128
         TRA.     0.2068D+28                  1887.8462     4.9680    41.7098
         TOT.                       97.084   10259.8979    47.4337   107.5226

 390.00  VIB.     0.4733D+04                  7639.2961    40.5030    36.4042
         ROT.     0.1046D+07                  1162.5158     2.9808    30.5249
         INT.     0.4952D+10                  8801.8119    43.4838    66.9291
         TRA.     0.2150D+28                  1937.5263     4.9680    41.8388
         TOT.                       97.564   10739.3383    48.4518   108.7679

 400.00  VIB.     0.6095D+04                  8049.3509    41.5053    37.4423
         ROT.     0.1087D+07                  1192.3239     2.9808    30.6004
         INT.     0.6624D+10                  9241.6748    44.4861    68.0427
         TRA.     0.2233D+28                  1987.2065     4.9680    41.9646
         TOT.                       98.053   11228.8813    49.4541   110.0073

   *: NOTE: HEATS OF FORMATION ARE RELATIVE TO THE
            ELEMENTS IN THEIR STANDARD STATE AT 298K
              (=  Standard Enthalpy of Formation).

            Hvib:  Zero-point energy is not included.
                   frequencies of less than zero cm-1 are not included.
            Hrot = (3/2)RT
            Htra = (3/2)RT + pV = (5/2)RT

            Heat capacity is Cp, not Cv

          For more information, see: HTTP://OpenMOPAC.net/Manual/thermochemistry.html


           FORCE CONSTANT IN CARTESIAN COORDINATES (Millidynes/A)

    ATOM   CHEMICAL       X               Y               Z
   NUMBER   SYMBOL  FORCE CONSTANT  FORCE CONSTANT  FORCE CONSTANT

      1       C        8.719597        9.464930        7.541091
      2       C        8.963039        8.540822        7.926710
      3       C       10.705527       14.649624        2.586068
      4       C        9.720958       15.459156        2.542558
      5       C       13.184466       11.480258        2.362591
      6       C       10.952932       14.383750        2.203103
      7       C       13.053776       12.390378        2.204416
      8       C        8.712239       15.287949        1.795228
      9       C        2.659284       23.769120        1.334243
     10       C        2.297109       23.916311        1.370686
     11       H        1.528633        1.198816        3.425577
     12       H        1.530043        1.196891        3.426673
     13       H        2.736944        3.381639        0.649372
     14       H        0.779580        2.116656        3.760086
     15       H        0.779198        2.119548        3.757555
     16       H        4.623910        1.285032        0.347632
     17       H        3.134754        2.761274        0.341805
     18       H        0.842002        5.070044        0.348608
     19       H        3.267318        2.720733        0.272293
     20       H        4.705116        1.283864        0.271962

 **********************
 *                    *
 * JOB ENDED NORMALLY *
 *                    *
 **********************



 TOTAL JOB TIME:             5.61 SECONDS

 == MOPAC DONE ==
