 *******************************************************************************
 ** Site#: 14399        For non-commercial use only    Version 18.184L 64BITS **
 *******************************************************************************
 ** Cite this program as: MOPAC2016, Version: 18.184L, James J. P. Stewart,   **
 ** Stewart Computational Chemistry, web: HTTP://OpenMOPAC.net. Days left:  20**
 *******************************************************************************
 **                                                                           **
 **                                MOPAC2016                                  **
 **                                                                           **
 *******************************************************************************

                              PM3 CALCULATION RESULTS

 *******************************************************************************
 *  CALCULATION DONE:                                Thu Jun 13 16:08:22 2019  *
 *  PM3        - The PM3 Hamiltonian to be used
 *  PRECISE    - CRITERIA TO BE INCREASED BY 100 TIMES
 *  NOSYM      - POINT-GROUP SYMMETRY SET TO C1
 *  THREADS=1  - MULTI-THREADING NOT USED
 *  T=         - A TIME OF 172800.0 SECONDS REQUESTED
 *  DUMP=N     - RESTART FILE WRITTEN EVERY  7200.000 SECONDS
 *******************************************************************************
pm3  precise nosym THREADS=1
 InChI=1S/C7H12O2/c8-9-7-5-3-1-2-4-6-7/h1,3,7-8H,2,4-6H2

   ATOM   CHEMICAL          X               Y               Z
  NUMBER   SYMBOL      (ANGSTROMS)     (ANGSTROMS)     (ANGSTROMS)
 
     1       O          2.49340000  *   0.13710000  *  -0.62760000  *
     2       O          3.19400000  *   0.92760000  *   0.16670000  *
     3       C          1.18220000  *   0.08930000  *  -0.10880000  *
     4       C          0.54160000  *  -1.23120000  *  -0.57410000  *
     5       C         -0.81480000  *  -1.52850000  *   0.08280000  *
     6       C          0.39090000  *   1.31560000  *  -0.61180000  *
     7       C         -1.92400000  *  -0.57520000  *  -0.38050000  *
     8       C         -1.86100000  *   0.74650000  *   0.33530000  *
     9       C         -0.82490000  *   1.59190000  *   0.23250000  *
    10       H          1.20610000  *   0.08330000  *   1.00900000  *
    11       H         -1.10920000  *  -2.56210000  *  -0.20210000  *
    12       H         -0.72100000  *  -1.51010000  *   1.19120000  *
    13       H          1.23170000  *  -2.06220000  *  -0.30890000  *
    14       H          0.43820000  *  -1.24000000  *  -1.68170000  *
    15       H         -2.90620000  *  -1.04340000  *  -0.15370000  *
    16       H         -1.88010000  *  -0.41910000  *  -1.48020000  *
    17       H          1.04220000  *   2.21470000  *  -0.56230000  *
    18       H          0.09630000  *   1.18930000  *  -1.67630000  *
    19       H         -2.70070000  *   1.03060000  *   0.96310000  *
    20       H         -0.86650000  *   2.52910000  *   0.78020000  *
    21       H          3.79190000  *   0.31680000  *   0.66940000  *
 


          CARTESIAN COORDINATES 

    NO.       ATOM           X           Y           Z

     1         O          2.4934      0.1371     -0.6276
     2         O          3.1940      0.9276      0.1667
     3         C          1.1822      0.0893     -0.1088
     4         C          0.5416     -1.2312     -0.5741
     5         C         -0.8148     -1.5285      0.0828
     6         C          0.3909      1.3156     -0.6118
     7         C         -1.9240     -0.5752     -0.3805
     8         C         -1.8610      0.7465      0.3353
     9         C         -0.8249      1.5919      0.2325
    10         H          1.2061      0.0833      1.0090
    11         H         -1.1092     -2.5621     -0.2021
    12         H         -0.7210     -1.5101      1.1912
    13         H          1.2317     -2.0622     -0.3089
    14         H          0.4382     -1.2400     -1.6817
    15         H         -2.9062     -1.0434     -0.1537
    16         H         -1.8801     -0.4191     -1.4802
    17         H          1.0422      2.2147     -0.5623
    18         H          0.0963      1.1893     -1.6763
    19         H         -2.7007      1.0306      0.9631
    20         H         -0.8665      2.5291      0.7802
    21         H          3.7919      0.3168      0.6694

  H: (PM3): J. J. P. STEWART, J. COMP. CHEM. 10, 209 (1989).
  C: (PM3): J. J. P. STEWART, J. COMP. CHEM. 10, 209 (1989).
  O: (PM3): J. J. P. STEWART, J. COMP. CHEM. 10, 209 (1989).

           Empirical Formula: C7 H12 O2  =    21 atoms



      MOLECULAR POINT GROUP   :   C1  


      RHF CALCULATION, NO. OF DOUBLY OCCUPIED LEVELS = 26


          Geometry optimization using EF

          DIAGONAL MATRIX USED AS START HESSIAN

 CYCLE:     1 TIME:   0.035 TIME LEFT:  2.00D  GRAD.:   174.515 HEAT: -17.45360
 CYCLE:     2 TIME:   0.035 TIME LEFT:  2.00D  GRAD.:   144.765 HEAT: -22.14810
 CYCLE:     3 TIME:   0.027 TIME LEFT:  2.00D  GRAD.:    72.680 HEAT: -25.79146
 CYCLE:     4 TIME:   0.027 TIME LEFT:  2.00D  GRAD.:    39.999 HEAT: -27.46020
 CYCLE:     5 TIME:   0.039 TIME LEFT:  2.00D  GRAD.:    25.055 HEAT: -27.74119
 CYCLE:     6 TIME:   0.023 TIME LEFT:  2.00D  GRAD.:    19.870 HEAT: -27.86410
 CYCLE:     7 TIME:   0.023 TIME LEFT:  2.00D  GRAD.:    27.555 HEAT: -27.86982
 CYCLE:     8 TIME:   0.023 TIME LEFT:  2.00D  GRAD.:    24.301 HEAT: -27.98117
 CYCLE:     9 TIME:   0.031 TIME LEFT:  2.00D  GRAD.:    10.689 HEAT: -28.13899
 CYCLE:    10 TIME:   0.027 TIME LEFT:  2.00D  GRAD.:     8.572 HEAT: -28.18202
 CYCLE:    11 TIME:   0.020 TIME LEFT:  2.00D  GRAD.:    13.490 HEAT: -28.19443
 CYCLE:    12 TIME:   0.023 TIME LEFT:  2.00D  GRAD.:     7.662 HEAT: -28.26677
 CYCLE:    13 TIME:   0.031 TIME LEFT:  2.00D  GRAD.:    11.161 HEAT: -28.27158
 CYCLE:    14 TIME:   0.020 TIME LEFT:  2.00D  GRAD.:     5.623 HEAT: -28.31957
 CYCLE:    15 TIME:   0.023 TIME LEFT:  2.00D  GRAD.:    11.044 HEAT: -28.33606
 CYCLE:    16 TIME:   0.023 TIME LEFT:  2.00D  GRAD.:    11.087 HEAT: -28.36909
 CYCLE:    17 TIME:   0.031 TIME LEFT:  2.00D  GRAD.:    10.841 HEAT: -28.39044
 CYCLE:    18 TIME:   0.020 TIME LEFT:  2.00D  GRAD.:     7.487 HEAT: -28.43211
 CYCLE:    19 TIME:   0.023 TIME LEFT:  2.00D  GRAD.:    11.379 HEAT: -28.44693
 CYCLE:    20 TIME:   0.023 TIME LEFT:  2.00D  GRAD.:     7.086 HEAT: -28.49986
 CYCLE:    21 TIME:   0.023 TIME LEFT:  2.00D  GRAD.:    13.468 HEAT: -28.52220
 CYCLE:    22 TIME:   0.023 TIME LEFT:  2.00D  GRAD.:    11.106 HEAT: -28.59495
 CYCLE:    23 TIME:   0.023 TIME LEFT:  2.00D  GRAD.:    15.590 HEAT: -28.63454
 CYCLE:    24 TIME:   0.020 TIME LEFT:  2.00D  GRAD.:     7.849 HEAT: -28.71696
 CYCLE:    25 TIME:   0.023 TIME LEFT:  2.00D  GRAD.:    11.615 HEAT: -28.78336
 CYCLE:    26 TIME:   0.023 TIME LEFT:  2.00D  GRAD.:     8.002 HEAT: -28.85243
 CYCLE:    27 TIME:   0.023 TIME LEFT:  2.00D  GRAD.:    18.584 HEAT: -28.90820
 CYCLE:    28 TIME:   0.023 TIME LEFT:  2.00D  GRAD.:    12.524 HEAT: -28.94875
 CYCLE:    29 TIME:   0.023 TIME LEFT:  2.00D  GRAD.:     7.221 HEAT: -29.03489
 CYCLE:    30 TIME:   0.023 TIME LEFT:  2.00D  GRAD.:    17.052 HEAT: -29.04974
 CYCLE:    31 TIME:   0.020 TIME LEFT:  2.00D  GRAD.:     5.678 HEAT: -29.10428
 CYCLE:    32 TIME:   0.023 TIME LEFT:  2.00D  GRAD.:    13.134 HEAT: -29.12059
 CYCLE:    33 TIME:   0.023 TIME LEFT:  2.00D  GRAD.:     5.652 HEAT: -29.17627
 CYCLE:    34 TIME:   0.023 TIME LEFT:  2.00D  GRAD.:     9.316 HEAT: -29.22219
 CYCLE:    35 TIME:   0.023 TIME LEFT:  2.00D  GRAD.:     7.229 HEAT: -29.26921
 CYCLE:    36 TIME:   0.023 TIME LEFT:  2.00D  GRAD.:    16.850 HEAT: -29.31023
 CYCLE:    37 TIME:   0.031 TIME LEFT:  2.00D  GRAD.:     9.687 HEAT: -29.34081
 CYCLE:    38 TIME:   0.020 TIME LEFT:  2.00D  GRAD.:     4.042 HEAT: -29.38155
 CYCLE:    39 TIME:   0.023 TIME LEFT:  2.00D  GRAD.:     6.580 HEAT: -29.39954
 CYCLE:    40 TIME:   0.020 TIME LEFT:  2.00D  GRAD.:     6.789 HEAT: -29.42142
 CYCLE:    41 TIME:   0.023 TIME LEFT:  2.00D  GRAD.:     3.205 HEAT: -29.45297
 CYCLE:    42 TIME:   0.023 TIME LEFT:  2.00D  GRAD.:     9.842 HEAT: -29.45737
 CYCLE:    43 TIME:   0.020 TIME LEFT:  2.00D  GRAD.:     3.025 HEAT: -29.47658
 CYCLE:    44 TIME:   0.016 TIME LEFT:  2.00D  GRAD.:     1.796 HEAT: -29.48641
 CYCLE:    45 TIME:   0.023 TIME LEFT:  2.00D  GRAD.:     3.664 HEAT: -29.50341
 CYCLE:    46 TIME:   0.023 TIME LEFT:  2.00D  GRAD.:     3.054 HEAT: -29.51291
 CYCLE:    47 TIME:   0.023 TIME LEFT:  2.00D  GRAD.:     3.573 HEAT: -29.52753
 CYCLE:    48 TIME:   0.020 TIME LEFT:  2.00D  GRAD.:     4.321 HEAT: -29.53240
 CYCLE:    49 TIME:   0.023 TIME LEFT:  2.00D  GRAD.:     2.531 HEAT: -29.54220
 CYCLE:    50 TIME:   0.023 TIME LEFT:  2.00D  GRAD.:     3.413 HEAT: -29.55061
 CYCLE:    51 TIME:   0.023 TIME LEFT:  2.00D  GRAD.:     2.290 HEAT: -29.55714
 CYCLE:    52 TIME:   0.023 TIME LEFT:  2.00D  GRAD.:     2.287 HEAT: -29.56530
 CYCLE:    53 TIME:   0.023 TIME LEFT:  2.00D  GRAD.:     1.404 HEAT: -29.56887
 CYCLE:    54 TIME:   0.023 TIME LEFT:  2.00D  GRAD.:     1.128 HEAT: -29.57453
 CYCLE:    55 TIME:   0.020 TIME LEFT:  2.00D  GRAD.:     1.115 HEAT: -29.57797
 CYCLE:    56 TIME:   0.023 TIME LEFT:  2.00D  GRAD.:     0.978 HEAT: -29.57997
 CYCLE:    57 TIME:   0.023 TIME LEFT:  2.00D  GRAD.:     0.965 HEAT: -29.58300
 CYCLE:    58 TIME:   0.023 TIME LEFT:  2.00D  GRAD.:     0.878 HEAT: -29.58505
 CYCLE:    59 TIME:   0.023 TIME LEFT:  2.00D  GRAD.:     1.059 HEAT: -29.58637
 CYCLE:    60 TIME:   0.023 TIME LEFT:  2.00D  GRAD.:     0.472 HEAT: -29.58715
 CYCLE:    61 TIME:   0.020 TIME LEFT:  2.00D  GRAD.:     0.450 HEAT: -29.58766
 CYCLE:    62 TIME:   0.023 TIME LEFT:  2.00D  GRAD.:     0.455 HEAT: -29.58817
 CYCLE:    63 TIME:   0.023 TIME LEFT:  2.00D  GRAD.:     0.489 HEAT: -29.58881
 CYCLE:    64 TIME:   0.023 TIME LEFT:  2.00D  GRAD.:     0.521 HEAT: -29.58951
 CYCLE:    65 TIME:   0.023 TIME LEFT:  2.00D  GRAD.:     0.559 HEAT: -29.59020
 CYCLE:    66 TIME:   0.023 TIME LEFT:  2.00D  GRAD.:     0.616 HEAT: -29.59110
 CYCLE:    67 TIME:   0.023 TIME LEFT:  2.00D  GRAD.:     0.664 HEAT: -29.59231
 CYCLE:    68 TIME:   0.020 TIME LEFT:  2.00D  GRAD.:     0.609 HEAT: -29.59358
 CYCLE:    69 TIME:   0.023 TIME LEFT:  2.00D  GRAD.:     0.442 HEAT: -29.59463
 CYCLE:    70 TIME:   0.035 TIME LEFT:  2.00D  GRAD.:     0.321 HEAT: -29.59495
 CYCLE:    71 TIME:   0.023 TIME LEFT:  2.00D  GRAD.:     0.210 HEAT: -29.59520
 CYCLE:    72 TIME:   0.023 TIME LEFT:  2.00D  GRAD.:     0.235 HEAT: -29.59527
 CYCLE:    73 TIME:   0.020 TIME LEFT:  2.00D  GRAD.:     0.210 HEAT: -29.59536
 CYCLE:    74 TIME:   0.023 TIME LEFT:  2.00D  GRAD.:     0.201 HEAT: -29.59541
 CYCLE:    75 TIME:   0.023 TIME LEFT:  2.00D  GRAD.:     0.174 HEAT: -29.59551
 CYCLE:    76 TIME:   0.023 TIME LEFT:  2.00D  GRAD.:     0.166 HEAT: -29.59558
 CYCLE:    77 TIME:   0.023 TIME LEFT:  2.00D  GRAD.:     0.230 HEAT: -29.59573
 CYCLE:    78 TIME:   0.023 TIME LEFT:  2.00D  GRAD.:     0.189 HEAT: -29.59579
 CYCLE:    79 TIME:   0.023 TIME LEFT:  2.00D  GRAD.:     0.241 HEAT: -29.59594
 CYCLE:    80 TIME:   0.020 TIME LEFT:  2.00D  GRAD.:     0.163 HEAT: -29.59602
 CYCLE:    81 TIME:   0.027 TIME LEFT:  2.00D  GRAD.:     0.141 HEAT: -29.59606
 CYCLE:    82 TIME:   0.020 TIME LEFT:  2.00D  GRAD.:     0.255 HEAT: -29.59616
 CYCLE:    83 TIME:   0.023 TIME LEFT:  2.00D  GRAD.:     0.227 HEAT: -29.59623
 CYCLE:    84 TIME:   0.023 TIME LEFT:  2.00D  GRAD.:     0.171 HEAT: -29.59636
 CYCLE:    85 TIME:   0.023 TIME LEFT:  2.00D  GRAD.:     0.169 HEAT: -29.59643
 CYCLE:    86 TIME:   0.023 TIME LEFT:  2.00D  GRAD.:     0.126 HEAT: -29.59652
 CYCLE:    87 TIME:   0.020 TIME LEFT:  2.00D  GRAD.:     0.152 HEAT: -29.59654
 CYCLE:    88 TIME:   0.023 TIME LEFT:  2.00D  GRAD.:     0.083 HEAT: -29.59657
 CYCLE:    89 TIME:   0.023 TIME LEFT:  2.00D  GRAD.:     0.085 HEAT: -29.59659
 CYCLE:    90 TIME:   0.023 TIME LEFT:  2.00D  GRAD.:     0.068 HEAT: -29.59660
 CYCLE:    91 TIME:   0.023 TIME LEFT:  2.00D  GRAD.:     0.066 HEAT: -29.59660
 CYCLE:    92 TIME:   0.023 TIME LEFT:  2.00D  GRAD.:     0.069 HEAT: -29.59660
 CYCLE:    93 TIME:   0.020 TIME LEFT:  2.00D  GRAD.:     0.041 HEAT: -29.59661

     GRADIENT =  0.04091  IS LESS THAN CUTOFF =  0.05000



 -------------------------------------------------------------------------------
 pm3  precise nosym THREADS=1
 InChI=1S/C7H12O2/c8-9-7-5-3-1-2-4-6-7/h1,3,7-8H,2,4-6H2



     GEOMETRY OPTIMISED USING EIGENVECTOR FOLLOWING (EF).     
     SCF FIELD WAS ACHIEVED                                   


                              PM3 CALCULATION
                                                       MOPAC2016 (Version: 18.184L)
                                                       Thu Jun 13 16:08:24 2019
                                                       No. of days remaining =  20




          FINAL HEAT OF FORMATION =        -29.59661 KCAL/MOL =    -123.83222 KJ/MOL


          TOTAL ENERGY            =      -1599.60835 EV
          ELECTRONIC ENERGY       =      -7831.44627 EV  POINT GROUP:     C1  
          CORE-CORE REPULSION     =       6231.83792 EV
          COSMO AREA              =        165.32 SQUARE ANGSTROMS
          COSMO VOLUME            =        166.85 CUBIC ANGSTROMS

          GRADIENT NORM           =          0.04091 = 0.00893 PER ATOM
          IONIZATION POTENTIAL    =          9.864870 EV
          HOMO LUMO ENERGIES (EV) =         -9.865  0.992
          NO. OF FILLED LEVELS    =         26
          MOLECULAR WEIGHT        =        128.1706

          MOLECULAR DIMENSIONS (Angstroms)

            Atom       Atom       Distance
            H    21    H    15     7.26359
            H    20    H    13     5.12117
            H    18    H    12     3.29851


          SCF CALCULATIONS        =        103
 
          WALL-CLOCK TIME         =          2.266 SECONDS
          COMPUTATION TIME        =          0.894 SECONDS




   ATOM   CHEMICAL          X               Y               Z
  NUMBER   SYMBOL      (ANGSTROMS)     (ANGSTROMS)     (ANGSTROMS)
 
     1       O          2.46593635  *   0.07328502  *  -0.58764238  *
     2       O          3.31342494  *   0.87510663  *   0.37913154  *
     3       C          1.13842072  *   0.08151454  *  -0.08179012  *
     4       C          0.51180050  *  -1.23218507  *  -0.58089561  *
     5       C         -0.82690144  *  -1.52292771  *   0.07755133  *
     6       C          0.38269512  *   1.32022856  *  -0.59836475  *
     7       C         -1.93806022  *  -0.58200726  *  -0.36945756  *
     8       C         -1.87196437  *   0.74422201  *   0.30131668  *
     9       C         -0.84243148  *   1.58686045  *   0.20057834  *
    10       H          1.15291533  *   0.09168409  *   1.03659587  *
    11       H         -1.11922821  *  -2.56355370  *  -0.16736010  *
    12       H         -0.72587775  *  -1.49164192  *   1.18063104  *
    13       H          1.20276850  *  -2.07474043  *  -0.37325610  *
    14       H          0.39492511  *  -1.20631586  *  -1.68375729  *
    15       H         -2.91910495  *  -1.05116037  *  -0.15981600  *
    16       H         -1.90277778  *  -0.43940580  *  -1.46970298  *
    17       H          1.04856733  *   2.20513979  *  -0.56498540  *
    18       H          0.10907383  *   1.19160842  *  -1.66622239  *
    19       H         -2.74281729  *   1.02309148  *   0.90593989  *
    20       H         -0.87580125  *   2.54980773  *   0.72360371  *
    21       H          4.10466911  *   0.79960680  *  -0.12819584  *

                             CARTESIAN COORDINATES

   1    O        2.465936346     0.073285017    -0.587642383
   2    O        3.313424945     0.875106630     0.379131536
   3    C        1.138420719     0.081514542    -0.081790123
   4    C        0.511800495    -1.232185073    -0.580895613
   5    C       -0.826901437    -1.522927706     0.077551333
   6    C        0.382695115     1.320228562    -0.598364749
   7    C       -1.938060216    -0.582007262    -0.369457563
   8    C       -1.871964369     0.744222014     0.301316678
   9    C       -0.842431477     1.586860445     0.200578340
  10    H        1.152915329     0.091684085     1.036595868
  11    H       -1.119228212    -2.563553701    -0.167360101
  12    H       -0.725877748    -1.491641923     1.180631038
  13    H        1.202768501    -2.074740429    -0.373256096
  14    H        0.394925111    -1.206315861    -1.683757291
  15    H       -2.919104947    -1.051160366    -0.159816001
  16    H       -1.902777781    -0.439405800    -1.469702976
  17    H        1.048567326     2.205139794    -0.564985400
  18    H        0.109073827     1.191608423    -1.666222388
  19    H       -2.742817287     1.023091480     0.905939886
  20    H       -0.875801247     2.549807728     0.723603711
  21    H        4.104669114     0.799606796    -0.128195840


           Empirical Formula: C7 H12 O2  =    21 atoms



      MOLECULAR POINT GROUP   :   C1  


                  EIGENVALUES  
 -40.96516 -35.61127 -33.60205 -32.24877 -29.62550 -24.27877 -22.87872 -20.59551
 -17.96588 -17.80409 -17.34016 -16.89447 -16.18732 -15.05665 -14.77012 -14.49541
 -14.31187 -13.94958 -13.29106 -12.78849 -12.29619 -11.87162 -11.81367 -11.70634
 -11.13162  -9.86487   0.99225   1.12543   3.27090   3.35675   3.53107   3.56287
   3.61980   3.74701   3.79104   3.86386   4.13655   4.27392   4.31164   4.43623
   4.52431   4.60736   4.75026   4.95506   4.96650   5.25340   5.66266   5.88304


              NET ATOMIC CHARGES AND DIPOLE CONTRIBUTIONS

  ATOM NO.   TYPE          CHARGE      No. of ELECS.   s-Pop       p-Pop       
    1          O          -0.154496        6.1545     1.90672     4.24778
    2          O          -0.209479        6.2095     1.86509     4.34439
    3          C           0.070927        3.9291     1.17973     2.74935
    4          C          -0.112890        4.1129     1.16678     2.94611
    5          C          -0.088034        4.0880     1.15931     2.92872
    6          C          -0.093516        4.0935     1.15679     2.93673
    7          C          -0.063187        4.0632     1.14797     2.91521
    8          C          -0.147988        4.1480     1.19621     2.95177
    9          C          -0.140154        4.1402     1.19430     2.94585
   10          H           0.080302        0.9197     0.91970
   11          H           0.048578        0.9514     0.95142
   12          H           0.057127        0.9429     0.94287
   13          H           0.060857        0.9391     0.93914
   14          H           0.060086        0.9399     0.93991
   15          H           0.049699        0.9503     0.95030
   16          H           0.059123        0.9409     0.94088
   17          H           0.067317        0.9327     0.93268
   18          H           0.063670        0.9363     0.93633
   19          H           0.096573        0.9034     0.90343
   20          H           0.097755        0.9022     0.90224
   21          H           0.197729        0.8023     0.80227
 DIPOLE           X         Y         Z       TOTAL
 POINT-CHG.    -0.590    -0.402    -0.079     0.718
 HYBRID         0.288     0.054    -0.217     0.365
 SUM           -0.301    -0.349    -0.296     0.548


          ATOMIC ORBITAL ELECTRON POPULATIONS

     Atom    s        px        py        pz   
    1  O   1.90672   1.20096   1.68694   1.35988
    2  O   1.86509   1.27550   1.71997   1.34892
    3  C   1.17973   0.82144   0.93676   0.99115
    4  C   1.16678   0.97101   0.96817   1.00693
    5  C   1.15931   0.94218   0.98260   1.00394
    6  C   1.15679   0.95926   0.98600   0.99146
    7  C   1.14797   0.97954   0.93881   0.99686
    8  C   1.19621   0.98207   0.96600   1.00371
    9  C   1.19430   0.95898   0.98823   0.99864
   10  H   0.91970
   11  H   0.95142
   12  H   0.94287
   13  H   0.93914
   14  H   0.93991
   15  H   0.95030
   16  H   0.94088
   17  H   0.93268
   18  H   0.93633
   19  H   0.90343
   20  H   0.90224
   21  H   0.80227
 *******************************************************************************
 ** Site#: 14399        For non-commercial use only    Version 18.184L 64BITS **
 *******************************************************************************
 ** Cite this program as: MOPAC2016, Version: 18.184L, James J. P. Stewart,   **
 ** Stewart Computational Chemistry, web: HTTP://OpenMOPAC.net. Days left:  20**
 *******************************************************************************
 **                                                                           **
 **                                MOPAC2016                                  **
 **                                                                           **
 *******************************************************************************

                              PM3 CALCULATION RESULTS

 *******************************************************************************
 *  CALCULATION DONE:                                Thu Jun 13 16:08:24 2019  *
 *  PM3        - The PM3 Hamiltonian to be used
 *  OLDGEO     - PREVIOUS GEOMETRY TO BE USED
 *  PRECISE    - CRITERIA TO BE INCREASED BY 100 TIMES
 *  NOSYM      - POINT-GROUP SYMMETRY SET TO C1
 *  THREADS=1  - MULTI-THREADING NOT USED
 *  T=         - A TIME OF 172800.0 SECONDS REQUESTED
 *  DUMP=N     - RESTART FILE WRITTEN EVERY  7200.000 SECONDS
 *  THERMO     - THERMODYNAMIC QUANTITIES TO BE CALCULATED
 *******************************************************************************
oldgeo thermo nosym precise THREADS=1  pm3
 InChI=1S/C7H12O2/c8-9-7-5-3-1-2-4-6-7/h1,3,7-8H,2,4-6H2

   ATOM   CHEMICAL          X               Y               Z
  NUMBER   SYMBOL      (ANGSTROMS)     (ANGSTROMS)     (ANGSTROMS)
 
     1       O          2.46593635  *   0.07328502  *  -0.58764238  *
     2       O          3.31342494  *   0.87510663  *   0.37913154  *
     3       C          1.13842072  *   0.08151454  *  -0.08179012  *
     4       C          0.51180050  *  -1.23218507  *  -0.58089561  *
     5       C         -0.82690144  *  -1.52292771  *   0.07755133  *
     6       C          0.38269512  *   1.32022856  *  -0.59836475  *
     7       C         -1.93806022  *  -0.58200726  *  -0.36945756  *
     8       C         -1.87196437  *   0.74422201  *   0.30131668  *
     9       C         -0.84243148  *   1.58686045  *   0.20057834  *
    10       H          1.15291533  *   0.09168409  *   1.03659587  *
    11       H         -1.11922821  *  -2.56355370  *  -0.16736010  *
    12       H         -0.72587775  *  -1.49164192  *   1.18063104  *
    13       H          1.20276850  *  -2.07474043  *  -0.37325610  *
    14       H          0.39492511  *  -1.20631586  *  -1.68375729  *
    15       H         -2.91910495  *  -1.05116037  *  -0.15981600  *
    16       H         -1.90277778  *  -0.43940580  *  -1.46970298  *
    17       H          1.04856733  *   2.20513979  *  -0.56498540  *
    18       H          0.10907383  *   1.19160842  *  -1.66622239  *
    19       H         -2.74281729  *   1.02309148  *   0.90593989  *
    20       H         -0.87580125  *   2.54980773  *   0.72360371  *
    21       H          4.10466911  *   0.79960680  *  -0.12819584  *
 


          CARTESIAN COORDINATES 

    NO.       ATOM           X           Y           Z

     1         O          2.4659      0.0733     -0.5876
     2         O          3.3134      0.8751      0.3791
     3         C          1.1384      0.0815     -0.0818
     4         C          0.5118     -1.2322     -0.5809
     5         C         -0.8269     -1.5229      0.0776
     6         C          0.3827      1.3202     -0.5984
     7         C         -1.9381     -0.5820     -0.3695
     8         C         -1.8720      0.7442      0.3013
     9         C         -0.8424      1.5869      0.2006
    10         H          1.1529      0.0917      1.0366
    11         H         -1.1192     -2.5636     -0.1674
    12         H         -0.7259     -1.4916      1.1806
    13         H          1.2028     -2.0747     -0.3733
    14         H          0.3949     -1.2063     -1.6838
    15         H         -2.9191     -1.0512     -0.1598
    16         H         -1.9028     -0.4394     -1.4697
    17         H          1.0486      2.2051     -0.5650
    18         H          0.1091      1.1916     -1.6662
    19         H         -2.7428      1.0231      0.9059
    20         H         -0.8758      2.5498      0.7236
    21         H          4.1047      0.7996     -0.1282

  H: (PM3): J. J. P. STEWART, J. COMP. CHEM. 10, 209 (1989).
  C: (PM3): J. J. P. STEWART, J. COMP. CHEM. 10, 209 (1989).
  O: (PM3): J. J. P. STEWART, J. COMP. CHEM. 10, 209 (1989).

           Empirical Formula: C7 H12 O2  =    21 atoms



      MOLECULAR POINT GROUP   :   C1  


      RHF CALCULATION, NO. OF DOUBLY OCCUPIED LEVELS = 26



          HEAT OF FORMATION =     -29.596611 KCALS/MOLE


          CARTESIAN COORDINATE DERIVATIVES

   NUMBER  ATOM         X            Y            Z

     1       O     -0.006988     0.002114     0.005313
     2       O     -0.004159    -0.009365     0.020492
     3       C      0.001482    -0.000208     0.002711
     4       C     -0.000372    -0.001904     0.001251
     5       C     -0.000269     0.001296    -0.002873
     6       C     -0.001934     0.002560     0.001190
     7       C      0.000437    -0.000070    -0.002738
     8       C     -0.002545     0.002296    -0.007552
     9       C     -0.003491     0.001907    -0.005698
    10       H      0.008348    -0.008670    -0.000891
    11       H      0.002871    -0.006634    -0.001293
    12       H      0.007269    -0.013186     0.004314
    13       H     -0.002110    -0.000421     0.003901
    14       H      0.003632     0.001039    -0.003067
    15       H      0.005525    -0.000093    -0.004276
    16       H     -0.004131     0.003258     0.002114
    17       H     -0.001847     0.002524     0.000035
    18       H     -0.004511     0.006923    -0.001556
    19       H     -0.003021     0.001472    -0.000769
    20       H      0.002392    -0.004077    -0.000860
    21       H      0.003423     0.019239    -0.009748
 


          GRADIENT NORM =   0.04393


          TIME FOR SCF CALCULATION =    0.02

          TIME FOR DERIVATIVES     =    0.01

          MOLECULAR WEIGHT =  128.17



          ROTATIONAL CONSTANTS IN CM(-1)

          A =    0.09881364   B =    0.03699926   C =    0.02942684



           PRINCIPAL MOMENTS OF INERTIA IN UNITS OF 10**(-40)*GRAM-CM**2

          A =      283.2886   B =      756.5766   C =      951.2669


          ORIENTATION OF MOLECULE IN FORCE CALCULATION

    NO.       ATOM         X         Y         Z

     1          O       0.8433   -1.9458    0.2335
     2          O       2.3585   -1.9458    0.2335
     3          C       0.4279   -0.5872    0.2335
     4          C      -0.9362   -0.5858    0.9453
     5          C      -1.4187    0.8181    1.2713
     6          C       0.3311   -0.0632   -1.2116
     7          C      -1.8275    1.6182    0.0414
     8          C      -0.6608    2.1681   -0.6998
     9          C       0.2967    1.4225   -1.2542
    10          H       1.1550    0.0374    0.8100
    11          H      -2.2892    0.7401    1.9528
    12          H      -0.6419    1.3679    1.8389
    13          H      -0.8631   -1.1665    1.8877
    14          H      -1.6916   -1.1131    0.3272
    15          H      -2.4908    2.4492    0.3512
    16          H      -2.4344    0.9893   -0.6431
    17          H       1.1931   -0.4325   -1.8016
    18          H      -0.5713   -0.4702   -1.7133
    19          H      -0.6145    3.2601   -0.7853
    20          H       1.1214    1.9078   -1.7894
    21          H       2.4374   -2.8842    0.1851


    FIRST DERIVATIVES WILL BE USED IN THE CALCULATION OF SECOND DERIVATIVES

          ESTIMATED TIME TO COMPLETE CALCULATION =        8.86 SECONDS

    FOR POINT-GROUP C1   THERE ARE   1 UNIQUE SYMMETRY FUNCTIONS.

 STEP:   1 TIME =     0.04 SECS, INTEGRAL =      0.04 TIME LEFT: 172799.92
 STEP:   2 TIME =     0.05 SECS, INTEGRAL =      0.09 TIME LEFT: 172799.88
 STEP:   3 TIME =     0.05 SECS, INTEGRAL =      0.14 TIME LEFT: 172799.82
 STEP:   4 TIME =     0.05 SECS, INTEGRAL =      0.19 TIME LEFT: 172799.78
 STEP:   5 TIME =     0.04 SECS, INTEGRAL =      0.23 TIME LEFT: 172799.73
 STEP:   6 TIME =     0.05 SECS, INTEGRAL =      0.28 TIME LEFT: 172799.69
 STEP:   7 TIME =     0.05 SECS, INTEGRAL =      0.32 TIME LEFT: 172799.64
 STEP:   8 TIME =     0.04 SECS, INTEGRAL =      0.37 TIME LEFT: 172799.60
 STEP:   9 TIME =     0.04 SECS, INTEGRAL =      0.41 TIME LEFT: 172799.55
 STEP:  10 TIME =     0.04 SECS, INTEGRAL =      0.45 TIME LEFT: 172799.51
 STEP:  11 TIME =     0.04 SECS, INTEGRAL =      0.50 TIME LEFT: 172799.47
 STEP:  12 TIME =     0.05 SECS, INTEGRAL =      0.54 TIME LEFT: 172799.42
 STEP:  13 TIME =     0.05 SECS, INTEGRAL =      0.59 TIME LEFT: 172799.38
 STEP:  14 TIME =     0.04 SECS, INTEGRAL =      0.63 TIME LEFT: 172799.33
 STEP:  15 TIME =     0.04 SECS, INTEGRAL =      0.68 TIME LEFT: 172799.29
 STEP:  16 TIME =     0.05 SECS, INTEGRAL =      0.72 TIME LEFT: 172799.24
 STEP:  17 TIME =     0.04 SECS, INTEGRAL =      0.77 TIME LEFT: 172799.20
 STEP:  18 TIME =     0.04 SECS, INTEGRAL =      0.81 TIME LEFT: 172799.16
 STEP:  19 TIME =     0.05 SECS, INTEGRAL =      0.86 TIME LEFT: 172799.11
 STEP:  20 TIME =     0.05 SECS, INTEGRAL =      0.90 TIME LEFT: 172799.06
 STEP:  21 TIME =     0.04 SECS, INTEGRAL =      0.95 TIME LEFT: 172799.02
 STEP:  22 TIME =     0.05 SECS, INTEGRAL =      0.99 TIME LEFT: 172798.97
 STEP:  23 TIME =     0.05 SECS, INTEGRAL =      1.04 TIME LEFT: 172798.93
 STEP:  24 TIME =     0.05 SECS, INTEGRAL =      1.09 TIME LEFT: 172798.88
 STEP:  25 TIME =     0.04 SECS, INTEGRAL =      1.13 TIME LEFT: 172798.84
 STEP:  26 TIME =     0.04 SECS, INTEGRAL =      1.17 TIME LEFT: 172798.79
 STEP:  27 TIME =     0.04 SECS, INTEGRAL =      1.21 TIME LEFT: 172798.75
 STEP:  28 TIME =     0.04 SECS, INTEGRAL =      1.26 TIME LEFT: 172798.71
 STEP:  29 TIME =     0.05 SECS, INTEGRAL =      1.30 TIME LEFT: 172798.66
 STEP:  30 TIME =     0.05 SECS, INTEGRAL =      1.35 TIME LEFT: 172798.61
 STEP:  31 TIME =     0.04 SECS, INTEGRAL =      1.39 TIME LEFT: 172798.57
 STEP:  32 TIME =     0.05 SECS, INTEGRAL =      1.44 TIME LEFT: 172798.52
 STEP:  33 TIME =     0.04 SECS, INTEGRAL =      1.48 TIME LEFT: 172798.48
 STEP:  34 TIME =     0.04 SECS, INTEGRAL =      1.53 TIME LEFT: 172798.44
 STEP:  35 TIME =     0.04 SECS, INTEGRAL =      1.57 TIME LEFT: 172798.39
 STEP:  36 TIME =     0.05 SECS, INTEGRAL =      1.62 TIME LEFT: 172798.35
 STEP:  37 TIME =     0.05 SECS, INTEGRAL =      1.66 TIME LEFT: 172798.30
 STEP:  38 TIME =     0.05 SECS, INTEGRAL =      1.71 TIME LEFT: 172798.25
 STEP:  39 TIME =     0.04 SECS, INTEGRAL =      1.75 TIME LEFT: 172798.21
 STEP:  40 TIME =     0.04 SECS, INTEGRAL =      1.80 TIME LEFT: 172798.17
 STEP:  41 TIME =     0.04 SECS, INTEGRAL =      1.84 TIME LEFT: 172798.12
 STEP:  42 TIME =     0.04 SECS, INTEGRAL =      1.88 TIME LEFT: 172798.08
 STEP:  43 TIME =     0.05 SECS, INTEGRAL =      1.93 TIME LEFT: 172798.04
 STEP:  44 TIME =     0.04 SECS, INTEGRAL =      1.97 TIME LEFT: 172797.99
 STEP:  45 TIME =     0.04 SECS, INTEGRAL =      2.02 TIME LEFT: 172797.95
 STEP:  46 TIME =     0.04 SECS, INTEGRAL =      2.06 TIME LEFT: 172797.91
 STEP:  47 TIME =     0.05 SECS, INTEGRAL =      2.11 TIME LEFT: 172797.86
 STEP:  48 TIME =     0.05 SECS, INTEGRAL =      2.15 TIME LEFT: 172797.81
 STEP:  49 TIME =     0.05 SECS, INTEGRAL =      2.20 TIME LEFT: 172797.77
 STEP:  50 TIME =     0.05 SECS, INTEGRAL =      2.25 TIME LEFT: 172797.72
 STEP:  51 TIME =     0.04 SECS, INTEGRAL =      2.29 TIME LEFT: 172797.68
 STEP:  52 TIME =     0.04 SECS, INTEGRAL =      2.33 TIME LEFT: 172797.63
 STEP:  53 TIME =     0.04 SECS, INTEGRAL =      2.38 TIME LEFT: 172797.59
 STEP:  54 TIME =     0.04 SECS, INTEGRAL =      2.42 TIME LEFT: 172797.55
 STEP:  55 TIME =     0.05 SECS, INTEGRAL =      2.46 TIME LEFT: 172797.50
 STEP:  56 TIME =     0.04 SECS, INTEGRAL =      2.51 TIME LEFT: 172797.46
 STEP:  57 TIME =     0.04 SECS, INTEGRAL =      2.55 TIME LEFT: 172797.41
 STEP:  58 TIME =     0.05 SECS, INTEGRAL =      2.60 TIME LEFT: 172797.37
 STEP:  59 TIME =     0.05 SECS, INTEGRAL =      2.64 TIME LEFT: 172797.32
 STEP:  60 TIME =     0.04 SECS, INTEGRAL =      2.69 TIME LEFT: 172797.28
 STEP:  61 TIME =     0.04 SECS, INTEGRAL =      2.73 TIME LEFT: 172797.23
 STEP:  62 TIME =     0.05 SECS, INTEGRAL =      2.78 TIME LEFT: 172797.19
 STEP:  63 TIME =     0.04 SECS, INTEGRAL =      2.82 TIME LEFT: 172797.14

(To convert to Hartree/Bohr^2, multiply by (10^(-21) x N x a0^2)/(4.184 x 627.51) =  0.0642)


           FORCE MATRIX IN MILLIDYNES/ANGSTROM


                  O  1       O  2       C  3       C  4       C  5       C  6
 ------------------------------------------------------------------------------
     O    1   7.849804
     O    2   2.582959  10.118331
     C    3   4.731132   0.981512  14.119137
     C    4   0.869726   0.110939   3.605432  14.131179
     C    5   0.059657   0.019260   0.597753   4.177988  14.247999
     C    6   0.864225   0.054081   3.506221   0.567095   0.035748  14.527360
     C    7   0.005499   0.001744   0.039532   0.614030   4.065688   0.112360
     C    8   0.007261   0.003579   0.042006   0.026175   0.663326   0.792930
     C    9   0.068268   0.002975   0.639654   0.025323   0.041093   4.996944
     H   10   0.437589   0.083567   4.157341   0.421288   0.029920   0.423859
     H   11   0.010351   0.004063   0.050825   0.427932   4.459167   0.003518
     H   12   0.003464   0.001411   0.029268   0.445262   4.459924   0.002890
     H   13   0.098408   0.003873   0.454108   4.445916   0.429367   0.046748
     H   14   0.050983   0.002683   0.457382   4.425377   0.446555   0.027160
     H   15   0.000901   0.000844   0.003787   0.048424   0.431688   0.003070
     H   16   0.001192   0.000705   0.007238   0.033752   0.453873   0.023253
     H   17   0.075397   0.014522   0.455083   0.045506   0.002052   4.489175
     H   18   0.022621   0.001903   0.463934   0.034772   0.006306   4.389543
     H   19   0.003560   0.000896   0.013652   0.001008   0.026555   0.124505
     H   20   0.005958   0.001005   0.024685   0.000894   0.015154   0.434668
     H   21   1.074390   8.653830   0.144184   0.019949   0.003632   0.006355


                  C  7       C  8       C  9       H 10       H 11       H 12
 ------------------------------------------------------------------------------
     C    7  14.600767
     C    8   4.967760  18.064156
     C    9   0.791052  10.650224  18.079620
     H   10   0.003426   0.005307   0.038323   4.564052
     H   11   0.432013   0.047303   0.003598   0.002152   5.052317
     H   12   0.443361   0.029461   0.005192   0.027074   0.567555   5.076522
     H   13   0.049700   0.002677   0.002330   0.019901   0.039708   0.025332
     H   14   0.027321   0.002501   0.002429   0.041022   0.026403   0.045351
     H   15   4.485790   0.437456   0.051003   0.000385   0.037160   0.018783
     H   16   4.378977   0.424362   0.027793   0.000865   0.017910   0.043902
     H   17   0.002670   0.050448   0.436151   0.014245   0.000309   0.000262
     H   18   0.023405   0.027775   0.426294   0.040728   0.000555   0.000821
     H   19   0.432991   4.814031   0.439979   0.000623   0.003910   0.002835
     H   20   0.123852   0.440157   4.812440   0.002324   0.002338   0.000779
     H   21   0.000714   0.001885   0.001849   0.008526   0.000766   0.000358


                  H 13       H 14       H 15       H 16       H 17       H 18
 ------------------------------------------------------------------------------
     H   13   5.063276
     H   14   0.563412   5.055420
     H   15   0.007750   0.002608   5.060698
     H   16   0.002669   0.029391   0.566618   4.988081
     H   17   0.007816   0.002472   0.000414   0.000660   5.079476
     H   18   0.002690   0.029736   0.000793   0.014684   0.565220   5.003933
     H   19   0.000475   0.000415   0.032882   0.024523   0.006092   0.012574
     H   20   0.000415   0.000475   0.006251   0.012697   0.033249   0.024808
     H   21   0.001485   0.000863   0.000295   0.000245   0.002150   0.000720


                  H 19       H 20       H 21
 ------------------------------------------
     H   19   5.168604
     H   20   0.074646   5.166729
     H   21   0.000666   0.000553   8.993159


          HEAT OF FORMATION =     -29.596611 KCALS/MOLE

          ZERO POINT ENERGY     112.400 KCAL/MOL


           NORMAL COORDINATE ANALYSIS (Total motion = 1 Angstrom)


   Root No.       1         2         3         4         5         6         7         8

                 1 A       2 A       3 A       4 A       5 A       6 A       7 A       8 A   

                  55.4     103.4     153.4     165.6     255.4     299.3     318.1     370.9
  
           1    0.0016    0.0104    0.0006   -0.0014   -0.0127    0.0273   -0.0006   -0.0001
           2   -0.0056    0.0025   -0.0011    0.0013   -0.0211   -0.0189    0.0169   -0.0121
           3   -0.0711    0.0197    0.0176   -0.0078   -0.0211    0.0041    0.0458   -0.0088
           4    0.0011    0.0120    0.0004   -0.0014   -0.0112    0.0361   -0.0027    0.0028
           5   -0.0012    0.0513   -0.0111   -0.0044    0.0460   -0.0227   -0.0148    0.0103
           6    0.1166   -0.0077   -0.0058   -0.0310   -0.0042    0.0002    0.0047   -0.0014
           7   -0.0006   -0.0237    0.0044    0.0018   -0.0235    0.0093   -0.0006    0.0081
           8   -0.0063   -0.0094    0.0005    0.0025   -0.0254   -0.0224    0.0128   -0.0078
           9   -0.0406   -0.0075    0.0043   -0.0082    0.0077    0.0079   -0.0224   -0.0243
          10    0.0135   -0.0296   -0.0139    0.0100   -0.0225   -0.0061   -0.0057    0.0141
          11   -0.0059   -0.0159   -0.0030    0.0007   -0.0065   -0.0006    0.0010    0.0433
          12   -0.0140   -0.0199   -0.0314    0.0087    0.0046   -0.0185   -0.0307   -0.0096
          13    0.0313   -0.0099    0.0116   -0.0031    0.0450    0.0102    0.0309   -0.0169
          14   -0.0062   -0.0139   -0.0038   -0.0014    0.0186    0.0128    0.0030    0.0329
          15    0.0135    0.0037    0.0069   -0.0021    0.0029   -0.0309    0.0026    0.0046
          16   -0.0267   -0.0283    0.0370   -0.0121    0.0124   -0.0388   -0.0146    0.0261
          17    0.0048   -0.0260    0.0025    0.0057    0.0005   -0.0022    0.0041   -0.0302
          18   -0.0352   -0.0135    0.0040   -0.0057    0.0159    0.0200   -0.0282   -0.0296
          19    0.0080    0.0241   -0.0038   -0.0012    0.0008   -0.0226   -0.0057   -0.0409
          20    0.0098    0.0249    0.0199   -0.0108   -0.0191    0.0344   -0.0296    0.0166
          21    0.0319    0.0178    0.0286   -0.0091   -0.0092   -0.0094   -0.0061    0.0052
          22   -0.0071    0.0367   -0.0211    0.0042   -0.0091   -0.0200    0.0007   -0.0040
          23    0.0060   -0.0047   -0.0038    0.0045   -0.0043    0.0222    0.0000   -0.0323
          24    0.0055    0.0149   -0.0147    0.0102   -0.0139   -0.0132    0.0250    0.0299
          25   -0.0249    0.0061   -0.0176    0.0048    0.0147   -0.0054   -0.0025   -0.0018
          26    0.0052   -0.0252    0.0004    0.0071    0.0005    0.0015    0.0092   -0.0311
          27   -0.0242   -0.0107   -0.0139    0.0075    0.0209    0.0390    0.0046    0.0314
          28    0.0097   -0.0393   -0.0080    0.0086   -0.0239    0.0098   -0.0074    0.0213
          29   -0.0088    0.0130   -0.0021    0.0022   -0.0403   -0.0237    0.0335   -0.0089
          30   -0.0503   -0.0112    0.0224   -0.0164    0.0274    0.0071   -0.0364   -0.0379
          31    0.0469   -0.0230    0.0241   -0.0063    0.0884    0.0304    0.0667   -0.0074
          32   -0.0072   -0.0135   -0.0039   -0.0051    0.0749    0.0238    0.0262    0.0063
          33    0.0333   -0.0129    0.0229   -0.0068    0.0634   -0.0041    0.0494    0.0137
          34    0.0486   -0.0094    0.0298   -0.0106    0.1014    0.0327    0.0684   -0.0266
          35   -0.0180   -0.0416   -0.0237    0.0076    0.0118    0.0077   -0.0002    0.0547
          36    0.0012    0.0298    0.0012   -0.0006   -0.0667   -0.0555   -0.0450   -0.0032
          37    0.0288   -0.0468   -0.0522    0.0269   -0.0398   -0.0384   -0.0277    0.0249
          38   -0.0189   -0.0365   -0.0402    0.0139   -0.0161    0.0011   -0.0329    0.0506
          39   -0.0233   -0.0314   -0.0513    0.0156   -0.0007   -0.0157   -0.0500   -0.0059
          40   -0.0027   -0.0303   -0.0084    0.0081   -0.0409   -0.0025   -0.0104    0.0058
          41    0.0074    0.0070    0.0360   -0.0151    0.0237    0.0114    0.0351    0.0410
          42   -0.0054   -0.0383   -0.0715    0.0244    0.0022   -0.0331   -0.0550    0.0024
          43    0.0243    0.0585    0.0321   -0.0195   -0.0233    0.0007   -0.0504   -0.0211
          44    0.0134    0.0458    0.0365   -0.0211   -0.0332    0.0407   -0.0566    0.0369
          45    0.0573    0.0359    0.0618   -0.0211   -0.0247    0.0243   -0.0324   -0.0067
          46   -0.0161   -0.0040   -0.0471    0.0191    0.0167   -0.0510    0.0356   -0.0555
          47    0.0225    0.0609    0.0453   -0.0226   -0.0513    0.0568   -0.0656    0.0199
          48    0.0417    0.0097    0.0438   -0.0163    0.0063   -0.0035   -0.0103    0.0167
          49   -0.0384   -0.0440    0.0735   -0.0255    0.0281   -0.0816   -0.0260    0.0552
          50    0.0069   -0.0484    0.0330   -0.0029    0.0075   -0.0180    0.0003    0.0045
          51   -0.0535   -0.0221    0.0377   -0.0198    0.0335   -0.0313   -0.0408   -0.0096
          52   -0.0370   -0.0433    0.0711   -0.0244    0.0254   -0.0760   -0.0245    0.0532
          53    0.0106   -0.0080   -0.0314    0.0183    0.0070    0.0311    0.0162   -0.0511
          54   -0.0214   -0.0010   -0.0298    0.0061   -0.0127    0.0580   -0.0196   -0.0582
          55   -0.0032    0.0689   -0.0380    0.0075   -0.0282   -0.0135    0.0140    0.0485
          56    0.0063   -0.0051   -0.0058    0.0057   -0.0050    0.0201    0.0035   -0.0307
          57    0.0103    0.0268   -0.0562    0.0302   -0.0298   -0.0352    0.0811    0.0704
          58   -0.0376    0.0097   -0.0454    0.0145    0.0268    0.0302    0.0103    0.0223
          59    0.0061   -0.0431    0.0139    0.0060    0.0027   -0.0138    0.0177   -0.0056
          60   -0.0430   -0.0212   -0.0458    0.0218    0.0416    0.0801    0.0327    0.0902
          61    0.0119    0.0412   -0.0077   -0.0079    0.0357    0.0272   -0.0260    0.0190
          62    0.0013    0.0521   -0.0156   -0.0364    0.0493   -0.0234   -0.0159    0.0119
          63    0.0838    0.0283    0.0694    0.5838    0.0164    0.0014   -0.0182   -0.0005


   Root No.       9        10        11        12        13        14        15        16

                 9 A      10 A      11 A      12 A      13 A      14 A      15 A      16 A   

                 433.9     454.0     508.0     540.0     651.2     757.0     792.7     858.3
  
           1    0.0156    0.0020    0.0105    0.0013    0.0029    0.0000    0.1555   -0.0185
           2    0.0045    0.0388    0.0047    0.0373    0.0202   -0.0093   -0.0157   -0.0028
           3   -0.0283   -0.0291    0.0108   -0.0119   -0.0066    0.0008   -0.0035    0.0001
           4    0.0331    0.0006    0.0461   -0.0019   -0.0054    0.0004   -0.1204    0.0094
           5   -0.0191   -0.0100   -0.0246   -0.0083   -0.0024    0.0006   -0.0116    0.0035
           6   -0.0026   -0.0015    0.0004   -0.0005   -0.0002   -0.0000   -0.0013    0.0001
           7   -0.0089    0.0071   -0.0517   -0.0110   -0.0050    0.0022    0.0061    0.0234
           8    0.0002    0.0336   -0.0143    0.0222    0.0093   -0.0020   -0.0089    0.0046
           9    0.0234    0.0150   -0.0339    0.0100   -0.0062    0.0137   -0.0035    0.0031
          10   -0.0310   -0.0124   -0.0345   -0.0092    0.0045    0.0038   -0.0256   -0.0113
          11    0.0136    0.0112   -0.0061   -0.0293   -0.0052   -0.0032   -0.0230   -0.0159
          12   -0.0003   -0.0129    0.0310    0.0169   -0.0021    0.0136    0.0143   -0.0015
          13   -0.0093   -0.0060   -0.0144    0.0147    0.0104    0.0067   -0.0273   -0.0257
          14    0.0253    0.0028    0.0097   -0.0134   -0.0045   -0.0014    0.0199   -0.0074
          15    0.0123    0.0278    0.0244   -0.0337    0.0057    0.0107    0.0281    0.0185
          16   -0.0007   -0.0094    0.0071    0.0059   -0.0071   -0.0090    0.0087    0.0270
          17   -0.0057   -0.0071    0.0127   -0.0081   -0.0292    0.0071   -0.0001   -0.0074
          18    0.0180    0.0076   -0.0337    0.0010   -0.0062   -0.0030   -0.0159   -0.0135
          19    0.0002    0.0012    0.0064   -0.0162    0.0296    0.0047   -0.0133   -0.0082
          20   -0.0068   -0.0164    0.0004    0.0116    0.0062   -0.0059    0.0216    0.0252
          21   -0.0108    0.0105    0.0088   -0.0065   -0.0008   -0.0069    0.0022    0.0119
          22    0.0162   -0.0057   -0.0074    0.0059   -0.0073   -0.0138    0.0016   -0.0010
          23    0.0060   -0.0412   -0.0038   -0.0100    0.0426    0.0051    0.0055    0.0154
          24    0.0263   -0.0251   -0.0209    0.0121   -0.0154   -0.0314   -0.0074   -0.0131
          25   -0.0253    0.0369    0.0242   -0.0043   -0.0311   -0.0122    0.0082   -0.0048
          26   -0.0093   -0.0155    0.0184   -0.0137   -0.0275    0.0103    0.0097   -0.0024
          27   -0.0241    0.0150    0.0033    0.0018    0.0405   -0.0329   -0.0102   -0.0124
          28   -0.0192   -0.0011   -0.0686   -0.0288   -0.0109    0.0079   -0.0687    0.0283
          29   -0.0074    0.0357    0.0093    0.0384    0.0322   -0.0094    0.0773   -0.0188
          30    0.0417    0.0207   -0.0375    0.0155   -0.0221    0.0129   -0.0021    0.0204
          31   -0.0034   -0.0083   -0.0209    0.0580   -0.0265   -0.0212    0.0045    0.0288
          32    0.0484    0.0002    0.0356    0.0363   -0.0229   -0.0131    0.0832    0.0469
          33    0.0214    0.0245    0.0197    0.0252   -0.0425   -0.0249    0.0737    0.0913
          34    0.0029   -0.0078   -0.0082    0.0691   -0.0194   -0.0224    0.0194    0.0523
          35    0.0235   -0.0017    0.0000   -0.0188   -0.0203    0.0025    0.0052   -0.0524
          36   -0.0032    0.0333    0.0249   -0.0975    0.0589    0.0442   -0.0207   -0.0422
          37   -0.0722   -0.0531    0.0292    0.0292    0.0071   -0.0418   -0.0074    0.0223
          38   -0.0146   -0.0450    0.0270    0.0178   -0.0177   -0.0451   -0.0275    0.0032
          39   -0.0164   -0.0457    0.0469    0.0438   -0.0098   -0.0096    0.0076    0.0088
          40   -0.0293   -0.0013   -0.0694   -0.0053    0.0033    0.0083   -0.0319    0.0104
          41    0.0502    0.0554   -0.0263   -0.0767    0.0013    0.0400   -0.0237   -0.0656
          42   -0.0342   -0.0667    0.0952    0.0565   -0.0070   -0.0312    0.0281    0.0173
          43   -0.0514    0.0260    0.0174    0.0319   -0.0383    0.0441   -0.0480   -0.0822
          44   -0.0283    0.0070    0.0126    0.0324   -0.0417    0.0158    0.0195   -0.0112
          45   -0.0667    0.0014    0.0007    0.0432   -0.0234    0.0219   -0.0684   -0.0550
          46    0.0599   -0.0290   -0.0062   -0.0623    0.0972   -0.0489    0.0284    0.0719
          47   -0.0470   -0.0202   -0.0064    0.0600   -0.0401    0.0043   -0.0234   -0.0349
          48   -0.0286    0.0404    0.0264   -0.0063   -0.0212    0.0339    0.0057   -0.0061
          49    0.0224   -0.0548    0.0381    0.0339    0.0548    0.0225   -0.0059   -0.0369
          50    0.0068   -0.0573    0.0210    0.0034    0.0383    0.0305   -0.0007   -0.0433
          51    0.0422   -0.0267    0.0060    0.0328    0.0377    0.0278   -0.0359   -0.0827
          52    0.0220   -0.0505    0.0299    0.0306    0.0538    0.0223   -0.0026   -0.0252
          53   -0.0431    0.0276    0.0402   -0.0377   -0.0931   -0.0431    0.0135   -0.0024
          54    0.0071    0.0504   -0.0927   -0.0168   -0.0599   -0.0143   -0.0053    0.0722
          55    0.0462   -0.0335   -0.0403    0.0509   -0.0084    0.1033    0.0130    0.0388
          56    0.0077   -0.0430   -0.0044   -0.0083    0.0369    0.0173    0.0057    0.0147
          57    0.0702   -0.0657   -0.0523    0.0573   -0.0793    0.1838   -0.0073   -0.0050
          58   -0.0561    0.0671    0.0388    0.0091    0.0178    0.1173    0.0167    0.0383
          59   -0.0194   -0.0148    0.0337   -0.0104   -0.0527    0.0163    0.0183    0.0057
          60   -0.0810    0.0636    0.0396    0.0250    0.0919    0.1715    0.0096    0.0600
          61    0.0043   -0.0354   -0.0014   -0.0381   -0.0215    0.0101    0.0205    0.0057
          62   -0.0218   -0.0137   -0.0280   -0.0120   -0.0043    0.0015   -0.0096    0.0046
          63    0.0046    0.0038   -0.0047    0.0011   -0.0004    0.0013    0.0004    0.0001


   Root No.      17        18        19        20        21        22        23        24

                17 A      18 A      19 A      20 A      21 A      22 A      23 A      24 A   

                 876.9     912.9     928.7     962.8     987.1    1026.7    1054.9    1071.7
  
           1   -0.0067   -0.0013   -0.0039    0.0006   -0.0038    0.0042    0.0054    0.0025
           2   -0.0020    0.0111    0.0049   -0.0054   -0.0004   -0.0052    0.0049    0.0119
           3    0.0003   -0.0015    0.0010   -0.0005    0.0014   -0.0044    0.0016    0.0026
           4    0.0024   -0.0015    0.0024   -0.0002    0.0003   -0.0008   -0.0019   -0.0029
           5    0.0018    0.0004   -0.0006    0.0001    0.0015   -0.0006   -0.0006    0.0009
           6    0.0002   -0.0001    0.0001   -0.0000    0.0002   -0.0004    0.0001    0.0003
           7    0.0123    0.0032   -0.0167    0.0045    0.0187   -0.0020   -0.0111    0.0134
           8   -0.0001   -0.0092   -0.0031    0.0006    0.0010    0.0041   -0.0051   -0.0130
           9    0.0039    0.0060   -0.0017    0.0207    0.0008    0.0215   -0.0123   -0.0022
          10    0.0123   -0.0106    0.0236   -0.0039   -0.0075   -0.0055    0.0085   -0.0133
          11   -0.0125   -0.0157   -0.0223   -0.0017   -0.0126    0.0209    0.0135    0.0073
          12    0.0438    0.0290    0.0063    0.0061    0.0017    0.0040    0.0063    0.0052
          13   -0.0193    0.0305    0.0199    0.0120   -0.0035   -0.0063   -0.0099    0.0023
          14   -0.0086    0.0114    0.0010    0.0071    0.0097   -0.0080   -0.0103   -0.0078
          15    0.0105   -0.0148    0.0036   -0.0253   -0.0046   -0.0186   -0.0066   -0.0028
          16   -0.0080    0.0393   -0.0113   -0.0151   -0.0166   -0.0037    0.0097   -0.0137
          17   -0.0033   -0.0084    0.0054    0.0068    0.0125   -0.0190    0.0214    0.0117
          18   -0.0226   -0.0270    0.0106   -0.0165   -0.0040   -0.0183    0.0217   -0.0072
          19   -0.0092    0.0011   -0.0367    0.0012    0.0142    0.0022    0.0255   -0.0041
          20   -0.0011    0.0063    0.0412    0.0137    0.0077   -0.0031    0.0074    0.0038
          21   -0.0170   -0.0057    0.0070    0.0186    0.0014    0.0252    0.0076    0.0090
          22    0.0106   -0.0146    0.0015    0.0115   -0.0106   -0.0089   -0.0176   -0.0004
          23    0.0118    0.0003   -0.0118   -0.0265   -0.0210    0.0117   -0.0310   -0.0125
          24    0.0054    0.0047   -0.0101    0.0386   -0.0050   -0.0161   -0.0055   -0.0144
          25    0.0047   -0.0106    0.0214   -0.0067    0.0014    0.0199   -0.0261    0.0166
          26    0.0029   -0.0037    0.0006    0.0084   -0.0032    0.0096   -0.0235   -0.0011
          27    0.0059    0.0123   -0.0058   -0.0367    0.0185    0.0048   -0.0004    0.0061
          28    0.0529   -0.0244   -0.0206    0.0084    0.0597    0.0257    0.0227    0.0324
          29    0.0051   -0.0069    0.0147   -0.0078   -0.0110    0.0222   -0.0159   -0.0797
          30   -0.0548    0.0358   -0.0144    0.0228   -0.0392   -0.0331   -0.0422    0.0413
          31    0.0189   -0.0527    0.0127   -0.0184   -0.0413    0.0022    0.0040    0.0150
          32    0.0433   -0.0100   -0.0947    0.0013    0.1013   -0.0034    0.0319   -0.0551
          33    0.0625   -0.1204   -0.0175   -0.0644   -0.0437   -0.0052    0.0140    0.0103
          34    0.0131   -0.0459   -0.0242   -0.0035    0.0338    0.0182    0.0225   -0.0109
          35    0.0276    0.0184    0.0130   -0.0072   -0.0766   -0.0311   -0.0134    0.0151
          36   -0.0675    0.0776    0.0472    0.0094    0.0274   -0.0272   -0.0452   -0.0072
          37   -0.0972   -0.0798    0.0040   -0.0665   -0.0428   -0.0863   -0.0007   -0.0301
          38   -0.1265   -0.0472   -0.0748    0.0337    0.0176    0.0866   -0.0040    0.0284
          39   -0.0214    0.0140   -0.0236    0.0322    0.0219    0.0495   -0.0051    0.0196
          40    0.0439   -0.0326    0.0243    0.0279    0.0488    0.0621    0.0054   -0.0586
          41    0.0874    0.0480    0.0128   -0.0196   -0.0618   -0.0250    0.0446    0.0370
          42   -0.0851   -0.0007   -0.0278   -0.0182   -0.0242   -0.0399   -0.0166    0.0357
          43    0.0252   -0.0102   -0.1341   -0.0505    0.0322   -0.0627   -0.0024   -0.0528
          44    0.0160   -0.0078   -0.0046   -0.0152    0.0559   -0.0830   -0.0239   -0.0567
          45    0.0130    0.0111   -0.0827   -0.0145   -0.0909    0.1022    0.0247    0.0655
          46   -0.0288   -0.0013    0.0457    0.0642    0.0048    0.0330    0.1242    0.0457
          47    0.0623   -0.0000   -0.0509   -0.0134   -0.0580   -0.0196    0.0749    0.0309
          48   -0.0549    0.0009    0.0145   -0.0154    0.0680    0.0119   -0.1420   -0.0601
          49    0.0169   -0.0534    0.0195    0.0097    0.0148    0.0073   -0.0017    0.0030
          50    0.0221   -0.0637   -0.0213    0.0282    0.0825   -0.0947   -0.0075    0.1521
          51   -0.0036   -0.1241    0.0706    0.0073   -0.0011    0.0418    0.0260   -0.0686
          52    0.0178   -0.0417    0.0084    0.0119    0.0108    0.0086   -0.0264    0.0135
          53   -0.0093    0.0580    0.0435   -0.0411    0.0013    0.0330    0.1765   -0.0984
          54   -0.0608    0.0590   -0.0537   -0.0239   -0.0412   -0.0804   -0.0394    0.0336
          55   -0.0280    0.0057    0.0708   -0.1212    0.0308   -0.0116    0.0774    0.0558
          56    0.0083    0.0024   -0.0141   -0.0352   -0.0197    0.0194   -0.0359   -0.0147
          57   -0.0647    0.0368    0.0033   -0.1402    0.0374    0.0784    0.0065    0.0061
          58   -0.0116   -0.0655    0.0057    0.0834   -0.0534   -0.0091   -0.0214   -0.0020
          59   -0.0038    0.0536   -0.0220    0.0596    0.0191   -0.0035    0.0362   -0.0231
          60   -0.0262   -0.0191   -0.0521    0.1484   -0.0449   -0.0523    0.0645   -0.0457
          61    0.0055   -0.0121   -0.0097    0.0082    0.0051    0.0084   -0.0074   -0.0131
          62    0.0027   -0.0006   -0.0016    0.0010    0.0024    0.0001   -0.0017   -0.0004
          63   -0.0001    0.0001   -0.0000    0.0005    0.0003   -0.0000   -0.0002    0.0005


   Root No.      25        26        27        28        29        30        31        32

                25 A      26 A      27 A      28 A      29 A      30 A      31 A      32 A   

                1084.4    1094.0    1119.4    1123.6    1141.3    1153.8    1168.7    1183.6
  
           1    0.0011   -0.0051    0.0007   -0.0061   -0.0025   -0.0047    0.0005    0.0028
           2    0.0024   -0.0236    0.0232   -0.0223    0.0030    0.0039    0.0081    0.0041
           3    0.0007   -0.0020    0.0011   -0.0015    0.0028   -0.0010   -0.0003    0.0008
           4   -0.0002    0.0046   -0.0020    0.0038    0.0002   -0.0005    0.0003   -0.0007
           5   -0.0004   -0.0013    0.0010   -0.0011    0.0007    0.0017   -0.0004    0.0001
           6   -0.0000   -0.0003    0.0002   -0.0002    0.0002    0.0000    0.0000    0.0001
           7   -0.0056   -0.0056   -0.0093    0.0015    0.0064    0.0280   -0.0254   -0.0093
           8   -0.0055    0.0240   -0.0272    0.0190    0.0013   -0.0027   -0.0193   -0.0014
           9    0.0277    0.0190   -0.0190   -0.0046   -0.0055    0.0083   -0.0161   -0.0043
          10    0.0111    0.0088    0.0128   -0.0062    0.0116   -0.0299    0.0171    0.0005
          11    0.0019   -0.0039   -0.0114   -0.0099   -0.0202   -0.0306    0.0019   -0.0034
          12   -0.0083   -0.0067    0.0014    0.0043   -0.0087   -0.0183   -0.0006   -0.0051
          13   -0.0043    0.0013   -0.0186   -0.0043   -0.0062    0.0162    0.0061   -0.0020
          14   -0.0006    0.0018    0.0078    0.0081    0.0233    0.0234    0.0093    0.0067
          15    0.0050    0.0057   -0.0168   -0.0140    0.0020    0.0272    0.0201    0.0045
          16   -0.0054   -0.0139    0.0029    0.0082   -0.0062   -0.0042    0.0100   -0.0069
          17    0.0094   -0.0102   -0.0124    0.0157    0.0029   -0.0046    0.0015   -0.0048
          18   -0.0283   -0.0165    0.0142    0.0069   -0.0043    0.0013    0.0109    0.0022
          19    0.0068    0.0149    0.0239    0.0062   -0.0021   -0.0033   -0.0089   -0.0028
          20   -0.0062    0.0131    0.0059   -0.0063   -0.0030   -0.0032   -0.0032   -0.0080
          21   -0.0020   -0.0025    0.0235    0.0172    0.0094   -0.0099   -0.0115   -0.0045
          22    0.0041   -0.0177   -0.0070    0.0041   -0.0009   -0.0020    0.0003    0.0061
          23    0.0048   -0.0184   -0.0025   -0.0019   -0.0009   -0.0004   -0.0010    0.0037
          24   -0.0031   -0.0080   -0.0042   -0.0028   -0.0003   -0.0008    0.0003   -0.0003
          25   -0.0113    0.0133    0.0041   -0.0046    0.0040   -0.0010    0.0013    0.0035
          26   -0.0116    0.0116    0.0083   -0.0097   -0.0032    0.0001    0.0016    0.0059
          27    0.0077    0.0137   -0.0015    0.0029   -0.0020   -0.0020   -0.0028    0.0007
          28   -0.0664   -0.0951    0.0125   -0.0668   -0.0287    0.0966   -0.0818    0.0433
          29   -0.0565    0.0944   -0.0590    0.1645   -0.0704    0.0095    0.0320   -0.0572
          30    0.1571    0.0607   -0.0167   -0.0684    0.1140   -0.0922   -0.0019   -0.0151
          31    0.0427    0.0111    0.0163   -0.0018   -0.0666    0.0194    0.0028   -0.0146
          32   -0.0780    0.0060   -0.0242    0.0002    0.1744   -0.0651    0.0215    0.0360
          33    0.0557    0.0163    0.0219   -0.0111   -0.0580    0.0238    0.0181   -0.0072
          34   -0.0224   -0.0021   -0.0459   -0.0480   -0.0232   -0.0739    0.0175   -0.0155
          35    0.0694    0.0232    0.1431    0.1180    0.0511    0.1367   -0.0484    0.0308
          36   -0.0363   -0.0080   -0.1112   -0.0602   -0.0009    0.0408    0.0645   -0.0007
          37   -0.0121    0.0677   -0.0316   -0.0333    0.0778   -0.0211   -0.0859    0.0151
          38    0.0402   -0.0372   -0.0221   -0.0112   -0.0692    0.0430    0.0664   -0.0125
          39    0.0186   -0.0304   -0.0032    0.0040   -0.0443    0.0269    0.0461   -0.0120
          40    0.0574   -0.0001    0.0298    0.0178    0.0251   -0.0020    0.1695    0.0350
          41   -0.0445   -0.0043   -0.0021   -0.0217   -0.0360   -0.1193   -0.1004   -0.0384
          42   -0.0247    0.0058   -0.0314   -0.0172   -0.0100    0.0247   -0.1003   -0.0192
          43    0.0426    0.0150    0.0266   -0.0152   -0.0430    0.0193    0.0009   -0.0148
          44    0.0347    0.0211    0.0365   -0.0365   -0.0677    0.0060   -0.0070   -0.0495
          45   -0.0404   -0.0258   -0.0530    0.0518    0.1050    0.0153    0.0214    0.0788
          46   -0.0152    0.0778    0.0460    0.0032    0.0044    0.0110   -0.0037   -0.0279
          47   -0.0270    0.0669   -0.0466   -0.0475    0.0207    0.0778    0.0609   -0.0243
          48    0.0377   -0.1058    0.0526    0.0574   -0.0178   -0.0930   -0.0733    0.0330
          49   -0.0044   -0.0024   -0.0046   -0.0048    0.0049    0.0113   -0.0137    0.0026
          50    0.0351   -0.0032   -0.0214    0.0792   -0.0064   -0.0233    0.0433   -0.0540
          51   -0.0400   -0.0022    0.0076   -0.0489    0.0161    0.0337   -0.0484    0.0477
          52   -0.0072    0.0073    0.0019   -0.0074    0.0036    0.0045   -0.0047   -0.0004
          53    0.0878   -0.0999   -0.0592    0.0066    0.0255    0.0514   -0.0503   -0.0624
          54   -0.0875    0.0166    0.0509    0.0429   -0.0402   -0.0560    0.0753    0.0354
          55    0.0571   -0.0431   -0.0891    0.0817   -0.0294   -0.0306   -0.0113    0.1675
          56   -0.0004   -0.0105    0.0088   -0.0095    0.0011    0.0027   -0.0003   -0.0116
          57   -0.0395    0.0701    0.0817   -0.0401    0.0225    0.0203    0.0058   -0.1095
          58   -0.0220   -0.0723   -0.0081    0.0177    0.0396    0.0002    0.0159   -0.0838
          59    0.0024    0.1218    0.0394   -0.0518   -0.0851    0.0037   -0.0256    0.1940
          60    0.0037   -0.0161    0.0094   -0.0023   -0.0223    0.0040   -0.0059    0.0366
          61   -0.0073    0.0309   -0.0400    0.0350   -0.0061    0.0028   -0.0249   -0.0087
          62   -0.0014    0.0019   -0.0033    0.0029    0.0002    0.0026   -0.0035   -0.0010
          63    0.0010    0.0005   -0.0006   -0.0002    0.0003    0.0000   -0.0005   -0.0002


   Root No.      33        34        35        36        37        38        39        40

                33 A      34 A      35 A      36 A      37 A      38 A      39 A      40 A   

                1229.1    1240.9    1275.7    1315.7    1348.4    1383.2    1385.1    1399.3
  
           1    0.0060   -0.0081    0.0024   -0.0041    0.0018   -0.0009   -0.0007    0.0006
           2   -0.0138    0.0099    0.0093    0.0085    0.0002    0.0053    0.0028    0.0008
           3    0.0025   -0.0013   -0.0025   -0.0005    0.0000   -0.0003    0.0001   -0.0006
           4   -0.0004   -0.0000    0.0003   -0.0004    0.0005   -0.0005   -0.0006    0.0001
           5   -0.0016    0.0020    0.0006    0.0017   -0.0000    0.0014    0.0005    0.0004
           6    0.0002   -0.0001   -0.0002   -0.0001    0.0001   -0.0001   -0.0000   -0.0001
           7   -0.0103    0.0336   -0.0267    0.0213   -0.0224    0.0145    0.0134    0.0020
           8    0.0340   -0.0254   -0.0255   -0.0273   -0.0047   -0.0251   -0.0127   -0.0035
           9   -0.0192   -0.0124    0.0489    0.0013    0.0269    0.0063   -0.0051    0.0004
          10   -0.0093    0.0158    0.0065   -0.0054    0.0341   -0.0198   -0.0292   -0.0027
          11    0.0015   -0.0097    0.0059    0.0002   -0.0209    0.0139    0.0071    0.0215
          12    0.0091   -0.0098   -0.0146    0.0085   -0.0226    0.0077    0.0119   -0.0019
          13    0.0092    0.0003    0.0054   -0.0185   -0.0108    0.0050    0.0118    0.0111
          14   -0.0049   -0.0150   -0.0068    0.0413    0.0001   -0.0068   -0.0330   -0.0253
          15   -0.0027    0.0074    0.0003   -0.0182    0.0052    0.0094    0.0122    0.0196
          16    0.0040   -0.0085    0.0086   -0.0025    0.0045   -0.0030   -0.0014   -0.0003
          17    0.0186   -0.0046   -0.0060    0.0067    0.0358    0.0203    0.0159   -0.0139
          18   -0.0125    0.0021   -0.0111   -0.0056   -0.0269   -0.0305    0.0115   -0.0081
          19    0.0010   -0.0070   -0.0073    0.0100    0.0144    0.0091    0.0122   -0.0262
          20   -0.0067   -0.0085   -0.0131   -0.0040    0.0197   -0.0008    0.0290    0.0177
          21    0.0095    0.0108    0.0183   -0.0067   -0.0269    0.0038   -0.0328   -0.0213
          22   -0.0173   -0.0084   -0.0142   -0.0163   -0.0007    0.0054   -0.0075   -0.0027
          23   -0.0044    0.0033    0.0029   -0.0099   -0.0124    0.0002   -0.0150   -0.0002
          24    0.0062    0.0023    0.0051    0.0103    0.0032   -0.0045    0.0093    0.0046
          25   -0.0047    0.0023    0.0028   -0.0040   -0.0085   -0.0027   -0.0057    0.0032
          26    0.0110    0.0157    0.0221    0.0176   -0.0112   -0.0124    0.0062    0.0040
          27    0.0103   -0.0018   -0.0023    0.0024    0.0097    0.0056    0.0021   -0.0030
          28    0.0462   -0.1041    0.0579   -0.0456    0.0425   -0.0276   -0.0218   -0.0077
          29   -0.0940    0.0851    0.0219    0.0518   -0.0003    0.0377    0.0199    0.0037
          30    0.0411    0.0488   -0.1099    0.0029   -0.0611   -0.0081    0.0045    0.0049
          31   -0.0015   -0.0264   -0.0363    0.0461    0.0310   -0.0370    0.0043   -0.0429
          32   -0.0220    0.0873    0.0575   -0.1040    0.0477   -0.0310    0.0290    0.0202
          33   -0.0200   -0.0122   -0.0492    0.0479    0.0719   -0.0559    0.0125   -0.0500
          34   -0.0087   -0.0153    0.0011    0.0375   -0.0362    0.0371   -0.0371    0.0137
          35    0.0329    0.0232    0.0254   -0.0916    0.0044    0.0117    0.0591    0.0364
          36   -0.0157   -0.0064   -0.0271    0.0347    0.0434   -0.0617   -0.0072   -0.0513
          37   -0.0444   -0.0918    0.1011    0.0327   -0.0645    0.0721    0.1198   -0.0416
          38    0.0062    0.0930   -0.0118   -0.0791    0.0486   -0.0107    0.0647   -0.0385
          39    0.0145    0.0592   -0.0331   -0.0399    0.0288   -0.0164    0.0255   -0.0293
          40    0.0267   -0.0778    0.0048    0.0093   -0.0707    0.0427    0.0536    0.0076
          41   -0.0238    0.0709    0.0077   -0.0299    0.0431   -0.0136    0.0519   -0.0627
          42   -0.0155    0.0399   -0.0129    0.0140    0.0485   -0.0416   -0.1115    0.0463
          43    0.0420    0.0161    0.0309    0.0599   -0.0146   -0.0646   -0.0131    0.1227
          44    0.0480    0.0329    0.0445   -0.0013   -0.0396   -0.0299   -0.0226    0.0675
          45   -0.0554   -0.0509   -0.0562    0.0742    0.0677   -0.0523    0.0451    0.1116
          46    0.0340    0.0074    0.0228    0.0509   -0.0041   -0.0649    0.0027    0.1391
          47    0.0180    0.0226    0.0245   -0.0407   -0.0370    0.0556   -0.0508   -0.1364
          48   -0.0409   -0.0307   -0.0422   -0.0030    0.0423    0.0072    0.0509   -0.0024
          49   -0.0032    0.0090   -0.0273   -0.0062    0.0161    0.0851   -0.0717    0.0561
          50   -0.1122   -0.0616    0.0149   -0.0612   -0.0482   -0.0049   -0.0766    0.0481
          51    0.0538    0.0606   -0.0787    0.0272    0.0467    0.1309   -0.0503    0.0481
          52    0.0090    0.0081    0.0169    0.0155   -0.0153   -0.0721    0.0707   -0.0534
          53   -0.0760   -0.0110   -0.0270   -0.0292   -0.0419    0.0136   -0.0586    0.0447
          54    0.0507   -0.0215   -0.0113   -0.0106    0.0759    0.1206   -0.0776    0.0545
          55    0.0658    0.0768    0.0792    0.0513   -0.0355   -0.0180   -0.0104   -0.0150
          56   -0.0119   -0.0037   -0.0049   -0.0171   -0.0113    0.0019   -0.0165    0.0010
          57   -0.0343   -0.0438   -0.0433   -0.0295    0.0154    0.0091    0.0014    0.0029
          58    0.0395    0.0109    0.0406    0.0260   -0.0015   -0.0088    0.0061    0.0075
          59   -0.1076   -0.0019   -0.0622   -0.0524   -0.0430   -0.0084   -0.0230   -0.0069
          60   -0.0291   -0.0056   -0.0241   -0.0151   -0.0060    0.0011   -0.0042   -0.0074
          61    0.0336   -0.0186   -0.0367   -0.0229   -0.0118   -0.0239   -0.0058   -0.0097
          62    0.0020    0.0004   -0.0042   -0.0007   -0.0017   -0.0015   -0.0001   -0.0009
          63   -0.0004   -0.0001    0.0004   -0.0000   -0.0001    0.0001   -0.0001    0.0000


   Root No.      41        42        43        44        45        46        47        48

                41 A      42 A      43 A      44 A      45 A      46 A      47 A      48 A   

                1405.4    1411.8    1435.7    1482.5    1882.2    2839.3    2940.6    2946.1
  
           1    0.0002   -0.0008   -0.0001   -0.0213   -0.0002    0.0007   -0.0000   -0.0000
           2    0.0004   -0.0018    0.0018    0.0543    0.0007    0.0013   -0.0000   -0.0001
           3   -0.0003    0.0004    0.0010    0.0008   -0.0007    0.0002    0.0000    0.0001
           4   -0.0002   -0.0002   -0.0003   -0.0232   -0.0000    0.0002    0.0000    0.0000
           5    0.0000   -0.0010    0.0005   -0.0383   -0.0000   -0.0008   -0.0000   -0.0000
           6   -0.0000    0.0001    0.0000   -0.0023   -0.0001   -0.0000    0.0000    0.0000
           7    0.0028   -0.0046    0.0056   -0.0078   -0.0009   -0.0457   -0.0005   -0.0010
           8    0.0004    0.0105   -0.0153   -0.0305    0.0010   -0.0383   -0.0002   -0.0007
           9   -0.0017   -0.0003    0.0034    0.0074    0.0021   -0.0353   -0.0003   -0.0007
          10   -0.0145    0.0003   -0.0054    0.0054    0.0001    0.0009   -0.0017    0.0013
          11    0.0007   -0.0416    0.0095    0.0075    0.0001    0.0003   -0.0002   -0.0002
          12    0.0098    0.0003    0.0032   -0.0039   -0.0001    0.0028   -0.0024    0.0022
          13    0.0054   -0.0084    0.0055   -0.0004    0.0025   -0.0005    0.0054   -0.0032
          14   -0.0112    0.0275   -0.0012   -0.0029   -0.0012   -0.0001    0.0024   -0.0014
          15   -0.0350    0.0082   -0.0131    0.0011   -0.0001   -0.0002    0.0004   -0.0001
          16   -0.0004    0.0005   -0.0026    0.0011    0.0089    0.0026   -0.0113   -0.0414
          17   -0.0175   -0.0038    0.0566    0.0015   -0.0357    0.0007   -0.0010   -0.0029
          18   -0.0101   -0.0040   -0.0022   -0.0019   -0.0043   -0.0003   -0.0006   -0.0009
          19   -0.0067   -0.0166   -0.0402    0.0007   -0.0310    0.0000   -0.0025    0.0003
          20   -0.0053   -0.0076   -0.0198    0.0008   -0.0040    0.0000   -0.0321    0.0092
          21    0.0106    0.0044    0.0290   -0.0009    0.0189    0.0000   -0.0235    0.0065
          22   -0.0031    0.0051    0.0348   -0.0009    0.1868    0.0000   -0.0004   -0.0001
          23    0.0040    0.0062    0.0173   -0.0003   -0.1016   -0.0000    0.0017   -0.0006
          24    0.0005   -0.0036   -0.0245    0.0005   -0.1106   -0.0000    0.0002    0.0001
          25    0.0033    0.0027    0.0007    0.0000   -0.1531   -0.0002    0.0004    0.0016
          26    0.0053   -0.0054   -0.0463    0.0010    0.1635    0.0003   -0.0002    0.0005
          27   -0.0020   -0.0009    0.0041   -0.0005    0.0860   -0.0003   -0.0003   -0.0011
          28    0.0041    0.0153   -0.0126   -0.0161    0.0008    0.5454    0.0039    0.0089
          29   -0.0097   -0.0148    0.0264   -0.0051   -0.0033    0.4451    0.0032    0.0072
          30    0.0055    0.0014   -0.0178   -0.0134    0.0035    0.4287    0.0037    0.0096
          31    0.1068   -0.0382    0.0093   -0.0018   -0.0063   -0.0013   -0.0253    0.0175
          32    0.0958   -0.0645    0.0363    0.0119    0.0068   -0.0000   -0.0028    0.0016
          33    0.1329   -0.0500    0.0021    0.0014   -0.0090    0.0009    0.0218   -0.0145
          34   -0.1356    0.0662   -0.0263   -0.0015    0.0002    0.0029   -0.0398    0.0214
          35    0.0136   -0.0356   -0.0081    0.0009   -0.0028    0.0041   -0.0302    0.0158
          36    0.1642   -0.0463    0.0432   -0.0008    0.0035    0.0040   -0.0281    0.0156
          37    0.0749    0.0959    0.0140    0.0084   -0.0001   -0.0032    0.0004   -0.0011
          38    0.0176    0.1305   -0.0282   -0.0157   -0.0003    0.0084   -0.0070    0.0115
          39    0.0067    0.0818   -0.0200   -0.0158   -0.0004   -0.0142    0.0109   -0.0188
          40    0.0278   -0.0078    0.0087    0.0107    0.0000   -0.0149    0.0191   -0.0125
          41    0.0409    0.1483   -0.0176   -0.0168    0.0004   -0.0144    0.0137   -0.0091
          42   -0.0678   -0.1269    0.0069    0.0071   -0.0001   -0.0187    0.0148   -0.0109
          43    0.0289    0.0651    0.0692   -0.0016   -0.0393   -0.0001   -0.1551    0.0467
          44    0.0282    0.0327    0.0674   -0.0010   -0.0166    0.0002    0.1863   -0.0568
          45   -0.0128    0.0492    0.0055   -0.0004    0.0270    0.0001    0.0652   -0.0201
          46    0.0312    0.0629    0.0745   -0.0014    0.0194   -0.0003    0.1926   -0.0513
          47   -0.0179   -0.0447   -0.0341    0.0005   -0.0086   -0.0003    0.1969   -0.0529
          48   -0.0090   -0.0222   -0.0471    0.0011   -0.0126   -0.0003    0.2170   -0.0583
          49    0.0674    0.0240   -0.0632    0.0032    0.0048   -0.0090    0.0512    0.2053
          50    0.0558    0.0254   -0.0921   -0.0056   -0.0501    0.0034   -0.0232   -0.0912
          51    0.0582    0.0182   -0.0124    0.0066    0.0025    0.0052   -0.0380   -0.1501
          52   -0.0649   -0.0263    0.0656   -0.0025   -0.0155   -0.0245    0.0834    0.2905
          53    0.0495    0.0168   -0.0779   -0.0067    0.0190   -0.0132    0.0380    0.1306
          54    0.0691    0.0329   -0.0347    0.0123    0.0071   -0.0088    0.0476    0.1647
          55    0.0109   -0.0067   -0.0596    0.0013   -0.0477    0.0001    0.0007   -0.0001
          56    0.0034    0.0078    0.0270   -0.0005   -0.1183    0.0001   -0.0203    0.0060
          57   -0.0058    0.0036    0.0367   -0.0009    0.0358    0.0000   -0.0007   -0.0004
          58    0.0073   -0.0050   -0.0463    0.0017   -0.0723    0.0015   -0.0051   -0.0181
          59   -0.0026    0.0113    0.0538   -0.0019   -0.0989    0.0010   -0.0017   -0.0076
          60   -0.0045    0.0017    0.0247   -0.0009    0.0503   -0.0010    0.0024    0.0105
          61    0.0007    0.0216   -0.0100    0.7307    0.0011    0.0006    0.0000    0.0001
          62    0.0001    0.0018   -0.0007    0.0584    0.0002   -0.0015   -0.0000   -0.0001
          63    0.0002    0.0001   -0.0001    0.0058   -0.0001   -0.0001   -0.0000   -0.0000


   Root No.      49        50        51        52        53        54        55        56

                49 A      50 A      51 A      52 A      53 A      54 A      55 A      56 A   

                2948.8    2954.8    3022.8    3026.9    3027.7    3033.6    3037.0    3057.0
  
           1    0.0001    0.0001    0.0001    0.0002   -0.0001   -0.0001    0.0000    0.0000
           2   -0.0000    0.0000   -0.0000   -0.0001   -0.0000    0.0000    0.0000   -0.0000
           3   -0.0001   -0.0001    0.0000    0.0000    0.0002    0.0000   -0.0000    0.0000
           4    0.0000   -0.0000   -0.0000   -0.0000    0.0000    0.0000    0.0000   -0.0000
           5   -0.0000   -0.0000   -0.0000   -0.0000   -0.0000   -0.0000    0.0000   -0.0000
           6   -0.0000   -0.0000    0.0000    0.0000    0.0000   -0.0000   -0.0000    0.0000
           7   -0.0011   -0.0001    0.0002    0.0005   -0.0002   -0.0003    0.0000   -0.0000
           8   -0.0006   -0.0004    0.0000    0.0000   -0.0001   -0.0002   -0.0001    0.0002
           9   -0.0008   -0.0004    0.0001    0.0003    0.0007    0.0000   -0.0001    0.0000
          10   -0.0176   -0.0076    0.0025    0.0076   -0.0077   -0.0039    0.0003   -0.0000
          11    0.0003    0.0015    0.0045    0.0127   -0.0126   -0.0074    0.0007    0.0001
          12   -0.0320   -0.0156   -0.0015   -0.0040    0.0034    0.0040   -0.0004   -0.0002
          13    0.0148   -0.0357    0.0019    0.0003   -0.0008   -0.0014    0.0005    0.0004
          14    0.0059   -0.0129    0.0027    0.0019   -0.0029    0.0092   -0.0009   -0.0001
          15   -0.0006    0.0042    0.0055    0.0034   -0.0057    0.0240   -0.0029   -0.0007
          16   -0.0022    0.0007   -0.0018   -0.0023   -0.0028    0.0003    0.0022   -0.0024
          17   -0.0003   -0.0001    0.0037    0.0077    0.0108    0.0003   -0.0026    0.0019
          18   -0.0001   -0.0001    0.0053    0.0107    0.0151    0.0003   -0.0039    0.0025
          19   -0.0004    0.0010    0.0225   -0.0075   -0.0003   -0.0036    0.0037    0.0028
          20    0.0045   -0.0043   -0.0075    0.0021   -0.0003    0.0022   -0.0024   -0.0024
          21    0.0032   -0.0025    0.0038   -0.0013   -0.0004    0.0005   -0.0002   -0.0007
          22    0.0000    0.0000    0.0002   -0.0001   -0.0001   -0.0001   -0.0013    0.0024
          23   -0.0003    0.0003    0.0038   -0.0024   -0.0011   -0.0039   -0.0270   -0.0362
          24    0.0001   -0.0003   -0.0003    0.0002    0.0001    0.0003    0.0023    0.0005
          25    0.0001   -0.0000    0.0004    0.0026    0.0031    0.0019    0.0209   -0.0282
          26    0.0001   -0.0000    0.0002    0.0015    0.0018    0.0012    0.0124   -0.0115
          27   -0.0001    0.0000   -0.0002   -0.0017   -0.0021   -0.0013   -0.0136    0.0181
          28    0.0122    0.0047   -0.0008   -0.0026   -0.0005    0.0016    0.0004   -0.0005
          29    0.0092    0.0023   -0.0000   -0.0010   -0.0006    0.0016    0.0001   -0.0002
          30    0.0072    0.0015   -0.0003   -0.0017   -0.0013    0.0016    0.0003   -0.0003
          31   -0.0899    0.2407    0.0378    0.0289   -0.0467    0.2310   -0.0292   -0.0067
          32   -0.0063    0.0204    0.0048    0.0057   -0.0077    0.0283   -0.0037   -0.0008
          33    0.0715   -0.1916   -0.0223   -0.0202    0.0313   -0.1602    0.0207    0.0050
          34   -0.0898    0.1851   -0.0594   -0.0343    0.0576   -0.2141    0.0239    0.0035
          35   -0.0611    0.1354   -0.0403   -0.0234    0.0390   -0.1422    0.0157    0.0021
          36   -0.0670    0.1430   -0.0395   -0.0220    0.0372   -0.1332    0.0146    0.0019
          37    0.0132    0.0069    0.0061    0.0180   -0.0174   -0.0123    0.0012    0.0002
          38   -0.1420   -0.0755   -0.0280   -0.0815    0.0786    0.0594   -0.0057   -0.0012
          39    0.2257    0.1234    0.0524    0.1495   -0.1454   -0.1019    0.0097    0.0019
          40    0.1993    0.0804   -0.0380   -0.1129    0.1148    0.0599   -0.0056   -0.0001
          41    0.1391    0.0606   -0.0248   -0.0719    0.0737    0.0369   -0.0035    0.0000
          42    0.1579    0.0648   -0.0339   -0.1004    0.1026    0.0545   -0.0052   -0.0002
          43    0.0284   -0.0279   -0.1617    0.0526   -0.0013    0.0334   -0.0353   -0.0279
          44   -0.0348    0.0341    0.2270   -0.0742    0.0012   -0.0459    0.0448    0.0335
          45   -0.0129    0.0142    0.0912   -0.0293   -0.0002   -0.0156    0.0189    0.0148
          46   -0.0219    0.0160   -0.1086    0.0374    0.0036    0.0110   -0.0106   -0.0031
          47   -0.0220    0.0132   -0.1364    0.0476    0.0036    0.0165   -0.0161   -0.0075
          48   -0.0248    0.0189   -0.1405    0.0483    0.0047    0.0153   -0.0161   -0.0076
          49    0.0081   -0.0057    0.0700    0.1330    0.1861    0.0023   -0.0553    0.0381
          50   -0.0038    0.0023   -0.0259   -0.0484   -0.0676   -0.0005    0.0232   -0.0174
          51   -0.0059    0.0041   -0.0435   -0.0820   -0.1147   -0.0013    0.0348   -0.0244
          52    0.0163   -0.0043   -0.0483   -0.1068   -0.1541   -0.0058    0.0295   -0.0121
          53    0.0071   -0.0020   -0.0185   -0.0409   -0.0594   -0.0025    0.0099   -0.0024
          54    0.0102   -0.0020   -0.0226   -0.0505   -0.0724   -0.0028    0.0127   -0.0040
          55   -0.0002    0.0003   -0.0008    0.0012    0.0010    0.0021    0.0165    0.0161
          56    0.0023   -0.0014   -0.0429    0.0277    0.0129    0.0463    0.3220    0.3961
          57    0.0001   -0.0003    0.0035   -0.0023   -0.0011   -0.0037   -0.0268   -0.0305
          58   -0.0010    0.0003   -0.0048   -0.0292   -0.0358   -0.0230   -0.2480    0.2915
          59   -0.0005    0.0002   -0.0022   -0.0171   -0.0207   -0.0141   -0.1497    0.1705
          60    0.0006   -0.0002    0.0036    0.0193    0.0238    0.0150    0.1611   -0.1891
          61    0.0000    0.0000    0.0000    0.0000    0.0001    0.0000   -0.0000    0.0000
          62   -0.0000   -0.0000   -0.0000   -0.0000    0.0000   -0.0000    0.0000    0.0000
          63    0.0000    0.0000   -0.0000    0.0000   -0.0000   -0.0000    0.0000    0.0000


   Root No.      57

                57 A   

                3988.1
  
           1    0.0034
           2   -0.0014
           3   -0.0001
           4    0.0042
[...]
 FREQ.      1315.65         C  5 -- H 11         +16.5% ( 53.8%)      0.0%
 T-DIPOLE    0.1345         C  5 -- H 12         +14.7% ( 50.7%)      0.0%
 TRAVEL      0.0969         C  5 -- C  7          +9.2% ( 40.2%)     55.3%
 RED. MASS   0.8437         C  4 -- C  5          +8.4% ( 38.5%)     51.5%
 EFF. MASS   5.4535

 VIBRATION   37   37A         ATOM PAIR      ENERGY CONTRIBUTION    RADIAL
 FREQ.      1348.43         C  3 -- C  4         +10.5% ( 46.6%)     90.3%
 T-DIPOLE    0.1208         C  3 -- C  6          +9.9% ( 45.1%)     74.4%
 TRAVEL      0.0838         C  4 -- H 14          +8.9% ( 42.9%)      0.0%
 RED. MASS   0.9712         C  4 -- H 13          +8.3% ( 41.4%)      0.4%
 EFF. MASS   7.1248

 VIBRATION   38   38A         ATOM PAIR      ENERGY CONTRIBUTION    RADIAL
 FREQ.      1383.23         C  6 -- H 17         +17.2% ( 48.7%)      1.0%
 T-DIPOLE    0.1687         C  6 -- H 18         +14.7% ( 45.0%)      1.7%
 TRAVEL      0.1072         C  3 -- C  6         +11.0% ( 38.9%)     70.1%
 RED. MASS   0.4253         C  6 -- C  9          +7.9% ( 32.9%)     47.9%
 EFF. MASS   4.2456

 VIBRATION   39   39A         ATOM PAIR      ENERGY CONTRIBUTION    RADIAL
 FREQ.      1385.14         C  5 -- C  7         +13.0% ( 46.8%)     80.7%
 T-DIPOLE    0.1292         C  7 -- C  8          +9.5% ( 39.9%)     67.7%
 TRAVEL      0.0923         C  4 -- H 13          +8.8% ( 38.4%)      0.8%
 RED. MASS   0.6439         C  7 -- H 16          +8.7% ( 38.2%)      0.1%
 EFF. MASS   5.7108

 VIBRATION   40   40A         ATOM PAIR      ENERGY CONTRIBUTION    RADIAL
 FREQ.      1399.27         C  7 -- H 16         +20.9% ( 51.6%)      3.4%
 T-DIPOLE    0.0988         C  7 -- H 15         +17.3% ( 46.9%)      6.3%
 TRAVEL      0.1123         C  5 -- C  7         +13.5% ( 41.5%)     87.7%
 RED. MASS   0.4248         C  4 -- C  5          +7.9% ( 31.7%)     65.0%
 EFF. MASS   3.8200

 VIBRATION   41   41A         ATOM PAIR      ENERGY CONTRIBUTION    RADIAL
 FREQ.      1405.45         C  5 -- H 12         +27.2% ( 53.7%)      3.8%
 T-DIPOLE    0.0981         C  5 -- H 11         +22.5% ( 48.8%)      6.6%
 TRAVEL      0.1316         C  4 -- C  5          +8.3% ( 29.6%)     28.5%
 RED. MASS   0.3363         C  5 -- C  7          +7.9% ( 29.0%)     41.0%
 EFF. MASS   2.7720

 VIBRATION   42   42A         ATOM PAIR      ENERGY CONTRIBUTION    RADIAL
 FREQ.      1411.83         C  4 -- H 14         +22.8% ( 53.3%)      3.7%
 T-DIPOLE    0.1591         C  4 -- H 13         +19.9% ( 49.7%)      5.2%
 TRAVEL      0.1135         C  4 -- C  5         +14.4% ( 42.3%)     94.9%
 RED. MASS   0.4532         C  3 -- C  4          +7.7% ( 31.0%)      0.6%
 EFF. MASS   3.7074

 VIBRATION   43   43A         ATOM PAIR      ENERGY CONTRIBUTION    RADIAL
 FREQ.      1435.66         C  6 -- C  9         +15.9% ( 57.8%)     99.9%
 T-DIPOLE    0.1971         C  7 -- C  8         +14.6% ( 55.4%)     99.7%
 TRAVEL      0.0752         C  6 -- H 17          +8.8% ( 42.8%)      3.7%
 RED. MASS   1.3050         C  6 -- H 18          +8.6% ( 42.4%)      3.3%
 EFF. MASS   8.3120

 VIBRATION   44   44A         ATOM PAIR      ENERGY CONTRIBUTION    RADIAL
 FREQ.      1482.49         O  2 -- H 21         +85.5% ( 91.7%)      2.8%
 T-DIPOLE    0.4154         O  1 -- C  3          +5.6% ( 23.5%)     98.2%
 TRAVEL      0.1327         O  1 -- O  2          +4.9% ( 22.0%)      0.0%
 RED. MASS   0.8713         C  3 -- C  4          +1.3% ( 11.4%)     16.5%
 EFF. MASS   2.5825

 VIBRATION   45   45A         ATOM PAIR      ENERGY CONTRIBUTION    RADIAL
 FREQ.      1882.16         C  8 -- C  9         +44.2% ( 97.8%)    100.0%
 T-DIPOLE    0.1037         C  6 -- C  9         +14.3% ( 55.6%)     54.1%
 TRAVEL      0.0550         C  7 -- C  8         +14.2% ( 55.5%)     53.8%
 RED. MASS   5.4090         C  9 -- H 20         +13.1% ( 53.2%)      4.1%
 EFF. MASS  11.8477         C  8 -- H 19         +13.1% ( 53.2%)      4.1%

 VIBRATION   46   46A         ATOM PAIR      ENERGY CONTRIBUTION    RADIAL
 FREQ.      2839.27         C  3 -- H 10         +96.2% ( 99.8%)    100.0%
 T-DIPOLE    0.0999         O  1 -- C  3          +1.1% ( 10.9%)     12.0%
 TRAVEL      0.1273         C  3 -- C  4          +1.1% ( 10.9%)     10.9%
 RED. MASS   0.9240         C  3 -- C  6          +1.1% ( 10.9%)     10.0%
 EFF. MASS   1.4659

 VIBRATION   47   47A         ATOM PAIR      ENERGY CONTRIBUTION    RADIAL
 FREQ.      2940.57         C  7 -- H 16         +56.8% ( 78.3%)     97.8%
 T-DIPOLE    0.0448         C  7 -- H 15         +30.9% ( 57.7%)     94.3%
 TRAVEL      0.1220         C  6 -- H 18          +4.9% ( 23.0%)     98.2%
 RED. MASS   0.4559         C  6 -- H 17          +2.3% ( 15.7%)     93.6%
 EFF. MASS   1.5413

 VIBRATION   48   48A         ATOM PAIR      ENERGY CONTRIBUTION    RADIAL
 FREQ.      2946.09         C  6 -- H 18         +56.2% ( 77.8%)     97.7%
 T-DIPOLE    0.0858         C  6 -- H 17         +33.6% ( 60.1%)     94.7%
 TRAVEL      0.1219         C  7 -- H 16          +3.9% ( 20.4%)     97.2%
 RED. MASS   0.4665         C  7 -- H 15          +2.7% ( 16.9%)     95.2%
 EFF. MASS   1.5408

 VIBRATION   49   49A         ATOM PAIR      ENERGY CONTRIBUTION    RADIAL
 FREQ.      2948.83         C  4 -- H 14         +43.1% ( 68.2%)     96.9%
 T-DIPOLE    0.0617         C  4 -- H 13         +37.0% ( 63.2%)     96.1%
 TRAVEL      0.1217         C  5 -- H 12          +8.4% ( 30.1%)     96.8%
 RED. MASS   0.3630         C  5 -- H 11          +6.9% ( 27.3%)     95.9%
 EFF. MASS   1.5441

 VIBRATION   50   50A         ATOM PAIR      ENERGY CONTRIBUTION    RADIAL
 FREQ.      2954.84         C  5 -- H 11         +44.7% ( 69.4%)     97.1%
 T-DIPOLE    0.0484         C  5 -- H 12         +34.9% ( 61.3%)     95.8%
 TRAVEL      0.1215         C  4 -- H 13          +9.8% ( 32.5%)     97.4%
 RED. MASS   0.3647         C  4 -- H 14          +6.8% ( 27.1%)     95.5%
 EFF. MASS   1.5454

 VIBRATION   51   51A         ATOM PAIR      ENERGY CONTRIBUTION    RADIAL
 FREQ.      3022.83         C  7 -- H 15         +52.3% ( 71.4%)     98.9%
 T-DIPOLE    0.0703         C  7 -- H 16         +29.4% ( 53.5%)     95.2%
 TRAVEL      0.1317         C  6 -- H 17          +4.6% ( 21.1%)     99.3%
 RED. MASS   0.3595         C  5 -- H 12          +4.1% ( 20.1%)     99.3%
 EFF. MASS   1.2854

 VIBRATION   52   52A         ATOM PAIR      ENERGY CONTRIBUTION    RADIAL
 FREQ.      3026.92         C  4 -- H 13         +24.0% ( 48.3%)     97.9%
 T-DIPOLE    0.0792         C  4 -- H 14         +22.8% ( 47.1%)     97.4%
 TRAVEL      0.1319         C  6 -- H 17         +22.2% ( 46.5%)     98.9%
 RED. MASS   0.1813         C  6 -- H 18         +12.5% ( 34.9%)     95.2%
 EFF. MASS   1.2806

 VIBRATION   53   53A         ATOM PAIR      ENERGY CONTRIBUTION    RADIAL
 FREQ.      3027.67         C  6 -- H 17         +34.1% ( 57.5%)     98.8%
 T-DIPOLE    0.0723         C  6 -- H 18         +20.5% ( 44.6%)     95.7%
 TRAVEL      0.1321         C  4 -- H 14         +18.7% ( 42.6%)     97.8%
 RED. MASS   0.2236         C  4 -- H 13         +17.7% ( 41.5%)     97.6%
 EFF. MASS   1.2764

 VIBRATION   54   54A         ATOM PAIR      ENERGY CONTRIBUTION    RADIAL
 FREQ.      3033.64         C  5 -- H 12         +42.9% ( 64.5%)     97.8%
 T-DIPOLE    0.0481         C  5 -- H 11         +40.7% ( 62.9%)     97.5%
 TRAVEL      0.1320         C  4 -- H 13          +7.2% ( 26.5%)     98.8%
 RED. MASS   0.3554         C  4 -- H 14          +4.0% ( 19.6%)     95.6%
 EFF. MASS   1.2752

 VIBRATION   55   55A         ATOM PAIR      ENERGY CONTRIBUTION    RADIAL
 FREQ.      3036.96         C  9 -- H 20         +47.5% ( 69.8%)    100.0%
 T-DIPOLE    0.3054         C  8 -- H 19         +45.2% ( 68.1%)    100.0%
 TRAVEL      0.1239         C  6 -- H 17          +1.9% ( 14.1%)     99.5%
 RED. MASS   0.4167         C  7 -- H 15          +1.5% ( 12.3%)     99.6%
 EFF. MASS   1.4470

 VIBRATION   56   56A         ATOM PAIR      ENERGY CONTRIBUTION    RADIAL
 FREQ.      3056.99         C  8 -- H 19         +48.9% ( 70.8%)     99.9%
 T-DIPOLE    0.2839         C  9 -- H 20         +46.3% ( 68.9%)     99.9%
 TRAVEL      0.1183         C  8 -- C  9          +1.9% ( 14.0%)    100.0%
 RED. MASS   0.4524         C  7 -- C  8          +0.8% (  8.9%)     15.7%
 EFF. MASS   1.5748

 VIBRATION   57   57A         ATOM PAIR      ENERGY CONTRIBUTION    RADIAL
 FREQ.      3988.09         O  2 -- H 21         +99.6% (100.0%)     99.9%
 T-DIPOLE    0.3803         O  1 -- O  2          +0.4% (  6.0%)      0.0%
 TRAVEL      0.1107
 RED. MASS   0.9479
 EFF. MASS   1.3796

      SYMMETRY NUMBER FOR POINT-GROUP C1  =  1


          SYSTEM IS A GROUND STATE



 InChI=1S/C7H12O2/c8-9-7-5-3-1-2-4-6-7/h1,3,7-8H,2,4-6H2


          MOLECULE IS NOT LINEAR

          THERE ARE 57 GENUINE VIBRATIONS IN THIS SYSTEM
          THIS THERMODYNAMICS CALCULATION IS LIMITED TO
          MOLECULES WHICH HAVE NO INTERNAL ROTATIONS




                    CALCULATED THERMODYNAMIC PROPERTIES
                                          *
   TEMP. (K)   PARTITION FUNCTION   H.O.F.    ENTHALPY  HEAT CAPACITY ENTROPY
                                   KCAL/MOL   CAL/MOLE    CAL/K/MOL  CAL/K/MOL


 298.00  VIB.     0.2040D+03                  4000.9257    29.1154    23.9940
         ROT.     0.5094D+06                   888.2813     2.9808    29.0945
         INT.     0.1039D+09                  4889.2070    32.0962    53.0886
         TRA.     0.1403D+28                  1480.4688     4.9680    40.4556
         TOT.                      -29.597    6369.6758    37.0642    93.5442

 200.00  VIB.     0.2354D+02                  1699.0378    18.1444    14.7725
         ROT.     0.2801D+06                   596.1620     2.9808    27.9059
         INT.     0.6594D+07                  2295.1998    21.1253    42.6783
         TRA.     0.7713D+27                   993.6033     4.9680    38.4745
         TOT.                      -32.677    3288.8030    26.0933    81.1528

 210.00  VIB.     0.2917D+02                  1885.6199    19.1758    15.6826
         ROT.     0.3013D+06                   625.9700     2.9808    28.0513
         INT.     0.8791D+07                  2511.5900    22.1566    43.7339
         TRA.     0.8299D+27                  1043.2834     4.9680    38.7168
         TOT.                      -32.411    3554.8734    27.1246    82.4508

 220.00  VIB.     0.3620D+02                  2082.6319    20.2305    16.5989
         ROT.     0.3231D+06                   655.7781     2.9808    28.1900
         INT.     0.1170D+08                  2738.4100    23.2113    44.7889
         TRA.     0.8899D+27                  1092.9636     4.9680    38.9480
         TOT.                      -32.135    3831.3736    28.1793    83.7368

 230.00  VIB.     0.4499D+02                  2290.3068    21.3083    17.5219
         ROT.     0.3454D+06                   685.5862     2.9808    28.3225
         INT.     0.1554D+08                  2975.8930    24.2891    45.8444
         TRA.     0.9512D+27                  1142.6437     4.9680    39.1688
         TOT.                      -31.848    4118.5368    29.2571    85.0132

 240.00  VIB.     0.5597D+02                  2508.8721    22.4083    18.4519
         ROT.     0.3682D+06                   715.3943     2.9808    28.4493
         INT.     0.2061D+08                  3224.2665    25.3892    46.9013
         TRA.     0.1014D+28                  1192.3239     4.9680    39.3802
         TOT.                      -31.550    4416.5904    30.3572    86.2815

 250.00  VIB.     0.6974D+02                  2738.5422    23.5289    19.3893
         ROT.     0.3914D+06                   745.2024     2.9808    28.5710
         INT.     0.2730D+08                  3483.7447    26.5097    47.9604
         TRA.     0.1078D+28                  1242.0041     4.9680    39.5830
         TOT.                      -31.241    4725.7487    31.4778    87.5434

 260.00  VIB.     0.8700D+02                  2979.5122    24.6679    20.3343
         ROT.     0.4151D+06                   775.0105     2.9808    28.6879
         INT.     0.3611D+08                  3754.5227    27.6487    49.0222
         TRA.     0.1143D+28                  1291.6842     4.9680    39.7779
         TOT.                      -30.920    5046.2070    32.6167    88.8001

 270.00  VIB.     0.1087D+03                  3231.9531    25.8227    21.2869
         ROT.     0.4393D+06                   804.8186     2.9808    28.8004
         INT.     0.4774D+08                  4036.7718    28.8035    50.0873
         TRA.     0.1210D+28                  1341.3644     4.9680    39.9654
         TOT.                      -30.588    5378.1362    33.7715    90.0527

 280.00  VIB.     0.1359D+03                  3496.0089    26.9904    22.2471
         ROT.     0.4639D+06                   834.6267     2.9808    28.9088
         INT.     0.6306D+08                  4330.6357    29.9712    51.1559
         TRA.     0.1278D+28                  1391.0445     4.9680    40.1461
         TOT.                      -30.245    5721.6802    34.9392    91.3019

 290.00  VIB.     0.1702D+03                  3771.7943    28.1681    23.2147
         ROT.     0.4890D+06                   864.4348     2.9808    29.0134
         INT.     0.8324D+08                  4636.2291    31.1489    52.2281
         TRA.     0.1347D+28                  1440.7247     4.9680    40.3204
         TOT.                      -29.889    6076.9538    36.1169    92.5485

 300.00  VIB.     0.2135D+03                  4059.3937    29.3527    24.1896
         ROT.     0.5145D+06                   894.2429     2.9808    29.1145
         INT.     0.1098D+09                  4953.6366    32.3335    53.3041
         TRA.     0.1417D+28                  1490.4049     4.9680    40.4888
         TOT.                      -29.522    6444.0415    37.3015    93.7929

 310.00  VIB.     0.2680D+03                  4358.8618    30.5413    25.1714
         ROT.     0.5404D+06                   924.0510     2.9808    29.2122
         INT.     0.1448D+09                  5282.9128    33.5221    54.3837
         TRA.     0.1488D+28                  1540.0850     4.9680    40.6517
         TOT.                      -29.143    6822.9978    38.4901    95.0354

 320.00  VIB.     0.3370D+03                  4670.2235    31.7310    26.1599
         ROT.     0.5668D+06                   953.8591     2.9808    29.3069
         INT.     0.1910D+09                  5624.0826    34.7118    55.4667
         TRA.     0.1561D+28                  1589.7652     4.9680    40.8094
         TOT.                      -28.752    7213.8478    39.6798    96.2762

 330.00  VIB.     0.4241D+03                  4993.4760    32.9190    27.1545
         ROT.     0.5936D+06                   983.6672     2.9808    29.3986
         INT.     0.2518D+09                  5977.1432    35.8998    56.5531
         TRA.     0.1635D+28                  1639.4454     4.9680    40.9623
         TOT.                      -28.350    7616.5886    40.8678    97.5154

 340.00  VIB.     0.5345D+03                  5328.5898    34.1029    28.1548
         ROT.     0.6208D+06                  1013.4753     2.9808    29.4876
         INT.     0.3318D+09                  6342.0651    37.0837    57.6424
         TRA.     0.1710D+28                  1689.1255     4.9680    41.1106
         TOT.                      -27.935    8031.1907    42.0517    98.7530

 350.00  VIB.     0.6745D+03                  5675.5113    35.2802    29.1604
         ROT.     0.6484D+06                  1043.2834     2.9808    29.5740
         INT.     0.4373D+09                  6718.7947    38.2610    58.7343
         TRA.     0.1786D+28                  1738.8057     4.9680    41.2546
         TOT.                      -27.509    8457.6004    43.2290    99.9890

 360.00  VIB.     0.8521D+03                  6034.1646    36.4489    30.1706
         ROT.     0.6763D+06                  1073.0915     2.9808    29.6580
         INT.     0.5763D+09                  7107.2561    39.4297    59.8286
         TRA.     0.1863D+28                  1788.4859     4.9680    41.3946
         TOT.                      -27.071    8895.7420    44.3977   101.2232

 370.00  VIB.     0.1078D+04                  6404.4539    37.6071    31.1851
         ROT.     0.7047D+06                  1102.8996     2.9808    29.7396
         INT.     0.7594D+09                  7507.3535    40.5879    60.9247
         TRA.     0.1941D+28                  1838.1660     4.9680    41.5307
         TOT.                      -26.621    9345.5195    45.5559   102.4555

 380.00  VIB.     0.1364D+04                  6786.2656    38.7531    32.2033
         ROT.     0.7335D+06                  1132.7077     2.9808    29.8191
         INT.     0.1001D+10                  7918.9733    41.7339    62.0224
         TRA.     0.2020D+28                  1887.8462     4.9680    41.6632
         TOT.                      -26.159    9806.8195    46.7019   103.6856

 390.00  VIB.     0.1729D+04                  7179.4710    39.8856    33.2246
         ROT.     0.7626D+06                  1162.5158     2.9808    29.8965
         INT.     0.1319D+10                  8341.9868    42.8664    63.1211
         TRA.     0.2100D+28                  1937.5263     4.9680    41.7923
         TOT.                      -25.687   10279.5132    47.8344   104.9134

 400.00  VIB.     0.2194D+04                  7583.9280    41.0033    34.2485
         ROT.     0.7921D+06                  1192.3239     2.9808    29.9720
         INT.     0.1738D+10                  8776.2519    43.9841    64.2205
         TRA.     0.2182D+28                  1987.2065     4.9680    41.9180
         TOT.                      -25.203   10763.4584    48.9521   106.1386

   *: NOTE: HEATS OF FORMATION ARE RELATIVE TO THE
            ELEMENTS IN THEIR STANDARD STATE AT 298K
              (=  Standard Enthalpy of Formation).

            Hvib:  Zero-point energy is not included.
                   frequencies of less than zero cm-1 are not included.
            Hrot = (3/2)RT
            Htra = (3/2)RT + pV = (5/2)RT

            Heat capacity is Cp, not Cv

          For more information, see: HTTP://OpenMOPAC.net/Manual/thermochemistry.html


           FORCE CONSTANT IN CARTESIAN COORDINATES (Millidynes/A)

    ATOM   CHEMICAL       X               Y               Z
   NUMBER   SYMBOL  FORCE CONSTANT  FORCE CONSTANT  FORCE CONSTANT

      1       O        4.397358        6.362769        0.729107
      2       O        3.079549        9.603597        0.056125
      3       C        8.263344        8.638792        7.493096
      4       C        7.832610        8.379950        8.243451
      5       C        8.349160        8.100567        8.222296
      6       C        8.332652        9.133794        7.598539
      7       C        8.732217        8.394205        8.119139
      8       C       10.421275       11.214023        5.478608
      9       C       10.457226       11.193793        5.492341
     10       H        2.361838        1.822255        1.719997
     11       H        3.404196        0.758482        2.211396
     12       H        2.888984        1.773842        1.752889
     13       H        0.773310        1.799950        3.856955
     14       H        2.699199        1.621499        2.105123
     15       H        2.113491        3.182329        1.071088
     16       H        1.854863        2.107144        2.314689
     17       H        3.376143        1.155480        1.889604
     18       H        3.566221        1.195975        1.534108
     19       H        0.662551        5.062338        0.481493
     20       H        3.087991        1.633525        1.484230
     21       H        1.299647        8.760810        0.038396

 **********************
 *                    *
 * JOB ENDED NORMALLY *
 *                    *
 **********************



 TOTAL JOB TIME:             8.10 SECONDS

 == MOPAC DONE ==
