 *******************************************************************************
 ** Site#: 14399        For non-commercial use only    Version 18.184L 64BITS **
 *******************************************************************************
 ** Cite this program as: MOPAC2016, Version: 18.184L, James J. P. Stewart,   **
 ** Stewart Computational Chemistry, web: HTTP://OpenMOPAC.net. Days left:  20**
 *******************************************************************************
 **                                                                           **
 **                                MOPAC2016                                  **
 **                                                                           **
 *******************************************************************************

                              PM3 CALCULATION RESULTS

 *******************************************************************************
 *  CALCULATION DONE:                                Thu Jun 13 15:44:43 2019  *
 *  PM3        - The PM3 Hamiltonian to be used
 *  PRECISE    - CRITERIA TO BE INCREASED BY 100 TIMES
 *  NOSYM      - POINT-GROUP SYMMETRY SET TO C1
 *  THREADS=1  - MULTI-THREADING NOT USED
 *  T=         - A TIME OF 172800.0 SECONDS REQUESTED
 *  DUMP=N     - RESTART FILE WRITTEN EVERY  7200.000 SECONDS
 *******************************************************************************
pm3  precise nosym THREADS=1
 InChI=1S/C10H12/c1-2-5-9-7-4-8-10(9)6-3-1/h1-5,8-10H,6-7H2

   ATOM   CHEMICAL          X               Y               Z
  NUMBER   SYMBOL      (ANGSTROMS)     (ANGSTROMS)     (ANGSTROMS)
 
     1       C          0.40230000  *  -0.96120000  *  -0.78140000  *
     2       C          0.74120000  *   0.55090000  *  -0.83670000  *
     3       C         -1.06350000  *  -1.31210000  *  -0.46490000  *
     4       C          1.59150000  *   0.83850000  *   0.41360000  *
     5       C          1.30980000  *  -1.47980000  *   0.28610000  *
     6       C         -0.41820000  *   1.51430000  *  -0.99440000  *
     7       C          1.94120000  *  -0.51130000  *   0.92960000  *
     8       C         -1.55400000  *  -0.67400000  *   0.80600000  *
     9       C         -1.74220000  *   0.64330000  *   0.92460000  *
    10       C         -1.46680000  *   1.59830000  *  -0.16400000  *
    11       H          0.67790000  *  -1.44090000  *  -1.74660000  *
    12       H          1.40440000  *   0.70310000  *  -1.71900000  *
    13       H         -1.15720000  *  -2.41590000  *  -0.37020000  *
    14       H         -1.71510000  *  -1.00690000  *  -1.31250000  *
    15       H          2.51390000  *   1.39850000  *   0.14790000  *
    16       H          1.03120000  *   1.39390000  *   1.19600000  *
    17       H         -1.82350000  *  -1.31620000  *   1.63550000  *
    18       H          1.41880000  *  -2.53030000  *   0.53610000  *
    19       H         -0.34530000  *   2.24870000  *  -1.78760000  *
    20       H          2.61480000  *  -0.68800000  *   1.76160000  *
    21       H         -2.20740000  *   1.02080000  *   1.82610000  *
    22       H         -2.15370000  *   2.42630000  *  -0.28570000  *
 


          CARTESIAN COORDINATES 

    NO.       ATOM           X           Y           Z

     1         C          0.4023     -0.9612     -0.7814
     2         C          0.7412      0.5509     -0.8367
     3         C         -1.0635     -1.3121     -0.4649
     4         C          1.5915      0.8385      0.4136
     5         C          1.3098     -1.4798      0.2861
     6         C         -0.4182      1.5143     -0.9944
     7         C          1.9412     -0.5113      0.9296
     8         C         -1.5540     -0.6740      0.8060
     9         C         -1.7422      0.6433      0.9246
    10         C         -1.4668      1.5983     -0.1640
    11         H          0.6779     -1.4409     -1.7466
    12         H          1.4044      0.7031     -1.7190
    13         H         -1.1572     -2.4159     -0.3702
    14         H         -1.7151     -1.0069     -1.3125
    15         H          2.5139      1.3985      0.1479
    16         H          1.0312      1.3939      1.1960
    17         H         -1.8235     -1.3162      1.6355
    18         H          1.4188     -2.5303      0.5361
    19         H         -0.3453      2.2487     -1.7876
    20         H          2.6148     -0.6880      1.7616
    21         H         -2.2074      1.0208      1.8261
    22         H         -2.1537      2.4263     -0.2857

  H: (PM3): J. J. P. STEWART, J. COMP. CHEM. 10, 209 (1989).
  C: (PM3): J. J. P. STEWART, J. COMP. CHEM. 10, 209 (1989).

           Empirical Formula: C10 H12  =    22 atoms



      MOLECULAR POINT GROUP   :   C1  


      RHF CALCULATION, NO. OF DOUBLY OCCUPIED LEVELS = 26


          Geometry optimization using EF

          DIAGONAL MATRIX USED AS START HESSIAN

 CYCLE:     1 TIME:   0.023 TIME LEFT:  2.00D  GRAD.:    73.398 HEAT:  45.44182
 CYCLE:     2 TIME:   0.055 TIME LEFT:  2.00D  GRAD.:    51.488 HEAT:  44.32736
 CYCLE:     3 TIME:   0.039 TIME LEFT:  2.00D  GRAD.:    36.143 HEAT:  43.84333
 CYCLE:     4 TIME:   0.027 TIME LEFT:  2.00D  GRAD.:    34.724 HEAT:  43.59002
 CYCLE:     5 TIME:   0.031 TIME LEFT:  2.00D  GRAD.:    28.780 HEAT:  43.24991
 CYCLE:     6 TIME:   0.035 TIME LEFT:  2.00D  GRAD.:    21.536 HEAT:  43.03130
 CYCLE:     7 TIME:   0.031 TIME LEFT:  2.00D  GRAD.:    30.260 HEAT:  42.97737
 CYCLE:     8 TIME:   0.027 TIME LEFT:  2.00D  GRAD.:    20.121 HEAT:  42.82681
 CYCLE:     9 TIME:   0.047 TIME LEFT:  2.00D  GRAD.:    15.029 HEAT:  42.74977
 CYCLE:    10 TIME:   0.027 TIME LEFT:  2.00D  GRAD.:    18.545 HEAT:  42.74389
 CYCLE:    11 TIME:   0.031 TIME LEFT:  2.00D  GRAD.:    13.588 HEAT:  42.70313
 CYCLE:    12 TIME:   0.027 TIME LEFT:  2.00D  GRAD.:    10.660 HEAT:  42.67157
 CYCLE:    13 TIME:   0.031 TIME LEFT:  2.00D  GRAD.:    12.248 HEAT:  42.66115
 CYCLE:    14 TIME:   0.027 TIME LEFT:  2.00D  GRAD.:    12.736 HEAT:  42.64125
 CYCLE:    15 TIME:   0.031 TIME LEFT:  2.00D  GRAD.:    13.337 HEAT:  42.63748
 CYCLE:    16 TIME:   0.027 TIME LEFT:  2.00D  GRAD.:    13.498 HEAT:  42.62309
 CYCLE:    17 TIME:   0.027 TIME LEFT:  2.00D  GRAD.:    11.031 HEAT:  42.60399
 CYCLE:    18 TIME:   0.027 TIME LEFT:  2.00D  GRAD.:    11.149 HEAT:  42.59055
 CYCLE:    19 TIME:   0.043 TIME LEFT:  2.00D  GRAD.:     4.622 HEAT:  42.55995
 CYCLE:    20 TIME:   0.023 TIME LEFT:  2.00D  GRAD.:     7.421 HEAT:  42.55633
 CYCLE:    21 TIME:   0.031 TIME LEFT:  2.00D  GRAD.:     3.295 HEAT:  42.53437
 CYCLE:    22 TIME:   0.027 TIME LEFT:  2.00D  GRAD.:     6.647 HEAT:  42.52852
 CYCLE:    23 TIME:   0.031 TIME LEFT:  2.00D  GRAD.:     3.789 HEAT:  42.50767
 CYCLE:    24 TIME:   0.027 TIME LEFT:  2.00D  GRAD.:     7.255 HEAT:  42.50182
 CYCLE:    25 TIME:   0.031 TIME LEFT:  2.00D  GRAD.:     2.512 HEAT:  42.48258
 CYCLE:    26 TIME:   0.023 TIME LEFT:  2.00D  GRAD.:     3.137 HEAT:  42.48010
 CYCLE:    27 TIME:   0.031 TIME LEFT:  2.00D  GRAD.:     3.739 HEAT:  42.47580
 CYCLE:    28 TIME:   0.027 TIME LEFT:  2.00D  GRAD.:     3.666 HEAT:  42.47196
 CYCLE:    29 TIME:   0.031 TIME LEFT:  2.00D  GRAD.:     2.230 HEAT:  42.46611
 CYCLE:    30 TIME:   0.027 TIME LEFT:  2.00D  GRAD.:     1.917 HEAT:  42.46171
 CYCLE:    31 TIME:   0.027 TIME LEFT:  2.00D  GRAD.:     2.249 HEAT:  42.45854
 CYCLE:    32 TIME:   0.031 TIME LEFT:  2.00D  GRAD.:     2.917 HEAT:  42.45627
 CYCLE:    33 TIME:   0.027 TIME LEFT:  2.00D  GRAD.:     1.612 HEAT:  42.45146
 CYCLE:    34 TIME:   0.027 TIME LEFT:  2.00D  GRAD.:     1.838 HEAT:  42.44621
 CYCLE:    35 TIME:   0.031 TIME LEFT:  2.00D  GRAD.:     2.648 HEAT:  42.44052
 CYCLE:    36 TIME:   0.027 TIME LEFT:  2.00D  GRAD.:     2.278 HEAT:  42.43341
 CYCLE:    37 TIME:   0.027 TIME LEFT:  2.00D  GRAD.:     2.026 HEAT:  42.42638
 CYCLE:    38 TIME:   0.031 TIME LEFT:  2.00D  GRAD.:     1.991 HEAT:  42.41775
 CYCLE:    39 TIME:   0.027 TIME LEFT:  2.00D  GRAD.:     1.711 HEAT:  42.41260
 CYCLE:    40 TIME:   0.027 TIME LEFT:  2.00D  GRAD.:     1.965 HEAT:  42.40479
 CYCLE:    41 TIME:   0.031 TIME LEFT:  2.00D  GRAD.:     2.479 HEAT:  42.39731
 CYCLE:    42 TIME:   0.027 TIME LEFT:  2.00D  GRAD.:     2.231 HEAT:  42.38848
 CYCLE:    43 TIME:   0.031 TIME LEFT:  2.00D  GRAD.:     1.953 HEAT:  42.37923
 CYCLE:    44 TIME:   0.035 TIME LEFT:  2.00D  GRAD.:     2.018 HEAT:  42.37039
 CYCLE:    45 TIME:   0.031 TIME LEFT:  2.00D  GRAD.:     2.138 HEAT:  42.36189
 CYCLE:    46 TIME:   0.027 TIME LEFT:  2.00D  GRAD.:     1.950 HEAT:  42.35314
 CYCLE:    47 TIME:   0.027 TIME LEFT:  2.00D  GRAD.:     1.730 HEAT:  42.34388
 CYCLE:    48 TIME:   0.031 TIME LEFT:  2.00D  GRAD.:     1.836 HEAT:  42.33601
 CYCLE:    49 TIME:   0.027 TIME LEFT:  2.00D  GRAD.:     1.788 HEAT:  42.32897
 CYCLE:    50 TIME:   0.027 TIME LEFT:  2.00D  GRAD.:     1.481 HEAT:  42.32350
 CYCLE:    51 TIME:   0.031 TIME LEFT:  2.00D  GRAD.:     1.568 HEAT:  42.31936
 CYCLE:    52 TIME:   0.027 TIME LEFT:  2.00D  GRAD.:     1.180 HEAT:  42.31572
 CYCLE:    53 TIME:   0.027 TIME LEFT:  2.00D  GRAD.:     0.906 HEAT:  42.31316
 CYCLE:    54 TIME:   0.027 TIME LEFT:  2.00D  GRAD.:     0.652 HEAT:  42.31172
 CYCLE:    55 TIME:   0.031 TIME LEFT:  2.00D  GRAD.:     0.579 HEAT:  42.31085
 CYCLE:    56 TIME:   0.027 TIME LEFT:  2.00D  GRAD.:     0.536 HEAT:  42.31007
 CYCLE:    57 TIME:   0.031 TIME LEFT:  2.00D  GRAD.:     0.454 HEAT:  42.30962
 CYCLE:    58 TIME:   0.027 TIME LEFT:  2.00D  GRAD.:     0.369 HEAT:  42.30928
 CYCLE:    59 TIME:   0.027 TIME LEFT:  2.00D  GRAD.:     0.339 HEAT:  42.30896
 CYCLE:    60 TIME:   0.031 TIME LEFT:  2.00D  GRAD.:     0.300 HEAT:  42.30874
 CYCLE:    61 TIME:   0.035 TIME LEFT:  2.00D  GRAD.:     0.235 HEAT:  42.30860
 CYCLE:    62 TIME:   0.027 TIME LEFT:  2.00D  GRAD.:     0.190 HEAT:  42.30849
 CYCLE:    63 TIME:   0.027 TIME LEFT:  2.00D  GRAD.:     0.186 HEAT:  42.30841
 CYCLE:    64 TIME:   0.027 TIME LEFT:  2.00D  GRAD.:     0.149 HEAT:  42.30834
 CYCLE:    65 TIME:   0.031 TIME LEFT:  2.00D  GRAD.:     0.120 HEAT:  42.30831
 CYCLE:    66 TIME:   0.027 TIME LEFT:  2.00D  GRAD.:     0.096 HEAT:  42.30829
 CYCLE:    67 TIME:   0.027 TIME LEFT:  2.00D  GRAD.:     0.106 HEAT:  42.30825
 CYCLE:    68 TIME:   0.027 TIME LEFT:  2.00D  GRAD.:     0.112 HEAT:  42.30823
 CYCLE:    69 TIME:   0.031 TIME LEFT:  2.00D  GRAD.:     0.121 HEAT:  42.30820
 CYCLE:    70 TIME:   0.027 TIME LEFT:  2.00D  GRAD.:     0.093 HEAT:  42.30818
 CYCLE:    71 TIME:   0.027 TIME LEFT:  2.00D  GRAD.:     0.087 HEAT:  42.30816
 CYCLE:    72 TIME:   0.027 TIME LEFT:  2.00D  GRAD.:     0.103 HEAT:  42.30813
 CYCLE:    73 TIME:   0.031 TIME LEFT:  2.00D  GRAD.:     0.100 HEAT:  42.30811
 CYCLE:    74 TIME:   0.027 TIME LEFT:  2.00D  GRAD.:     0.102 HEAT:  42.30806
 CYCLE:    75 TIME:   0.027 TIME LEFT:  2.00D  GRAD.:     0.093 HEAT:  42.30803
 CYCLE:    76 TIME:   0.031 TIME LEFT:  2.00D  GRAD.:     0.067 HEAT:  42.30801
 CYCLE:    77 TIME:   0.027 TIME LEFT:  2.00D  GRAD.:     0.066 HEAT:  42.30799
 CYCLE:    78 TIME:   0.027 TIME LEFT:  2.00D  GRAD.:     0.041 HEAT:  42.30798

     GRADIENT =  0.04054  IS LESS THAN CUTOFF =  0.05000



 -------------------------------------------------------------------------------
 pm3  precise nosym THREADS=1
 InChI=1S/C10H12/c1-2-5-9-7-4-8-10(9)6-3-1/h1-5,8-10H,6-7H2



     GEOMETRY OPTIMISED USING EIGENVECTOR FOLLOWING (EF).     
     SCF FIELD WAS ACHIEVED                                   


                              PM3 CALCULATION
                                                       MOPAC2016 (Version: 18.184L)
                                                       Thu Jun 13 15:44:45 2019
                                                       No. of days remaining =  20




          FINAL HEAT OF FORMATION =         42.30798 KCAL/MOL =     177.01660 KJ/MOL


          TOTAL ENERGY            =      -1368.56165 EV
          ELECTRONIC ENERGY       =      -7729.04110 EV  POINT GROUP:     C1  
          CORE-CORE REPULSION     =       6360.47945 EV
          COSMO AREA              =        169.57 SQUARE ANGSTROMS
          COSMO VOLUME            =        178.86 CUBIC ANGSTROMS

          GRADIENT NORM           =          0.04054 = 0.00864 PER ATOM
          IONIZATION POTENTIAL    =          9.210904 EV
          HOMO LUMO ENERGIES (EV) =         -9.211  0.430
          NO. OF FILLED LEVELS    =         26
          MOLECULAR WEIGHT        =        132.2048

          MOLECULAR DIMENSIONS (Angstroms)

            Atom       Atom       Distance
            H    22    H    18     6.03862
            H    15    H    17     5.56299
            H    20    H    11     3.82755


          SCF CALCULATIONS        =         85
 
          WALL-CLOCK TIME         =          2.379 SECONDS
          COMPUTATION TIME        =          1.235 SECONDS




   ATOM   CHEMICAL          X               Y               Z
  NUMBER   SYMBOL      (ANGSTROMS)     (ANGSTROMS)     (ANGSTROMS)
 
     1       C          0.39160998  *  -0.96422284  *  -0.73098097  *
     2       C          0.73618193  *   0.54559525  *  -0.86575774  *
     3       C         -1.07657059  *  -1.30755244  *  -0.51069587  *
     4       C          1.70650990  *   0.85680945  *   0.30017836  *
     5       C          1.25696564  *  -1.44718102  *   0.39911831  *
     6       C         -0.38588515  *   1.52561463  *  -0.89426153  *
     7       C          1.97363744  *  -0.46161903  *   0.94792017  *
     8       C         -1.63673141  *  -0.73101561  *   0.73997022  *
     9       C         -1.80327587  *   0.58375921  *   0.91281970  *
    10       C         -1.46105809  *   1.56532338  *  -0.10131423  *
    11       H          0.71557005  *  -1.48450158  *  -1.66521371  *
    12       H          1.28718471  *   0.66547049  *  -1.82925071  *
    13       H         -1.19010845  *  -2.40939870  *  -0.49948789  *
    14       H         -1.66735608  *  -0.94598693  *  -1.37727582  *
    15       H          2.64148919  *   1.32339616  *  -0.05946958  *
    16       H          1.26780399  *   1.56308228  *   1.03014803  *
    17       H         -1.92235679  *  -1.43529002  *   1.52878070  *
    18       H          1.25391832  *  -2.49564731  *   0.69653603  *
    19       H         -0.25612000  *   2.33248910  *  -1.62772859  *
    20       H          2.67744705  *  -0.55228784  *   1.77486266  *
    21       H         -2.23693235  *   0.98032824  *   1.83817805  *
    22       H         -2.17394567  *   2.39432429  *  -0.19945513  *

                             CARTESIAN COORDINATES

   1    C        0.391609982    -0.964222836    -0.730980966
   2    C        0.736181931     0.545595255    -0.865757738
   3    C       -1.076570593    -1.307552441    -0.510695871
   4    C        1.706509903     0.856809448     0.300178357
   5    C        1.256965643    -1.447181023     0.399118313
   6    C       -0.385885149     1.525614628    -0.894261526
   7    C        1.973637442    -0.461619029     0.947920170
   8    C       -1.636731410    -0.731015607     0.739970220
   9    C       -1.803275874     0.583759210     0.912819696
  10    C       -1.461058090     1.565323383    -0.101314228
  11    H        0.715570046    -1.484501584    -1.665213711
  12    H        1.287184706     0.665470488    -1.829250712
  13    H       -1.190108453    -2.409398700    -0.499487894
  14    H       -1.667356076    -0.945986928    -1.377275821
  15    H        2.641489194     1.323396164    -0.059469578
  16    H        1.267803989     1.563082279     1.030148029
  17    H       -1.922356789    -1.435290021     1.528780700
  18    H        1.253918323    -2.495647310     0.696536031
  19    H       -0.256119996     2.332489097    -1.627728586
  20    H        2.677447046    -0.552287840     1.774862663
  21    H       -2.236932346     0.980328242     1.838178054
  22    H       -2.173945672     2.394324294    -0.199455129


           Empirical Formula: C10 H12  =    22 atoms



      MOLECULAR POINT GROUP   :   C1  


                  EIGENVALUES  
 -41.84267 -35.09174 -32.34625 -29.00173 -26.53236 -23.68820 -21.96559 -19.16748
 -18.30210 -17.99866 -17.55952 -16.27740 -15.75529 -15.14806 -14.51702 -13.94684
 -13.53215 -13.42947 -12.94489 -12.52155 -12.36994 -11.72856 -11.63451 -10.79107
  -9.63079  -9.21090   0.42960   1.14665   1.83560   3.29501   3.41544   3.44926
   3.59376   3.63680   3.68612   3.76576   3.97124   4.01308   4.11437   4.27156
   4.30934   4.38109   4.59132   4.71946   4.87189   5.06194   5.35822   5.55022
   5.70028   5.92747   6.00765   6.25280


              NET ATOMIC CHARGES AND DIPOLE CONTRIBUTIONS

  ATOM NO.   TYPE          CHARGE      No. of ELECS.   s-Pop       p-Pop       
    1          C          -0.029617        4.0296     1.17507     2.85454
    2          C          -0.036448        4.0364     1.17309     2.86336
    3          C          -0.054289        4.0543     1.14616     2.90813
    4          C          -0.064619        4.0646     1.15749     2.90713
    5          C          -0.157066        4.1571     1.20425     2.95282
    6          C          -0.127509        4.1275     1.19421     2.93330
    7          C          -0.147913        4.1479     1.20098     2.94693
    8          C          -0.123737        4.1237     1.19417     2.92957
    9          C          -0.115974        4.1160     1.17895     2.93702
   10          C          -0.100917        4.1009     1.17817     2.92274
   11          H           0.062358        0.9376     0.93764
   12          H           0.058725        0.9413     0.94128
   13          H           0.050336        0.9497     0.94966
   14          H           0.060083        0.9399     0.93992
   15          H           0.055341        0.9447     0.94466
   16          H           0.065527        0.9345     0.93447
   17          H           0.097150        0.9029     0.90285
   18          H           0.112271        0.8877     0.88773
   19          H           0.090559        0.9094     0.90944
   20          H           0.110540        0.8895     0.88946
   21          H           0.099824        0.9002     0.90018
   22          H           0.095376        0.9046     0.90462
 DIPOLE           X         Y         Z       TOTAL
 POINT-CHG.     0.068    -0.043    -0.142     0.163
 HYBRID         0.023     0.049     0.052     0.075
 SUM            0.091     0.006    -0.090     0.128


          ATOMIC ORBITAL ELECTRON POPULATIONS

     Atom    s        px        py        pz   
    1  C   1.17507   0.94248   0.94101   0.97106
    2  C   1.17309   0.94820   0.93310   0.98207
    3  C   1.14616   0.94798   0.99387   0.96627
    4  C   1.15749   0.98066   0.96153   0.96494
    5  C   1.20425   0.98501   0.98248   0.98533
    6  C   1.19421   0.96163   0.98858   0.98309
    7  C   1.20098   0.99739   0.95698   0.99255
    8  C   1.19417   0.99055   0.96053   0.97850
    9  C   1.17895   1.01184   0.94501   0.98017
   10  C   1.17817   0.97842   0.98128   0.96305
   11  H   0.93764
   12  H   0.94128
   13  H   0.94966
   14  H   0.93992
   15  H   0.94466
   16  H   0.93447
   17  H   0.90285
   18  H   0.88773
   19  H   0.90944
   20  H   0.88946
   21  H   0.90018
   22  H   0.90462
 *******************************************************************************
 ** Site#: 14399        For non-commercial use only    Version 18.184L 64BITS **
 *******************************************************************************
 ** Cite this program as: MOPAC2016, Version: 18.184L, James J. P. Stewart,   **
 ** Stewart Computational Chemistry, web: HTTP://OpenMOPAC.net. Days left:  20**
 *******************************************************************************
 **                                                                           **
 **                                MOPAC2016                                  **
 **                                                                           **
 *******************************************************************************

                              PM3 CALCULATION RESULTS

 *******************************************************************************
 *  CALCULATION DONE:                                Thu Jun 13 15:44:45 2019  *
 *  PM3        - The PM3 Hamiltonian to be used
 *  OLDGEO     - PREVIOUS GEOMETRY TO BE USED
 *  PRECISE    - CRITERIA TO BE INCREASED BY 100 TIMES
 *  NOSYM      - POINT-GROUP SYMMETRY SET TO C1
 *  THREADS=1  - MULTI-THREADING NOT USED
 *  T=         - A TIME OF 172800.0 SECONDS REQUESTED
 *  DUMP=N     - RESTART FILE WRITTEN EVERY  7200.000 SECONDS
 *  THERMO     - THERMODYNAMIC QUANTITIES TO BE CALCULATED
 *******************************************************************************
oldgeo thermo nosym precise THREADS=1  pm3
 InChI=1S/C10H12/c1-2-5-9-7-4-8-10(9)6-3-1/h1-5,8-10H,6-7H2

   ATOM   CHEMICAL          X               Y               Z
  NUMBER   SYMBOL      (ANGSTROMS)     (ANGSTROMS)     (ANGSTROMS)
 
     1       C          0.39160998  *  -0.96422284  *  -0.73098097  *
     2       C          0.73618193  *   0.54559525  *  -0.86575774  *
     3       C         -1.07657059  *  -1.30755244  *  -0.51069587  *
     4       C          1.70650990  *   0.85680945  *   0.30017836  *
     5       C          1.25696564  *  -1.44718102  *   0.39911831  *
     6       C         -0.38588515  *   1.52561463  *  -0.89426153  *
     7       C          1.97363744  *  -0.46161903  *   0.94792017  *
     8       C         -1.63673141  *  -0.73101561  *   0.73997022  *
     9       C         -1.80327587  *   0.58375921  *   0.91281970  *
    10       C         -1.46105809  *   1.56532338  *  -0.10131423  *
    11       H          0.71557005  *  -1.48450158  *  -1.66521371  *
    12       H          1.28718471  *   0.66547049  *  -1.82925071  *
    13       H         -1.19010845  *  -2.40939870  *  -0.49948789  *
    14       H         -1.66735608  *  -0.94598693  *  -1.37727582  *
    15       H          2.64148919  *   1.32339616  *  -0.05946958  *
    16       H          1.26780399  *   1.56308228  *   1.03014803  *
    17       H         -1.92235679  *  -1.43529002  *   1.52878070  *
    18       H          1.25391832  *  -2.49564731  *   0.69653603  *
    19       H         -0.25612000  *   2.33248910  *  -1.62772859  *
    20       H          2.67744705  *  -0.55228784  *   1.77486266  *
    21       H         -2.23693235  *   0.98032824  *   1.83817805  *
    22       H         -2.17394567  *   2.39432429  *  -0.19945513  *
 


          CARTESIAN COORDINATES 

    NO.       ATOM           X           Y           Z

     1         C          0.3916     -0.9642     -0.7310
     2         C          0.7362      0.5456     -0.8658
     3         C         -1.0766     -1.3076     -0.5107
     4         C          1.7065      0.8568      0.3002
     5         C          1.2570     -1.4472      0.3991
     6         C         -0.3859      1.5256     -0.8943
     7         C          1.9736     -0.4616      0.9479
     8         C         -1.6367     -0.7310      0.7400
     9         C         -1.8033      0.5838      0.9128
    10         C         -1.4611      1.5653     -0.1013
    11         H          0.7156     -1.4845     -1.6652
    12         H          1.2872      0.6655     -1.8293
    13         H         -1.1901     -2.4094     -0.4995
    14         H         -1.6674     -0.9460     -1.3773
    15         H          2.6415      1.3234     -0.0595
    16         H          1.2678      1.5631      1.0301
    17         H         -1.9224     -1.4353      1.5288
    18         H          1.2539     -2.4956      0.6965
    19         H         -0.2561      2.3325     -1.6277
    20         H          2.6774     -0.5523      1.7749
    21         H         -2.2369      0.9803      1.8382
    22         H         -2.1739      2.3943     -0.1995

  H: (PM3): J. J. P. STEWART, J. COMP. CHEM. 10, 209 (1989).
  C: (PM3): J. J. P. STEWART, J. COMP. CHEM. 10, 209 (1989).

           Empirical Formula: C10 H12  =    22 atoms



      MOLECULAR POINT GROUP   :   C1  


      RHF CALCULATION, NO. OF DOUBLY OCCUPIED LEVELS = 26



          HEAT OF FORMATION =      42.307984 KCALS/MOLE


          CARTESIAN COORDINATE DERIVATIVES

   NUMBER  ATOM         X            Y            Z

     1       C     -0.004941    -0.000125     0.000400
     2       C      0.003495    -0.002921    -0.002355
     3       C     -0.008691    -0.002208     0.001657
     4       C     -0.005881     0.007106    -0.003702
     5       C      0.004793    -0.004837    -0.006146
     6       C     -0.003335     0.000679    -0.008113
     7       C      0.004706     0.006545     0.001130
     8       C     -0.007907     0.010001    -0.003332
     9       C      0.006807    -0.006913    -0.005813
    10       C     -0.003606    -0.004585     0.004692
    11       H      0.005146     0.012557     0.002146
    12       H      0.015196     0.002655     0.006303
    13       H     -0.005335     0.002997     0.001111
    14       H      0.001705    -0.005923     0.002421
    15       H      0.006847     0.001738    -0.000261
    16       H      0.005366    -0.010472     0.005096
    17       H     -0.001237     0.009088     0.004778
    18       H     -0.002686     0.001533     0.000144
    19       H     -0.003404    -0.007177    -0.004520
    20       H     -0.002320    -0.006778     0.002832
    21       H     -0.001380     0.000413    -0.003853
    22       H     -0.003341    -0.003373     0.005386
 


          GRADIENT NORM =   0.04370


          TIME FOR SCF CALCULATION =    0.02

          TIME FOR DERIVATIVES     =    0.02

          MOLECULAR WEIGHT =  132.20



          ROTATIONAL CONSTANTS IN CM(-1)

          A =    0.06908680   B =    0.04873689   C =    0.03857435



           PRINCIPAL MOMENTS OF INERTIA IN UNITS OF 10**(-40)*GRAM-CM**2

          A =      405.1827   B =      574.3652   C =      725.6837


          ORIENTATION OF MOLECULE IN FORCE CALCULATION

    NO.       ATOM         X         Y         Z

     1          C      -0.7938   -0.7158   -0.7380
     2          C       0.7607   -0.7158   -0.7380
     3          C      -1.4718    0.6488   -0.7380
     4          C       1.1769   -1.4430    0.5642
     5          C      -1.1691   -1.5293    0.4689
     6          C       1.4663    0.5908   -0.8613
     7          C      -0.1006   -1.9289    1.1652
     8          C      -1.1445    1.4710    0.4567
     9          C       0.0806    1.9559    0.6808
    10          C       1.1978    1.7321   -0.2198
    11          H      -1.1463   -1.2594   -1.6483
    12          H       1.0828   -1.3343   -1.6098
    13          H      -2.5681    0.5053   -0.8056
    14          H      -1.1765    1.2003   -1.6542
    15          H       1.8685   -2.2808    0.3614
    16          H       1.7024   -0.7698    1.2676
    17          H      -1.9602    1.6775    1.1579
    18          H      -2.2139   -1.7333    0.7024
    19          H       2.3423    0.5650   -1.5229
    20          H      -0.1043   -2.5316    2.0729
    21          H       0.2894    2.5758    1.5604
    22          H       1.8534    2.6005   -0.3654


    FIRST DERIVATIVES WILL BE USED IN THE CALCULATION OF SECOND DERIVATIVES

          ESTIMATED TIME TO COMPLETE CALCULATION =        8.25 SECONDS

    FOR POINT-GROUP C1   THERE ARE   1 UNIQUE SYMMETRY FUNCTIONS.

 STEP:   1 TIME =     0.06 SECS, INTEGRAL =      0.06 TIME LEFT: 172799.91
 STEP:   2 TIME =     0.05 SECS, INTEGRAL =      0.11 TIME LEFT: 172799.86
 STEP:   3 TIME =     0.05 SECS, INTEGRAL =      0.16 TIME LEFT: 172799.81
 STEP:   4 TIME =     0.05 SECS, INTEGRAL =      0.20 TIME LEFT: 172799.77
 STEP:   5 TIME =     0.05 SECS, INTEGRAL =      0.25 TIME LEFT: 172799.72
 STEP:   6 TIME =     0.05 SECS, INTEGRAL =      0.30 TIME LEFT: 172799.66
 STEP:   7 TIME =     0.05 SECS, INTEGRAL =      0.35 TIME LEFT: 172799.62
 STEP:   8 TIME =     0.04 SECS, INTEGRAL =      0.39 TIME LEFT: 172799.57
 STEP:   9 TIME =     0.04 SECS, INTEGRAL =      0.44 TIME LEFT: 172799.53
 STEP:  10 TIME =     0.04 SECS, INTEGRAL =      0.48 TIME LEFT: 172799.49
 STEP:  11 TIME =     0.04 SECS, INTEGRAL =      0.52 TIME LEFT: 172799.45
 STEP:  12 TIME =     0.05 SECS, INTEGRAL =      0.57 TIME LEFT: 172799.40
 STEP:  13 TIME =     0.04 SECS, INTEGRAL =      0.61 TIME LEFT: 172799.36
 STEP:  14 TIME =     0.04 SECS, INTEGRAL =      0.66 TIME LEFT: 172799.31
 STEP:  15 TIME =     0.04 SECS, INTEGRAL =      0.70 TIME LEFT: 172799.27
 STEP:  16 TIME =     0.07 SECS, INTEGRAL =      0.77 TIME LEFT: 172799.20
 STEP:  17 TIME =     0.05 SECS, INTEGRAL =      0.82 TIME LEFT: 172799.14
 STEP:  18 TIME =     0.05 SECS, INTEGRAL =      0.87 TIME LEFT: 172799.10
 STEP:  19 TIME =     0.05 SECS, INTEGRAL =      0.92 TIME LEFT: 172799.05
 STEP:  20 TIME =     0.05 SECS, INTEGRAL =      0.96 TIME LEFT: 172799.00
 STEP:  21 TIME =     0.04 SECS, INTEGRAL =      1.01 TIME LEFT: 172798.96
 STEP:  22 TIME =     0.04 SECS, INTEGRAL =      1.05 TIME LEFT: 172798.92
 STEP:  23 TIME =     0.04 SECS, INTEGRAL =      1.09 TIME LEFT: 172798.88
 STEP:  24 TIME =     0.09 SECS, INTEGRAL =      1.18 TIME LEFT: 172798.79
 STEP:  25 TIME =     0.07 SECS, INTEGRAL =      1.25 TIME LEFT: 172798.72
 STEP:  26 TIME =     0.05 SECS, INTEGRAL =      1.29 TIME LEFT: 172798.68
 STEP:  27 TIME =     0.04 SECS, INTEGRAL =      1.34 TIME LEFT: 172798.63
 STEP:  28 TIME =     0.05 SECS, INTEGRAL =      1.38 TIME LEFT: 172798.59
 STEP:  29 TIME =     0.04 SECS, INTEGRAL =      1.43 TIME LEFT: 172798.54
 STEP:  30 TIME =     0.04 SECS, INTEGRAL =      1.47 TIME LEFT: 172798.50
 STEP:  31 TIME =     0.04 SECS, INTEGRAL =      1.51 TIME LEFT: 172798.46
 STEP:  32 TIME =     0.04 SECS, INTEGRAL =      1.55 TIME LEFT: 172798.41
 STEP:  33 TIME =     0.05 SECS, INTEGRAL =      1.60 TIME LEFT: 172798.37
 STEP:  34 TIME =     0.04 SECS, INTEGRAL =      1.64 TIME LEFT: 172798.32
 STEP:  35 TIME =     0.04 SECS, INTEGRAL =      1.69 TIME LEFT: 172798.28
 STEP:  36 TIME =     0.04 SECS, INTEGRAL =      1.73 TIME LEFT: 172798.24
 STEP:  37 TIME =     0.04 SECS, INTEGRAL =      1.77 TIME LEFT: 172798.20
 STEP:  38 TIME =     0.05 SECS, INTEGRAL =      1.82 TIME LEFT: 172798.15
 STEP:  39 TIME =     0.04 SECS, INTEGRAL =      1.86 TIME LEFT: 172798.11
 STEP:  40 TIME =     0.04 SECS, INTEGRAL =      1.91 TIME LEFT: 172798.06
 STEP:  41 TIME =     0.05 SECS, INTEGRAL =      1.95 TIME LEFT: 172798.02
 STEP:  42 TIME =     0.05 SECS, INTEGRAL =      2.00 TIME LEFT: 172797.97
 STEP:  43 TIME =     0.05 SECS, INTEGRAL =      2.05 TIME LEFT: 172797.92
 STEP:  44 TIME =     0.04 SECS, INTEGRAL =      2.09 TIME LEFT: 172797.88
 STEP:  45 TIME =     0.05 SECS, INTEGRAL =      2.14 TIME LEFT: 172797.83
 STEP:  46 TIME =     0.04 SECS, INTEGRAL =      2.18 TIME LEFT: 172797.79
 STEP:  47 TIME =     0.04 SECS, INTEGRAL =      2.23 TIME LEFT: 172797.74
 STEP:  48 TIME =     0.04 SECS, INTEGRAL =      2.27 TIME LEFT: 172797.70
 STEP:  49 TIME =     0.04 SECS, INTEGRAL =      2.31 TIME LEFT: 172797.66
 STEP:  50 TIME =     0.05 SECS, INTEGRAL =      2.36 TIME LEFT: 172797.61
 STEP:  51 TIME =     0.04 SECS, INTEGRAL =      2.40 TIME LEFT: 172797.57
 STEP:  52 TIME =     0.07 SECS, INTEGRAL =      2.47 TIME LEFT: 172797.50
 STEP:  53 TIME =     0.05 SECS, INTEGRAL =      2.52 TIME LEFT: 172797.45
 STEP:  54 TIME =     0.05 SECS, INTEGRAL =      2.57 TIME LEFT: 172797.40
 STEP:  55 TIME =     0.05 SECS, INTEGRAL =      2.61 TIME LEFT: 172797.36
 STEP:  56 TIME =     0.05 SECS, INTEGRAL =      2.66 TIME LEFT: 172797.31
 STEP:  57 TIME =     0.05 SECS, INTEGRAL =      2.71 TIME LEFT: 172797.26
 STEP:  58 TIME =     0.05 SECS, INTEGRAL =      2.75 TIME LEFT: 172797.21
 STEP:  59 TIME =     0.05 SECS, INTEGRAL =      2.80 TIME LEFT: 172797.17
 STEP:  60 TIME =     0.05 SECS, INTEGRAL =      2.85 TIME LEFT: 172797.12
 STEP:  61 TIME =     0.05 SECS, INTEGRAL =      2.91 TIME LEFT: 172797.06
 STEP:  62 TIME =     0.05 SECS, INTEGRAL =      2.96 TIME LEFT: 172797.01
 STEP:  63 TIME =     0.04 SECS, INTEGRAL =      3.00 TIME LEFT: 172796.96
 STEP:  64 TIME =     0.05 SECS, INTEGRAL =      3.05 TIME LEFT: 172796.92
 STEP:  65 TIME =     0.04 SECS, INTEGRAL =      3.09 TIME LEFT: 172796.88
 STEP:  66 TIME =     0.04 SECS, INTEGRAL =      3.14 TIME LEFT: 172796.83

(To convert to Hartree/Bohr^2, multiply by (10^(-21) x N x a0^2)/(4.184 x 627.51) =  0.0642)


           FORCE MATRIX IN MILLIDYNES/ANGSTROM


                  C  1       C  2       C  3       C  4       C  5       C  6
 ------------------------------------------------------------------------------
     C    1  14.420632
     C    2   3.177476  14.372637
     C    3   3.964983   0.493380  14.672910
     C    4   0.702104   3.348729   0.029328  14.565139
     C    5   4.461880   0.835762   0.647896   1.188359  18.386386
     C    6   0.511865   4.851112   0.068352   0.646264   0.031885  17.956906
     C    7   1.133625   0.859338   0.040654   4.797349  10.640995   0.036279
     C    8   0.652400   0.043670   4.993232   0.005825   0.040288   0.107909
     C    9   0.043306   0.106737   0.835006   0.022211   0.007756   0.920336
     C   10   0.032128   0.701909   0.120121   0.038038   0.004699  10.444747
     H   11   4.215553   0.418258   0.418020   0.028958   0.402252   0.024314
     H   12   0.414819   4.263465   0.030478   0.427185   0.023310   0.412494
     H   13   0.437975   0.045896   4.472651   0.004005   0.020992   0.004678
     H   14   0.440890   0.015862   4.403336   0.002473   0.048559   0.019944
     H   15   0.032745   0.435980   0.004474   4.533976   0.039810   0.021823
     H   16   0.022061   0.447048   0.001809   4.500509   0.036587   0.063241
     H   17   0.023421   0.006554   0.432021   0.001261   0.002686   0.015543
     H   18   0.415522   0.040057   0.011854   0.115336   5.011618   0.004530
     H   19   0.033368   0.430141   0.006269   0.015279   0.004101   4.754040
     H   20   0.113644   0.042406   0.016602   0.412736   0.450224   0.005508
     H   21   0.015095   0.008191   0.116852   0.001236   0.001756   0.045658
     H   22   0.010602   0.118933   0.009987   0.015147   0.001080   0.441266


                  C  7       C  8       C  9       C 10       H 11       H 12
 ------------------------------------------------------------------------------
     C    7  18.425588
     C    8   0.009624  18.025042
     C    9   0.005715  10.474050  18.449544
     C   10   0.005431   0.999630   5.754644  18.389048
     H   11   0.038751   0.047531   0.002763   0.001899   4.652870
     H   12   0.022117   0.002032   0.004642   0.047400   0.017266   4.657089
     H   13   0.002554   0.436199   0.051741   0.003646   0.039408   0.004641
     H   14   0.006998   0.427228   0.036126   0.024824   0.035190   0.001397
     H   15   0.433212   0.001074   0.001732   0.002954   0.001211   0.028260
     H   16   0.424764   0.001215   0.005091   0.008786   0.002982   0.030866
     H   17   0.001338   4.841266   0.439607   0.124911   0.003923   0.000420
     H   18   0.449326   0.002851   0.001177   0.001431   0.016180   0.002145
     H   19   0.001994   0.013517   0.126962   0.434063   0.002252   0.027419
     H   20   5.016952   0.001528   0.001384   0.001234   0.014523   0.002171
     H   21   0.001724   0.447211   4.806125   0.425459   0.002237   0.000320
     H   22   0.001380   0.046963   0.423036   4.755823   0.001226   0.007624


                  H 13       H 14       H 15       H 16       H 17       H 18
 ------------------------------------------------------------------------------
     H   13   5.051007
     H   14   0.552204   4.995838
     H   15   0.000970   0.000763   5.137193
     H   16   0.000378   0.000196   0.564293   5.109669
     H   17   0.034443   0.026567   0.000198   0.000568   5.203877
     H   18   0.008036   0.001603   0.015324   0.015747   0.001870   5.409534
     H   19   0.000425   0.001516   0.001123   0.002709   0.005915   0.001065
     H   20   0.000789   0.002874   0.015465   0.014020   0.000630   0.047622
     H   21   0.006556   0.009072   0.000448   0.000868   0.068250   0.000482
     H   22   0.000553   0.001973   0.001382   0.000948   0.011276   0.000424


                  H 19       H 20       H 21       H 22
 ------------------------------------------------------
     H   19   5.093810
     H   20   0.000788   5.412719
     H   21   0.011159   0.000684   5.169608
     H   22   0.073052   0.000518   0.033460   5.108644


          HEAT OF FORMATION =      42.307984 KCALS/MOLE

          ZERO POINT ENERGY     118.793 KCAL/MOL


           NORMAL COORDINATE ANALYSIS (Total motion = 1 Angstrom)


   Root No.       1         2         3         4         5         6         7         8

                 1 A       2 A       3 A       4 A       5 A       6 A       7 A       8 A   

                  73.6     140.5     260.2     277.3     338.9     375.3     414.6     457.7
  
           1    0.0026   -0.0009   -0.0164    0.0089   -0.0164    0.0212    0.0055    0.0214
           2   -0.0012   -0.0047   -0.0027   -0.0010   -0.0345    0.0044   -0.0087   -0.0095
           3   -0.0116   -0.0166    0.0013   -0.0223   -0.0081   -0.0086    0.0080   -0.0144
           4    0.0029   -0.0001   -0.0168    0.0099   -0.0205    0.0181    0.0042    0.0166
           5    0.0027   -0.0047    0.0030    0.0029   -0.0009   -0.0289    0.0227   -0.0142
           6    0.0109   -0.0175   -0.0164   -0.0079   -0.0131   -0.0025    0.0219   -0.0121
           7   -0.0004    0.0159   -0.0279   -0.0343    0.0346    0.0169   -0.0109    0.0059
           8   -0.0022    0.0043   -0.0074   -0.0220   -0.0127    0.0113   -0.0179   -0.0231
           9    0.0205   -0.0262    0.0014    0.0269    0.0002    0.0194   -0.0090    0.0111
          10   -0.0153    0.0004    0.0038   -0.0021   -0.0094    0.0135   -0.0079   -0.0048
          11    0.0429    0.0231    0.0408   -0.0093    0.0041   -0.0181   -0.0211   -0.0032
          12    0.0387   -0.0018   -0.0013   -0.0096   -0.0149    0.0074    0.0035    0.0045
          13   -0.0095   -0.0006    0.0071   -0.0016   -0.0089    0.0131   -0.0082   -0.0041
          14   -0.0293    0.0316   -0.0153    0.0041   -0.0367   -0.0148   -0.0105    0.0440
          15   -0.0339    0.0083    0.0015   -0.0227   -0.0064   -0.0272    0.0038    0.0104
          16   -0.0036   -0.0119    0.0028    0.0251   -0.0298   -0.0262   -0.0158   -0.0220
          17    0.0028    0.0019   -0.0092   -0.0037    0.0108   -0.0123    0.0352    0.0072
          18   -0.0240   -0.0248   -0.0070    0.0153    0.0060   -0.0199   -0.0199   -0.0183
          19   -0.0185   -0.0005    0.0183   -0.0111   -0.0017    0.0013   -0.0129   -0.0117
          20   -0.0046    0.0557    0.0039    0.0450    0.0192    0.0171   -0.0076   -0.0152
          21   -0.0057    0.0219   -0.0041    0.0136    0.0148    0.0101    0.0115   -0.0151
          22    0.0202    0.0000   -0.0061    0.0015    0.0250   -0.0193    0.0180    0.0083
          23   -0.0140   -0.0378    0.0276   -0.0144   -0.0116    0.0501    0.0093   -0.0133
          24    0.0234    0.0083   -0.0299    0.0116    0.0046    0.0046   -0.0343    0.0058
          25    0.0216    0.0023    0.0050   -0.0007    0.0046   -0.0070    0.0207   -0.0050
          26   -0.0068   -0.0548   -0.0142    0.0018    0.0454    0.0095   -0.0193    0.0244
          27    0.0012    0.0346    0.0033   -0.0141   -0.0006    0.0233    0.0167    0.0005
          28    0.0030   -0.0065    0.0335    0.0103    0.0140   -0.0280    0.0178    0.0039
          29    0.0051   -0.0174   -0.0319   -0.0001    0.0139   -0.0259    0.0280   -0.0068
          30   -0.0254    0.0126    0.0453    0.0014    0.0229    0.0042    0.0052    0.0218
          31    0.0140   -0.0083   -0.0235    0.0216   -0.0263    0.0159    0.0285    0.0161
          32    0.0234   -0.0183   -0.0047    0.0127   -0.0263    0.0390   -0.0214   -0.0240
          33   -0.0304   -0.0046    0.0048   -0.0347   -0.0087   -0.0273    0.0065   -0.0032
          34    0.0161    0.0058   -0.0257    0.0160   -0.0050    0.0238    0.0155    0.0378
          35   -0.0264   -0.0151   -0.0105    0.0118    0.0156   -0.0421    0.0324   -0.0208
          36    0.0364   -0.0072   -0.0096   -0.0120   -0.0189    0.0091    0.0183    0.0008
          37   -0.0013    0.0159   -0.0287   -0.0335    0.0309    0.0196   -0.0117    0.0068
          38   -0.0045    0.0261   -0.0235   -0.0689    0.0362   -0.0084   -0.0398   -0.0570
          39    0.0398   -0.0650    0.0409    0.0984   -0.0335    0.0153    0.0416    0.0511
          40   -0.0199    0.0574   -0.0658   -0.1201    0.0876    0.0109   -0.0592   -0.0456
          41    0.0105    0.0154   -0.0230   -0.0003   -0.0225    0.0149   -0.0399   -0.0070
          42    0.0219   -0.0060   -0.0199    0.0136    0.0100    0.0188   -0.0368    0.0053
          43    0.0334   -0.0140    0.0459   -0.0530   -0.0319   -0.0157   -0.0512    0.0314
          44    0.0732    0.0072    0.0706   -0.0493   -0.0127   -0.0446   -0.0483    0.0201
          45    0.0811    0.0144    0.0218   -0.0210   -0.0242    0.0146   -0.0366    0.0376
          46   -0.0775    0.0169   -0.0361    0.0516    0.0218    0.0421    0.0372   -0.0559
          47    0.0804    0.0340    0.0783   -0.0354   -0.0011   -0.0243   -0.0654    0.0225
          48    0.0496   -0.0243   -0.0059   -0.0256   -0.0338   -0.0092    0.0095    0.0192
          49    0.0338   -0.0049   -0.0160    0.0170    0.0177   -0.0441    0.0108    0.0018
          50   -0.0267   -0.0680    0.0948   -0.0094   -0.0314    0.1170    0.0403   -0.0075
          51    0.0430    0.0111   -0.0601    0.0289    0.0020   -0.0446   -0.0505   -0.0030
          52   -0.0105   -0.0007    0.0130   -0.0041   -0.0045    0.0115   -0.0108   -0.0139
          53   -0.0635    0.0417   -0.0422   -0.0004   -0.0692   -0.0387   -0.0106    0.1301
          54   -0.0679    0.0166    0.0044   -0.0370   -0.0161   -0.0553   -0.0076    0.0423
          55   -0.0214   -0.0320    0.0033    0.0481   -0.0311   -0.0600   -0.0705   -0.0511
          56    0.0021    0.0228   -0.0117   -0.0126    0.0068    0.0271    0.0519    0.0393
          57   -0.0472   -0.0515   -0.0058    0.0459    0.0035   -0.0661   -0.0927   -0.0584
          58   -0.0277   -0.0009    0.0355   -0.0236    0.0119   -0.0173   -0.0166   -0.0235
          59   -0.0134    0.0910   -0.0024    0.0955    0.0594    0.0485   -0.0021   -0.0369
          60   -0.0117    0.0453   -0.0082    0.0470    0.0416    0.0309    0.0153   -0.0298
          61    0.0372    0.0083   -0.0150   -0.0058   -0.0270    0.0102    0.0085   -0.0357
          62   -0.0122   -0.0971   -0.0086    0.0196    0.0952    0.0228   -0.0616    0.0823
          63    0.0012    0.0626    0.0047   -0.0247   -0.0285    0.0095    0.0492   -0.0330
          64   -0.0101   -0.0192    0.0746    0.0162    0.0570   -0.0404   -0.0060    0.0314
          65    0.0114   -0.0061   -0.0525   -0.0025   -0.0152   -0.0205    0.0437   -0.0239
          66   -0.0457    0.0245    0.1059    0.0131    0.0423   -0.0243   -0.0048    0.0409


   Root No.       9        10        11        12        13        14        15        16

                 9 A      10 A      11 A      12 A      13 A      14 A      15 A      16 A   

                 566.5     588.5     714.8     737.2     763.4     780.5     812.0     833.3
  
           1   -0.0021    0.0181    0.0226   -0.0070   -0.0097    0.0094    0.0134    0.0345
           2   -0.0259   -0.0113    0.0172   -0.0146    0.0078    0.0017    0.0088    0.0295
           3   -0.0124    0.0280    0.0103   -0.0244   -0.0113   -0.0270    0.0122    0.0302
           4   -0.0012    0.0211    0.0086   -0.0067   -0.0007   -0.0313   -0.0140   -0.0164
           5   -0.0122    0.0229   -0.0145   -0.0002    0.0056    0.0231    0.0254   -0.0042
           6   -0.0223   -0.0246   -0.0375    0.0014   -0.0075    0.0035    0.0224    0.0042
           7    0.0145    0.0260   -0.0005   -0.0046   -0.0164    0.0147    0.0165    0.0157
           8   -0.0181   -0.0204    0.0174    0.0028    0.0137   -0.0076   -0.0017   -0.0070
           9    0.0074    0.0297   -0.0138    0.0130   -0.0124    0.0016   -0.0081    0.0060
          10   -0.0098   -0.0323   -0.0287    0.0004   -0.0177   -0.0232   -0.0019   -0.0038
          11    0.0105    0.0102   -0.0083   -0.0168   -0.0100    0.0154    0.0093   -0.0029
          12   -0.0158   -0.0215   -0.0057    0.0083   -0.0046    0.0090   -0.0069   -0.0232
          13   -0.0087   -0.0263    0.0201    0.0192    0.0215    0.0374   -0.0057   -0.0011
          14    0.0034   -0.0133   -0.0085   -0.0065   -0.0117    0.0190   -0.0172    0.0039
          15    0.0067    0.0174    0.0085   -0.0112   -0.0014   -0.0031   -0.0077   -0.0055
          16    0.0033    0.0504   -0.0061   -0.0133    0.0267   -0.0131    0.0041   -0.0342
          17   -0.0043    0.0202    0.0060    0.0111   -0.0005   -0.0034   -0.0081   -0.0111
          18    0.0344   -0.0351   -0.0078   -0.0023    0.0058   -0.0051   -0.0182    0.0297
          19   -0.0018   -0.0221   -0.0062    0.0038    0.0034    0.0032    0.0007   -0.0024
          20    0.0015   -0.0050   -0.0188   -0.0183   -0.0206   -0.0149   -0.0109    0.0038
          21   -0.0070    0.0084    0.0404    0.0076    0.0223    0.0300   -0.0116   -0.0032
          22    0.0158   -0.0301    0.0019   -0.0182    0.0085    0.0057    0.0090   -0.0062
          23    0.0207    0.0109    0.0078    0.0142   -0.0146   -0.0110    0.0019   -0.0154
          24   -0.0126    0.0187   -0.0094    0.0099    0.0012    0.0072   -0.0083    0.0004
          25    0.0144   -0.0126   -0.0044   -0.0005    0.0021    0.0056   -0.0025    0.0013
          26   -0.0011   -0.0184    0.0153   -0.0128   -0.0004   -0.0131    0.0144   -0.0254
          27    0.0312   -0.0116    0.0003   -0.0186    0.0106    0.0073    0.0140   -0.0199
          28   -0.0213    0.0035   -0.0071    0.0151    0.0043   -0.0109   -0.0240    0.0198
          29    0.0160   -0.0070    0.0056    0.0224   -0.0091   -0.0041   -0.0264    0.0140
          30   -0.0139   -0.0043   -0.0005   -0.0094    0.0132   -0.0106   -0.0029   -0.0006
          31   -0.0189    0.0171   -0.0077   -0.0141   -0.0169    0.0061    0.0572    0.0582
          32   -0.0327   -0.0167    0.0136    0.0105    0.0136   -0.0051    0.0194    0.0487
          33   -0.0015    0.0313    0.0236   -0.0359   -0.0114   -0.0226   -0.0116    0.0080
          34    0.0162    0.0110    0.0116    0.0208   -0.0060   -0.0142   -0.0464   -0.0576
          35    0.0133    0.0306   -0.0085    0.0054    0.0129    0.0169    0.0114    0.0296
          36   -0.0334   -0.0337   -0.0403    0.0079   -0.0141    0.0131    0.0191   -0.0362
          37    0.0124    0.0307    0.0010   -0.0036   -0.0195    0.0165    0.0172    0.0245
          38   -0.0286   -0.0125   -0.0266    0.0281    0.0386   -0.0254   -0.0384   -0.0678
          39    0.0513   -0.0438    0.0382   -0.0362   -0.0166    0.0115    0.0432   -0.0099
          40   -0.0238    0.0965   -0.0663    0.0482   -0.0110   -0.0036   -0.0400    0.0051
          41   -0.0340   -0.0238    0.0135    0.0154    0.0303    0.0216   -0.0184    0.0094
          42   -0.0136    0.0483   -0.0356    0.0363   -0.0013    0.0129   -0.0353    0.0119
          43    0.0307   -0.0404   -0.0124    0.0405    0.0203   -0.0724    0.0085    0.0527
          44    0.0364    0.0030   -0.0025    0.0153    0.0202   -0.0065    0.0318    0.0411
          45    0.0220   -0.0169    0.0353    0.0193    0.0087   -0.0728   -0.0653   -0.0010
          46   -0.0565   -0.0364   -0.0562   -0.0449   -0.0618    0.0472   -0.0023   -0.0592
          47    0.0501    0.0071    0.0355    0.0036    0.0188   -0.0291   -0.0209    0.0463
          48   -0.0162   -0.0161   -0.0270    0.0236    0.0023   -0.0053    0.0220   -0.0256
          49   -0.0033   -0.0492    0.0265   -0.0046   -0.0047   -0.0277    0.0044   -0.0184
          50    0.0589    0.0857   -0.1103    0.0352    0.0334    0.0941   -0.0681    0.0446
          51   -0.0458   -0.0264    0.0543    0.0194   -0.0279   -0.0632    0.0068   -0.0322
          52   -0.0101   -0.0327    0.0140    0.0132    0.0198    0.0307   -0.0137   -0.0114
          53    0.0430   -0.0036   -0.0483    0.1163    0.0366    0.0059    0.0962   -0.0088
          54    0.0349   -0.0033   -0.0539    0.0696    0.0329   -0.0462    0.0547   -0.0650
          55    0.0375    0.0634    0.0307    0.0139   -0.0422    0.0446    0.0386   -0.0719
          56   -0.0089    0.0351    0.0163   -0.0201    0.0460   -0.0573   -0.0362   -0.0400
          57    0.0795   -0.0182    0.0399    0.0346   -0.0870    0.0739    0.0289   -0.0178
          58    0.0125    0.0084    0.0011   -0.0244   -0.0000   -0.0076    0.0087    0.0059
          59    0.0188   -0.0010   -0.0235    0.0926    0.0655   -0.1101    0.1183    0.0593
          60    0.0043    0.0109    0.0376    0.0814    0.0800   -0.0334    0.0739    0.0326
          61    0.0372   -0.0064    0.0175    0.0278   -0.0456   -0.0022    0.0134   -0.0258
          62   -0.0449    0.0147   -0.0685   -0.0769    0.1115    0.0523    0.0053    0.0026
          63    0.0561   -0.0358    0.0541    0.0202   -0.0568   -0.0372    0.0164   -0.0341
          64   -0.0722   -0.0107    0.0389    0.0669   -0.0941    0.0135    0.0075    0.0124
          65    0.0424    0.0129   -0.0195   -0.0036    0.0469   -0.0187   -0.0462    0.0111
          66   -0.0848    0.0443    0.0542    0.0685   -0.0977    0.0168    0.0259   -0.0460


   Root No.      17        18        19        20        21        22        23        24

                17 A      18 A      19 A      20 A      21 A      22 A      23 A      24 A   

                 846.3     922.2     935.4     956.9     979.2     994.1     997.7    1016.1
  
           1   -0.0059    0.0046   -0.0189    0.0066    0.0064   -0.0015   -0.0032   -0.0065
           2    0.0118    0.0007   -0.0105   -0.0124   -0.0138    0.0052    0.0001    0.0098
           3    0.0170   -0.0028   -0.0202   -0.0151   -0.0048    0.0052    0.0089   -0.0082
           4    0.0132    0.0151   -0.0163    0.0125    0.0018    0.0069    0.0040    0.0047
           5   -0.0089   -0.0174    0.0066    0.0079    0.0045   -0.0075    0.0028   -0.0079
           6   -0.0070   -0.0036    0.0114    0.0169    0.0004   -0.0116   -0.0061    0.0122
           7   -0.0111    0.0139    0.0472   -0.0178   -0.0009    0.0009    0.0056    0.0034
           8    0.0095    0.0273    0.0141    0.0070    0.0068   -0.0013   -0.0002   -0.0119
           9   -0.0097   -0.0124   -0.0056   -0.0136   -0.0033    0.0030    0.0051    0.0249
          10    0.0166   -0.0109    0.0095   -0.0119    0.0027   -0.0068   -0.0016   -0.0187
          11   -0.0199    0.0257   -0.0224   -0.0023   -0.0004    0.0232    0.0112   -0.0027
          12    0.0059   -0.0003    0.0017   -0.0193    0.0006    0.0110    0.0055   -0.0139
          13   -0.0115   -0.0177   -0.0048   -0.0082   -0.0034    0.0048    0.0105    0.0034
          14   -0.0044   -0.0309    0.0120    0.0081    0.0062    0.0223    0.0051    0.0134
          15    0.0023    0.0095    0.0130    0.0194    0.0056    0.0074   -0.0112    0.0102
          16   -0.0113   -0.0104    0.0190   -0.0038   -0.0258   -0.0058    0.0054    0.0007
          17    0.0154   -0.0007    0.0052   -0.0078    0.0071   -0.0006   -0.0071    0.0016
          18   -0.0196    0.0126   -0.0048    0.0103   -0.0154   -0.0004    0.0290   -0.0006
          19   -0.0027    0.0035    0.0032    0.0031   -0.0011    0.0021   -0.0010    0.0075
          20    0.0028   -0.0030    0.0032   -0.0008   -0.0043   -0.0312   -0.0061    0.0024
          21   -0.0071   -0.0034   -0.0018   -0.0008   -0.0043   -0.0251   -0.0055   -0.0018
          22    0.0196   -0.0058   -0.0137    0.0015   -0.0174    0.0025    0.0007    0.0079
          23   -0.0240   -0.0055    0.0020    0.0023    0.0348   -0.0128    0.0118    0.0030
          24   -0.0010    0.0064    0.0092    0.0132   -0.0017    0.0035   -0.0079   -0.0282
          25    0.0100   -0.0008   -0.0116    0.0068    0.0100   -0.0049    0.0078   -0.0001
          26   -0.0142   -0.0178   -0.0084    0.0058   -0.0315    0.0102   -0.0261   -0.0113
          27    0.0175   -0.0104   -0.0080    0.0024    0.0050   -0.0097   -0.0013   -0.0007
          28   -0.0187    0.0061    0.0040   -0.0127    0.0195    0.0081   -0.0245   -0.0081
          29    0.0126    0.0110    0.0050   -0.0076   -0.0049   -0.0002    0.0025    0.0030
          30   -0.0132   -0.0026   -0.0042   -0.0096    0.0163    0.0083   -0.0176   -0.0018
          31   -0.0150    0.0012   -0.0680    0.0854    0.0167   -0.0789   -0.0696   -0.0016
          32    0.0101    0.0389   -0.0080   -0.0559   -0.0549   -0.0385   -0.0363    0.1481
          33    0.0221   -0.0220   -0.0031   -0.0177    0.0160    0.0612    0.0557   -0.0919
          34   -0.0021    0.0759   -0.0276    0.0896    0.0605    0.0434    0.0263    0.0313
          35   -0.0106   -0.0397    0.0103    0.0418    0.0296   -0.0645    0.0456   -0.0822
          36   -0.0104    0.0335    0.0060    0.0202    0.0038    0.0413   -0.0271    0.0735
          37   -0.0151    0.0154    0.0463   -0.0145    0.0021    0.0001   -0.0018   -0.0041
          38    0.0303   -0.0242   -0.0569    0.0029   -0.0117    0.0021    0.0428    0.0520
          39    0.0039    0.0528    0.1286   -0.0462   -0.0043    0.0064    0.0415    0.0234
          40   -0.0172   -0.0801   -0.0992   -0.0108   -0.0072    0.0016    0.0143    0.0578
          41    0.0107    0.0804    0.0489    0.0465   -0.0118    0.0041   -0.0756   -0.0424
          42   -0.0115   -0.0093   -0.0284    0.0125   -0.0157    0.0068   -0.0372    0.0221
          43    0.0451   -0.0823    0.0652    0.0256    0.0086   -0.0605   -0.0248   -0.0057
          44   -0.0085   -0.0330    0.0218    0.0332    0.0084   -0.0061   -0.0026    0.0100
          45    0.0606   -0.0157    0.0143   -0.0365   -0.0157   -0.0611   -0.0163   -0.0251
          46   -0.0281    0.0664   -0.0483   -0.0591   -0.0047    0.0500    0.0223   -0.0506
          47    0.0091   -0.0112   -0.0019   -0.0079   -0.0131   -0.0515   -0.0089   -0.0177
          48    0.0130   -0.0247    0.0273    0.0230    0.0180    0.0361    0.0058    0.0242
          49   -0.0123   -0.0130   -0.0436    0.0117    0.0435   -0.0139    0.0330    0.0239
          50    0.0959    0.0249   -0.0192    0.0471   -0.1025    0.0415   -0.0341   -0.0542
          51   -0.0738   -0.0108   -0.0186    0.0113    0.1099   -0.0315    0.0425    0.0069
          52   -0.0068   -0.0128    0.0135    0.0007   -0.0044    0.0082    0.0026    0.0185
          53   -0.0383    0.0638   -0.1110   -0.0879   -0.0302   -0.0773    0.0233   -0.0580
          54   -0.0043    0.1127   -0.0115   -0.0270   -0.0296   -0.0643   -0.0295    0.0104
          55    0.0905   -0.0175   -0.0124   -0.0317    0.0620    0.0123   -0.0677    0.0081
          56   -0.0035    0.0120   -0.0038    0.0054   -0.0468    0.0074    0.0631    0.0128
          57    0.1157    0.0031   -0.0460   -0.0274    0.1027    0.0233   -0.0692    0.0097
          58   -0.0197    0.0828   -0.0129    0.0688   -0.0019   -0.0161   -0.0413    0.0769
          59    0.0486   -0.0183    0.0215    0.0258    0.0246    0.1373    0.0241    0.0076
          60    0.0236   -0.0123    0.0108    0.0175    0.0149    0.0862    0.0136    0.0024
          61   -0.0355   -0.0204   -0.0168    0.0629   -0.0151   -0.0015    0.0109   -0.0709
          62    0.0984    0.0247   -0.0036   -0.0001    0.1167   -0.0563    0.0671    0.0142
          63   -0.0511   -0.0362   -0.0107   -0.0061   -0.0930    0.0360   -0.0683   -0.0029
          64    0.0374    0.0142   -0.0054    0.0586   -0.0626   -0.0208    0.0525   -0.0156
          65   -0.0125    0.0074    0.0200   -0.0552    0.0396    0.0135   -0.0366    0.0155
          66    0.0881    0.0114    0.0410    0.0309   -0.0876   -0.0415    0.0992    0.0403


   Root No.      25        26        27        28        29        30        31        32

                25 A      26 A      27 A      28 A      29 A      30 A      31 A      32 A   

                1026.8    1061.8    1065.9    1079.0    1082.9    1100.2    1110.0    1117.0
  
           1   -0.0035   -0.0037    0.0001    0.0003    0.0019    0.0027    0.0066   -0.0099
           2    0.0028    0.0121   -0.0052   -0.0025    0.0069   -0.0027   -0.0101    0.0058
           3    0.0036   -0.0002   -0.0107   -0.0028    0.0036    0.0006   -0.0086   -0.0028
           4    0.0095   -0.0023   -0.0080   -0.0084   -0.0043   -0.0063    0.0013   -0.0024
           5    0.0190    0.0141   -0.0017   -0.0011   -0.0042    0.0054   -0.0027    0.0027
           6   -0.0020   -0.0053   -0.0114    0.0160   -0.0082    0.0150   -0.0210    0.0009
           7    0.0122    0.0020   -0.0008    0.0039    0.0007    0.0002   -0.0010   -0.0016
           8    0.0076   -0.0120   -0.0049    0.0028   -0.0066   -0.0002    0.0068   -0.0107
           9    0.0101    0.0019    0.0026   -0.0069   -0.0079    0.0129    0.0009   -0.0091
          10    0.0034   -0.0180    0.0179   -0.0079   -0.0097   -0.0018    0.0058    0.0097
          11   -0.0058   -0.0038    0.0083   -0.0029   -0.0046   -0.0058    0.0030   -0.0043
          12    0.0053    0.0147    0.0156   -0.0080    0.0030   -0.0043    0.0233    0.0054
          13   -0.0010    0.0109   -0.0146    0.0053    0.0063    0.0015   -0.0077   -0.0082
          14   -0.0056    0.0064    0.0064    0.0070   -0.0055   -0.0033    0.0007   -0.0002
          15   -0.0005   -0.0002    0.0207   -0.0022   -0.0091   -0.0075    0.0081    0.0052
          16   -0.0232   -0.0028    0.0031   -0.0003   -0.0026    0.0029   -0.0005    0.0010
          17    0.0004   -0.0031    0.0019    0.0064    0.0048   -0.0009   -0.0028    0.0046
          18   -0.0001   -0.0002    0.0064   -0.0020    0.0054   -0.0029    0.0017   -0.0004
          19   -0.0010    0.0147   -0.0065    0.0049    0.0055    0.0029    0.0027   -0.0022
          20    0.0092    0.0017   -0.0230   -0.0070    0.0181    0.0034   -0.0008   -0.0058
          21    0.0055   -0.0256    0.0005   -0.0081   -0.0030   -0.0033   -0.0015    0.0066
          22    0.0138   -0.0031    0.0077    0.0009    0.0033    0.0116   -0.0027   -0.0056
          23   -0.0170    0.0032    0.0061   -0.0018    0.0031    0.0027    0.0011   -0.0010
          24   -0.0107   -0.0013   -0.0133    0.0113    0.0033   -0.0232    0.0022    0.0088
          25   -0.0032    0.0021    0.0067   -0.0008    0.0076    0.0022   -0.0034    0.0035
          26   -0.0014    0.0013   -0.0045   -0.0004   -0.0021   -0.0011   -0.0020    0.0033
          27   -0.0402    0.0098   -0.0067   -0.0150   -0.0095   -0.0031    0.0013    0.0045
          28   -0.0131    0.0019   -0.0122   -0.0047   -0.0066   -0.0101    0.0036    0.0028
          29   -0.0312   -0.0033   -0.0035   -0.0032    0.0000   -0.0058    0.0054   -0.0017
          30    0.0220   -0.0049    0.0024    0.0109    0.0082   -0.0009   -0.0036    0.0031
          31   -0.0324   -0.0022    0.0680    0.0639   -0.0193   -0.0868    0.0706   -0.1142
          32    0.0411    0.0249    0.0674   -0.0423   -0.0284   -0.0753   -0.0156    0.1129
          33   -0.0064   -0.0089   -0.0804   -0.0041    0.0317    0.0788   -0.0302   -0.0286
          34    0.0924    0.0062   -0.0680   -0.0472   -0.0786    0.0139   -0.1344    0.0414
          35    0.1420    0.0946    0.0286   -0.0464   -0.0866    0.0148    0.0292    0.0220
          36   -0.0562   -0.0566   -0.0543    0.0344    0.0219    0.0173   -0.0943    0.0050
          37    0.0004    0.0119    0.0086   -0.0040    0.0148    0.0081   -0.0132    0.0073
          38    0.0763   -0.0714   -0.0505    0.0487   -0.0924   -0.0376    0.0851   -0.0793
          39    0.0723   -0.0407   -0.0446    0.0411   -0.0559   -0.0278    0.0458   -0.0508
          40    0.0051    0.0122    0.0048   -0.0012   -0.0023    0.0028   -0.0024   -0.0039
          41   -0.0029   -0.0011    0.0905   -0.0712    0.0206    0.1524   -0.0159   -0.0478
          42    0.0009    0.0114    0.0612   -0.0530    0.0075    0.1065   -0.0131   -0.0334
          43    0.0167   -0.1128    0.0054   -0.0427   -0.0020   -0.0121   -0.0262    0.0197
          44    0.0076   -0.1141    0.0001   -0.0578    0.0133   -0.0297   -0.0183   -0.0004
          45    0.0013    0.1578    0.0034    0.1006   -0.0426    0.0590    0.0032    0.0176
          46   -0.0315   -0.0360    0.0860    0.0125   -0.0639   -0.0115   -0.0216    0.0203
          47   -0.0212    0.0014    0.0272    0.0649   -0.0708    0.0206   -0.0887    0.0001
          48    0.0463    0.0215   -0.0526   -0.0867    0.1041   -0.0211    0.1292   -0.0049
          49    0.0397   -0.0241    0.0487    0.0314    0.0432    0.0438   -0.0025   -0.0399
          50    0.0537   -0.0344   -0.0009    0.0487    0.0287   -0.0113    0.0063   -0.0213
          51   -0.0033   -0.0147    0.0342    0.0313    0.0396    0.0166    0.0024   -0.0255
          52    0.0040    0.0557   -0.0095   -0.0013    0.0244   -0.0295   -0.0348   -0.0464
          53    0.0030   -0.0798   -0.0461    0.0084   -0.0136    0.0656    0.0370    0.0617
          54    0.0295    0.1153    0.0009   -0.0329    0.0609   -0.0836   -0.0799   -0.1050
          55    0.0189   -0.0099   -0.0019    0.0097    0.0074    0.0017   -0.0092    0.0085
          56    0.0675   -0.0328    0.0710    0.0238    0.0828   -0.0125   -0.0062    0.0352
          57    0.0541   -0.0098   -0.0016    0.0126    0.0182   -0.0035   -0.0102    0.0080
          58   -0.0136    0.0283   -0.0588    0.0585    0.0094    0.1023    0.1581    0.1154
          59   -0.0252    0.0400    0.0267    0.0199   -0.0142    0.0049    0.0096    0.0012
          60   -0.0170    0.0003    0.0341    0.0099   -0.0246   -0.0019    0.0080    0.0130
          61    0.0411    0.0120    0.0258    0.0651    0.0865   -0.0710   -0.0535    0.1274
          62   -0.0761    0.0130    0.0072   -0.0119    0.0070   -0.0093   -0.0041    0.0191
          63   -0.0001   -0.0009   -0.0194   -0.0220   -0.0337    0.0193    0.0143   -0.0352
          64   -0.0669    0.0409   -0.0315   -0.0637   -0.0447   -0.0307    0.0120    0.0172
          65   -0.0021   -0.0388    0.0184    0.0485    0.0353    0.0157   -0.0019   -0.0164
          66   -0.0366   -0.0376    0.0444    0.0497    0.0401    0.0396   -0.0091   -0.0244


   Root No.      33        34        35        36        37        38        39        40

                33 A      34 A      35 A      36 A      37 A      38 A      39 A      40 A   

                1161.2    1173.1    1207.4    1212.5    1229.4    1288.1    1299.4    1355.8
  
           1   -0.0068    0.0042    0.0001   -0.0127    0.0248    0.0696    0.0030    0.0123
           2   -0.0024   -0.0013   -0.0032    0.0124    0.0248   -0.0235    0.0033   -0.0321
           3   -0.0015    0.0054   -0.0123   -0.0003   -0.0188   -0.0097   -0.0284    0.0046
           4    0.0040    0.0028    0.0482   -0.0150   -0.0135   -0.0308    0.0287   -0.0017
           5    0.0074   -0.0065   -0.0346   -0.0117    0.0153    0.0105    0.0295   -0.0025
           6    0.0090   -0.0036    0.0512    0.0004   -0.0204    0.0081   -0.0011   -0.0059
           7    0.0044   -0.0071   -0.0041   -0.0020   -0.0015   -0.0157   -0.0073   -0.0113
           8   -0.0004   -0.0016   -0.0031    0.0081   -0.0072   -0.0037    0.0226    0.0460
           9    0.0099    0.0123   -0.0021    0.0087    0.0082   -0.0102    0.0171    0.0209
          10   -0.0024   -0.0018   -0.0177   -0.0026    0.0050   -0.0006    0.0172   -0.0202
          11   -0.0023    0.0038    0.0126   -0.0045   -0.0192   -0.0030    0.0111   -0.0249
          12   -0.0073   -0.0009   -0.0057    0.0112    0.0251    0.0003   -0.0238    0.0394
          13    0.0037    0.0023    0.0057    0.0009   -0.0163   -0.0102   -0.0099    0.0012
          14    0.0010   -0.0003    0.0127    0.0029    0.0006   -0.0062   -0.0079   -0.0015
          15   -0.0026   -0.0008   -0.0171   -0.0084   -0.0087    0.0154    0.0129    0.0083
          16   -0.0045   -0.0044   -0.0084   -0.0019    0.0024   -0.0022   -0.0141    0.0092
          17    0.0065   -0.0012    0.0025   -0.0134    0.0047   -0.0140    0.0008    0.0207
          18    0.0046    0.0015   -0.0123   -0.0032    0.0044    0.0002    0.0125    0.0006
          19    0.0001    0.0017   -0.0155   -0.0019   -0.0217    0.0080   -0.0107    0.0245
          20   -0.0007    0.0018   -0.0064    0.0002   -0.0035    0.0078   -0.0108    0.0157
          21    0.0012   -0.0021    0.0045    0.0000    0.0049   -0.0130    0.0155   -0.0235
          22   -0.0054    0.0018   -0.0024    0.0065   -0.0003   -0.0019    0.0150    0.0134
          23    0.0014   -0.0005    0.0011    0.0059   -0.0026    0.0082    0.0053   -0.0067
          24   -0.0085   -0.0114    0.0031    0.0125   -0.0085    0.0165    0.0082   -0.0076
          25    0.0013    0.0023    0.0005    0.0121   -0.0042    0.0097    0.0164    0.0025
          26   -0.0104    0.0022    0.0025    0.0033   -0.0028    0.0053   -0.0056   -0.0072
          27   -0.0021   -0.0008    0.0015   -0.0053    0.0006    0.0017   -0.0204   -0.0142
          28    0.0009    0.0049    0.0061    0.0097   -0.0058    0.0106   -0.0137   -0.0204
          29   -0.0022    0.0019    0.0016   -0.0045    0.0014   -0.0055   -0.0111    0.0014
          30    0.0018    0.0026    0.0011   -0.0120    0.0045   -0.0124    0.0050    0.0164
          31    0.0336    0.0370   -0.1185    0.0729   -0.0270   -0.1386   -0.0444   -0.0005
          32   -0.0512   -0.0258    0.0064   -0.0554   -0.0615    0.0736   -0.0315    0.0119
          33    0.0127    0.0091    0.0275    0.0063    0.0524    0.0128    0.0100   -0.0164
          34   -0.0719    0.0064   -0.1670    0.0673    0.0148   -0.0189   -0.0765   -0.0238
          35   -0.0631    0.0070    0.1089    0.0517   -0.0373    0.0052   -0.0585   -0.0111
          36    0.0321   -0.0130   -0.1286   -0.0131    0.0267    0.0165    0.0216   -0.0079
          37   -0.0035   -0.0203   -0.0052    0.0103   -0.0068   -0.0328    0.0087    0.0095
          38    0.0479    0.0856    0.0007   -0.0686    0.0406    0.1153   -0.0715   -0.0783
          39    0.0398    0.0273   -0.0094   -0.0354    0.0229   -0.0465   -0.0554   -0.0350
          40   -0.0022   -0.0036   -0.0032    0.0115    0.0356   -0.0551    0.0160    0.0180
          41    0.0527    0.0679   -0.0061   -0.0548   -0.0248    0.0015   -0.0749   -0.0483
          42    0.0408    0.0558   -0.0039   -0.0243    0.0096   -0.0249   -0.0349   -0.0252
          43   -0.0020   -0.0110   -0.0016    0.0191    0.0772   -0.0187    0.0051   -0.0443
          44   -0.0088   -0.0011    0.0488    0.0226    0.0487   -0.0187   -0.0251    0.0058
          45    0.0208   -0.0099   -0.0970   -0.0295   -0.0220    0.0128    0.0757   -0.1312
          46   -0.0036   -0.0101    0.0188    0.0207    0.0734   -0.0211    0.0030   -0.0512
          47    0.0206   -0.0122    0.0483    0.0065    0.0223    0.0133   -0.0295    0.1050
          48   -0.0279    0.0197   -0.0653   -0.0157   -0.0618   -0.0018    0.0281   -0.0715
          49   -0.0667   -0.1369   -0.0048   -0.0692    0.0128   -0.0385   -0.0545   -0.0167
          50   -0.0659   -0.1312   -0.0011   -0.0503    0.0014   -0.0154   -0.0460   -0.0192
          51   -0.0590   -0.1337    0.0014   -0.0577    0.0051   -0.0165   -0.0582   -0.0410
          52    0.0012    0.0029    0.0407    0.0062    0.0248   -0.0032   -0.0115   -0.0122
          53    0.0064    0.0009   -0.0526   -0.0015   -0.0683   -0.0259   -0.0102    0.0180
          54   -0.0092    0.0013    0.0789    0.0111    0.1150    0.0245    0.0103   -0.0379
          55    0.0369   -0.0198    0.0224    0.0235   -0.0152    0.0147   -0.0267   -0.0067
          56    0.1931   -0.0754    0.0021    0.1235   -0.0416    0.1055   -0.0564   -0.0554
          57    0.0530   -0.0149    0.0279    0.0255   -0.0169    0.0195    0.0009   -0.0178
          58   -0.0055   -0.0192    0.0695    0.0546    0.1299   -0.0439   -0.0290   -0.0108
          59   -0.0018    0.0011    0.0019    0.0033    0.0018    0.0051   -0.0141    0.0144
          60    0.0003   -0.0031    0.0100    0.0026    0.0109   -0.0164    0.0151   -0.0265
          61    0.0301    0.1689    0.0070   -0.0910    0.0359   -0.0520   -0.0595    0.0047
          62    0.0031    0.0222    0.0015   -0.0122    0.0031   -0.0015   -0.0194   -0.0086
          63   -0.0207   -0.0543    0.0013    0.0298   -0.0134    0.0221    0.0051   -0.0163
          64    0.1109   -0.0756   -0.0047   -0.0454    0.0157   -0.0267   -0.0226    0.0212
          65   -0.1078    0.0785    0.0131    0.0497   -0.0204    0.0313   -0.0060   -0.0408
          66   -0.1335    0.0878    0.0166    0.0572   -0.0246    0.0345    0.0124   -0.0382


   Root No.      41        42        43        44        45        46        47        48

                41 A      42 A      43 A      44 A      45 A      46 A      47 A      48 A   

                1362.1    1384.4    1400.3    1405.6    1456.2    1834.2    1862.5    1893.6
  
           1    0.0196   -0.0186   -0.0059    0.0039    0.0069    0.0066   -0.0014    0.0012
           2    0.0244    0.0533   -0.0212   -0.0113    0.0173   -0.0098    0.0020    0.0019
           3   -0.0332   -0.0315    0.0200    0.0094    0.0004    0.0146   -0.0010    0.0005
           4   -0.0174    0.0243    0.0209   -0.0227   -0.0311    0.0055   -0.0078   -0.0094
           5   -0.0227    0.0113    0.0343   -0.0110   -0.0469    0.0047   -0.0181   -0.0264
           6    0.0157   -0.0037   -0.0139    0.0016    0.0099   -0.0054   -0.0008   -0.0012
           7   -0.0163    0.0161   -0.0167    0.0035   -0.0111   -0.0003    0.0113   -0.0079
           8    0.0198   -0.0431   -0.0050    0.0112   -0.0360   -0.0014    0.0133   -0.0065
           9    0.0014   -0.0052   -0.0389    0.0146   -0.0392    0.0022    0.0165   -0.0091
          10    0.0093    0.0088    0.0093    0.0658    0.0062   -0.0192    0.0008    0.0002
          11    0.0095   -0.0142   -0.0091    0.0152    0.0093   -0.0004    0.0004    0.0002
          12   -0.0099    0.0220    0.0100   -0.0133   -0.0067   -0.0009    0.0012    0.0018
          13   -0.0131   -0.0140    0.0044   -0.0014   -0.0016   -0.1668    0.0055    0.0034
          14   -0.0173   -0.0234    0.0090    0.0162   -0.0012    0.0801   -0.0024   -0.0016
          15    0.0226    0.0275   -0.0114   -0.0233   -0.0017   -0.1335    0.0040    0.0022
          16    0.0063   -0.0114   -0.0141    0.0091    0.0238   -0.0020   -0.0059   -0.0177
          17   -0.0035   -0.0074   -0.0153    0.0037    0.0496    0.0073    0.0978    0.1563
          18   -0.0085    0.0037    0.0089   -0.0019   -0.0021    0.0042    0.0414    0.0672
          19    0.0121    0.0224   -0.0109   -0.0370    0.0003    0.1970   -0.0059   -0.0032
          20   -0.0002    0.0044   -0.0012   -0.0164   -0.0013   -0.0559    0.0019    0.0014
          21    0.0014   -0.0029    0.0009    0.0208    0.0022    0.1013   -0.0035   -0.0025
          22   -0.0056   -0.0038   -0.0038    0.0012    0.0178   -0.0049   -0.1338    0.0909
          23   -0.0133    0.0105    0.0085   -0.0062    0.0327   -0.0027   -0.0678    0.0408
          24   -0.0161    0.0097    0.0163   -0.0089    0.0404   -0.0019   -0.0475    0.0281
          25   -0.0145    0.0055    0.0113   -0.0068    0.0408    0.0040    0.1389   -0.1288
          26    0.0040    0.0006    0.0046   -0.0010   -0.0128    0.0024    0.0517   -0.0202
          27    0.0135   -0.0006    0.0003    0.0021   -0.0398    0.0015    0.0138    0.0210
          28    0.0097    0.0040    0.0080   -0.0017   -0.0462    0.0031    0.0119    0.0789
          29    0.0070   -0.0033   -0.0087    0.0039    0.0024   -0.0078   -0.0793   -0.1342
          30   -0.0034   -0.0046   -0.0106    0.0027    0.0349   -0.0055   -0.0443   -0.1064
          31   -0.0197    0.0016   -0.0169    0.0104    0.0008   -0.0186    0.0097    0.0034
          32   -0.0479   -0.0472    0.0493   -0.0012    0.0100   -0.0109   -0.0071    0.0016
          33    0.0243    0.0205   -0.0178    0.0003    0.0059    0.0194    0.0013   -0.0009
          34    0.0093   -0.0160   -0.0202    0.0390    0.0353   -0.0020   -0.0076   -0.0131
          35    0.0411   -0.0130   -0.0427    0.0012    0.0290   -0.0060   -0.0173   -0.0285
          36   -0.0200   -0.0007    0.0258    0.0152   -0.0202   -0.0023   -0.0011   -0.0002
          37    0.0018   -0.0026   -0.0095    0.0045   -0.0204   -0.0013    0.0083   -0.0051
          38   -0.0854    0.0718   -0.0609    0.0081    0.0189    0.0013    0.0195   -0.0131
          39    0.1350   -0.0351    0.1644   -0.0526    0.0723    0.0010    0.0257   -0.0182
          40    0.1793   -0.0562    0.1454   -0.0478    0.0597   -0.0020   -0.0141    0.0126
          41   -0.0493    0.0093    0.0413   -0.0093    0.0365   -0.0023   -0.0098    0.0025
          42    0.0358   -0.0040    0.0574   -0.0185    0.0340    0.0034   -0.0088    0.0066
          43   -0.0343   -0.0866   -0.0303   -0.1399   -0.0103   -0.0252   -0.0001   -0.0008
          44   -0.0272   -0.0440   -0.0206   -0.1155   -0.0067   -0.0160    0.0007    0.0008
          45    0.0015   -0.1229   -0.0479   -0.0917    0.0003    0.0209   -0.0041   -0.0061
          46   -0.0347   -0.1057   -0.0420   -0.1644   -0.0062   -0.0196    0.0005   -0.0003
          47   -0.0051    0.1227    0.0658    0.1045   -0.0238   -0.0134   -0.0019   -0.0027
          48    0.0340   -0.0385   -0.0307    0.0486    0.0333    0.0182    0.0023    0.0029
          49    0.0223   -0.0000   -0.0265    0.0127   -0.0685   -0.0010   -0.0343    0.0389
          50    0.0149   -0.0002   -0.0071    0.0055   -0.0451    0.0014    0.0337   -0.0182
          51    0.0080    0.0180   -0.0029    0.0000   -0.0367    0.0029    0.0773   -0.0415
          52   -0.0274   -0.0433    0.0124    0.0258    0.0003   -0.1382    0.0046    0.0032
          53    0.0094    0.0337   -0.0077   -0.0364   -0.0011   -0.0590    0.0024    0.0012
          54   -0.0135   -0.0439    0.0105    0.0552    0.0063    0.0749   -0.0030   -0.0017
          55    0.0169   -0.0084   -0.0133    0.0059    0.0015   -0.0050   -0.0407   -0.0718
          56    0.0377   -0.0096    0.0087    0.0094   -0.0710   -0.0027   -0.0309   -0.0228
          57    0.0026    0.0088    0.0108   -0.0071   -0.0267    0.0030    0.0267    0.0463
          58   -0.0558   -0.0451    0.0330    0.0597   -0.0030   -0.0536    0.0023    0.0015
          59   -0.0030    0.0025   -0.0003   -0.0133   -0.0001   -0.0891    0.0031    0.0025
          60   -0.0001   -0.0028    0.0019    0.0254    0.0029    0.1296   -0.0045   -0.0031
          61    0.0511   -0.0217   -0.0339    0.0192   -0.0827   -0.0018   -0.0294   -0.0086
          62    0.0146   -0.0048   -0.0001    0.0025   -0.0330    0.0018    0.0414   -0.0153
          63   -0.0085    0.0103    0.0155   -0.0068    0.0002    0.0043    0.0900   -0.0324
          64    0.0106   -0.0128   -0.0272    0.0106    0.0236   -0.0052   -0.0624   -0.0503
          65    0.0086    0.0128    0.0241   -0.0075   -0.0685   -0.0017   -0.0266   -0.0467
          66   -0.0025    0.0181    0.0310   -0.0129   -0.0528    0.0037    0.0400    0.0288


   Root No.      49        50        51        52        53        54        55        56

                49 A      50 A      51 A      52 A      53 A      54 A      55 A      56 A   

                2867.9    2877.4    2945.9    2976.3    3016.1    3020.5    3034.8    3043.2
  
           1   -0.0136   -0.0084    0.0001   -0.0001    0.0002   -0.0009    0.0001    0.0000
           2   -0.0201   -0.0136    0.0001   -0.0001    0.0002   -0.0001    0.0002   -0.0000
           3   -0.0344   -0.0233   -0.0005   -0.0002    0.0000   -0.0014    0.0001   -0.0001
           4   -0.0091    0.0114   -0.0003    0.0007   -0.0004    0.0002   -0.0004   -0.0001
           5    0.0165   -0.0229    0.0003   -0.0017    0.0005   -0.0002    0.0007    0.0002
           6    0.0230   -0.0323    0.0001   -0.0023    0.0009   -0.0001    0.0008    0.0003
           7    0.0008    0.0005    0.0439    0.0000   -0.0005   -0.0286    0.0004   -0.0014
           8   -0.0008   -0.0004    0.0247    0.0000    0.0002    0.0092    0.0001   -0.0001
           9    0.0007    0.0004   -0.0313    0.0000   -0.0004   -0.0263   -0.0001   -0.0001
          10    0.0005   -0.0004    0.0000    0.0030    0.0000   -0.0000    0.0001    0.0001
          11   -0.0017    0.0026   -0.0000   -0.0493    0.0005   -0.0000    0.0003    0.0001
          12   -0.0004    0.0010    0.0000   -0.0308    0.0002   -0.0000    0.0002    0.0001
          13    0.0003    0.0000    0.0002    0.0000   -0.0000   -0.0001   -0.0000    0.0000
          14    0.0004    0.0001   -0.0004   -0.0003   -0.0000   -0.0002   -0.0000    0.0000
          15   -0.0005   -0.0003    0.0002   -0.0001    0.0000    0.0001    0.0000   -0.0000
          16    0.0009   -0.0012   -0.0000   -0.0006   -0.0310    0.0006   -0.0204   -0.0071
          17   -0.0000    0.0001   -0.0000    0.0005    0.0013   -0.0001    0.0040    0.0019
          18   -0.0006    0.0010   -0.0002    0.0001    0.0237   -0.0006    0.0168    0.0059
          19    0.0002    0.0001   -0.0001   -0.0001    0.0000    0.0000   -0.0000    0.0000
          20   -0.0002   -0.0003    0.0000   -0.0001    0.0000    0.0000   -0.0000   -0.0000
          21    0.0001    0.0002   -0.0000   -0.0001    0.0000   -0.0000    0.0000    0.0000
          22    0.0000   -0.0000   -0.0023   -0.0000   -0.0004    0.0025    0.0037   -0.0155
          23    0.0003    0.0002    0.0002   -0.0000    0.0001   -0.0007   -0.0015    0.0044
          24    0.0002    0.0001    0.0013    0.0000    0.0003   -0.0023   -0.0038    0.0141
          25   -0.0000    0.0000    0.0002    0.0000   -0.0008    0.0001    0.0039   -0.0060
          26   -0.0000   -0.0000   -0.0000    0.0000   -0.0023    0.0001    0.0093   -0.0176
          27    0.0000    0.0000   -0.0002    0.0000   -0.0031    0.0000    0.0130   -0.0247
          28   -0.0000    0.0000   -0.0001    0.0000    0.0191   -0.0004   -0.0164   -0.0083
          29   -0.0001    0.0002    0.0001   -0.0000    0.0242   -0.0003   -0.0259   -0.0127
          30    0.0000   -0.0000    0.0001   -0.0001   -0.0046    0.0002    0.0019    0.0012
          31    0.1563    0.1098    0.0022    0.0009   -0.0003    0.0040   -0.0003    0.0000
          32    0.2465    0.1676    0.0022    0.0012   -0.0003    0.0134   -0.0006    0.0002
          33    0.4133    0.2806    0.0015    0.0023   -0.0006    0.0158   -0.0009    0.0003
          34    0.0993   -0.1443    0.0004   -0.0086    0.0026   -0.0004    0.0021    0.0007
          35   -0.1931    0.2704   -0.0011    0.0156   -0.0101    0.0010   -0.0072   -0.0025
          36   -0.2766    0.3870   -0.0016    0.0295   -0.0107    0.0012   -0.0079   -0.0027
          37   -0.0097   -0.0098   -0.3926   -0.0006    0.0082    0.4757   -0.0049    0.0196
          38   -0.0048   -0.0033   -0.0451   -0.0001    0.0013    0.0734   -0.0009    0.0037
          39   -0.0008   -0.0007   -0.0311   -0.0000    0.0001    0.0034   -0.0007    0.0022
          40    0.0049    0.0033   -0.1286    0.0001   -0.0022   -0.1298   -0.0001   -0.0015
          41    0.0042    0.0023   -0.2495    0.0002   -0.0034   -0.1945   -0.0006   -0.0012
          42   -0.0116   -0.0072    0.4115   -0.0003    0.0054    0.3126    0.0012    0.0009
          43   -0.0077    0.0138   -0.0001   -0.2648    0.0017    0.0002    0.0007   -0.0005
          44    0.0084   -0.0159    0.0001    0.3092   -0.0019   -0.0002   -0.0008    0.0007
          45    0.0044   -0.0067    0.0001    0.0701   -0.0003   -0.0001   -0.0001    0.0002
          46    0.0055   -0.0085   -0.0001    0.2296   -0.0022    0.0005   -0.0018   -0.0009
          47    0.0080   -0.0125   -0.0001    0.2829   -0.0025    0.0007   -0.0021   -0.0012
          48    0.0065   -0.0103   -0.0001    0.3034   -0.0031    0.0007   -0.0025   -0.0013
[...]
 RED. MASS   0.6060         C  2 -- C  4          +7.4% ( 39.6%)     18.5%
 EFF. MASS   7.3746

 VIBRATION   40   40A         ATOM PAIR      ENERGY CONTRIBUTION    RADIAL
 FREQ.      1355.75         C  4 -- C  7         +11.7% ( 49.5%)     77.5%
 T-DIPOLE    0.0849         C  1 -- C  3         +10.9% ( 47.7%)     93.5%
 TRAVEL      0.0790         C  4 -- H 16          +9.6% ( 44.7%)      0.1%
 RED. MASS   0.9995         C  4 -- H 15          +9.6% ( 44.7%)      0.0%
 EFF. MASS   7.9651

 VIBRATION   41   41A         ATOM PAIR      ENERGY CONTRIBUTION    RADIAL
 FREQ.      1362.06         C  1 -- C  5         +13.0% ( 47.1%)     96.4%
 T-DIPOLE    0.0485         C  3 -- H 14         +11.5% ( 44.2%)      0.6%
 TRAVEL      0.0903         C  1 -- C  2         +10.7% ( 42.7%)     22.9%
 RED. MASS   0.5936         C  3 -- H 13          +8.2% ( 37.2%)      4.7%
 EFF. MASS   6.0697

 VIBRATION   42   42A         ATOM PAIR      ENERGY CONTRIBUTION    RADIAL
 FREQ.      1384.38         C  1 -- C  3         +16.3% ( 57.4%)     92.6%
 T-DIPOLE    0.0976         C  1 -- C  5         +15.0% ( 55.0%)     82.0%
 TRAVEL      0.0794         C  1 -- C  2         +10.1% ( 45.2%)     42.2%
 RED. MASS   1.1704         C  1 -- H 11          +9.6% ( 44.1%)      0.2%
 EFF. MASS   7.7324

 VIBRATION   43   43A         ATOM PAIR      ENERGY CONTRIBUTION    RADIAL
 FREQ.      1400.32         C  3 -- H 13         +13.6% ( 48.8%)      3.9%
 T-DIPOLE    0.0623         C  3 -- H 14         +12.0% ( 45.8%)      6.9%
 TRAVEL      0.0887         C  2 -- C  6          +9.5% ( 40.7%)     91.3%
 RED. MASS   0.6284         C  1 -- C  2          +8.7% ( 39.0%)     14.5%
 EFF. MASS   6.1217

 VIBRATION   44   44A         ATOM PAIR      ENERGY CONTRIBUTION    RADIAL
 FREQ.      1405.56         C  4 -- C  7         +20.9% ( 61.3%)     98.5%
 T-DIPOLE    0.0703         C  4 -- H 15         +18.2% ( 57.2%)      5.3%
 TRAVEL      0.0853         C  4 -- H 16         +18.1% ( 57.0%)      5.4%
 RED. MASS   1.1760         C  2 -- C  4         +12.2% ( 46.8%)      0.0%
 EFF. MASS   6.5895

 VIBRATION   45   45A         ATOM PAIR      ENERGY CONTRIBUTION    RADIAL
 FREQ.      1456.16         C  9 -- C 10         +14.0% ( 57.0%)     99.8%
 T-DIPOLE    0.0768         C  2 -- C  6         +11.7% ( 52.2%)     99.9%
 TRAVEL      0.0678         C  3 -- C  8         +10.9% ( 50.3%)     98.7%
 RED. MASS   1.3299         C  8 -- C  9          +7.5% ( 41.9%)      0.9%
 EFF. MASS  10.0861

 VIBRATION   46   46A         ATOM PAIR      ENERGY CONTRIBUTION    RADIAL
 FREQ.      1834.24         C  5 -- C  7         +45.7% (100.0%)    100.0%
 T-DIPOLE    0.0947         C  1 -- C  5         +13.9% ( 55.1%)     25.7%
 TRAVEL      0.0556         C  4 -- C  7         +13.9% ( 55.1%)     26.2%
 RED. MASS   5.3705         C  5 -- H 18         +12.9% ( 53.2%)      9.9%
 EFF. MASS  11.8835         C  7 -- H 20         +12.9% ( 53.2%)      9.5%

 VIBRATION   47   47A         ATOM PAIR      ENERGY CONTRIBUTION    RADIAL
 FREQ.      1862.54         C  8 -- C  9         +31.6% ( 82.7%)     99.8%
 T-DIPOLE    0.1543         C  6 -- C 10         +13.3% ( 53.5%)     98.4%
 TRAVEL      0.0554         C  9 -- C 10         +11.8% ( 50.5%)      4.7%
 RED. MASS   3.1695         C  3 -- C  8         +10.7% ( 48.1%)     51.8%
 EFF. MASS  11.7935

 VIBRATION   48   48A         ATOM PAIR      ENERGY CONTRIBUTION    RADIAL
 FREQ.      1893.64         C  6 -- C 10         +30.4% ( 81.3%)     99.4%
 T-DIPOLE    0.1568         C  9 -- C 10         +17.9% ( 62.4%)     90.8%
 TRAVEL      0.0546         C  8 -- C  9         +12.7% ( 52.6%)     97.0%
 RED. MASS   3.3329         C 10 -- H 22         +10.2% ( 47.1%)      1.6%
 EFF. MASS  11.9328

 VIBRATION   49   49A         ATOM PAIR      ENERGY CONTRIBUTION    RADIAL
 FREQ.      2867.91         C  1 -- H 11         +65.0% ( 82.1%)    100.0%
 T-DIPOLE    0.0237         C  2 -- H 12         +31.5% ( 57.2%)    100.0%
 TRAVEL      0.1268         C  1 -- C  2          +1.2% ( 11.0%)      0.5%
 RED. MASS   0.5191         C  1 -- C  3          +0.7% (  8.6%)      6.5%
 EFF. MASS   1.4627

 VIBRATION   50   50A         ATOM PAIR      ENERGY CONTRIBUTION    RADIAL
 FREQ.      2877.43         C  2 -- H 12         +65.0% ( 81.8%)    100.0%
 T-DIPOLE    0.0548         C  1 -- H 11         +31.5% ( 57.0%)    100.0%
 TRAVEL      0.1274         C  1 -- C  2          +1.0% ( 10.0%)     70.1%
 RED. MASS   0.5165         C  2 -- C  4          +0.7% (  8.7%)      8.6%
 EFF. MASS   1.4446

 VIBRATION   51   51A         ATOM PAIR      ENERGY CONTRIBUTION    RADIAL
 FREQ.      2945.91         C  3 -- H 14         +58.7% ( 79.5%)     97.5%
 T-DIPOLE    0.0477         C  3 -- H 13         +38.7% ( 64.6%)     95.1%
 TRAVEL      0.1215         C  3 -- C  8          +1.2% ( 11.4%)      0.2%
 RED. MASS   0.5377         C  1 -- C  3          +1.2% ( 11.3%)      0.2%
 EFF. MASS   1.5499

 VIBRATION   52   52A         ATOM PAIR      ENERGY CONTRIBUTION    RADIAL
 FREQ.      2976.30         C  4 -- H 16         +54.9% ( 76.8%)     97.3%
 T-DIPOLE    0.0643         C  4 -- H 15         +42.6% ( 67.7%)     95.8%
 TRAVEL      0.1214         C  4 -- C  7          +1.1% ( 10.9%)      0.0%
 RED. MASS   0.5225         C  2 -- C  4          +1.1% ( 10.9%)      0.0%
 EFF. MASS   1.5377

 VIBRATION   53   53A         ATOM PAIR      ENERGY CONTRIBUTION    RADIAL
 FREQ.      3016.10         C  6 -- H 19         +58.6% ( 77.7%)    100.0%
 T-DIPOLE    0.2386         C 10 -- H 22         +38.4% ( 62.9%)    100.0%
 TRAVEL      0.1237         C  6 -- C 10          +1.1% ( 10.6%)      0.4%
 RED. MASS   0.4789         C  2 -- C  6          +0.7% (  8.7%)     16.9%
 EFF. MASS   1.4604

 VIBRATION   54   54A         ATOM PAIR      ENERGY CONTRIBUTION    RADIAL
 FREQ.      3020.47         C  3 -- H 13         +59.8% ( 76.3%)     98.6%
 T-DIPOLE    0.0626         C  3 -- H 14         +38.3% ( 61.1%)     95.9%
 TRAVEL      0.1321         C  3 -- C  8          +0.6% (  7.8%)     25.9%
 RED. MASS   0.4981         C  1 -- C  3          +0.6% (  7.8%)     29.0%
 EFF. MASS   1.2793

 VIBRATION   55   55A         ATOM PAIR      ENERGY CONTRIBUTION    RADIAL
 FREQ.      3034.83         C 10 -- H 22         +45.9% ( 68.8%)     99.9%
 T-DIPOLE    0.2057         C  6 -- H 19         +34.2% ( 59.3%)     99.9%
 TRAVEL      0.1199         C  9 -- H 21         +14.8% ( 39.1%)    100.0%
 RED. MASS   0.3488         C  8 -- H 17          +1.8% ( 13.7%)     99.8%
 EFF. MASS   1.5467

 VIBRATION   56   56A         ATOM PAIR      ENERGY CONTRIBUTION    RADIAL
 FREQ.      3043.23         C  9 -- H 21         +53.7% ( 74.3%)    100.0%
 T-DIPOLE    0.3525         C  8 -- H 17         +27.9% ( 53.6%)    100.0%
 TRAVEL      0.1223         C 10 -- H 22         +11.7% ( 34.7%)    100.0%
 RED. MASS   0.3725         C  6 -- H 19          +4.0% ( 20.2%)     99.7%
 EFF. MASS   1.4806

 VIBRATION   57   57A         ATOM PAIR      ENERGY CONTRIBUTION    RADIAL
 FREQ.      3052.18         C  4 -- H 15         +56.0% ( 73.8%)     98.2%
 T-DIPOLE    0.1025         C  4 -- H 16         +42.5% ( 64.3%)     96.5%
 TRAVEL      0.1313         C  2 -- C  4          +0.7% (  8.2%)     36.4%
 RED. MASS   0.4904         C  4 -- C  7          +0.7% (  8.1%)     31.4%
 EFF. MASS   1.2823

 VIBRATION   58   58A         ATOM PAIR      ENERGY CONTRIBUTION    RADIAL
 FREQ.      3064.14         C  8 -- H 17         +66.8% ( 82.9%)     99.9%
 T-DIPOLE    0.3021         C  9 -- H 21         +28.1% ( 53.8%)     99.8%
 TRAVEL      0.1180         C  8 -- C  9          +1.9% ( 14.0%)     93.0%
 RED. MASS   0.5238         C 10 -- H 22          +1.0% ( 10.4%)    100.0%
 EFF. MASS   1.5801

 VIBRATION   59   59A         ATOM PAIR      ENERGY CONTRIBUTION    RADIAL
 FREQ.      3113.63         C  5 -- H 18         +51.3% ( 72.7%)    100.0%
 T-DIPOLE    0.3605         C  7 -- H 20         +46.2% ( 69.0%)    100.0%
 TRAVEL      0.1218         C  5 -- C  7          +1.1% ( 10.7%)      0.1%
 RED. MASS   0.4661         C  1 -- C  5          +0.8% (  8.8%)     25.4%
 EFF. MASS   1.4609

 VIBRATION   60   60A         ATOM PAIR      ENERGY CONTRIBUTION    RADIAL
 FREQ.      3132.79         C  7 -- H 20         +50.3% ( 72.2%)     99.9%
 T-DIPOLE    0.3467         C  5 -- H 18         +45.2% ( 68.5%)     99.9%
 TRAVEL      0.1142         C  5 -- C  7          +2.5% ( 16.1%)     99.9%
 RED. MASS   0.4676         C  4 -- C  7          +1.0% ( 10.1%)     20.7%
 EFF. MASS   1.6515

      SYMMETRY NUMBER FOR POINT-GROUP C1  =  1


          SYSTEM IS A GROUND STATE



 InChI=1S/C10H12/c1-2-5-9-7-4-8-10(9)6-3-1/h1-5,8-10H,6-7H2


          MOLECULE IS NOT LINEAR

          THERE ARE 60 GENUINE VIBRATIONS IN THIS SYSTEM
          THIS THERMODYNAMICS CALCULATION IS LIMITED TO
          MOLECULES WHICH HAVE NO INTERNAL ROTATIONS




                    CALCULATED THERMODYNAMIC PROPERTIES
                                          *
   TEMP. (K)   PARTITION FUNCTION   H.O.F.    ENTHALPY  HEAT CAPACITY ENTROPY
                                   KCAL/MOL   CAL/MOLE    CAL/K/MOL  CAL/K/MOL


 298.00  VIB.     0.3805D+02                  3276.5376    27.4591    18.2263
         ROT.     0.4636D+06                   888.2813     2.9808    28.9074
         INT.     0.1764D+08                  4164.8189    30.4399    47.1337
         TRA.     0.1470D+28                  1480.4688     4.9680    40.5480
         TOT.                       42.308    5645.2877    35.4080    87.6816

 200.00  VIB.     0.7206D+01                  1219.6499    14.9132    10.0228
         ROT.     0.2549D+06                   596.1620     2.9808    27.7187
         INT.     0.1837D+07                  1815.8118    17.8940    37.7415
         TRA.     0.8080D+27                   993.6033     4.9680    38.5668
         TOT.                       39.472    2809.4151    22.8620    76.3083

 210.00  VIB.     0.8415D+01                  1374.4869    16.0611    10.7780
         ROT.     0.2742D+06                   625.9700     2.9808    27.8642
         INT.     0.2308D+07                  2000.4569    19.0419    38.6422
         TRA.     0.8694D+27                  1043.2834     4.9680    38.8092
         TOT.                       39.706    3043.7403    24.0099    77.4514

 220.00  VIB.     0.9861D+01                  1541.0048    17.2489    11.5524
         ROT.     0.2941D+06                   655.7781     2.9808    28.0028
         INT.     0.2900D+07                  2196.7830    20.2298    39.5553
         TRA.     0.9322D+27                  1092.9636     4.9680    39.0403
         TOT.                       39.952    3289.7466    25.1978    78.5956

 230.00  VIB.     0.1159D+02                  1719.5891    18.4738    12.3461
         ROT.     0.3143D+06                   685.5862     2.9808    28.1353
         INT.     0.3644D+07                  2405.1754    21.4546    40.4814
         TRA.     0.9965D+27                  1142.6437     4.9680    39.2612
         TOT.                       40.211    3547.8191    26.4226    79.7426

 240.00  VIB.     0.1368D+02                  1910.5913    19.7319    13.1588
         ROT.     0.3351D+06                   715.3943     2.9808    28.2622
         INT.     0.4583D+07                  2625.9856    22.7127    41.4210
         TRA.     0.1062D+28                  1192.3239     4.9680    39.4726
         TOT.                       40.481    3818.3095    27.6807    80.8936

 250.00  VIB.     0.1619D+02                  2114.3231    21.0190    13.9903
         ROT.     0.3562D+06                   745.2024     2.9808    28.3839
         INT.     0.5767D+07                  2859.5256    23.9998    42.3741
         TRA.     0.1129D+28                  1242.0041     4.9680    39.6754
         TOT.                       40.764    4101.5296    28.9678    82.0496

 260.00  VIB.     0.1922D+02                  2331.0531    22.3307    14.8401
         ROT.     0.3778D+06                   775.0105     2.9808    28.5008
         INT.     0.7263D+07                  3106.0637    25.3115    43.3409
         TRA.     0.1198D+28                  1291.6842     4.9680    39.8703
         TOT.                       41.060    4397.7479    30.2795    83.2112

 270.00  VIB.     0.2290D+02                  2561.0043    23.6625    15.7078
         ROT.     0.3998D+06                   804.8186     2.9808    28.6133
         INT.     0.9157D+07                  3365.8229    26.6433    44.3211
         TRA.     0.1267D+28                  1341.3644     4.9680    40.0578
         TOT.                       41.370    4707.1873    31.6113    84.3789

 280.00  VIB.     0.2738D+02                  2804.3535    25.0096    16.5927
         ROT.     0.4222D+06                   834.6267     2.9808    28.7217
         INT.     0.1156D+08                  3638.9802    27.9904    45.3144
         TRA.     0.1338D+28                  1391.0445     4.9680    40.2384
         TOT.                       41.693    5030.0248    32.9584    85.5528

 290.00  VIB.     0.3283D+02                  3061.2325    26.3677    17.4939
         ROT.     0.4450D+06                   864.4348     2.9808    28.8263
         INT.     0.1461D+08                  3925.6673    29.3485    46.3202
         TRA.     0.1411D+28                  1440.7247     4.9680    40.4128
         TOT.                       42.029    5366.3920    34.3165    86.7330

 300.00  VIB.     0.3949D+02                  3331.7291    27.7324    18.4108
         ROT.     0.4683D+06                   894.2429     2.9808    28.9273
         INT.     0.1849D+08                  4225.9720    30.7132    47.3382
         TRA.     0.1484D+28                  1490.4049     4.9680    40.5812
         TOT.                       42.379    5716.3769    35.6812    87.9194

 310.00  VIB.     0.4765D+02                  3615.8897    29.0998    19.3425
         ROT.     0.4919D+06                   924.0510     2.9808    29.0251
         INT.     0.2344D+08                  4539.9407    32.0806    48.3676
         TRA.     0.1559D+28                  1540.0850     4.9680    40.7441
         TOT.                       42.743    6080.0257    37.0486    89.1117

 320.00  VIB.     0.5767D+02                  3913.7220    30.4662    20.2879
         ROT.     0.5159D+06                   953.8591     2.9808    29.1197
         INT.     0.2975D+08                  4867.5811    33.4470    49.4077
         TRA.     0.1635D+28                  1589.7652     4.9680    40.9018
         TOT.                       43.120    6457.3463    38.4150    90.3095

 330.00  VIB.     0.7000D+02                  4225.1984    31.8281    21.2463
         ROT.     0.5402D+06                   983.6672     2.9808    29.2114
         INT.     0.3782D+08                  5208.8656    34.8089    50.4577
         TRA.     0.1713D+28                  1639.4454     4.9680    41.0547
         TOT.                       43.511    6848.3109    39.7769    91.5124

 340.00  VIB.     0.8521D+02                  4550.2588    33.1825    22.2166
         ROT.     0.5650D+06                  1013.4753     2.9808    29.3004
         INT.     0.4814D+08                  5563.7342    36.1633    51.5170
         TRA.     0.1791D+28                  1689.1255     4.9680    41.2030
         TOT.                       43.916    7252.8597    41.1313    92.7200

 350.00  VIB.     0.1040D+03                  4888.8148    34.5268    23.1979
         ROT.     0.5901D+06                  1043.2834     2.9808    29.3868
         INT.     0.6138D+08                  5932.0982    37.5076    52.5847
         TRA.     0.1871D+28                  1738.8057     4.9680    41.3470
         TOT.                       44.334    7670.9039    42.4756    93.9318

 360.00  VIB.     0.1273D+03                  5240.7520    35.8584    24.1892
         ROT.     0.6155D+06                  1073.0915     2.9808    29.4708
         INT.     0.7838D+08                  6313.8435    38.8392    53.6601
         TRA.     0.1951D+28                  1788.4859     4.9680    41.4870
         TOT.                       44.765    8102.3293    43.8072    95.1470

 370.00  VIB.     0.1563D+03                  5605.9342    37.1754    25.1897
         ROT.     0.6414D+06                  1102.8996     2.9808    29.5525
         INT.     0.1002D+09                  6708.8338    40.1562    54.7422
         TRA.     0.2033D+28                  1838.1660     4.9680    41.6231
         TOT.                       45.210    8546.9998    45.1243    96.3653

 380.00  VIB.     0.1923D+03                  5984.2060    38.4761    26.1984
         ROT.     0.6676D+06                  1132.7077     2.9808    29.6320
         INT.     0.1283D+09                  7116.9137    41.4569    55.8304
         TRA.     0.2116D+28                  1887.8462     4.9680    41.7556
         TOT.                       45.667    9004.7599    46.4249    97.5860

 390.00  VIB.     0.2371D+03                  6375.3959    39.7588    27.2145
         ROT.     0.6941D+06                  1162.5158     2.9808    29.7094
         INT.     0.1646D+09                  7537.9117    42.7396    56.9239
         TRA.     0.2200D+28                  1937.5263     4.9680    41.8846
         TOT.                       46.138    9475.4380    47.7076    98.8085

 400.00  VIB.     0.2932D+03                  6779.3188    41.0225    28.2371
         ROT.     0.7209D+06                  1192.3239     2.9808    29.7849
         INT.     0.2114D+09                  7971.6427    44.0033    58.0219
         TRA.     0.2285D+28                  1987.2065     4.9680    42.0104
         TOT.                       46.622    9958.8492    48.9713   100.0323

   *: NOTE: HEATS OF FORMATION ARE RELATIVE TO THE
            ELEMENTS IN THEIR STANDARD STATE AT 298K
              (=  Standard Enthalpy of Formation).

            Hvib:  Zero-point energy is not included.
                   frequencies of less than zero cm-1 are not included.
            Hrot = (3/2)RT
            Htra = (3/2)RT + pV = (5/2)RT

            Heat capacity is Cp, not Cv

          For more information, see: HTTP://OpenMOPAC.net/Manual/thermochemistry.html


           FORCE CONSTANT IN CARTESIAN COORDINATES (Millidynes/A)

    ATOM   CHEMICAL       X               Y               Z
   NUMBER   SYMBOL  FORCE CONSTANT  FORCE CONSTANT  FORCE CONSTANT

      1       C        7.538385        8.443485        8.862794
      2       C        7.731960        8.885740        8.013606
      3       C        8.565753        8.200602        8.597698
      4       C        9.613923        7.981541        7.468650
      5       C       14.579772        4.888816        8.012770
      6       C        7.076046       13.293095        6.594732
      7       C       12.024353        5.553908        9.972939
      8       C       13.964007        5.506915        7.664238
      9       C       14.089666        5.675299        7.973488
     10       C        8.113829       12.751847        6.762316
     11       H        1.070128        1.597474        3.241398
     12       H        1.007836        1.841690        3.066201
     13       H        4.867344        0.788655        0.700355
     14       H        1.007134        1.745016        3.505164
     15       H        2.288371        3.233379        0.875666
     16       H        1.560516        2.357593        2.473267
     17       H        3.156451        0.628693        2.460561
     18       H        4.962590        0.626516        0.825183
     19       H        3.330707        0.738588        2.062912
     20       H        0.710234        1.888942        3.824457
     21       H        0.873850        1.869711        3.456551
     22       H        2.152449        3.387999        0.602075

 **********************
 *                    *
 * JOB ENDED NORMALLY *
 *                    *
 **********************



 TOTAL JOB TIME:             8.59 SECONDS

 == MOPAC DONE ==
