 *******************************************************************************
 ** Site#: 14399        For non-commercial use only    Version 18.184L 64BITS **
 *******************************************************************************
 ** Cite this program as: MOPAC2016, Version: 18.184L, James J. P. Stewart,   **
 ** Stewart Computational Chemistry, web: HTTP://OpenMOPAC.net. Days left:  20**
 *******************************************************************************
 **                                                                           **
 **                                MOPAC2016                                  **
 **                                                                           **
 *******************************************************************************

                              PM3 CALCULATION RESULTS

 *******************************************************************************
 *  CALCULATION DONE:                                Thu Jun 13 15:41:55 2019  *
 *  PM3        - The PM3 Hamiltonian to be used
 *  PRECISE    - CRITERIA TO BE INCREASED BY 100 TIMES
 *  NOSYM      - POINT-GROUP SYMMETRY SET TO C1
 *  THREADS=1  - MULTI-THREADING NOT USED
 *  T=         - A TIME OF 172800.0 SECONDS REQUESTED
 *  DUMP=N     - RESTART FILE WRITTEN EVERY  7200.000 SECONDS
 *******************************************************************************
pm3  precise nosym THREADS=1
 InChI=1S/C7H10/c1-2-7-5-3-4-6-7/h2-3,5,7H,1,4,6H2

   ATOM   CHEMICAL          X               Y               Z
  NUMBER   SYMBOL      (ANGSTROMS)     (ANGSTROMS)     (ANGSTROMS)
 
     1       C          0.38650000  *  -0.06910000  *   0.44220000  *
     2       C         -0.66010000  *  -1.08450000  *  -0.05160000  *
     3       C         -1.97820000  *  -0.31350000  *  -0.18010000  *
     4       C         -0.38310000  *   1.19220000  *   0.61900000  *
     5       C         -1.65430000  *   1.05970000  *   0.28380000  *
     6       C          1.48470000  *   0.13740000  *  -0.57070000  *
     7       C          2.76560000  *  -0.10980000  *  -0.28240000  *
     8       H          0.79350000  *  -0.38730000  *   1.42820000  *
     9       H         -0.77260000  *  -1.90380000  *   0.69230000  *
    10       H         -0.38350000  *  -1.53990000  *  -1.02890000  *
    11       H         -2.76630000  *  -0.75780000  *   0.46500000  *
    12       H         -2.32180000  *  -0.28320000  *  -1.23640000  *
    13       H         -2.37490000  *   1.86900000  *   0.33970000  *
    14       H          0.04380000  *   2.12150000  *   0.98320000  *
    15       H          1.22760000  *   0.49050000  *  -1.56600000  *
    16       H          3.53040000  *   0.04630000  *  -1.03620000  *
    17       H          3.06260000  *  -0.46750000  *   0.69870000  *
 


          CARTESIAN COORDINATES 

    NO.       ATOM           X           Y           Z

     1         C          0.3865     -0.0691      0.4422
     2         C         -0.6601     -1.0845     -0.0516
     3         C         -1.9782     -0.3135     -0.1801
     4         C         -0.3831      1.1922      0.6190
     5         C         -1.6543      1.0597      0.2838
     6         C          1.4847      0.1374     -0.5707
     7         C          2.7656     -0.1098     -0.2824
     8         H          0.7935     -0.3873      1.4282
     9         H         -0.7726     -1.9038      0.6923
    10         H         -0.3835     -1.5399     -1.0289
    11         H         -2.7663     -0.7578      0.4650
    12         H         -2.3218     -0.2832     -1.2364
    13         H         -2.3749      1.8690      0.3397
    14         H          0.0438      2.1215      0.9832
    15         H          1.2276      0.4905     -1.5660
    16         H          3.5304      0.0463     -1.0362
    17         H          3.0626     -0.4675      0.6987

  H: (PM3): J. J. P. STEWART, J. COMP. CHEM. 10, 209 (1989).
  C: (PM3): J. J. P. STEWART, J. COMP. CHEM. 10, 209 (1989).

           Empirical Formula: C7 H10  =    17 atoms



      MOLECULAR POINT GROUP   :   C1  


      RHF CALCULATION, NO. OF DOUBLY OCCUPIED LEVELS = 19


          Geometry optimization using EF

          DIAGONAL MATRIX USED AS START HESSIAN

 CYCLE:     1 TIME:   0.020 TIME LEFT:  2.00D  GRAD.:    56.747 HEAT:  24.97285
 CYCLE:     2 TIME:   0.043 TIME LEFT:  2.00D  GRAD.:    56.642 HEAT:  24.57969
 CYCLE:     3 TIME:   0.023 TIME LEFT:  2.00D  GRAD.:    31.123 HEAT:  23.95666
 CYCLE:     4 TIME:   0.031 TIME LEFT:  2.00D  GRAD.:    31.256 HEAT:  23.69331
 CYCLE:     5 TIME:   0.020 TIME LEFT:  2.00D  GRAD.:    28.638 HEAT:  23.48356
 CYCLE:     6 TIME:   0.023 TIME LEFT:  2.00D  GRAD.:    29.895 HEAT:  23.36105
 CYCLE:     7 TIME:   0.023 TIME LEFT:  2.00D  GRAD.:    29.812 HEAT:  23.25318
 CYCLE:     8 TIME:   0.027 TIME LEFT:  2.00D  GRAD.:    13.278 HEAT:  23.05071
 CYCLE:     9 TIME:   0.027 TIME LEFT:  2.00D  GRAD.:    11.444 HEAT:  23.00921
 CYCLE:    10 TIME:   0.023 TIME LEFT:  2.00D  GRAD.:     9.640 HEAT:  22.97969
 CYCLE:    11 TIME:   0.023 TIME LEFT:  2.00D  GRAD.:     9.403 HEAT:  22.95613
 CYCLE:    12 TIME:   0.031 TIME LEFT:  2.00D  GRAD.:     6.654 HEAT:  22.94005
 CYCLE:    13 TIME:   0.027 TIME LEFT:  2.00D  GRAD.:     7.136 HEAT:  22.93588
 CYCLE:    14 TIME:   0.023 TIME LEFT:  2.00D  GRAD.:     7.572 HEAT:  22.93264
 CYCLE:    15 TIME:   0.023 TIME LEFT:  2.00D  GRAD.:     5.599 HEAT:  22.92498
 CYCLE:    16 TIME:   0.020 TIME LEFT:  2.00D  GRAD.:     3.690 HEAT:  22.91865
 CYCLE:    17 TIME:   0.023 TIME LEFT:  2.00D  GRAD.:     5.020 HEAT:  22.91991
 CYCLE:    18 TIME:   0.023 TIME LEFT:  2.00D  GRAD.:     1.590 HEAT:  22.91363
 CYCLE:    19 TIME:   0.023 TIME LEFT:  2.00D  GRAD.:     3.336 HEAT:  22.91442
 CYCLE:    20 TIME:   0.023 TIME LEFT:  2.00D  GRAD.:     1.761 HEAT:  22.91123
 CYCLE:    21 TIME:   0.023 TIME LEFT:  2.00D  GRAD.:     2.894 HEAT:  22.91040
 CYCLE:    22 TIME:   0.023 TIME LEFT:  2.00D  GRAD.:     1.510 HEAT:  22.90712
 CYCLE:    23 TIME:   0.023 TIME LEFT:  2.00D  GRAD.:     3.443 HEAT:  22.90709
 CYCLE:    24 TIME:   0.020 TIME LEFT:  2.00D  GRAD.:     1.126 HEAT:  22.90261
 CYCLE:    25 TIME:   0.023 TIME LEFT:  2.00D  GRAD.:     0.906 HEAT:  22.90146
 CYCLE:    26 TIME:   0.023 TIME LEFT:  2.00D  GRAD.:     1.225 HEAT:  22.90039
 CYCLE:    27 TIME:   0.023 TIME LEFT:  2.00D  GRAD.:     0.842 HEAT:  22.89928
 CYCLE:    28 TIME:   0.023 TIME LEFT:  2.00D  GRAD.:     1.409 HEAT:  22.89683
 CYCLE:    29 TIME:   0.023 TIME LEFT:  2.00D  GRAD.:     1.425 HEAT:  22.89503
 CYCLE:    30 TIME:   0.023 TIME LEFT:  2.00D  GRAD.:     1.014 HEAT:  22.89335
 CYCLE:    31 TIME:   0.020 TIME LEFT:  2.00D  GRAD.:     0.993 HEAT:  22.89175
 CYCLE:    32 TIME:   0.035 TIME LEFT:  2.00D  GRAD.:     1.506 HEAT:  22.88939
 CYCLE:    33 TIME:   0.023 TIME LEFT:  2.00D  GRAD.:     1.516 HEAT:  22.88670
 CYCLE:    34 TIME:   0.031 TIME LEFT:  2.00D  GRAD.:     1.268 HEAT:  22.88411
 CYCLE:    35 TIME:   0.020 TIME LEFT:  2.00D  GRAD.:     1.213 HEAT:  22.88153
 CYCLE:    36 TIME:   0.023 TIME LEFT:  2.00D  GRAD.:     1.722 HEAT:  22.87831
 CYCLE:    37 TIME:   0.023 TIME LEFT:  2.00D  GRAD.:     2.159 HEAT:  22.87401
 CYCLE:    38 TIME:   0.023 TIME LEFT:  2.00D  GRAD.:     1.769 HEAT:  22.86947
 CYCLE:    39 TIME:   0.027 TIME LEFT:  2.00D  GRAD.:     1.140 HEAT:  22.86602
 CYCLE:    40 TIME:   0.023 TIME LEFT:  2.00D  GRAD.:     1.148 HEAT:  22.86382
 CYCLE:    41 TIME:   0.023 TIME LEFT:  2.00D  GRAD.:     1.284 HEAT:  22.86180
 CYCLE:    42 TIME:   0.023 TIME LEFT:  2.00D  GRAD.:     1.047 HEAT:  22.85984
 CYCLE:    43 TIME:   0.020 TIME LEFT:  2.00D  GRAD.:     0.598 HEAT:  22.85836
 CYCLE:    44 TIME:   0.023 TIME LEFT:  2.00D  GRAD.:     0.498 HEAT:  22.85786
 CYCLE:    45 TIME:   0.023 TIME LEFT:  2.00D  GRAD.:     0.483 HEAT:  22.85728
 CYCLE:    46 TIME:   0.023 TIME LEFT:  2.00D  GRAD.:     0.411 HEAT:  22.85702
 CYCLE:    47 TIME:   0.023 TIME LEFT:  2.00D  GRAD.:     0.314 HEAT:  22.85672
 CYCLE:    48 TIME:   0.023 TIME LEFT:  2.00D  GRAD.:     0.350 HEAT:  22.85636
 CYCLE:    49 TIME:   0.023 TIME LEFT:  2.00D  GRAD.:     0.331 HEAT:  22.85618
 CYCLE:    50 TIME:   0.023 TIME LEFT:  2.00D  GRAD.:     0.253 HEAT:  22.85596
 CYCLE:    51 TIME:   0.020 TIME LEFT:  2.00D  GRAD.:     0.171 HEAT:  22.85588
 CYCLE:    52 TIME:   0.023 TIME LEFT:  2.00D  GRAD.:     0.126 HEAT:  22.85582
 CYCLE:    53 TIME:   0.023 TIME LEFT:  2.00D  GRAD.:     0.099 HEAT:  22.85580
 CYCLE:    54 TIME:   0.023 TIME LEFT:  2.00D  GRAD.:     0.114 HEAT:  22.85578
 CYCLE:    55 TIME:   0.023 TIME LEFT:  2.00D  GRAD.:     0.066 HEAT:  22.85576
 CYCLE:    56 TIME:   0.023 TIME LEFT:  2.00D  GRAD.:     0.042 HEAT:  22.85576

     GRADIENT =  0.04180  IS LESS THAN CUTOFF =  0.05000



 -------------------------------------------------------------------------------
 pm3  precise nosym THREADS=1
 InChI=1S/C7H10/c1-2-7-5-3-4-6-7/h2-3,5,7H,1,4,6H2



     GEOMETRY OPTIMISED USING EIGENVECTOR FOLLOWING (EF).     
     SCF FIELD WAS ACHIEVED                                   


                              PM3 CALCULATION
                                                       MOPAC2016 (Version: 18.184L)
                                                       Thu Jun 13 15:41:57 2019
                                                       No. of days remaining =  20




          FINAL HEAT OF FORMATION =         22.85576 KCAL/MOL =      95.62849 KJ/MOL


          TOTAL ENERGY            =       -982.81858 EV
          ELECTRONIC ENERGY       =      -4522.41205 EV  POINT GROUP:     C1  
          CORE-CORE REPULSION     =       3539.59348 EV
          COSMO AREA              =        146.95 SQUARE ANGSTROMS
          COSMO VOLUME            =        139.45 CUBIC ANGSTROMS

          GRADIENT NORM           =          0.04180 = 0.01014 PER ATOM
          IONIZATION POTENTIAL    =          9.659917 EV
          HOMO LUMO ENERGIES (EV) =         -9.660  1.004
          NO. OF FILLED LEVELS    =         19
          MOLECULAR WEIGHT        =         94.1560

          MOLECULAR DIMENSIONS (Angstroms)

            Atom       Atom       Distance
            H    16    H    11     6.55991
            H    10    H    14     4.11899
            H    17    H    12     3.04543


          SCF CALCULATIONS        =         63
 
          WALL-CLOCK TIME         =          1.410 SECONDS
          COMPUTATION TIME        =          0.597 SECONDS




   ATOM   CHEMICAL          X               Y               Z
  NUMBER   SYMBOL      (ANGSTROMS)     (ANGSTROMS)     (ANGSTROMS)
 
     1       C          0.38745586  *  -0.06145252  *   0.41056126  *
     2       C         -0.66266264  *  -1.07183142  *  -0.10515208  *
     3       C         -2.00305239  *  -0.32246503  *  -0.12850278  *
     4       C         -0.37857776  *   1.22176185  *   0.58279699  *
     5       C         -1.67602519  *   1.07297440  *   0.29590701  *
     6       C          1.51049791  *   0.11354240  *  -0.55817413  *
     7       C          2.77951952  *  -0.11373847  *  -0.24136414  *
     8       H          0.78090448  *  -0.38312503  *   1.40448103  *
     9       H         -0.70871935  *  -1.96146909  *   0.54729784  *
    10       H         -0.39868926  *  -1.44948719  *  -1.10999780  *
    11       H         -2.74436022  *  -0.77497819  *   0.55574306  *
    12       H         -2.46753817  *  -0.32990424  *  -1.13155407  *
    13       H         -2.44575141  *   1.84227182  *   0.35081650  *
    14       H          0.11953559  *   2.13444634  *   0.90809252  *
    15       H          1.22576362  *   0.44689046  *  -1.56352206  *
    16       H          3.59107623  *   0.01533064  *  -0.95093742  *
    17       H          3.10019588  *  -0.44328009  *   0.74343019  *

                             CARTESIAN COORDINATES

   1    C        0.387455864    -0.061452522     0.410561256
   2    C       -0.662662638    -1.071831420    -0.105152079
   3    C       -2.003052388    -0.322465027    -0.128502784
   4    C       -0.378577762     1.221761848     0.582796987
   5    C       -1.676025189     1.072974399     0.295907008
   6    C        1.510497908     0.113542402    -0.558174131
   7    C        2.779519521    -0.113738466    -0.241364143
   8    H        0.780904476    -0.383125030     1.404481031
   9    H       -0.708719353    -1.961469089     0.547297836
  10    H       -0.398689263    -1.449487189    -1.109997798
  11    H       -2.744360225    -0.774978188     0.555743058
  12    H       -2.467538174    -0.329904236    -1.131554069
  13    H       -2.445751409     1.842271821     0.350816499
  14    H        0.119535585     2.134446335     0.908092519
  15    H        1.225763622     0.446890456    -1.563522060
  16    H        3.591076226     0.015330635    -0.950937417
  17    H        3.100195875    -0.443280093     0.743430191


           Empirical Formula: C7 H10  =    17 atoms



      MOLECULAR POINT GROUP   :   C1  


                  EIGENVALUES  
 -40.45826 -33.05828 -28.02681 -26.69772 -20.81005 -19.66235 -18.54435 -17.60991
 -16.21856 -15.54746 -14.40254 -13.64132 -13.02209 -12.84817 -12.50667 -12.22487
 -12.05064 -10.26269  -9.65992   1.00389   1.21995   3.32655   3.47712   3.68449
   3.71103   3.85418   3.92558   4.05113   4.15134   4.18651   4.30812   4.46467
   4.94411   5.04549   5.53261   5.63725   5.87597   5.99281


              NET ATOMIC CHARGES AND DIPOLE CONTRIBUTIONS

  ATOM NO.   TYPE          CHARGE      No. of ELECS.   s-Pop       p-Pop       
    1          C          -0.018513        4.0185     1.16278     2.85573
    2          C          -0.097336        4.0973     1.16883     2.92851
    3          C          -0.066203        4.0662     1.15413     2.91208
    4          C          -0.150191        4.1502     1.20401     2.94618
    5          C          -0.151317        4.1513     1.20231     2.94901
    6          C          -0.129072        4.1291     1.19595     2.93312
    7          C          -0.163374        4.1634     1.18304     2.98033
    8          H           0.071663        0.9283     0.92834
    9          H           0.050971        0.9490     0.94903
   10          H           0.055972        0.9440     0.94403
   11          H           0.055725        0.9443     0.94427
   12          H           0.055452        0.9445     0.94455
   13          H           0.110696        0.8893     0.88930
   14          H           0.114041        0.8860     0.88596
   15          H           0.100988        0.8990     0.89901
   16          H           0.079100        0.9209     0.92090
   17          H           0.081396        0.9186     0.91860
 DIPOLE           X         Y         Z       TOTAL
 POINT-CHG.    -0.182    -0.132    -0.025     0.226
 HYBRID         0.014     0.018    -0.011     0.025
 SUM           -0.168    -0.114    -0.036     0.206


          ATOMIC ORBITAL ELECTRON POPULATIONS

     Atom    s        px        py        pz   
    1  C   1.16278   0.94333   0.93933   0.97307
    2  C   1.16883   0.94495   0.96969   1.01386
    3  C   1.15413   0.96583   0.94072   1.00553
    4  C   1.20401   0.95751   0.97775   1.01092
    5  C   1.20231   0.96902   0.97462   1.00538
    6  C   1.19595   0.95050   0.99448   0.98814
    7  C   1.18304   0.96040   1.01097   1.00896
    8  H   0.92834
    9  H   0.94903
   10  H   0.94403
   11  H   0.94427
   12  H   0.94455
   13  H   0.88930
   14  H   0.88596
   15  H   0.89901
   16  H   0.92090
   17  H   0.91860
 *******************************************************************************
 ** Site#: 14399        For non-commercial use only    Version 18.184L 64BITS **
 *******************************************************************************
 ** Cite this program as: MOPAC2016, Version: 18.184L, James J. P. Stewart,   **
 ** Stewart Computational Chemistry, web: HTTP://OpenMOPAC.net. Days left:  20**
 *******************************************************************************
 **                                                                           **
 **                                MOPAC2016                                  **
 **                                                                           **
 *******************************************************************************

                              PM3 CALCULATION RESULTS

 *******************************************************************************
 *  CALCULATION DONE:                                Thu Jun 13 15:41:57 2019  *
 *  PM3        - The PM3 Hamiltonian to be used
 *  OLDGEO     - PREVIOUS GEOMETRY TO BE USED
 *  PRECISE    - CRITERIA TO BE INCREASED BY 100 TIMES
 *  NOSYM      - POINT-GROUP SYMMETRY SET TO C1
 *  THREADS=1  - MULTI-THREADING NOT USED
 *  T=         - A TIME OF 172800.0 SECONDS REQUESTED
 *  DUMP=N     - RESTART FILE WRITTEN EVERY  7200.000 SECONDS
 *  THERMO     - THERMODYNAMIC QUANTITIES TO BE CALCULATED
 *******************************************************************************
oldgeo thermo nosym precise THREADS=1  pm3
 InChI=1S/C7H10/c1-2-7-5-3-4-6-7/h2-3,5,7H,1,4,6H2

   ATOM   CHEMICAL          X               Y               Z
  NUMBER   SYMBOL      (ANGSTROMS)     (ANGSTROMS)     (ANGSTROMS)
 
     1       C          0.38745586  *  -0.06145252  *   0.41056126  *
     2       C         -0.66266264  *  -1.07183142  *  -0.10515208  *
     3       C         -2.00305239  *  -0.32246503  *  -0.12850278  *
     4       C         -0.37857776  *   1.22176185  *   0.58279699  *
     5       C         -1.67602519  *   1.07297440  *   0.29590701  *
     6       C          1.51049791  *   0.11354240  *  -0.55817413  *
     7       C          2.77951952  *  -0.11373847  *  -0.24136414  *
     8       H          0.78090448  *  -0.38312503  *   1.40448103  *
     9       H         -0.70871935  *  -1.96146909  *   0.54729784  *
    10       H         -0.39868926  *  -1.44948719  *  -1.10999780  *
    11       H         -2.74436022  *  -0.77497819  *   0.55574306  *
    12       H         -2.46753817  *  -0.32990424  *  -1.13155407  *
    13       H         -2.44575141  *   1.84227182  *   0.35081650  *
    14       H          0.11953559  *   2.13444634  *   0.90809252  *
    15       H          1.22576362  *   0.44689046  *  -1.56352206  *
    16       H          3.59107623  *   0.01533064  *  -0.95093742  *
    17       H          3.10019588  *  -0.44328009  *   0.74343019  *
 


          CARTESIAN COORDINATES 

    NO.       ATOM           X           Y           Z

     1         C          0.3875     -0.0615      0.4106
     2         C         -0.6627     -1.0718     -0.1052
     3         C         -2.0031     -0.3225     -0.1285
     4         C         -0.3786      1.2218      0.5828
     5         C         -1.6760      1.0730      0.2959
     6         C          1.5105      0.1135     -0.5582
     7         C          2.7795     -0.1137     -0.2414
     8         H          0.7809     -0.3831      1.4045
     9         H         -0.7087     -1.9615      0.5473
    10         H         -0.3987     -1.4495     -1.1100
    11         H         -2.7444     -0.7750      0.5557
    12         H         -2.4675     -0.3299     -1.1316
    13         H         -2.4458      1.8423      0.3508
    14         H          0.1195      2.1344      0.9081
    15         H          1.2258      0.4469     -1.5635
    16         H          3.5911      0.0153     -0.9509
    17         H          3.1002     -0.4433      0.7434

  H: (PM3): J. J. P. STEWART, J. COMP. CHEM. 10, 209 (1989).
  C: (PM3): J. J. P. STEWART, J. COMP. CHEM. 10, 209 (1989).

           Empirical Formula: C7 H10  =    17 atoms



      MOLECULAR POINT GROUP   :   C1  


      RHF CALCULATION, NO. OF DOUBLY OCCUPIED LEVELS = 19



          HEAT OF FORMATION =      22.855758 KCALS/MOLE


          CARTESIAN COORDINATE DERIVATIVES

   NUMBER  ATOM         X            Y            Z

     1       C     -0.002815     0.000143    -0.002541
     2       C     -0.006624    -0.000887     0.001134
     3       C      0.006998     0.003433    -0.005323
     4       C      0.009583     0.005427    -0.007166
     5       C      0.005271    -0.005370     0.002950
     6       C     -0.005860     0.004257     0.004299
     7       C     -0.008069    -0.000784     0.004259
     8       H     -0.002339    -0.000028     0.006555
     9       H      0.000112     0.000859     0.001068
    10       H      0.004545     0.013249    -0.001415
    11       H      0.016872     0.008709    -0.005849
    12       H     -0.003984    -0.005156    -0.002097
    13       H     -0.002187     0.002244    -0.000696
    14       H     -0.004032     0.003635     0.005681
    15       H     -0.007391    -0.011860     0.001039
    16       H      0.000942    -0.002042    -0.001861
    17       H     -0.001023    -0.015830    -0.000036
 


          GRADIENT NORM =   0.04196


          TIME FOR SCF CALCULATION =    0.02

          TIME FOR DERIVATIVES     =    0.01

          MOLECULAR WEIGHT =   94.16



          ROTATIONAL CONSTANTS IN CM(-1)

          A =    0.21014283   B =    0.06127218   C =    0.05205970



           PRINCIPAL MOMENTS OF INERTIA IN UNITS OF 10**(-40)*GRAM-CM**2

          A =      133.2083   B =      456.8595   C =      537.7053


          ORIENTATION OF MOLECULE IN FORCE CALCULATION

    NO.       ATOM         X         Y         Z

     1          C      -0.2897   -0.3591   -0.3333
     2          C       1.2561   -0.3591   -0.3333
     3          C       1.6847    1.1157   -0.3333
     4          C      -0.6655    1.0956   -0.2575
     5          C       0.4088    1.8915   -0.2650
     6          C      -0.8438   -1.1145    0.8298
     7          C      -1.6630   -2.1503    0.6940
     8          H      -0.6783   -0.7830   -1.2901
     9          H       1.6512   -0.8944   -1.2145
    10          H       1.6589   -0.8920    0.5475
    11          H       2.2558    1.3827   -1.2416
    12          H       2.3397    1.3596    0.5231
    13          H       0.4106    2.9806   -0.2300
    14          H      -1.7090    1.4047   -0.2065
    15          H      -0.5329   -0.7608    1.8203
    16          H      -2.0620   -2.6952    1.5441
    17          H      -1.9940   -2.5286   -0.2696


    FIRST DERIVATIVES WILL BE USED IN THE CALCULATION OF SECOND DERIVATIVES

          ESTIMATED TIME TO COMPLETE CALCULATION =        7.17 SECONDS

    FOR POINT-GROUP C1   THERE ARE   1 UNIQUE SYMMETRY FUNCTIONS.

 STEP:   1 TIME =     0.04 SECS, INTEGRAL =      0.04 TIME LEFT: 172799.92
 STEP:   2 TIME =     0.03 SECS, INTEGRAL =      0.07 TIME LEFT: 172799.89
 STEP:   3 TIME =     0.03 SECS, INTEGRAL =      0.11 TIME LEFT: 172799.86
 STEP:   4 TIME =     0.03 SECS, INTEGRAL =      0.13 TIME LEFT: 172799.83
 STEP:   5 TIME =     0.03 SECS, INTEGRAL =      0.16 TIME LEFT: 172799.80
 STEP:   6 TIME =     0.03 SECS, INTEGRAL =      0.19 TIME LEFT: 172799.78
 STEP:   7 TIME =     0.03 SECS, INTEGRAL =      0.21 TIME LEFT: 172799.75
 STEP:   8 TIME =     0.03 SECS, INTEGRAL =      0.24 TIME LEFT: 172799.72
 STEP:   9 TIME =     0.04 SECS, INTEGRAL =      0.28 TIME LEFT: 172799.69
 STEP:  10 TIME =     0.03 SECS, INTEGRAL =      0.31 TIME LEFT: 172799.66
 STEP:  11 TIME =     0.03 SECS, INTEGRAL =      0.34 TIME LEFT: 172799.63
 STEP:  12 TIME =     0.03 SECS, INTEGRAL =      0.37 TIME LEFT: 172799.60
 STEP:  13 TIME =     0.03 SECS, INTEGRAL =      0.39 TIME LEFT: 172799.57
 STEP:  14 TIME =     0.03 SECS, INTEGRAL =      0.42 TIME LEFT: 172799.54
 STEP:  15 TIME =     0.03 SECS, INTEGRAL =      0.45 TIME LEFT: 172799.52
 STEP:  16 TIME =     0.03 SECS, INTEGRAL =      0.48 TIME LEFT: 172799.48
 STEP:  17 TIME =     0.03 SECS, INTEGRAL =      0.51 TIME LEFT: 172799.46
 STEP:  18 TIME =     0.03 SECS, INTEGRAL =      0.54 TIME LEFT: 172799.43
 STEP:  19 TIME =     0.03 SECS, INTEGRAL =      0.56 TIME LEFT: 172799.40
 STEP:  20 TIME =     0.03 SECS, INTEGRAL =      0.59 TIME LEFT: 172799.38
 STEP:  21 TIME =     0.03 SECS, INTEGRAL =      0.62 TIME LEFT: 172799.35
 STEP:  22 TIME =     0.03 SECS, INTEGRAL =      0.64 TIME LEFT: 172799.32
 STEP:  23 TIME =     0.04 SECS, INTEGRAL =      0.69 TIME LEFT: 172799.28
 STEP:  24 TIME =     0.04 SECS, INTEGRAL =      0.73 TIME LEFT: 172799.24
 STEP:  25 TIME =     0.03 SECS, INTEGRAL =      0.76 TIME LEFT: 172799.21
 STEP:  26 TIME =     0.03 SECS, INTEGRAL =      0.79 TIME LEFT: 172799.18
 STEP:  27 TIME =     0.04 SECS, INTEGRAL =      0.82 TIME LEFT: 172799.14
 STEP:  28 TIME =     0.04 SECS, INTEGRAL =      0.86 TIME LEFT: 172799.11
 STEP:  29 TIME =     0.04 SECS, INTEGRAL =      0.89 TIME LEFT: 172799.07
 STEP:  30 TIME =     0.04 SECS, INTEGRAL =      0.93 TIME LEFT: 172799.04
 STEP:  31 TIME =     0.04 SECS, INTEGRAL =      0.96 TIME LEFT: 172799.00
 STEP:  32 TIME =     0.04 SECS, INTEGRAL =      1.00 TIME LEFT: 172798.96
 STEP:  33 TIME =     0.04 SECS, INTEGRAL =      1.04 TIME LEFT: 172798.93
 STEP:  34 TIME =     0.04 SECS, INTEGRAL =      1.08 TIME LEFT: 172798.89
 STEP:  35 TIME =     0.04 SECS, INTEGRAL =      1.11 TIME LEFT: 172798.85
 STEP:  36 TIME =     0.04 SECS, INTEGRAL =      1.15 TIME LEFT: 172798.82
 STEP:  37 TIME =     0.04 SECS, INTEGRAL =      1.19 TIME LEFT: 172798.78
 STEP:  38 TIME =     0.04 SECS, INTEGRAL =      1.22 TIME LEFT: 172798.74
 STEP:  39 TIME =     0.04 SECS, INTEGRAL =      1.26 TIME LEFT: 172798.71
 STEP:  40 TIME =     0.04 SECS, INTEGRAL =      1.29 TIME LEFT: 172798.67
 STEP:  41 TIME =     0.04 SECS, INTEGRAL =      1.33 TIME LEFT: 172798.64
 STEP:  42 TIME =     0.04 SECS, INTEGRAL =      1.36 TIME LEFT: 172798.60
 STEP:  43 TIME =     0.04 SECS, INTEGRAL =      1.40 TIME LEFT: 172798.56
 STEP:  44 TIME =     0.04 SECS, INTEGRAL =      1.44 TIME LEFT: 172798.53
 STEP:  45 TIME =     0.03 SECS, INTEGRAL =      1.47 TIME LEFT: 172798.50
 STEP:  46 TIME =     0.03 SECS, INTEGRAL =      1.50 TIME LEFT: 172798.46
 STEP:  47 TIME =     0.03 SECS, INTEGRAL =      1.53 TIME LEFT: 172798.43
 STEP:  48 TIME =     0.03 SECS, INTEGRAL =      1.56 TIME LEFT: 172798.41
 STEP:  49 TIME =     0.03 SECS, INTEGRAL =      1.59 TIME LEFT: 172798.38
 STEP:  50 TIME =     0.03 SECS, INTEGRAL =      1.62 TIME LEFT: 172798.35
 STEP:  51 TIME =     0.03 SECS, INTEGRAL =      1.64 TIME LEFT: 172798.32

(To convert to Hartree/Bohr^2, multiply by (10^(-21) x N x a0^2)/(4.184 x 627.51) =  0.0642)


           FORCE MATRIX IN MILLIDYNES/ANGSTROM


                  C  1       C  2       C  3       C  4       C  5       C  6
 ------------------------------------------------------------------------------
     C    1  14.975650
     C    2   3.440713  14.164989
     C    3   0.723689   3.765932  14.668979
     C    4   4.409614   0.862556   1.179069  18.334026
     C    5   1.141598   0.883562   4.741113  10.601233  18.380296
     C    6   4.775140   0.619871   0.035785   0.701425   0.044104  18.199896
     C    7   0.818737   0.036409   0.004473   0.038874   0.006900  11.092308
     H    8   4.240981   0.419900   0.024549   0.402367   0.037159   0.451948
     H    9   0.440767   4.586397   0.440249   0.029901   0.029719   0.024973
     H   10   0.453884   4.547771   0.440202   0.024247   0.026378   0.065929
     H   11   0.026059   0.436125   4.516640   0.037761   0.429639   0.005800
     H   12   0.031163   0.435994   4.525843   0.038720   0.430686   0.001822
     H   13   0.114501   0.043106   0.412867   0.448644   5.018356   0.017358
     H   14   0.414659   0.041448   0.115461   5.026616   0.447945   0.009259
     H   15   0.435834   0.019341   0.001549   0.012273   0.003121   4.796905
     H   16   0.135319   0.016776   0.001753   0.018938   0.002909   0.461384
     H   17   0.096709   0.010338   0.001799   0.011525   0.002339   0.490739


                  C  7       H  8       H  9       H 10       H 11       H 12
 ------------------------------------------------------------------------------
     C    7  18.045140
     H    8   0.054141   4.705009
     H    9   0.003549   0.029271   5.189994
     H   10   0.003749   0.027128   0.580949   5.166347
     H   11   0.000909   0.001215   0.029298   0.028272   5.123336
     H   12   0.000691   0.003652   0.026006   0.029371   0.573694   5.132048
     H   13   0.001986   0.014711   0.003342   0.002831   0.014241   0.015115
     H   14   0.002728   0.013876   0.003190   0.002538   0.016047   0.015686
     H   15   0.452901   0.037862   0.001306   0.022900   0.000755   0.000595
     H   16   5.105555   0.002108   0.001462   0.000932   0.000318   0.000179
     H   17   5.067258   0.029801   0.001206   0.000863   0.000179   0.000169


                  H 13       H 14       H 15       H 16       H 17
 ------------------------------------------------------------------
     H   13   5.414332
     H   14   0.048003   5.421012
     H   15   0.000848   0.003409   5.167469
     H   16   0.000948   0.000778   0.078329   5.493996
     H   17   0.000531   0.001062   0.117272   0.423263   5.463745


          HEAT OF FORMATION =      22.855758 KCALS/MOLE

          ZERO POINT ENERGY      92.933 KCAL/MOL


           NORMAL COORDINATE ANALYSIS (Total motion = 1 Angstrom)


   Root No.       1         2         3         4         5         6         7         8

                 1 A       2 A       3 A       4 A       5 A       6 A       7 A       8 A   

                  81.7      85.3     258.5     348.0     398.2     469.4     651.8     693.8
  
           1    0.0013   -0.0288    0.0099   -0.0224   -0.0065    0.0056   -0.0022    0.0372
           2   -0.0102    0.0196   -0.0123    0.0171    0.0031    0.0023   -0.0092    0.0236
           3   -0.0245   -0.0070   -0.0351   -0.0249    0.0138   -0.0346   -0.0057    0.0256
           4    0.0013   -0.0283    0.0108   -0.0211   -0.0142    0.0003    0.0158    0.0346
           5   -0.0023   -0.0129   -0.0021   -0.0010   -0.0219   -0.0203    0.0074   -0.0369
           6   -0.0420   -0.0096    0.0057    0.0329    0.0095    0.0131   -0.0031    0.0055
           7   -0.0037    0.0034   -0.0026   -0.0014   -0.0180   -0.0159    0.0175   -0.0320
           8   -0.0009   -0.0225    0.0021   -0.0095   -0.0258   -0.0198    0.0121   -0.0235
           9    0.0502    0.0175   -0.0207    0.0053   -0.0036    0.0094   -0.0035    0.0072
          10   -0.0064    0.0017   -0.0012   -0.0039   -0.0209   -0.0157    0.0043   -0.0128
          11   -0.0117    0.0274   -0.0158    0.0241   -0.0028   -0.0095   -0.0249    0.0200
          12   -0.0307   -0.0115   -0.0115   -0.0207   -0.0287    0.0533    0.0054    0.0056
          13   -0.0095    0.0189   -0.0058    0.0093   -0.0130   -0.0169   -0.0003   -0.0169
          14   -0.0074    0.0044   -0.0099    0.0083   -0.0146   -0.0124   -0.0203    0.0185
          15    0.0142    0.0012    0.0585    0.0051    0.0211   -0.0258   -0.0052    0.0056
          16    0.0214   -0.0290   -0.0130    0.0276    0.0356    0.0215   -0.0537   -0.0115
          17    0.0075    0.0305    0.0251   -0.0233    0.0273    0.0263    0.0436    0.0082
          18   -0.0027    0.0000   -0.0213   -0.0281    0.0444   -0.0274    0.0054   -0.0249
          19   -0.0039    0.0583    0.0019    0.0048    0.0355    0.0205    0.0042   -0.0014
          20    0.0232   -0.0394    0.0094   -0.0105    0.0408    0.0300   -0.0012   -0.0025
          21    0.0309    0.0077    0.0191    0.0197   -0.0420   -0.0058   -0.0012   -0.0009
          22   -0.0099   -0.0413    0.0292   -0.0146   -0.0157    0.0057    0.0197    0.0581
          23   -0.0270    0.0224   -0.0243    0.0287   -0.0283    0.0368   -0.0329    0.0520
          24   -0.0121   -0.0030   -0.0360   -0.0319    0.0303   -0.0483   -0.0038    0.0039
          25   -0.0092   -0.0419    0.0443    0.0128   -0.0211    0.0388    0.0162   -0.0115
          26    0.0611   -0.0043   -0.0275   -0.0441   -0.0368   -0.0461    0.0172    0.0110
          27   -0.0855   -0.0210    0.0366    0.0750    0.0153    0.0467   -0.0084   -0.0480
          28    0.0165   -0.0384   -0.0133   -0.0621   -0.0141   -0.0369    0.0181    0.0856
          29   -0.0626   -0.0390    0.0304    0.0308   -0.0173   -0.0001    0.0073   -0.0937
          30   -0.0856   -0.0208    0.0368    0.0729    0.0133    0.0444   -0.0058   -0.0540
          31    0.0503    0.0292   -0.0812   -0.0136   -0.0558    0.0360    0.0356   -0.0960
          32    0.0425   -0.0237    0.0099   -0.0329   -0.0292   -0.0290    0.0235   -0.0286
          33    0.0971    0.0334   -0.0687   -0.0096   -0.0290    0.0410    0.0116   -0.0359
          34   -0.0561   -0.0101    0.0664    0.0174    0.0172   -0.0688   -0.0051    0.0112
          35   -0.0379   -0.0472    0.0062   -0.0050   -0.0258   -0.0065    0.0232   -0.0003
          36    0.1011    0.0350   -0.0757   -0.0107   -0.0315    0.0474    0.0115   -0.0355
          37   -0.0153    0.0419   -0.0121    0.0273    0.0003   -0.0114   -0.0273    0.0150
          38   -0.0077    0.0044   -0.0126    0.0079   -0.0159   -0.0116   -0.0216    0.0210
          39    0.0263    0.0015    0.1413    0.0184    0.0512   -0.0605    0.0270   -0.0797
          40   -0.0094    0.0078   -0.0046    0.0006   -0.0236   -0.0155    0.0054   -0.0272
          41   -0.0162    0.0501   -0.0258    0.0424   -0.0041   -0.0282   -0.0322   -0.0141
          42   -0.0635   -0.0243   -0.0189   -0.0417   -0.0798    0.1695    0.0773   -0.0872
          43    0.0579   -0.0978   -0.0468    0.1293    0.0601    0.0192    0.0102   -0.0156
          44    0.0092    0.0951    0.0827   -0.0816   -0.0097    0.0606   -0.0006   -0.0111
          45   -0.0147   -0.0016   -0.0306   -0.0377    0.0477   -0.0382    0.0009   -0.0157
          46    0.0102    0.0673   -0.0124    0.1065    0.0190    0.0104    0.2560    0.0805
          47    0.0392   -0.0379    0.0579   -0.0417   -0.0425    0.0615   -0.2082   -0.0014
          48    0.0478    0.0129    0.0437    0.0479   -0.1052    0.0090   -0.0161    0.0397
          49   -0.0405    0.1282    0.0309   -0.1188    0.0511    0.0304   -0.1556   -0.0647
          50    0.0216   -0.1040   -0.0536    0.0340    0.1377    0.0041    0.1349   -0.0234
          51    0.0442    0.0091    0.0343    0.0454   -0.0870    0.0015   -0.0001    0.0306


   Root No.       9        10        11        12        13        14        15        16

                 9 A      10 A      11 A      12 A      13 A      14 A      15 A      16 A   

                 754.3     784.6     822.7     902.1     935.6     951.4     992.7    1003.6
  
           1    0.0194    0.0079   -0.0050   -0.0055   -0.0051    0.0037    0.0149   -0.0148
           2   -0.0167    0.0333   -0.0060    0.0044    0.0019    0.0015   -0.0064   -0.0251
           3   -0.0023    0.0252   -0.0042   -0.0256    0.0011    0.0120   -0.0027   -0.0093
           4   -0.0009    0.0283   -0.0139    0.0368    0.0076   -0.0012   -0.0182    0.0109
           5   -0.0327    0.0054    0.0051   -0.0086   -0.0085    0.0031    0.0269    0.0125
           6   -0.0081    0.0012    0.0307   -0.0141   -0.0030   -0.0180    0.0145    0.0006
           7   -0.0474    0.0178    0.0009   -0.0031    0.0006   -0.0003   -0.0096   -0.0288
           8   -0.0041   -0.0125    0.0016   -0.0048    0.0043   -0.0033   -0.0162   -0.0076
           9   -0.0157   -0.0220    0.0214    0.0178   -0.0006    0.0143   -0.0234   -0.0011
          10    0.0425   -0.0514    0.0066   -0.0209    0.0075   -0.0044   -0.0075   -0.0007
          11    0.0084    0.0231   -0.0037    0.0258   -0.0074    0.0042    0.0075    0.0114
          12   -0.0212   -0.0222   -0.0196   -0.0117   -0.0038   -0.0283   -0.0095    0.0211
          13   -0.0027   -0.0067    0.0027   -0.0004   -0.0012    0.0006    0.0040    0.0142
          14    0.0671   -0.0373    0.0039   -0.0024    0.0011   -0.0003    0.0018   -0.0104
          15   -0.0084   -0.0134   -0.0207   -0.0010    0.0068    0.0109    0.0306   -0.0069
          16   -0.0048    0.0002    0.0038   -0.0070   -0.0425    0.0043   -0.0012    0.0015
          17   -0.0045   -0.0046    0.0004   -0.0086    0.0349   -0.0008   -0.0003    0.0019
          18    0.0138   -0.0059   -0.0044    0.0164    0.0018    0.0068   -0.0088    0.0089
          19   -0.0044   -0.0033    0.0028   -0.0109   -0.0116    0.0034   -0.0030   -0.0007
          20   -0.0068   -0.0046    0.0023   -0.0151    0.0118    0.0026   -0.0017    0.0072
          21    0.0041   -0.0013   -0.0023    0.0298   -0.0036   -0.0197    0.0113   -0.0168
          22    0.0063    0.0407    0.0219    0.0064   -0.0123   -0.0143    0.1494    0.0068
          23   -0.0333    0.0164   -0.0335    0.0181   -0.0021   -0.0612   -0.0953   -0.1262
          24    0.0105    0.0199   -0.0037   -0.0338    0.0057    0.0472   -0.0188    0.0281
          25    0.0362   -0.0139   -0.0713    0.1240    0.0106    0.0380   -0.0845    0.0934
          26   -0.0676   -0.0263    0.1217    0.0089   -0.0238   -0.0387    0.0337    0.0839
          27    0.0302    0.0012   -0.0700    0.0143    0.0082    0.0268   -0.0216   -0.0060
          28   -0.0012    0.0489    0.0341   -0.0110    0.0145   -0.0372    0.0581    0.0253
          29    0.0175    0.0176   -0.1144   -0.0092    0.0091    0.0472    0.0327    0.0198
          30    0.0250   -0.0006   -0.0683    0.0083    0.0051    0.0276   -0.0178   -0.0026
          31    0.0372    0.1046   -0.0698   -0.0738   -0.0040   -0.0562    0.0645   -0.0353
          32   -0.0049    0.0085   -0.0848    0.0296    0.0279    0.0575   -0.0301   -0.0093
          33    0.0419    0.0409   -0.0522   -0.0190    0.0040   -0.0036    0.0204   -0.0065
          34   -0.1289   -0.0708    0.0725    0.0423   -0.0022    0.0556   -0.0473   -0.0661
          35   -0.0357    0.0028    0.0706    0.0162   -0.0038   -0.0681   -0.0773    0.0681
          36    0.0572    0.0456   -0.0570   -0.0242    0.0039   -0.0105    0.0254    0.0060
          37    0.0099    0.0417   -0.0018    0.0518   -0.0268    0.0114    0.0738    0.1317
          38    0.0613   -0.0448    0.0004    0.0001    0.0024    0.0030    0.0065   -0.0104
          39    0.1825    0.2176    0.0848   -0.0528   -0.0387   -0.0925   -0.1187    0.0237
          40    0.0357   -0.0419    0.0143   -0.0059    0.0045    0.0023   -0.0100    0.0319
          41   -0.0373    0.0389   -0.0083    0.0601   -0.0210   -0.0031   -0.0136    0.1298
          42    0.1093    0.0829    0.1625    0.0936    0.0220    0.1542    0.0538   -0.0612
          43   -0.0084   -0.0071    0.0226    0.0207    0.3134   -0.0531    0.0269   -0.0029
          44   -0.0105   -0.0366   -0.0040    0.0145   -0.2615   -0.0296    0.0186   -0.0113
          45    0.0167    0.0083   -0.0089   -0.0015   -0.0034    0.0353   -0.0245    0.0148
          46   -0.0024   -0.0095   -0.0093   -0.0988    0.0237    0.0509   -0.0202    0.0544
          47   -0.0391    0.0356    0.0204   -0.1166    0.0061    0.0682   -0.0447    0.0337
          48   -0.0156    0.0229    0.0034   -0.0782    0.0096    0.0468   -0.0254    0.0270
          49   -0.0048   -0.0058    0.0105    0.0752    0.2113   -0.0696    0.0357   -0.0201
          50    0.0211   -0.0453   -0.0103    0.0902   -0.1875   -0.0595    0.0322   -0.0579
          51   -0.0074    0.0164    0.0001   -0.0449   -0.0014    0.0318   -0.0165    0.0165


   Root No.      17        18        19        20        21        22        23        24

                17 A      18 A      19 A      20 A      21 A      22 A      23 A      24 A   

                1021.7    1036.4    1062.5    1080.6    1103.4    1115.1    1125.2    1180.1
  
           1   -0.0217   -0.0097   -0.0025    0.0056   -0.0032    0.0065    0.0301    0.0113
           2   -0.0037   -0.0020   -0.0045    0.0086    0.0060    0.0009    0.0177    0.0155
           3   -0.0027    0.0002    0.0114    0.0076   -0.0025   -0.0057    0.0133    0.0411
           4    0.0162    0.0060   -0.0057   -0.0018    0.0006   -0.0141   -0.0286   -0.0045
           5   -0.0247   -0.0159    0.0044    0.0256    0.0023   -0.0243    0.0030    0.0043
           6    0.0158    0.0101    0.0112   -0.0080    0.0325    0.0014   -0.0196   -0.0050
           7   -0.0021    0.0008   -0.0202   -0.0229   -0.0047    0.0156   -0.0167   -0.0059
           8    0.0164    0.0116    0.0005   -0.0145   -0.0024    0.0254    0.0013   -0.0061
           9   -0.0171   -0.0085    0.0100    0.0047   -0.0369   -0.0021    0.0031   -0.0039
          10    0.0073    0.0023    0.0136    0.0137    0.0050   -0.0092    0.0146    0.0068
          11   -0.0010    0.0010   -0.0110   -0.0177   -0.0057    0.0090   -0.0111   -0.0020
          12   -0.0149   -0.0154    0.0015   -0.0185   -0.0070    0.0067   -0.0057   -0.0041
          13    0.0046    0.0025    0.0111    0.0106    0.0022    0.0042    0.0126    0.0070
          14   -0.0064   -0.0047   -0.0173   -0.0161   -0.0043   -0.0002   -0.0265   -0.0094
          15    0.0263    0.0172   -0.0240    0.0119    0.0058   -0.0023    0.0028    0.0030
          16   -0.0092    0.0263   -0.0005   -0.0034    0.0023    0.0017   -0.0015   -0.0007
          17    0.0087   -0.0202    0.0013    0.0019   -0.0023   -0.0008    0.0014    0.0013
          18   -0.0005   -0.0021   -0.0138    0.0006    0.0095   -0.0001   -0.0033   -0.0405
          19    0.0242   -0.0348    0.0018    0.0017   -0.0002   -0.0005    0.0021   -0.0036
          20   -0.0161    0.0284    0.0012   -0.0016    0.0022    0.0000    0.0005   -0.0052
          21   -0.0049   -0.0002    0.0047    0.0020   -0.0024    0.0013    0.0091    0.0071
          22   -0.0524   -0.0590    0.0069   -0.1127   -0.0287    0.0381    0.1505   -0.1227
          23    0.0096    0.0389    0.0600    0.1714    0.0882   -0.0749    0.0478   -0.1323
          24    0.0038    0.0020   -0.0219   -0.0165   -0.0273    0.0139   -0.0485    0.1623
          25   -0.0479   -0.0492   -0.0931    0.0193    0.1275   -0.0619    0.0128    0.0732
          26   -0.0251   -0.0286   -0.0309    0.0375    0.1754   -0.0605   -0.0089    0.0417
          27   -0.0126   -0.0066   -0.0041   -0.0039   -0.0155    0.0024    0.0059    0.0091
          28    0.0751    0.0418    0.0951    0.0249   -0.0932   -0.0932   -0.1395   -0.0884
          29   -0.0289   -0.0165    0.0701    0.0821   -0.1476   -0.0886   -0.0301   -0.0270
          30   -0.0160   -0.0079    0.0042    0.0122   -0.0148   -0.0011    0.0114    0.0165
          31    0.0271    0.0163   -0.1238   -0.0207    0.0231   -0.0277   -0.0535   -0.0171
          32    0.0441    0.0213    0.2080   -0.0762    0.1295    0.1374    0.0038    0.0064
          33    0.0114    0.0053    0.0074   -0.0123    0.0194    0.0038   -0.0172   -0.0066
          34   -0.0832   -0.0476    0.0163   -0.0682   -0.0321   -0.0250   -0.0717   -0.0344
          35    0.1004    0.0724   -0.1035    0.1021   -0.1318    0.1171    0.1049    0.0222
          36    0.0216    0.0114    0.0115    0.0059    0.0209    0.0026    0.0118    0.0082
          37   -0.0443   -0.0344    0.0489    0.1560   -0.0007    0.1807   -0.0808   -0.0451
          38   -0.0024   -0.0022   -0.0201   -0.0160   -0.0040    0.0016   -0.0278   -0.0103
          39   -0.0813   -0.0492    0.0505   -0.0269   -0.0182   -0.0039   -0.0025    0.0009
          40    0.0349    0.0226    0.0343   -0.0196   -0.0022   -0.0524    0.0588    0.0043
          41    0.0810    0.0594    0.0538   -0.1399   -0.0321   -0.1309    0.1255   -0.0155
          42    0.0481    0.0441   -0.0002    0.0279    0.0053   -0.0147    0.0125    0.0115
          43    0.0351   -0.0677    0.0334   -0.0079   -0.0263   -0.0077   -0.0354    0.1121
          44   -0.0046    0.0714    0.0445   -0.0114   -0.0264   -0.0140   -0.0649    0.1399
          45   -0.0098   -0.0055   -0.0396    0.0070    0.0274    0.0075    0.0313   -0.1249
          46   -0.0896    0.1402   -0.0092   -0.0068    0.0125   -0.0026   -0.0064   -0.0308
          47    0.0875   -0.1047   -0.0079    0.0046    0.0114   -0.0064   -0.0081   -0.0367
          48    0.0078   -0.0037   -0.0079    0.0021    0.0100   -0.0035   -0.0002   -0.0282
          49   -0.0852    0.1134    0.0189   -0.0043   -0.0040    0.0022    0.0134    0.0245
          50    0.0578   -0.0898    0.0276    0.0085   -0.0132   -0.0010    0.0205    0.0310
          51    0.0037   -0.0047   -0.0118    0.0005    0.0059    0.0006   -0.0016   -0.0201


   Root No.      25        26        27        28        29        30        31        32

                25 A      26 A      27 A      28 A      29 A      30 A      31 A      32 A   

                1196.1    1228.8    1268.4    1291.1    1328.6    1359.7    1399.0    1415.8
  
           1   -0.0053    0.0381   -0.0097    0.0615    0.0237    0.0111    0.0146    0.0160
           2   -0.0155   -0.0275   -0.0172   -0.0160   -0.0357    0.0034    0.0493    0.0497
           3    0.0186    0.0067    0.0282   -0.0270   -0.0074   -0.0145   -0.0279   -0.0236
           4   -0.0086   -0.0067   -0.0404   -0.0414    0.0045    0.0005    0.0050   -0.0301
           5   -0.0086   -0.0020   -0.0428   -0.0157    0.0188   -0.0013   -0.0184   -0.0049
           6   -0.0125    0.0021   -0.0070    0.0090    0.0023    0.0025    0.0041    0.0045
           7    0.0064    0.0003    0.0070    0.0062    0.0164   -0.0219   -0.0406    0.0410
           8    0.0107    0.0310    0.0224   -0.0027   -0.0359    0.0579    0.0075   -0.0106
           9    0.0011   -0.0012    0.0013   -0.0007   -0.0017    0.0017    0.0019   -0.0018
          10   -0.0064   -0.0145   -0.0086   -0.0173   -0.0126   -0.0040    0.0115    0.0056
          11    0.0019   -0.0153    0.0101    0.0343    0.0265    0.0240   -0.0127   -0.0352
          12   -0.0072   -0.0041   -0.0040    0.0038    0.0004    0.0024    0.0031    0.0020
          13   -0.0041   -0.0258    0.0057    0.0143    0.0008    0.0363    0.0039   -0.0321
          14    0.0053    0.0046   -0.0023   -0.0122    0.0121   -0.0337   -0.0158    0.0132
          15    0.0027    0.0025    0.0012   -0.0015    0.0005   -0.0026   -0.0017    0.0006
          16   -0.0075   -0.0067   -0.0017    0.0004   -0.0166   -0.0060   -0.0045   -0.0034
          17   -0.0101    0.0067   -0.0026    0.0113   -0.0125   -0.0076   -0.0109   -0.0076
          18    0.0363   -0.0123   -0.0286    0.0208    0.0067    0.0122    0.0234    0.0183
          19   -0.0087    0.0044    0.0064   -0.0013   -0.0061   -0.0071   -0.0139   -0.0115
          20   -0.0105    0.0007    0.0079   -0.0052   -0.0101   -0.0091   -0.0166   -0.0138
          21   -0.0273    0.0048    0.0096   -0.0054   -0.0034   -0.0035   -0.0052   -0.0035
          22    0.1315   -0.1087    0.0511   -0.0990   -0.0621   -0.0248   -0.0126   -0.0205
          23    0.1144    0.0632    0.0186    0.0228    0.0282   -0.0183   -0.0558   -0.0445
          24   -0.0918    0.0257   -0.0135    0.0213   -0.0015    0.0098    0.0299    0.0321
          25    0.0542   -0.0392    0.1587    0.0058   -0.0618    0.0047   -0.0519    0.0779
          26   -0.0058   -0.0297    0.0871    0.0715    0.0114   -0.0650    0.0527   -0.0037
          27    0.0123    0.0043    0.0033   -0.0210   -0.0205    0.0374   -0.0563    0.0443
          28   -0.0318   -0.0639    0.1207    0.0686   -0.0553    0.0306   -0.0170    0.1180
          29   -0.0125   -0.0498    0.0909    0.0749    0.0064   -0.0590    0.0574    0.0014
          30   -0.0029    0.0013   -0.0007    0.0119    0.0205   -0.0410    0.0514   -0.0528
          31    0.0260    0.0681    0.0552   -0.0057   -0.0321   -0.0721    0.1294   -0.0841
          32   -0.0191   -0.0684    0.0071    0.0479    0.0627   -0.1293    0.0264    0.0002
          33    0.0033    0.0102    0.0230    0.0063   -0.0028   -0.0737    0.0996   -0.0663
          34    0.0197    0.0625    0.0515   -0.0048   -0.0328   -0.0636    0.1210   -0.0755
          35    0.0163   -0.0711    0.0254    0.0373    0.0614   -0.1367    0.0227   -0.0058
          36   -0.0099   -0.0177   -0.0295   -0.0031    0.0076    0.0774   -0.1103    0.0745
          37    0.0415    0.1550    0.0102   -0.0825   -0.0656   -0.0367    0.0073    0.0614
          38    0.0062    0.0058   -0.0014   -0.0127    0.0131   -0.0352   -0.0180    0.0133
          39   -0.0006   -0.0046    0.0015   -0.0000    0.0024   -0.0019   -0.0036   -0.0037
          40   -0.0024    0.0420   -0.0193   -0.0274   -0.0206   -0.0308    0.0173    0.0346
          41    0.0135    0.1712   -0.0249    0.0017    0.0028   -0.0662    0.0018    0.0615
          42    0.0139    0.0104    0.0084   -0.0038    0.0010   -0.0042   -0.0065   -0.0040
          43    0.1807    0.0029   -0.0439    0.0311    0.0138    0.0088    0.0191    0.0112
          44    0.2232   -0.0264   -0.0493    0.0160   -0.0005    0.0108    0.0290    0.0222
          45   -0.1013   -0.0039   -0.0007    0.0109   -0.0075    0.0011    0.0032    0.0039
          46    0.0372    0.0007    0.0371   -0.0576    0.1014    0.0421    0.0402    0.0270
          47    0.0469   -0.0024    0.0443   -0.0778    0.1180    0.0503    0.0518    0.0351
          48    0.0312   -0.0001    0.0415   -0.0707    0.1202    0.0547    0.0622    0.0450
          49   -0.0483    0.0098    0.0725   -0.0940    0.0959    0.0357    0.0343    0.0235
          50   -0.0618    0.0287    0.0946   -0.1074    0.1354    0.0485    0.0411    0.0285
          51    0.0070   -0.0078   -0.0432    0.0610   -0.0881   -0.0380   -0.0419   -0.0306


   Root No.      33        34        35        36        37        38        39        40

                33 A      34 A      35 A      36 A      37 A      38 A      39 A      40 A   

                1421.1    1829.8    1861.5    2884.6    2972.7    2991.0    3044.5    3055.2
  
           1   -0.0078    0.0089   -0.0167   -0.0236    0.0004   -0.0007   -0.0007   -0.0004
           2    0.0052    0.0197   -0.0231   -0.0261    0.0004   -0.0006   -0.0007   -0.0002
           3    0.0018   -0.0026    0.0211   -0.0583    0.0009   -0.0016   -0.0017    0.0000
           4    0.0222    0.0046   -0.0010   -0.0010    0.0005   -0.0013   -0.0006   -0.0029
           5   -0.0420   -0.0060   -0.0008    0.0001   -0.0006    0.0014    0.0010    0.0047
           6   -0.0012   -0.0001    0.0003    0.0041    0.0200   -0.0402   -0.0000    0.0006
           7    0.0246   -0.0186   -0.0004    0.0002   -0.0015   -0.0006    0.0002    0.0343
           8    0.0179   -0.0011    0.0001    0.0001    0.0007    0.0004    0.0001    0.0141
           9   -0.0009    0.0005   -0.0000   -0.0002   -0.0407   -0.0196   -0.0000   -0.0005
          10   -0.0027   -0.1623   -0.0143    0.0002   -0.0000    0.0000    0.0000    0.0002
          11   -0.0046   -0.1493   -0.0142   -0.0009    0.0000   -0.0000    0.0001   -0.0003
          12   -0.0000    0.0008    0.0014   -0.0001   -0.0002   -0.0001   -0.0002   -0.0000
          13   -0.0088    0.1914    0.0166    0.0003    0.0000    0.0000    0.0000    0.0005
          14    0.0051    0.1111    0.0110    0.0004    0.0000    0.0000    0.0000   -0.0017
          15    0.0005   -0.0026    0.0000   -0.0003   -0.0000   -0.0001   -0.0000   -0.0001
          16    0.0015   -0.0150    0.1344    0.0005    0.0002   -0.0003   -0.0217    0.0001
          17   -0.0009   -0.0148    0.1722    0.0005    0.0000   -0.0001   -0.0251    0.0001
          18   -0.0002    0.0014   -0.0163    0.0015   -0.0001    0.0001   -0.0595    0.0003
          19    0.0005    0.0117   -0.1161    0.0000   -0.0000    0.0000    0.0008    0.0000
          20    0.0011    0.0146   -0.1471    0.0000   -0.0000    0.0000    0.0008    0.0000
          21   -0.0001    0.0017   -0.0158   -0.0005    0.0000   -0.0000    0.0053   -0.0000
          22    0.0248   -0.0217    0.0226    0.2854   -0.0055    0.0101    0.0046   -0.0003
          23   -0.0061    0.0164    0.0322    0.3111   -0.0044    0.0081    0.0045    0.0001
          24   -0.0063    0.0058   -0.0180    0.7052   -0.0099    0.0177    0.0191   -0.0001
          25   -0.1069    0.0005    0.0017    0.0068    0.0535   -0.1044    0.0046    0.0207
          26    0.1759   -0.0024    0.0015   -0.0170   -0.0685    0.1433   -0.0063   -0.0262
          27   -0.1657   -0.0054    0.0018   -0.0273   -0.1131    0.2237   -0.0116   -0.0507
          28   -0.1199    0.0019   -0.0098   -0.0069   -0.0611    0.1217    0.0061    0.0182
          29    0.1733   -0.0016   -0.0032    0.0132    0.0755   -0.1603   -0.0056   -0.0219
          30    0.1688    0.0048    0.0052   -0.0220   -0.1271    0.2572    0.0093    0.0439
          31   -0.0914   -0.0207   -0.0017   -0.0003   -0.1665   -0.0814   -0.0010   -0.1846
          32   -0.0678    0.0237    0.0027    0.0005   -0.0763   -0.0402   -0.0004   -0.0880
          33   -0.0857    0.0015   -0.0006    0.0002    0.2570    0.1237    0.0017    0.3413
          34   -0.0833   -0.0228   -0.0020    0.0016    0.1846    0.0894   -0.0011   -0.2246
          35   -0.0695    0.0240    0.0030    0.0004    0.0677    0.0358   -0.0004   -0.0824
          36    0.0925    0.0018    0.0010    0.0020    0.2334    0.1114   -0.0017   -0.3350
          37    0.0246   -0.0521   -0.0033    0.0003   -0.0001   -0.0000    0.0000    0.0017
          38    0.0061    0.1523    0.0154    0.0041   -0.0003   -0.0000   -0.0000    0.0178
          39   -0.0006    0.0073    0.0011   -0.0006   -0.0009   -0.0005    0.0001    0.0005
          40    0.0002   -0.1340   -0.0126   -0.0054    0.0000   -0.0002    0.0003   -0.0090
          41    0.0087    0.0924    0.0068   -0.0000    0.0000    0.0000   -0.0001    0.0023
          42    0.0005    0.0065    0.0012   -0.0012   -0.0004   -0.0003   -0.0002    0.0004
          43    0.0033    0.0014   -0.0021   -0.0083    0.0004   -0.0009    0.2185   -0.0011
          44    0.0029    0.0014   -0.0090   -0.0101    0.0002   -0.0004    0.2498   -0.0012
          45   -0.0014   -0.0128    0.1305   -0.0174    0.0002   -0.0004    0.7109   -0.0034
          46   -0.0029    0.0021   -0.0211    0.0010   -0.0001    0.0001    0.0265   -0.0002
          47   -0.0014    0.0020   -0.0331    0.0014   -0.0001    0.0001    0.0366   -0.0002
          48   -0.0031   -0.0138    0.1363   -0.0016    0.0001   -0.0002   -0.0649    0.0004
          49   -0.0012   -0.0011   -0.0004    0.0027   -0.0001    0.0003    0.0035   -0.0001
          50   -0.0046   -0.0005    0.0064    0.0032   -0.0002    0.0003    0.0041   -0.0000
          51    0.0026    0.0152   -0.1477    0.0032   -0.0003    0.0007    0.0061   -0.0001


   Root No.      41        42        43        44        45

                41 A      42 A      43 A      44 A      45 A   

                3069.1    3115.8    3134.1    3134.9    3146.8
  
           1    0.0006   -0.0000   -0.0001   -0.0006   -0.0003
           2   -0.0003    0.0004   -0.0002   -0.0008   -0.0004
           3   -0.0004   -0.0000    0.0004   -0.0002   -0.0002
           4    0.0218   -0.0000   -0.0000    0.0010    0.0000
           5   -0.0292    0.0002    0.0001   -0.0013    0.0000
           6   -0.0034    0.0000    0.0001   -0.0001   -0.0000
           7    0.0046   -0.0004   -0.0001    0.0021   -0.0000
           8    0.0014   -0.0003   -0.0000    0.0006   -0.0000
           9   -0.0003   -0.0000    0.0000   -0.0000    0.0000
          10    0.0004   -0.0341    0.0032   -0.0402    0.0001
          11    0.0000    0.0104   -0.0005    0.0068    0.0000
          12   -0.0000    0.0016   -0.0001    0.0017   -0.0000
          13   -0.0001   -0.0002   -0.0004    0.0049   -0.0000
          14   -0.0006   -0.0404   -0.0029    0.0366   -0.0002
          15   -0.0000   -0.0013   -0.0001    0.0010   -0.0000
          16   -0.0002   -0.0001    0.0019    0.0001   -0.0055
          17   -0.0004    0.0001    0.0025    0.0002   -0.0067
          18   -0.0010    0.0000   -0.0012   -0.0001   -0.0053
          19    0.0000   -0.0000   -0.0136   -0.0007    0.0285
          20    0.0000   -0.0000   -0.0146   -0.0007    0.0376
          21    0.0001    0.0000   -0.0603   -0.0035   -0.0301
          22    0.0028   -0.0006   -0.0023    0.0004    0.0010
          23    0.0015    0.0012   -0.0029    0.0020    0.0010
          24    0.0046    0.0007   -0.0020    0.0034    0.0038
          25   -0.1389    0.0005    0.0002   -0.0030   -0.0001
          26    0.1889   -0.0003   -0.0002    0.0041    0.0000
          27    0.3545   -0.0009   -0.0004    0.0077    0.0001
          28   -0.1253    0.0005   -0.0002   -0.0027    0.0004
          29    0.1634   -0.0003    0.0003    0.0035   -0.0002
          30   -0.3145    0.0008   -0.0005   -0.0069    0.0003
          31   -0.0262    0.0035    0.0005   -0.0071    0.0001
          32   -0.0137   -0.0000    0.0002   -0.0023    0.0000
          33    0.0485   -0.0051   -0.0008    0.0121   -0.0002
          34   -0.0300    0.0045    0.0006   -0.0088    0.0001
          35   -0.0120   -0.0001    0.0001   -0.0020    0.0000
          36   -0.0453    0.0053    0.0008   -0.0119    0.0002
          37   -0.0001   -0.0025    0.0001   -0.0003   -0.0000
          38    0.0121    0.4772    0.0303   -0.3833    0.0027
          39    0.0004    0.0154    0.0010   -0.0122    0.0001
          40   -0.0096    0.4083   -0.0329    0.4118   -0.0016
          41    0.0031   -0.1242    0.0098   -0.1225    0.0004
          42    0.0005   -0.0200    0.0017   -0.0201   -0.0000
          43    0.0038   -0.0001    0.0064    0.0003    0.0187
          44    0.0039   -0.0001    0.0076    0.0005    0.0216
          45    0.0112   -0.0002    0.0125    0.0009    0.0553
          46    0.0005    0.0003   -0.0676   -0.0046   -0.2437
          47    0.0006    0.0003   -0.0913   -0.0063   -0.3336
          48   -0.0011   -0.0006    0.1209    0.0086    0.5364
          49   -0.0002    0.0001    0.2044    0.0112   -0.0468
          50   -0.0002    0.0001    0.2338    0.0128   -0.0520
          51   -0.0006    0.0004    0.5963    0.0325   -0.1700


           MASS-WEIGHTED COORDINATE ANALYSIS (NORMAL COORDINATES)


   Root No.       1         2         3         4         5         6         7         8

                 1 A       2 A       3 A       4 A       5 A       6 A       7 A       8 A   

                  81.7      85.3     258.5     348.0     398.2     469.4     651.8     693.8
  
           1    0.0105   -0.2197    0.0840   -0.1900   -0.0475    0.0446   -0.0155    0.3058
           2   -0.0853    0.1496   -0.1046    0.1448    0.0230    0.0184   -0.0642    0.1939
           3   -0.2045   -0.0538   -0.2989   -0.2113    0.1011   -0.2751   -0.0394    0.2108
           4    0.0113   -0.2162    0.0917   -0.1786   -0.1040    0.0024    0.1094    0.2844
           5   -0.0196   -0.0988   -0.0182   -0.0082   -0.1603   -0.1619    0.0515   -0.3031
           6   -0.3511   -0.0735    0.0485    0.2786    0.0700    0.1040   -0.0216    0.0448
           7   -0.0312    0.0262   -0.0221   -0.0123   -0.1321   -0.1263    0.1211   -0.2630
           8   -0.0072   -0.1717    0.0176   -0.0804   -0.1892   -0.1573    0.0842   -0.1930
           9    0.4196    0.1335   -0.1758    0.0448   -0.0260    0.0747   -0.0245    0.0593
          10   -0.0536    0.0132   -0.0105   -0.0330   -0.1530   -0.1253    0.0301   -0.1055
          11   -0.0980    0.2092   -0.1348    0.2041   -0.0207   -0.0754   -0.1726    0.1641
          12   -0.2568   -0.0881   -0.0982   -0.1757   -0.2101    0.4246    0.0374    0.0457
          13   -0.0793    0.1445   -0.0490    0.0789   -0.0950   -0.1345   -0.0023   -0.1392
          14   -0.0617    0.0340   -0.0843    0.0701   -0.1073   -0.0990   -0.1412    0.1521
          15    0.1187    0.0095    0.4979    0.0434    0.1549   -0.2057   -0.0361    0.0460
          16    0.1785   -0.2217   -0.1104    0.2338    0.2610    0.1710   -0.3729   -0.0949
          17    0.0623    0.2329    0.2136   -0.1975    0.1998    0.2091    0.3024    0.0677
          18   -0.0227    0.0002   -0.1812   -0.2379    0.3254   -0.2183    0.0378   -0.2048
          19   -0.0323    0.4450    0.0158    0.0409    0.2599    0.1630    0.0294   -0.0119
          20    0.1939   -0.3012    0.0797   -0.0891    0.2989    0.2384   -0.0082   -0.0205
          21    0.2584    0.0587    0.1629    0.1670   -0.3078   -0.0461   -0.0084   -0.0073
          22   -0.0239   -0.0913    0.0721   -0.0359   -0.0334    0.0132    0.0395    0.1383
          23   -0.0653    0.0494   -0.0598    0.0704   -0.0600    0.0848   -0.0661    0.1238
          24   -0.0292   -0.0066   -0.0886   -0.0782    0.0642   -0.1115   -0.0076    0.0093
          25   -0.0222   -0.0927    0.1092    0.0314   -0.0447    0.0895    0.0326   -0.0273
          26    0.1480   -0.0095   -0.0677   -0.1082   -0.0781   -0.1063    0.0345    0.0262
          27   -0.2071   -0.0465    0.0902    0.1841    0.0324    0.1076   -0.0169   -0.1145
          28    0.0399   -0.0849   -0.0329   -0.1524   -0.0299   -0.0852    0.0364    0.2039
          29   -0.1515   -0.0862    0.0749    0.0756   -0.0367   -0.0002    0.0146   -0.2233
          30   -0.2073   -0.0461    0.0908    0.1790    0.0283    0.1024   -0.0117   -0.1287
          31    0.1217    0.0646   -0.2001   -0.0333   -0.1185    0.0831    0.0716   -0.2286
          32    0.1029   -0.0525    0.0243   -0.0809   -0.0621   -0.0670    0.0472   -0.0681
          33    0.2352    0.0739   -0.1694   -0.0235   -0.0615    0.0945    0.0233   -0.0856
          34   -0.1359   -0.0223    0.1638    0.0428    0.0366   -0.1586   -0.0103    0.0267
          35   -0.0917   -0.1044    0.0153   -0.0123   -0.0549   -0.0149    0.0467   -0.0007
          36    0.2448    0.0774   -0.1866   -0.0262   -0.0669    0.1094    0.0232   -0.0846
          37   -0.0371    0.0926   -0.0298    0.0670    0.0007   -0.0263   -0.0548    0.0357
          38   -0.0187    0.0098   -0.0310    0.0195   -0.0337   -0.0268   -0.0433    0.0501
          39    0.0636    0.0032    0.3482    0.0452    0.1087   -0.1395    0.0542   -0.1899
          40   -0.0227    0.0173   -0.0113    0.0016   -0.0501   -0.0358    0.0108   -0.0649
          41   -0.0393    0.1109   -0.0637    0.1041   -0.0088   -0.0650   -0.0647   -0.0336
          42   -0.1537   -0.0537   -0.0467   -0.1022   -0.1693    0.3909    0.1554   -0.2077
          43    0.1402   -0.2163   -0.1154    0.3175    0.1276    0.0442    0.0204   -0.0373
          44    0.0224    0.2104    0.2039   -0.2004   -0.0205    0.1396   -0.0012   -0.0264
          45   -0.0357   -0.0035   -0.0754   -0.0924    0.1013   -0.0881    0.0019   -0.0373
          46    0.0247    0.1488   -0.0305    0.2614    0.0403    0.0240    0.5146    0.1918
          47    0.0950   -0.0839    0.1426   -0.1025   -0.0902    0.1418   -0.4186   -0.0034
          48    0.1158    0.0285    0.1078    0.1176   -0.2234    0.0207   -0.0324    0.0945
          49   -0.0980    0.2836    0.0761   -0.2917    0.1085    0.0700   -0.3129   -0.1540
          50    0.0522   -0.2301   -0.1320    0.0835    0.2922    0.0094    0.2713   -0.0556
          51    0.1069    0.0200    0.0846    0.1115   -0.1847    0.0034   -0.0001    0.0729


   Root No.       9        10        11        12        13        14        15        16

                 9 A      10 A      11 A      12 A      13 A      14 A      15 A      16 A   

                 754.3     784.6     822.7     902.1     935.6     951.4     992.7    1003.6
  
           1    0.1412    0.0610   -0.0460   -0.0480   -0.0324    0.0383    0.1400   -0.1399
           2   -0.1213    0.2572   -0.0556    0.0384    0.0120    0.0154   -0.0604   -0.2364
           3   -0.0171    0.1951   -0.0391   -0.2230    0.0070    0.1245   -0.0256   -0.0875
           4   -0.0068    0.2189   -0.1282    0.3209    0.0481   -0.0120   -0.1706    0.1031
           5   -0.2377    0.0418    0.0473   -0.0748   -0.0541    0.0327    0.2524    0.1175
           6   -0.0591    0.0095    0.2830   -0.1230   -0.0188   -0.1871    0.1365    0.0055
           7   -0.3447    0.1373    0.0087   -0.0267    0.0039   -0.0035   -0.0905   -0.2714
           8   -0.0296   -0.0966    0.0151   -0.0422    0.0271   -0.0348   -0.1526   -0.0721
           9   -0.1144   -0.1697    0.1970    0.1551   -0.0041    0.1489   -0.2200   -0.0104
          10    0.3091   -0.3972    0.0608   -0.1824    0.0474   -0.0459   -0.0707   -0.0066
          11    0.0610    0.1787   -0.0344    0.2248   -0.0473    0.0441    0.0706    0.1077
          12   -0.1540   -0.1713   -0.1806   -0.1018   -0.0244   -0.2943   -0.0892    0.1992
          13   -0.0196   -0.0517    0.0252   -0.0034   -0.0074    0.0064    0.0376    0.1343
          14    0.4879   -0.2883    0.0355   -0.0212    0.0072   -0.0035    0.0166   -0.0977
          15   -0.0610   -0.1033   -0.1906   -0.0089    0.0433    0.1130    0.2872   -0.0647
          16   -0.0348    0.0013    0.0351   -0.0613   -0.2696    0.0443   -0.0115    0.0139
          17   -0.0324   -0.0356    0.0033   -0.0747    0.2216   -0.0079   -0.0029    0.0183
          18    0.1006   -0.0455   -0.0410    0.1431    0.0117    0.0704   -0.0823    0.0844
          19   -0.0319   -0.0259    0.0260   -0.0947   -0.0735    0.0353   -0.0284   -0.0068
          20   -0.0496   -0.0357    0.0214   -0.1321    0.0751    0.0274   -0.0155    0.0676
          21    0.0301   -0.0100   -0.0214    0.2597   -0.0226   -0.2049    0.1065   -0.1580
          22    0.0133    0.0910    0.0586    0.0161   -0.0227   -0.0431    0.4063    0.0185
          23   -0.0701    0.0367   -0.0895    0.0457   -0.0039   -0.1844   -0.2593   -0.3449
          24    0.0220    0.0446   -0.0100   -0.0853    0.0105    0.1422   -0.0511    0.0769
          25    0.0764   -0.0312   -0.1902    0.3132    0.0195    0.1144   -0.2300    0.2551
          26   -0.1425   -0.0589    0.3249    0.0225   -0.0437   -0.1164    0.0917    0.2292
          27    0.0636    0.0028   -0.1867    0.0362    0.0151    0.0806   -0.0588   -0.0164
          28   -0.0026    0.1095    0.0911   -0.0279    0.0266   -0.1120    0.1581    0.0693
          29    0.0370    0.0395   -0.3053   -0.0233    0.0167    0.1421    0.0890    0.0541
          30    0.0528   -0.0014   -0.1824    0.0209    0.0094    0.0831   -0.0483   -0.0072
          31    0.0784    0.2341   -0.1862   -0.1865   -0.0074   -0.1691    0.1754   -0.0965
          32   -0.0103    0.0190   -0.2265    0.0747    0.0513    0.1732   -0.0818   -0.0255
          33    0.0882    0.0915   -0.1393   -0.0481    0.0073   -0.0109    0.0554   -0.0178
          34   -0.2717   -0.1585    0.1934    0.1068   -0.0041    0.1674   -0.1286   -0.1805
          35   -0.0752    0.0062    0.1885    0.0408   -0.0070   -0.2049   -0.2103    0.1862
          36    0.1206    0.1022   -0.1520   -0.0613    0.0071   -0.0318    0.0691    0.0165
          37    0.0209    0.0934   -0.0048    0.1308   -0.0493    0.0343    0.2008    0.3598
          38    0.1293   -0.1003    0.0012    0.0002    0.0045    0.0090    0.0176   -0.0284
          39    0.3847    0.4873    0.2265   -0.1333   -0.0712   -0.2784   -0.3228    0.0649
          40    0.0752   -0.0938    0.0380   -0.0148    0.0083    0.0071   -0.0273    0.0872
          41   -0.0787    0.0871   -0.0223    0.1518   -0.0386   -0.0094   -0.0371    0.3546
          42    0.2304    0.1857    0.4336    0.2365    0.0404    0.4644    0.1463   -0.1673
          43   -0.0176   -0.0160    0.0603    0.0523    0.5758   -0.1598    0.0732   -0.0078
          44   -0.0221   -0.0819   -0.0107    0.0366   -0.4804   -0.0892    0.0505   -0.0309
          45    0.0351    0.0185   -0.0238   -0.0038   -0.0062    0.1063   -0.0667    0.0403
          46   -0.0051   -0.0214   -0.0247   -0.2495    0.0436    0.1534   -0.0550    0.1486
          47   -0.0825    0.0797    0.0544   -0.2946    0.0111    0.2055   -0.1215    0.0921
          48   -0.0329    0.0513    0.0090   -0.1976    0.0177    0.1410   -0.0691    0.0737
          49   -0.0102   -0.0131    0.0280    0.1900    0.3882   -0.2095    0.0970   -0.0550
          50    0.0446   -0.1014   -0.0275    0.2278   -0.3444   -0.1793    0.0876   -0.1582
          51   -0.0157    0.0367    0.0002   -0.1135   -0.0025    0.0957   -0.0449    0.0451


   Root No.      17        18        19        20        21        22        23        24

                17 A      18 A      19 A      20 A      21 A      22 A      23 A      24 A   

                1021.7    1036.4    1062.5    1080.6    1103.4    1115.1    1125.2    1180.1
  
           1   -0.2083   -0.0886   -0.0226    0.0487   -0.0276    0.0597    0.2670    0.0918
           2   -0.0350   -0.0184   -0.0412    0.0757    0.0513    0.0085    0.1569    0.1252
           3   -0.0258    0.0019    0.1047    0.0668   -0.0216   -0.0523    0.1182    0.3326
           4    0.1553    0.0548   -0.0523   -0.0157    0.0055   -0.1292   -0.2529   -0.0365
           5   -0.2369   -0.1458    0.0406    0.2243    0.0196   -0.2223    0.0270    0.0344
           6    0.1511    0.0922    0.1031   -0.0696    0.2798    0.0131   -0.1738   -0.0408
           7   -0.0199    0.0077   -0.1851   -0.2007   -0.0405    0.1428   -0.1477   -0.0478
           8    0.1574    0.1062    0.0050   -0.1268   -0.0203    0.2325    0.0116   -0.0492
           9   -0.1638   -0.0780    0.0917    0.0408   -0.3177   -0.0188    0.0273   -0.0318
          10    0.0698    0.0215    0.1252    0.1198    0.0430   -0.0843    0.1293    0.0553
          11   -0.0094    0.0093   -0.1010   -0.1549   -0.0491    0.0825   -0.0983   -0.0164
          12   -0.1426   -0.1412    0.0136   -0.1617   -0.0606    0.0613   -0.0501   -0.0330
          13    0.0444    0.0232    0.1023    0.0924    0.0190    0.0381    0.1117    0.0570
          14   -0.0618   -0.0430   -0.1588   -0.1408   -0.0367   -0.0018   -0.2346   -0.0764
          15    0.2521    0.1578   -0.2206    0.1041    0.0495   -0.0207    0.0252    0.0240
          16   -0.0878    0.2413   -0.0049   -0.0300    0.0195    0.0158   -0.0135   -0.0059
          17    0.0832   -0.1851    0.0119    0.0168   -0.0197   -0.0072    0.0122    0.0108
          18   -0.0050   -0.0191   -0.1265    0.0055    0.0815   -0.0008   -0.0295   -0.3278
          19    0.2317   -0.3185    0.0161    0.0149   -0.0014   -0.0049    0.0189   -0.0294
          20   -0.1542    0.2602    0.0112   -0.0137    0.0192    0.0001    0.0044   -0.0418
          21   -0.0473   -0.0022    0.0432    0.0171   -0.0203    0.0123    0.0806    0.0573
          22   -0.1453   -0.1568    0.0185   -0.2857   -0.0714    0.1011    0.3861   -0.2877
          23    0.0267    0.1034    0.1596    0.4344    0.2198   -0.1985    0.1225   -0.3102
          24    0.0107    0.0052   -0.0581   -0.0418   -0.0680    0.0369   -0.1245    0.3805
          25   -0.1328   -0.1306   -0.2477    0.0489    0.3175   -0.1641    0.0329    0.1717
          26   -0.0697   -0.0759   -0.0823    0.0951    0.4370   -0.1604   -0.0229    0.0979
          27   -0.0348   -0.0176   -0.0109   -0.0099   -0.0387    0.0063    0.0151    0.0214
          28    0.2083    0.1111    0.2531    0.0632   -0.2321   -0.2472   -0.3580   -0.2074
          29   -0.0803   -0.0438    0.1866    0.2081   -0.3677   -0.2349   -0.0773   -0.0632
          30   -0.0444   -0.0210    0.0112    0.0310   -0.0370   -0.0029    0.0294    0.0387
          31    0.0751    0.0433   -0.3295   -0.0525    0.0574   -0.0735   -0.1373   -0.0402
          32    0.1223    0.0566    0.5533   -0.1931    0.3226    0.3643    0.0096    0.0151
          33    0.0315    0.0142    0.0196   -0.0311    0.0482    0.0100   -0.0441   -0.0154
          34   -0.2309   -0.1265    0.0433   -0.1728   -0.0800   -0.0663   -0.1839   -0.0807
          35    0.2786    0.1923   -0.2755    0.2587   -0.3284    0.3104    0.2693    0.0520
          36    0.0598    0.0303    0.0305    0.0150    0.0520    0.0069    0.0303    0.0191
          37   -0.1229   -0.0913    0.1300    0.3954   -0.0018    0.4790   -0.2074   -0.1057
          38   -0.0066   -0.0057   -0.0534   -0.0405   -0.0100    0.0043   -0.0714   -0.0242
          39   -0.2258   -0.1307    0.1345   -0.0683   -0.0454   -0.0102   -0.0065    0.0021
          40    0.0967    0.0600    0.0913   -0.0497   -0.0056   -0.1388    0.1510    0.0101
          41    0.2247    0.1576    0.1431   -0.3546   -0.0800   -0.3472    0.3221   -0.0363
          42    0.1334    0.1171   -0.0007    0.0708    0.0133   -0.0391    0.0321    0.0271
          43    0.0974   -0.1798    0.0889   -0.0200   -0.0656   -0.0204   -0.0909    0.2629
          44   -0.0129    0.1895    0.1183   -0.0289   -0.0657   -0.0372   -0.1664    0.3280
          45   -0.0272   -0.0146   -0.1055    0.0178    0.0682    0.0200    0.0804   -0.2930
          46   -0.2486    0.3722   -0.0244   -0.0172    0.0311   -0.0068   -0.0165   -0.0721
          47    0.2428   -0.2780   -0.0211    0.0116    0.0283   -0.0169   -0.0209   -0.0861
          48    0.0216   -0.0098   -0.0209    0.0052    0.0250   -0.0092   -0.0006   -0.0660
          49   -0.2363    0.3010    0.0504   -0.0110   -0.0099    0.0057    0.0345    0.0575
          50    0.1605   -0.2385    0.0733    0.0215   -0.0329   -0.0027    0.0525    0.0727
          51    0.0102   -0.0125   -0.0313    0.0012    0.0148    0.0015   -0.0042   -0.0471


   Root No.      25        26        27        28        29        30        31        32

                25 A      26 A      27 A      28 A      29 A      30 A      31 A      32 A   

                1196.1    1228.8    1268.4    1291.1    1328.6    1359.7    1399.0    1415.8
  
           1   -0.0414    0.3318   -0.0814    0.4878    0.2002    0.0901    0.1203    0.1314
           2   -0.1216   -0.2392   -0.1441   -0.1270   -0.3020    0.0274    0.4070    0.4080
           3    0.1458    0.0587    0.2358   -0.2143   -0.0629   -0.1178   -0.2302   -0.1938
           4   -0.0671   -0.0582   -0.3378   -0.3289    0.0379    0.0042    0.0409   -0.2469
           5   -0.0676   -0.0170   -0.3578   -0.1245    0.1587   -0.0103   -0.1518   -0.0398
           6   -0.0976    0.0185   -0.0581    0.0716    0.0196    0.0200    0.0336    0.0368
           7    0.0501    0.0029    0.0583    0.0494    0.1384   -0.1782   -0.3348    0.3363
           8    0.0838    0.2697    0.1872   -0.0214   -0.3036    0.4709    0.0617   -0.0867
           9    0.0082   -0.0104    0.0107   -0.0059   -0.0147    0.0141    0.0154   -0.0151
          10   -0.0504   -0.1262   -0.0718   -0.1376   -0.1069   -0.0326    0.0946    0.0459
          11    0.0148   -0.1334    0.0845    0.2721    0.2241    0.1949   -0.1049   -0.2890
          12   -0.0567   -0.0360   -0.0334    0.0303    0.0032    0.0195    0.0257    0.0165
          13   -0.0325   -0.2243    0.0473    0.1137    0.0069    0.2949    0.0324   -0.2633
          14    0.0414    0.0397   -0.0191   -0.0970    0.1026   -0.2742   -0.1304    0.1083
          15    0.0211    0.0215    0.0103   -0.0122    0.0040   -0.0212   -0.0141    0.0050
          16   -0.0592   -0.0584   -0.0138    0.0030   -0.1404   -0.0484   -0.0373   -0.0282
          17   -0.0795    0.0585   -0.0215    0.0898   -0.1057   -0.0618   -0.0896   -0.0620
          18    0.2847   -0.1069   -0.2388    0.1651    0.0570    0.0990    0.1930    0.1501
          19   -0.0682    0.0380    0.0532   -0.0106   -0.0517   -0.0575   -0.1151   -0.0946
          20   -0.0826    0.0064    0.0660   -0.0414   -0.0856   -0.0741   -0.1368   -0.1131
          21   -0.2143    0.0415    0.0804   -0.0432   -0.0283   -0.0282   -0.0426   -0.0286
          22    0.2987   -0.2743    0.1236   -0.2275   -0.1520   -0.0585   -0.0302   -0.0488
          23    0.2599    0.1594    0.0451    0.0525    0.0691   -0.0431   -0.1334   -0.1058
          24   -0.2084    0.0649   -0.0327    0.0491   -0.0037    0.0231    0.0716    0.0763
          25    0.1231   -0.0988    0.3839    0.0134   -0.1513    0.0110   -0.1240    0.1852
          26   -0.0131   -0.0750    0.2106    0.1644    0.0279   -0.1530    0.1260   -0.0089
          27    0.0280    0.0110    0.0079   -0.0483   -0.0503    0.0880   -0.1345    0.1053
          28   -0.0723   -0.1612    0.2920    0.1577   -0.1354    0.0720   -0.0407    0.2804
          29   -0.0284   -0.1257    0.2198    0.1722    0.0157   -0.1390    0.1373    0.0033
          30   -0.0065    0.0033   -0.0016    0.0274    0.0501   -0.0964    0.1228   -0.1256
          31    0.0590    0.1718    0.1335   -0.0131   -0.0787   -0.1697    0.3095   -0.1998
          32   -0.0434   -0.1726    0.0171    0.1101    0.1536   -0.3045    0.0632    0.0006
          33    0.0075    0.0256    0.0556    0.0145   -0.0068   -0.1736    0.2381   -0.1575
          34    0.0449    0.1575    0.1247   -0.0110   -0.0802   -0.1498    0.2893   -0.1795
          35    0.0370   -0.1794    0.0614    0.0858    0.1503   -0.3218    0.0542   -0.0138
          36   -0.0226   -0.0446   -0.0713   -0.0071    0.0186    0.1822   -0.2637    0.1770
          37    0.0943    0.3910    0.0247   -0.1897   -0.1606   -0.0865    0.0175    0.1458
          38    0.0141    0.0146   -0.0035   -0.0292    0.0320   -0.0829   -0.0429    0.0315
          39   -0.0014   -0.0116    0.0037   -0.0001    0.0059   -0.0045   -0.0085   -0.0087
          40   -0.0055    0.1059   -0.0468   -0.0630   -0.0504   -0.0726    0.0414    0.0822
          41    0.0307    0.4318   -0.0603    0.0039    0.0069   -0.1559    0.0043    0.1461
          42    0.0316    0.0263    0.0204   -0.0087    0.0025   -0.0098   -0.0156   -0.0095
          43    0.4104    0.0074   -0.1061    0.0715    0.0338    0.0206    0.0456    0.0265
          44    0.5070   -0.0666   -0.1194    0.0367   -0.0011    0.0254    0.0693    0.0526
          45   -0.2300   -0.0099   -0.0017    0.0250   -0.0184    0.0025    0.0076    0.0092
          46    0.0844    0.0018    0.0899   -0.1323    0.2483    0.0992    0.0962    0.0642
          47    0.1065   -0.0061    0.1071   -0.1788    0.2892    0.1184    0.1238    0.0834
          48    0.0709   -0.0002    0.1004   -0.1626    0.2943    0.1287    0.1487    0.1070
          49   -0.1096    0.0248    0.1754   -0.2160    0.2350    0.0841    0.0821    0.0558
          50   -0.1404    0.0723    0.2289   -0.2468    0.3317    0.1142    0.0982    0.0676
          51    0.0159   -0.0197   -0.1045    0.1402   -0.2159   -0.0894   -0.1003   -0.0726


   Root No.      33        34        35        36        37        38        39        40

                33 A      34 A      35 A      36 A      37 A      38 A      39 A      40 A   

                1421.1    1829.8    1861.5    2884.6    2972.7    2991.0    3044.5    3055.2
  
           1   -0.0564    0.0275   -0.0556   -0.0951    0.0026   -0.0047   -0.0028   -0.0021
           2    0.0376    0.0611   -0.0769   -0.1051    0.0024   -0.0042   -0.0028   -0.0014
           3    0.0131   -0.0081    0.0703   -0.2349    0.0059   -0.0109   -0.0069    0.0001
           4    0.1615    0.0144   -0.0034   -0.0040    0.0036   -0.0086   -0.0027   -0.0166
           5   -0.3054   -0.0185   -0.0027    0.0006   -0.0039    0.0096    0.0043    0.0275
           6   -0.0087   -0.0004    0.0010    0.0166    0.1347   -0.2735   -0.0001    0.0033
           7    0.1792   -0.0576   -0.0014    0.0009   -0.0104   -0.0044    0.0008    0.1995
           8    0.1299   -0.0035    0.0004    0.0006    0.0046    0.0027    0.0004    0.0821
           9   -0.0068    0.0016   -0.0001   -0.0007   -0.2737   -0.1330   -0.0000   -0.0030
          10   -0.0195   -0.5033   -0.0476    0.0010   -0.0001    0.0001    0.0001    0.0013
          11   -0.0332   -0.4630   -0.0471   -0.0037    0.0000   -0.0001    0.0005   -0.0015
          12   -0.0003    0.0024    0.0047   -0.0002   -0.0011   -0.0010   -0.0007   -0.0001
          13   -0.0641    0.5935    0.0551    0.0014    0.0001    0.0001    0.0000    0.0028
          14    0.0370    0.3446    0.0365    0.0016    0.0001    0.0001    0.0000   -0.0099
          15    0.0036   -0.0081    0.0000   -0.0011   -0.0003   -0.0006   -0.0001   -0.0004
          16    0.0112   -0.0466    0.4467    0.0021    0.0012   -0.0024   -0.0910    0.0005
          17   -0.0063   -0.0458    0.5721    0.0022    0.0003   -0.0007   -0.1052    0.0008
          18   -0.0012    0.0042   -0.0543    0.0059   -0.0005    0.0010   -0.2494    0.0016
          19    0.0033    0.0362   -0.3857    0.0000   -0.0001    0.0001    0.0035    0.0000
[...]
 T-DIPOLE    0.0526         C  1 -- C  6         +19.0% ( 52.5%)     38.5%
 TRAVEL      0.1150         C  6 -- H 15         +18.2% ( 51.4%)     25.3%
 RED. MASS   0.5393         C  1 -- C  4          +8.8% ( 35.7%)     13.8%
 EFF. MASS   4.3235

 VIBRATION   25   25A         ATOM PAIR      ENERGY CONTRIBUTION    RADIAL
 FREQ.      1196.11         C  6 -- H 15         +40.1% ( 74.2%)      2.5%
 T-DIPOLE    0.0643         C  1 -- H  8         +17.5% ( 49.0%)      0.4%
 TRAVEL      0.1339         C  6 -- C  7         +10.5% ( 37.9%)      1.4%
 RED. MASS   0.4348         C  7 -- H 16          +6.5% ( 29.9%)      3.7%
 EFF. MASS   3.1430

 VIBRATION   26   26A         ATOM PAIR      ENERGY CONTRIBUTION    RADIAL
 FREQ.      1228.80         C  1 -- H  8         +15.3% ( 49.6%)      0.6%
 T-DIPOLE    0.0484         C  4 -- H 14         +14.2% ( 47.8%)      0.9%
 TRAVEL      0.1156         C  5 -- H 13         +13.1% ( 45.9%)      0.2%
 RED. MASS   0.5495         C  1 -- C  4          +9.3% ( 38.7%)     19.5%
 EFF. MASS   4.1038

 VIBRATION   27   27A         ATOM PAIR      ENERGY CONTRIBUTION    RADIAL
 FREQ.      1268.43         C  2 -- H  9         +20.3% ( 60.6%)      0.6%
 T-DIPOLE    0.0417         C  2 -- H 10         +17.8% ( 56.8%)      0.0%
 TRAVEL      0.0955         C  2 -- C  3         +12.7% ( 47.9%)     87.6%
 RED. MASS   0.9360         C  1 -- C  2         +11.0% ( 44.7%)     33.2%
 EFF. MASS   5.8279

 VIBRATION   28   28A         ATOM PAIR      ENERGY CONTRIBUTION    RADIAL
 FREQ.      1291.10         C  1 -- C  2         +17.7% ( 59.3%)     89.1%
 T-DIPOLE    0.0469         C  1 -- C  4         +16.6% ( 57.4%)     50.4%
 TRAVEL      0.0840         C  1 -- H  8         +14.0% ( 52.8%)      0.3%
 RED. MASS   1.4383         C  1 -- C  6         +12.3% ( 49.6%)     31.4%
 EFF. MASS   7.3950

 VIBRATION   29   29A         ATOM PAIR      ENERGY CONTRIBUTION    RADIAL
 FREQ.      1328.56         C  1 -- C  4         +12.3% ( 43.6%)     92.3%
 T-DIPOLE    0.0242         C  7 -- H 16         +11.8% ( 42.7%)      0.6%
 TRAVEL      0.1004         C  7 -- H 17         +10.8% ( 40.8%)      1.5%
 RED. MASS   0.5440         C  1 -- C  6          +7.9% ( 34.9%)      8.6%
 EFF. MASS   5.0318

 VIBRATION   30   30A         ATOM PAIR      ENERGY CONTRIBUTION    RADIAL
 FREQ.      1359.70         C  3 -- C  5         +22.5% ( 61.7%)     80.4%
 T-DIPOLE    0.0325         C  3 -- H 12         +17.3% ( 54.1%)      0.1%
 TRAVEL      0.0885         C  3 -- H 11         +16.8% ( 53.4%)      0.1%
 RED. MASS   1.1742         C  4 -- C  5          +9.1% ( 39.3%)      0.1%
 EFF. MASS   6.3285

 VIBRATION   31   31A         ATOM PAIR      ENERGY CONTRIBUTION    RADIAL
 FREQ.      1398.96         C  1 -- C  6         +14.1% ( 50.3%)     90.7%
 T-DIPOLE    0.1095         C  1 -- C  4         +11.3% ( 45.0%)     68.9%
 TRAVEL      0.0873         C  1 -- H  8         +11.1% ( 44.7%)      0.0%
 RED. MASS   0.9279         C  3 -- H 11         +10.7% ( 43.7%)      4.9%
 EFF. MASS   6.3207         C  3 -- H 12         +10.7% ( 43.7%)      4.9%
                            C  1 -- C  2         +10.5% ( 43.4%)      1.6%

 VIBRATION   32   32A         ATOM PAIR      ENERGY CONTRIBUTION    RADIAL
 FREQ.      1415.84         C  1 -- C  4         +13.4% ( 52.1%)     76.7%
 T-DIPOLE    0.0794         C  1 -- C  6         +10.4% ( 45.8%)     87.5%
 TRAVEL      0.0793         C  1 -- C  2         +10.0% ( 44.9%)     36.1%
 RED. MASS   1.0168         C  3 -- C  5          +9.8% ( 44.4%)     94.7%
 EFF. MASS   7.5793

 VIBRATION   33   33A         ATOM PAIR      ENERGY CONTRIBUTION    RADIAL
 FREQ.      1421.12         C  2 -- H 10         +29.0% ( 55.4%)      4.5%
 T-DIPOLE    0.0584         C  2 -- H  9         +27.5% ( 54.0%)      5.2%
 TRAVEL      0.1310         C  2 -- C  3         +11.6% ( 35.1%)     94.2%
 RED. MASS   0.4191         C  3 -- H 12          +9.0% ( 30.8%)      5.4%
 EFF. MASS   2.7664

 VIBRATION   34   34A         ATOM PAIR      ENERGY CONTRIBUTION    RADIAL
 FREQ.      1829.78         C  4 -- C  5         +45.4% ( 99.7%)    100.0%
 T-DIPOLE    0.1292         C  1 -- C  4         +13.8% ( 55.0%)     25.1%
 TRAVEL      0.0557         C  3 -- C  5         +13.8% ( 55.0%)     25.9%
 RED. MASS   5.2937         C  5 -- H 13         +12.9% ( 53.1%)      9.6%
 EFF. MASS  11.8860         C  4 -- H 14         +12.8% ( 52.9%)     10.1%

 VIBRATION   35   35A         ATOM PAIR      ENERGY CONTRIBUTION    RADIAL
 FREQ.      1861.54         C  6 -- C  7         +44.9% ( 98.9%)     98.9%
 T-DIPOLE    0.1492         C  1 -- C  6         +16.5% ( 59.9%)     54.3%
 TRAVEL      0.0554         C  6 -- H 15         +15.3% ( 57.7%)      4.1%
 RED. MASS   5.2046         C  7 -- H 17         +10.9% ( 48.7%)     11.0%
 EFF. MASS  11.7960         C  7 -- H 16         +10.7% ( 48.3%)     12.8%

 VIBRATION   36   36A         ATOM PAIR      ENERGY CONTRIBUTION    RADIAL
 FREQ.      2884.60         C  1 -- H  8         +96.4% ( 99.8%)    100.0%
 T-DIPOLE    0.0681         C  1 -- C  2          +1.1% ( 10.6%)     10.0%
 TRAVEL      0.1269         C  1 -- C  6          +1.1% ( 10.6%)     12.0%
 RED. MASS   0.9233         C  1 -- C  4          +1.1% ( 10.5%)      9.9%
 EFF. MASS   1.4506

 VIBRATION   37   37A         ATOM PAIR      ENERGY CONTRIBUTION    RADIAL
 FREQ.      2972.67         C  3 -- H 11         +40.5% ( 66.2%)     96.7%
 T-DIPOLE    0.0087         C  3 -- H 12         +38.1% ( 64.3%)     96.4%
 TRAVEL      0.1209         C  2 -- H 10         +10.5% ( 33.6%)     96.8%
 RED. MASS   0.3573         C  2 -- H  9          +8.5% ( 30.3%)     95.5%
 EFF. MASS   1.5507

 VIBRATION   38   38A         ATOM PAIR      ENERGY CONTRIBUTION    RADIAL
 FREQ.      2991.05         C  2 -- H 10         +44.3% ( 68.9%)     97.3%
 T-DIPOLE    0.0608         C  2 -- H  9         +34.6% ( 60.9%)     95.8%
 TRAVEL      0.1213         C  3 -- H 11          +9.7% ( 32.3%)     97.1%
 RED. MASS   0.3600         C  3 -- H 12          +9.0% ( 31.1%)     96.7%
 EFF. MASS   1.5320

 VIBRATION   39   39A         ATOM PAIR      ENERGY CONTRIBUTION    RADIAL
 FREQ.      3044.52         C  6 -- H 15         +96.2% ( 99.4%)    100.0%
 T-DIPOLE    0.2431         C  6 -- C  7          +1.4% ( 12.1%)     30.9%
 TRAVEL      0.1215         C  1 -- C  6          +1.3% ( 11.7%)     14.1%
 RED. MASS   0.9099         C  7 -- H 16          +1.0% (  9.9%)     95.6%
 EFF. MASS   1.5015

 VIBRATION   40   40A         ATOM PAIR      ENERGY CONTRIBUTION    RADIAL
 FREQ.      3055.25         C  3 -- H 12         +50.0% ( 69.8%)     97.8%
 T-DIPOLE    0.0823         C  3 -- H 11         +46.5% ( 67.3%)     97.4%
 TRAVEL      0.1311         C  2 -- H  9          +1.1% ( 10.4%)     98.1%
 RED. MASS   0.4652         C  2 -- H 10          +0.8% (  8.9%)     96.1%
 EFF. MASS   1.2837

 VIBRATION   41   41A         ATOM PAIR      ENERGY CONTRIBUTION    RADIAL
 FREQ.      3069.11         C  2 -- H  9         +54.6% ( 72.8%)     98.3%
 T-DIPOLE    0.0732         C  2 -- H 10         +42.1% ( 63.9%)     96.7%
 TRAVEL      0.1310         C  3 -- H 11          +1.0% (  9.6%)     97.9%
 RED. MASS   0.4714         C  3 -- H 12          +0.9% (  9.4%)     97.8%
 EFF. MASS   1.2798

 VIBRATION   42   42A         ATOM PAIR      ENERGY CONTRIBUTION    RADIAL
 FREQ.      3115.81         C  5 -- H 13         +54.1% ( 74.7%)    100.0%
 T-DIPOLE    0.3725         C  4 -- H 14         +43.3% ( 66.8%)    100.0%
 TRAVEL      0.1217         C  4 -- C  5          +1.1% ( 10.7%)      0.2%
 RED. MASS   0.4706         C  3 -- C  5          +0.8% (  9.1%)     27.3%
 EFF. MASS   1.4620

 VIBRATION   43   43A         ATOM PAIR      ENERGY CONTRIBUTION    RADIAL
 FREQ.      3134.15         C  7 -- H 17         +90.5% ( 96.9%)     99.8%
 T-DIPOLE    0.2017         C  7 -- H 16          +7.7% ( 28.2%)     74.0%
 TRAVEL      0.1181         C  6 -- C  7          +1.3% ( 11.6%)     20.8%
 RED. MASS   0.8336         C  4 -- H 14          +0.2% (  5.0%)     99.9%
 EFF. MASS   1.5424

 VIBRATION   44   44A         ATOM PAIR      ENERGY CONTRIBUTION    RADIAL
 FREQ.      3134.93         C  4 -- H 14         +52.9% ( 74.1%)     99.9%
 T-DIPOLE    0.3489         C  5 -- H 13         +42.1% ( 66.1%)     99.9%
 TRAVEL      0.1142         C  4 -- C  5          +2.5% ( 16.0%)     99.7%
 RED. MASS   0.4677         C  1 -- C  4          +1.0% ( 10.3%)     18.3%
 EFF. MASS   1.6505

 VIBRATION   45   45A         ATOM PAIR      ENERGY CONTRIBUTION    RADIAL
 FREQ.      3146.84         C  7 -- H 16         +90.9% ( 95.9%)     99.6%
 T-DIPOLE    0.2599         C  7 -- H 17          +6.7% ( 26.0%)     47.2%
 TRAVEL      0.1210         C  6 -- C  7          +1.6% ( 12.7%)     75.3%
 RED. MASS   0.8035         C  6 -- H 15          +0.8% (  9.1%)     94.9%
 EFF. MASS   1.4630

      SYMMETRY NUMBER FOR POINT-GROUP C1  =  1


          SYSTEM IS A GROUND STATE



 InChI=1S/C7H10/c1-2-7-5-3-4-6-7/h2-3,5,7H,1,4,6H2


          MOLECULE IS NOT LINEAR

          THERE ARE 45 GENUINE VIBRATIONS IN THIS SYSTEM
          THIS THERMODYNAMICS CALCULATION IS LIMITED TO
          MOLECULES WHICH HAVE NO INTERNAL ROTATIONS




                    CALCULATED THERMODYNAMIC PROPERTIES
                                          *
   TEMP. (K)   PARTITION FUNCTION   H.O.F.    ENTHALPY  HEAT CAPACITY ENTROPY
                                   KCAL/MOL   CAL/MOLE    CAL/K/MOL  CAL/K/MOL


 298.00  VIB.     0.2649D+02                  2479.1255    19.5955    14.8308
         ROT.     0.2041D+06                   888.2813     2.9808    27.2768
         INT.     0.5406D+07                  3367.4068    22.5763    42.1076
         TRA.     0.8833D+27                  1480.4688     4.9680    39.5363
         TOT.                       22.856    4847.8757    27.5443    81.6438

 200.00  VIB.     0.7205D+01                  1003.3129    10.8841     8.9409
         ROT.     0.1122D+06                   596.1620     2.9808    26.0881
         INT.     0.8084D+06                  1599.4749    13.8649    35.0290
         TRA.     0.4856D+27                   993.6033     4.9680    37.5551
         TOT.                       20.601    2593.0781    18.8329    72.5842

 210.00  VIB.     0.8179D+01                  1115.9837    11.6559     9.4905
         ROT.     0.1207D+06                   625.9700     2.9808    26.2335
         INT.     0.9874D+06                  1741.9537    14.6367    35.7240
         TRA.     0.5225D+27                  1043.2834     4.9680    37.7975
         TOT.                       20.793    2785.2372    19.6047    73.5215

 220.00  VIB.     0.9295D+01                  1236.5443    12.4617    10.0512
         ROT.     0.1294D+06                   655.7781     2.9808    26.3722
         INT.     0.1203D+07                  1892.3224    15.4425    36.4234
         TRA.     0.5603D+27                  1092.9636     4.9680    38.0286
         TOT.                       20.993    2985.2860    20.4105    74.4520

 230.00  VIB.     0.1058D+02                  1365.3240    13.2993    10.6235
         ROT.     0.1384D+06                   685.5862     2.9808    26.5047
         INT.     0.1464D+07                  2050.9102    16.2801    37.1282
         TRA.     0.5989D+27                  1142.6437     4.9680    38.2495
         TOT.                       21.201    3193.5540    21.2481    75.3777

 240.00  VIB.     0.1205D+02                  1502.6277    14.1660    11.2077
         ROT.     0.1475D+06                   715.3943     2.9808    26.6316
         INT.     0.1778D+07                  2218.0220    17.1468    37.8393
         TRA.     0.6384D+27                  1192.3239     4.9680    38.4609
         TOT.                       21.418    3410.3459    22.1148    76.3002

 250.00  VIB.     0.1375D+02                  1648.7306    15.0586    11.8040
         ROT.     0.1568D+06                   745.2024     2.9808    26.7533
         INT.     0.2157D+07                  2393.9330    18.0394    38.5573
         TRA.     0.6787D+27                  1242.0041     4.9680    38.6637
         TOT.                       21.644    3635.9371    23.0075    77.2210

 260.00  VIB.     0.1572D+02                  1803.8756    15.9738    12.4124
         ROT.     0.1663D+06                   775.0105     2.9808    26.8702
         INT.     0.2614D+07                  2578.8861    18.9546    39.2826
         TRA.     0.7198D+27                  1291.6842     4.9680    38.8586
         TOT.                       21.878    3870.5703    23.9227    78.1411

 270.00  VIB.     0.1799D+02                  1968.2707    16.9081    13.0327
         ROT.     0.1760D+06                   804.8186     2.9808    26.9827
         INT.     0.3166D+07                  2773.0894    19.8889    40.0154
         TRA.     0.7618D+27                  1341.3644     4.9680    39.0461
         TOT.                       22.122    4114.4538    24.8569    79.0614

 280.00  VIB.     0.2063D+02                  2142.0890    17.8579    13.6647
         ROT.     0.1859D+06                   834.6267     2.9808    27.0911
         INT.     0.3834D+07                  2976.7157    20.8387    40.7558
         TRA.     0.8045D+27                  1391.0445     4.9680    39.2267
         TOT.                       22.376    4367.7602    25.8067    79.9826

 290.00  VIB.     0.2369D+02                  2325.4679    18.8197    14.3081
         ROT.     0.1959D+06                   864.4348     2.9808    27.1957
         INT.     0.4640D+07                  3189.9028    21.8005    41.5038
         TRA.     0.8479D+27                  1440.7247     4.9680    39.4011
         TOT.                       22.639    4630.6275    26.7685    80.9049

 300.00  VIB.     0.2725D+02                  2518.5112    19.7902    14.9625
         ROT.     0.2061D+06                   894.2429     2.9808    27.2967
         INT.     0.5616D+07                  3412.7541    22.7710    42.2592
         TRA.     0.8922D+27                  1490.4049     4.9680    39.5695
         TOT.                       22.911    4903.1590    27.7390    81.8287

 310.00  VIB.     0.3139D+02                  2721.2895    20.7662    15.6273
         ROT.     0.2165D+06                   924.0510     2.9808    27.3945
         INT.     0.6797D+07                  3645.3405    23.7470    43.0218
         TRA.     0.9372D+27                  1540.0850     4.9680    39.7324
         TOT.                       23.193    5185.4255    28.7150    82.7542

 320.00  VIB.     0.3623D+02                  2933.8431    21.7447    16.3021
         ROT.     0.2271D+06                   953.8591     2.9808    27.4891
         INT.     0.8227D+07                  3887.7022    24.7255    43.7912
         TRA.     0.9829D+27                  1589.7652     4.9680    39.8901
         TOT.                       23.485    5477.4674    29.6936    83.6813

 330.00  VIB.     0.4188D+02                  3156.1837    22.7231    16.9862
         ROT.     0.2378D+06                   983.6672     2.9808    27.5808
         INT.     0.9960D+07                  4139.8509    25.7040    44.5670
         TRA.     0.1029D+28                  1639.4454     4.9680    40.0430
         TOT.                       23.787    5779.2963    30.6720    84.6100

 340.00  VIB.     0.4850D+02                  3388.2971    23.6989    17.6790
         ROT.     0.2487D+06                  1013.4753     2.9808    27.6698
         INT.     0.1206D+08                  4401.7724    26.6797    45.3488
         TRA.     0.1076D+28                  1689.1255     4.9680    40.1913
         TOT.                       24.099    6090.8979    31.6477    85.5402

 350.00  VIB.     0.5625D+02                  3630.1457    24.6698    18.3800
         ROT.     0.2597D+06                  1043.2834     2.9808    27.7562
         INT.     0.1461D+08                  4673.4291    27.6506    46.1362
         TRA.     0.1124D+28                  1738.8057     4.9680    40.3353
         TOT.                       24.420    6412.2348    32.6187    86.4716

 360.00  VIB.     0.6535D+02                  3881.6709    25.6339    19.0885
         ROT.     0.2710D+06                  1073.0915     2.9808    27.8402
         INT.     0.1771D+08                  4954.7624    28.6147    46.9287
         TRA.     0.1173D+28                  1788.4859     4.9680    40.4753
         TOT.                       24.751    6743.2483    33.5828    87.4040

 370.00  VIB.     0.7604D+02                  4142.7958    26.5895    19.8039
         ROT.     0.2823D+06                  1102.8996     2.9808    27.9219
         INT.     0.2147D+08                  5245.6954    29.5703    47.7258
         TRA.     0.1222D+28                  1838.1660     4.9680    40.6114
         TOT.                       25.092    7083.8614    34.5383    88.3372

 380.00  VIB.     0.8862D+02                  4413.4273    27.5350    20.5256
         ROT.     0.2938D+06                  1132.7077     2.9808    28.0014
         INT.     0.2604D+08                  5546.1350    30.5158    48.5269
         TRA.     0.1272D+28                  1887.8462     4.9680    40.7439
         TOT.                       25.442    7433.9811    35.4839    89.2708

 390.00  VIB.     0.1034D+03                  4693.4586    28.4693    21.2529
         ROT.     0.3055D+06                  1162.5158     2.9808    28.0788
         INT.     0.3160D+08                  5855.9744    31.4501    49.3317
         TRA.     0.1322D+28                  1937.5263     4.9680    40.8729
         TOT.                       25.801    7793.5008    36.4181    90.2046

 400.00  VIB.     0.1209D+03                  4982.7715    29.3912    21.9854
         ROT.     0.3173D+06                  1192.3239     2.9808    28.1543
         INT.     0.3836D+08                  6175.0954    32.3720    50.1396
         TRA.     0.1374D+28                  1987.2065     4.9680    40.9987
         TOT.                       26.170    8162.3019    37.3400    91.1383

   *: NOTE: HEATS OF FORMATION ARE RELATIVE TO THE
            ELEMENTS IN THEIR STANDARD STATE AT 298K
              (=  Standard Enthalpy of Formation).

            Hvib:  Zero-point energy is not included.
                   frequencies of less than zero cm-1 are not included.
            Hrot = (3/2)RT
            Htra = (3/2)RT + pV = (5/2)RT

            Heat capacity is Cp, not Cv

          For more information, see: HTTP://OpenMOPAC.net/Manual/thermochemistry.html


           FORCE CONSTANT IN CARTESIAN COORDINATES (Millidynes/A)

    ATOM   CHEMICAL       X               Y               Z
   NUMBER   SYMBOL  FORCE CONSTANT  FORCE CONSTANT  FORCE CONSTANT

      1       C        7.742209        9.333493        8.672911
      2       C        7.551727        8.414445        8.418582
      3       C        9.630009        7.565925        8.066192
      4       C       14.599277       10.346288        2.427843
      5       C       12.000568       13.092828        2.360007
      6       C        7.561568       10.572091        9.088015
      7       C        7.151920       10.304300        9.063762
      8       H        1.184253        1.235152        3.583935
      9       H        1.234609        1.674427        3.598581
     10       H        1.315210        1.654941        3.560219
     11       H        1.740366        0.936360        3.708014
     12       H        2.107493        0.897881        3.390761
     13       H        0.710955        5.350574        0.359000
     14       H        4.967942        1.091820        0.361372
     15       H        0.857936        1.044577        4.320919
     16       H        1.106803        1.738031        3.635814
     17       H        0.914349        1.132594        4.417017

 **********************
 *                    *
 * JOB ENDED NORMALLY *
 *                    *
 **********************



 TOTAL JOB TIME:             5.02 SECONDS

 == MOPAC DONE ==
