 *******************************************************************************
 ** Site#: 14399        For non-commercial use only    Version 18.184L 64BITS **
 *******************************************************************************
 ** Cite this program as: MOPAC2016, Version: 18.184L, James J. P. Stewart,   **
 ** Stewart Computational Chemistry, web: HTTP://OpenMOPAC.net. Days left:  20**
 *******************************************************************************
 **                                                                           **
 **                                MOPAC2016                                  **
 **                                                                           **
 *******************************************************************************

                              PM3 CALCULATION RESULTS

 *******************************************************************************
 *  CALCULATION DONE:                                Thu Jun 13 15:56:41 2019  *
 *  PM3        - The PM3 Hamiltonian to be used
 *  PRECISE    - CRITERIA TO BE INCREASED BY 100 TIMES
 *  NOSYM      - POINT-GROUP SYMMETRY SET TO C1
 *  THREADS=1  - MULTI-THREADING NOT USED
 *  T=         - A TIME OF 172800.0 SECONDS REQUESTED
 *  DUMP=N     - RESTART FILE WRITTEN EVERY  7200.000 SECONDS
 *******************************************************************************
pm3  precise nosym THREADS=1
 InChI=1S/C10H10/c1-3-6-10-8-5-4-7-9(10)2/h4-8H,1H2,2H3

   ATOM   CHEMICAL          X               Y               Z
  NUMBER   SYMBOL      (ANGSTROMS)     (ANGSTROMS)     (ANGSTROMS)
 
     1       C         -1.11180000  *   2.23550000  *  -0.17110000  *
     2       C         -1.07960000  *   0.72870000  *  -0.16590000  *
     3       C          0.14200000  *   0.00690000  *  -0.24700000  *
     4       C         -2.29530000  *   0.02650000  *  -0.07830000  *
     5       C          0.09740000  *  -1.40480000  *  -0.23700000  *
     6       C         -1.11990000  *  -2.08150000  *  -0.14930000  *
     7       C         -2.31300000  *  -1.36790000  *  -0.07020000  *
     8       C          1.44760000  *   0.71900000  *  -0.34090000  *
     9       C          3.73130000  *  -0.53640000  *  -0.49070000  *
    10       C          2.59120000  *   0.08920000  *  -0.41590000  *
    11       H         -0.66680000  *   2.61830000  *  -1.11360000  *
    12       H         -2.14920000  *   2.62650000  *  -0.10110000  *
    13       H         -0.54130000  *   2.62710000  *   0.69710000  *
    14       H          1.00420000  *  -1.99270000  *  -0.29700000  *
    15       H         -1.13730000  *  -3.16380000  *  -0.14280000  *
    16       H         -3.23640000  *   0.55900000  *  -0.01570000  *
    17       H         -3.25520000  *  -1.89650000  *  -0.00240000  *
    18       H          1.48380000  *   1.79900000  *  -0.34930000  *
    19       H          3.76980000  *  -1.60800000  *  -0.35070000  *
    20       H          4.63870000  *   0.01570000  *  -0.69330000  *
 


          CARTESIAN COORDINATES 

    NO.       ATOM           X           Y           Z

     1         C         -1.1118      2.2355     -0.1711
     2         C         -1.0796      0.7287     -0.1659
     3         C          0.1420      0.0069     -0.2470
     4         C         -2.2953      0.0265     -0.0783
     5         C          0.0974     -1.4048     -0.2370
     6         C         -1.1199     -2.0815     -0.1493
     7         C         -2.3130     -1.3679     -0.0702
     8         C          1.4476      0.7190     -0.3409
     9         C          3.7313     -0.5364     -0.4907
    10         C          2.5912      0.0892     -0.4159
    11         H         -0.6668      2.6183     -1.1136
    12         H         -2.1492      2.6265     -0.1011
    13         H         -0.5413      2.6271      0.6971
    14         H          1.0042     -1.9927     -0.2970
    15         H         -1.1373     -3.1638     -0.1428
    16         H         -3.2364      0.5590     -0.0157
    17         H         -3.2552     -1.8965     -0.0024
    18         H          1.4838      1.7990     -0.3493
    19         H          3.7698     -1.6080     -0.3507
    20         H          4.6387      0.0157     -0.6933

  H: (PM3): J. J. P. STEWART, J. COMP. CHEM. 10, 209 (1989).
  C: (PM3): J. J. P. STEWART, J. COMP. CHEM. 10, 209 (1989).

           Empirical Formula: C10 H10  =    20 atoms



      MOLECULAR POINT GROUP   :   C1  


      RHF CALCULATION, NO. OF DOUBLY OCCUPIED LEVELS = 25


          Geometry optimization using EF

          DIAGONAL MATRIX USED AS START HESSIAN

 CYCLE:     1 TIME:   0.027 TIME LEFT:  2.00D  GRAD.:    97.973 HEAT:  104.8345
 CYCLE:     2 TIME:   0.031 TIME LEFT:  2.00D  GRAD.:   151.635 HEAT:  98.87447
 CYCLE:     3 TIME:   0.020 TIME LEFT:  2.00D  GRAD.:   175.947 HEAT:  92.09193
 CYCLE:     4 TIME:   0.023 TIME LEFT:  2.00D  GRAD.:   177.921 HEAT:  86.12192
 CYCLE:     5 TIME:   0.023 TIME LEFT:  2.00D  GRAD.:   197.741 HEAT:  84.16542
 CYCLE:     6 TIME:   0.023 TIME LEFT:  2.00D  GRAD.:   167.424 HEAT:  79.24367
 CYCLE:     7 TIME:   0.031 TIME LEFT:  2.00D  GRAD.:   120.598 HEAT:  74.23383
 CYCLE:     8 TIME:   0.031 TIME LEFT:  2.00D  GRAD.:    58.592 HEAT:  71.06044
 CYCLE:     9 TIME:   0.023 TIME LEFT:  2.00D  GRAD.:    78.660 HEAT:  70.53074
 CYCLE:    10 TIME:   0.023 TIME LEFT:  2.00D  GRAD.:    79.521 HEAT:  69.47337
 CYCLE:    11 TIME:   0.023 TIME LEFT:  2.00D  GRAD.:    85.799 HEAT:  69.29740
 CYCLE:    12 TIME:   0.020 TIME LEFT:  2.00D  GRAD.:    76.449 HEAT:  68.30922
 CYCLE:    13 TIME:   0.031 TIME LEFT:  2.00D  GRAD.:    39.772 HEAT:  67.20571
 CYCLE:    14 TIME:   0.023 TIME LEFT:  2.00D  GRAD.:    48.725 HEAT:  67.15034
 CYCLE:    15 TIME:   0.020 TIME LEFT:  2.00D  GRAD.:    47.697 HEAT:  66.74663
 CYCLE:    16 TIME:   0.023 TIME LEFT:  2.00D  GRAD.:    53.647 HEAT:  66.70158
 CYCLE:    17 TIME:   0.023 TIME LEFT:  2.00D  GRAD.:    39.557 HEAT:  66.07135
 CYCLE:    18 TIME:   0.031 TIME LEFT:  2.00D  GRAD.:    30.898 HEAT:  65.76208
 CYCLE:    19 TIME:   0.023 TIME LEFT:  2.00D  GRAD.:    19.652 HEAT:  65.46539
 CYCLE:    20 TIME:   0.020 TIME LEFT:  2.00D  GRAD.:    16.672 HEAT:  65.14834
 CYCLE:    21 TIME:   0.023 TIME LEFT:  2.00D  GRAD.:    27.827 HEAT:  64.71110
 CYCLE:    22 TIME:   0.023 TIME LEFT:  2.00D  GRAD.:    27.576 HEAT:  63.94567
 CYCLE:    23 TIME:   0.031 TIME LEFT:  2.00D  GRAD.:    32.149 HEAT:  63.75253
 CYCLE:    24 TIME:   0.027 TIME LEFT:  2.00D  GRAD.:    27.567 HEAT:  63.57541
 CYCLE:    25 TIME:   0.020 TIME LEFT:  2.00D  GRAD.:    23.964 HEAT:  63.50557
 CYCLE:    26 TIME:   0.023 TIME LEFT:  2.00D  GRAD.:    18.184 HEAT:  63.36372
 CYCLE:    27 TIME:   0.023 TIME LEFT:  2.00D  GRAD.:    20.248 HEAT:  63.29398
 CYCLE:    28 TIME:   0.023 TIME LEFT:  2.00D  GRAD.:    12.144 HEAT:  63.17673
 CYCLE:    29 TIME:   0.023 TIME LEFT:  2.00D  GRAD.:     8.104 HEAT:  63.10297
 CYCLE:    30 TIME:   0.023 TIME LEFT:  2.00D  GRAD.:     5.074 HEAT:  63.05863
 CYCLE:    31 TIME:   0.020 TIME LEFT:  2.00D  GRAD.:     4.461 HEAT:  63.01305
 CYCLE:    32 TIME:   0.023 TIME LEFT:  2.00D  GRAD.:     3.341 HEAT:  62.98247
 CYCLE:    33 TIME:   0.023 TIME LEFT:  2.00D  GRAD.:     3.279 HEAT:  62.95916
 CYCLE:    34 TIME:   0.023 TIME LEFT:  2.00D  GRAD.:     4.163 HEAT:  62.92493
 CYCLE:    35 TIME:   0.023 TIME LEFT:  2.00D  GRAD.:     3.865 HEAT:  62.89143
 CYCLE:    36 TIME:   0.023 TIME LEFT:  2.00D  GRAD.:     3.827 HEAT:  62.86491
 CYCLE:    37 TIME:   0.023 TIME LEFT:  2.00D  GRAD.:     3.087 HEAT:  62.84722
 CYCLE:    38 TIME:   0.027 TIME LEFT:  2.00D  GRAD.:     2.755 HEAT:  62.83017
 CYCLE:    39 TIME:   0.023 TIME LEFT:  2.00D  GRAD.:     2.200 HEAT:  62.82279
 CYCLE:    40 TIME:   0.020 TIME LEFT:  2.00D  GRAD.:     1.505 HEAT:  62.81861
 CYCLE:    41 TIME:   0.023 TIME LEFT:  2.00D  GRAD.:     1.163 HEAT:  62.81637
 CYCLE:    42 TIME:   0.023 TIME LEFT:  2.00D  GRAD.:     1.097 HEAT:  62.81449
 CYCLE:    43 TIME:   0.023 TIME LEFT:  2.00D  GRAD.:     0.729 HEAT:  62.81328
 CYCLE:    44 TIME:   0.023 TIME LEFT:  2.00D  GRAD.:     0.582 HEAT:  62.81258
 CYCLE:    45 TIME:   0.023 TIME LEFT:  2.00D  GRAD.:     0.525 HEAT:  62.81200
 CYCLE:    46 TIME:   0.023 TIME LEFT:  2.00D  GRAD.:     0.379 HEAT:  62.81167
 CYCLE:    47 TIME:   0.020 TIME LEFT:  2.00D  GRAD.:     0.301 HEAT:  62.81145
 CYCLE:    48 TIME:   0.023 TIME LEFT:  2.00D  GRAD.:     0.350 HEAT:  62.81123
 CYCLE:    49 TIME:   0.023 TIME LEFT:  2.00D  GRAD.:     0.300 HEAT:  62.81105
 CYCLE:    50 TIME:   0.023 TIME LEFT:  2.00D  GRAD.:     0.220 HEAT:  62.81094
 CYCLE:    51 TIME:   0.023 TIME LEFT:  2.00D  GRAD.:     0.228 HEAT:  62.81084
 CYCLE:    52 TIME:   0.023 TIME LEFT:  2.00D  GRAD.:     0.337 HEAT:  62.81069
 CYCLE:    53 TIME:   0.023 TIME LEFT:  2.00D  GRAD.:     0.525 HEAT:  62.81034
 CYCLE:    54 TIME:   0.020 TIME LEFT:  2.00D  GRAD.:     0.764 HEAT:  62.80966
 CYCLE:    55 TIME:   0.023 TIME LEFT:  2.00D  GRAD.:     0.654 HEAT:  62.80862
 CYCLE:    56 TIME:   0.023 TIME LEFT:  2.00D  GRAD.:     0.619 HEAT:  62.80780
 CYCLE:    57 TIME:   0.023 TIME LEFT:  2.00D  GRAD.:     0.812 HEAT:  62.80667
 CYCLE:    58 TIME:   0.023 TIME LEFT:  2.00D  GRAD.:     0.807 HEAT:  62.80570
 CYCLE:    59 TIME:   0.023 TIME LEFT:  2.00D  GRAD.:     0.711 HEAT:  62.80433
 CYCLE:    60 TIME:   0.020 TIME LEFT:  2.00D  GRAD.:     0.579 HEAT:  62.80372
 CYCLE:    61 TIME:   0.023 TIME LEFT:  2.00D  GRAD.:     0.598 HEAT:  62.80287
 CYCLE:    62 TIME:   0.023 TIME LEFT:  2.00D  GRAD.:     0.568 HEAT:  62.80236
 CYCLE:    63 TIME:   0.023 TIME LEFT:  2.00D  GRAD.:     0.841 HEAT:  62.80070
 CYCLE:    64 TIME:   0.023 TIME LEFT:  2.00D  GRAD.:     0.681 HEAT:  62.79996
 CYCLE:    65 TIME:   0.023 TIME LEFT:  2.00D  GRAD.:     0.739 HEAT:  62.79819
 CYCLE:    66 TIME:   0.023 TIME LEFT:  2.00D  GRAD.:     0.564 HEAT:  62.79760
 CYCLE:    67 TIME:   0.020 TIME LEFT:  2.00D  GRAD.:     0.343 HEAT:  62.79693
 CYCLE:    68 TIME:   0.031 TIME LEFT:  2.00D  GRAD.:     0.294 HEAT:  62.79669
 CYCLE:    69 TIME:   0.023 TIME LEFT:  2.00D  GRAD.:     0.222 HEAT:  62.79650
 CYCLE:    70 TIME:   0.020 TIME LEFT:  2.00D  GRAD.:     0.203 HEAT:  62.79639
 CYCLE:    71 TIME:   0.023 TIME LEFT:  2.00D  GRAD.:     0.230 HEAT:  62.79629
 CYCLE:    72 TIME:   0.023 TIME LEFT:  2.00D  GRAD.:     0.307 HEAT:  62.79610
 CYCLE:    73 TIME:   0.023 TIME LEFT:  2.00D  GRAD.:     0.395 HEAT:  62.79582
 CYCLE:    74 TIME:   0.023 TIME LEFT:  2.00D  GRAD.:     0.519 HEAT:  62.79538
 CYCLE:    75 TIME:   0.023 TIME LEFT:  2.00D  GRAD.:     0.473 HEAT:  62.79509
 CYCLE:    76 TIME:   0.023 TIME LEFT:  2.00D  GRAD.:     0.536 HEAT:  62.79446
 CYCLE:    77 TIME:   0.020 TIME LEFT:  2.00D  GRAD.:     0.367 HEAT:  62.79420
 CYCLE:    78 TIME:   0.023 TIME LEFT:  2.00D  GRAD.:     0.230 HEAT:  62.79388
 CYCLE:    79 TIME:   0.023 TIME LEFT:  2.00D  GRAD.:     0.147 HEAT:  62.79381
 CYCLE:    80 TIME:   0.023 TIME LEFT:  2.00D  GRAD.:     0.134 HEAT:  62.79375
 CYCLE:    81 TIME:   0.023 TIME LEFT:  2.00D  GRAD.:     0.153 HEAT:  62.79368
 CYCLE:    82 TIME:   0.023 TIME LEFT:  2.00D  GRAD.:     0.128 HEAT:  62.79361
 CYCLE:    83 TIME:   0.023 TIME LEFT:  2.00D  GRAD.:     0.113 HEAT:  62.79356
 CYCLE:    84 TIME:   0.020 TIME LEFT:  2.00D  GRAD.:     0.080 HEAT:  62.79353
 CYCLE:    85 TIME:   0.023 TIME LEFT:  2.00D  GRAD.:     0.073 HEAT:  62.79351
 CYCLE:    86 TIME:   0.023 TIME LEFT:  2.00D  GRAD.:     0.073 HEAT:  62.79349
 CYCLE:    87 TIME:   0.023 TIME LEFT:  2.00D  GRAD.:     0.112 HEAT:  62.79342
 CYCLE:    88 TIME:   0.023 TIME LEFT:  2.00D  GRAD.:     0.183 HEAT:  62.79333
 CYCLE:    89 TIME:   0.020 TIME LEFT:  2.00D  GRAD.:     0.180 HEAT:  62.79328
 CYCLE:    90 TIME:   0.027 TIME LEFT:  2.00D  GRAD.:     0.437 HEAT:  62.79279
 CYCLE:    91 TIME:   0.023 TIME LEFT:  2.00D  GRAD.:     0.435 HEAT:  62.79244
 CYCLE:    92 TIME:   0.020 TIME LEFT:  2.00D  GRAD.:     0.915 HEAT:  62.79096
 CYCLE:    93 TIME:   0.023 TIME LEFT:  2.00D  GRAD.:     0.498 HEAT:  62.79020
 CYCLE:    94 TIME:   0.023 TIME LEFT:  2.00D  GRAD.:     0.868 HEAT:  62.78876
 CYCLE:    95 TIME:   0.023 TIME LEFT:  2.00D  GRAD.:     0.608 HEAT:  62.78757
 CYCLE:    96 TIME:   0.027 TIME LEFT:  2.00D  GRAD.:     0.686 HEAT:  62.78681
 CYCLE:    97 TIME:   0.023 TIME LEFT:  2.00D  GRAD.:     0.476 HEAT:  62.78638
 CYCLE:    98 TIME:   0.023 TIME LEFT:  2.00D  GRAD.:     0.459 HEAT:  62.78594
 CYCLE:    99 TIME:   0.023 TIME LEFT:  2.00D  GRAD.:     0.345 HEAT:  62.78573
 CYCLE:   100 TIME:   0.023 TIME LEFT:  2.00D  GRAD.:     0.290 HEAT:  62.78551
 CYCLE:   101 TIME:   0.020 TIME LEFT:  2.00D  GRAD.:     0.198 HEAT:  62.78541
 CYCLE:   102 TIME:   0.023 TIME LEFT:  2.00D  GRAD.:     0.475 HEAT:  62.78539
 CYCLE:   103 TIME:   0.023 TIME LEFT:  2.00D  GRAD.:     0.136 HEAT:  62.78524
 CYCLE:   104 TIME:   0.023 TIME LEFT:  2.00D  GRAD.:     0.098 HEAT:  62.78517
 CYCLE:   105 TIME:   0.023 TIME LEFT:  2.00D  GRAD.:     0.064 HEAT:  62.78516
 CYCLE:   106 TIME:   0.023 TIME LEFT:  2.00D  GRAD.:     0.105 HEAT:  62.78517
 CYCLE:   107 TIME:   0.023 TIME LEFT:  2.00D  GRAD.:     0.032 HEAT:  62.78516

     GRADIENT =  0.03239  IS LESS THAN CUTOFF =  0.05000



 -------------------------------------------------------------------------------
 pm3  precise nosym THREADS=1
 InChI=1S/C10H10/c1-3-6-10-8-5-4-7-9(10)2/h4-8H,1H2,2H3



     GEOMETRY OPTIMISED USING EIGENVECTOR FOLLOWING (EF).     
     SCF FIELD WAS ACHIEVED                                   


                              PM3 CALCULATION
                                                       MOPAC2016 (Version: 18.184L)
                                                       Thu Jun 13 15:56:44 2019
                                                       No. of days remaining =  20




          FINAL HEAT OF FORMATION =         62.78516 KCAL/MOL =     262.69310 KJ/MOL


          TOTAL ENERGY            =      -1337.00832 EV
          ELECTRONIC ENERGY       =      -6833.32618 EV  POINT GROUP:     C1  
          CORE-CORE REPULSION     =       5496.31786 EV
          COSMO AREA              =        182.69 SQUARE ANGSTROMS
          COSMO VOLUME            =        181.25 CUBIC ANGSTROMS

          GRADIENT NORM           =          0.03239 = 0.00724 PER ATOM
          IONIZATION POTENTIAL    =          8.916844 EV
          HOMO LUMO ENERGIES (EV) =         -8.917 -0.089
          NO. OF FILLED LEVELS    =         25
          MOLECULAR WEIGHT        =        130.1890

          MOLECULAR DIMENSIONS (Angstroms)

            Atom       Atom       Distance
            H    19    H    16     7.69030
            H    15    H    11     5.85102
            H    13    H    20     2.90876


          SCF CALCULATIONS        =        113
 
          WALL-CLOCK TIME         =          2.566 SECONDS
          COMPUTATION TIME        =          0.985 SECONDS




   ATOM   CHEMICAL          X               Y               Z
  NUMBER   SYMBOL      (ANGSTROMS)     (ANGSTROMS)     (ANGSTROMS)
 
     1       C         -1.06791273  *   2.20605547  *  -0.19836713  *
     2       C         -1.06025371  *   0.71907118  *  -0.17190761  *
     3       C          0.13853122  *  -0.01329156  *  -0.12104120  *
     4       C         -2.27731409  *   0.03574174  *  -0.20215580  *
     5       C          0.08779107  *  -1.41115295  *  -0.10515555  *
     6       C         -1.12983427  *  -2.07786246  *  -0.13513070  *
     7       C         -2.31503112  *  -1.35306364  *  -0.18270893  *
     8       C          1.43185799  *   0.66562599  *  -0.07615559  *
     9       C          3.69004169  *  -0.46941582  *  -0.69578451  *
    10       C          2.56196494  *   0.08664991  *  -0.38682101  *
    11       H         -0.46250038  *   2.59215640  *  -1.02982985  *
    12       H         -2.08203856  *   2.61188350  *  -0.31555444  *
    13       H         -0.65650159  *   2.61905732  *   0.73360544  *
    14       H          1.02392729  *  -1.98144677  *  -0.06972446  *
    15       H         -1.15466026  *  -3.17217736  *  -0.12140583  *
    16       H         -3.21563048  *   0.60141297  *  -0.24282765  *
    17       H         -3.27736290  *  -1.87437670  *  -0.20580755  *
    18       H          1.44618622  *   1.71844982  *   0.23707927  *
    19       H          4.30404570  *  -0.98489917  *   0.03801093  *
    20       H          4.08860106  *  -0.45279879  *  -1.70673351  *

                             CARTESIAN COORDINATES

   1    C       -1.067912734     2.206055468    -0.198367134
   2    C       -1.060253707     0.719071178    -0.171907611
   3    C        0.138531223    -0.013291565    -0.121041204
   4    C       -2.277314093     0.035741737    -0.202155805
   5    C        0.087791066    -1.411152946    -0.105155554
   6    C       -1.129834269    -2.077862459    -0.135130699
   7    C       -2.315031120    -1.353063640    -0.182708931
   8    C        1.431857992     0.665625992    -0.076155592
   9    C        3.690041690    -0.469415816    -0.695784511
  10    C        2.561964944     0.086649910    -0.386821015
  11    H       -0.462500378     2.592156403    -1.029829849
  12    H       -2.082038558     2.611883498    -0.315554441
  13    H       -0.656501593     2.619057323     0.733605436
  14    H        1.023927293    -1.981446765    -0.069724460
  15    H       -1.154660264    -3.172177363    -0.121405827
  16    H       -3.215630475     0.601412968    -0.242827654
  17    H       -3.277362904    -1.874376704    -0.205807547
  18    H        1.446186225     1.718449816     0.237079273
  19    H        4.304045703    -0.984899170     0.038010931
  20    H        4.088601058    -0.452798787    -1.706733508


           Empirical Formula: C10 H10  =    20 atoms



      MOLECULAR POINT GROUP   :   C1  


                  EIGENVALUES  
 -40.41739 -34.30143 -32.58477 -29.72332 -26.43827 -25.19224 -21.63762 -20.29784
 -18.24650 -17.44546 -16.88793 -15.61754 -15.31476 -14.95252 -14.79003 -14.51489
 -14.45454 -13.34232 -12.79838 -12.52803 -12.37797 -10.83583 -10.38213  -9.54058
  -8.91684  -0.08924   0.42021   1.02999   1.44286   2.85774   2.94306   3.23843
   3.42481   3.48417   3.64971   3.82735   3.96731   4.19236   4.26678   4.38342
   4.44082   4.59615   4.86564   5.13444   5.17739   5.32480   5.45259   6.16118
   6.32935   6.54864


              NET ATOMIC CHARGES AND DIPOLE CONTRIBUTIONS

  ATOM NO.   TYPE          CHARGE      No. of ELECS.   s-Pop       p-Pop       
    1          C          -0.067867        4.0679     1.12451     2.94335
    2          C          -0.062364        4.0624     1.17964     2.88273
    3          C          -0.031474        4.0315     1.16173     2.86974
    4          C          -0.106713        4.1067     1.17980     2.92691
    5          C          -0.091258        4.0913     1.17957     2.91169
    6          C          -0.107677        4.1077     1.17836     2.92932
    7          C          -0.098072        4.0981     1.17847     2.91960
    8          C          -0.042073        4.0421     1.14454     2.89754
    9          C          -0.094061        4.0941     1.14732     2.94674
   10          C          -0.168598        4.1686     1.21446     2.95414
   11          H           0.049122        0.9509     0.95088
   12          H           0.044671        0.9553     0.95533
   13          H           0.047619        0.9524     0.95238
   14          H           0.109323        0.8907     0.89068
   15          H           0.103096        0.8969     0.89690
   16          H           0.105282        0.8947     0.89472
   17          H           0.102215        0.8978     0.89778
   18          H           0.116097        0.8839     0.88390
   19          H           0.095976        0.9040     0.90402
   20          H           0.096758        0.9032     0.90324
 DIPOLE           X         Y         Z       TOTAL
 POINT-CHG.     0.133     0.225    -0.024     0.262
 HYBRID         0.054     0.004    -0.011     0.055
 SUM            0.186     0.229    -0.035     0.297


          ATOMIC ORBITAL ELECTRON POPULATIONS

     Atom    s        px        py        pz   
    1  C   1.12451   1.01414   0.92200   1.00722
    2  C   1.17964   0.93615   0.95184   0.99474
    3  C   1.16173   0.91922   0.93818   1.01234
    4  C   1.17980   0.96344   0.95175   1.01172
    5  C   1.17957   0.97521   0.94157   0.99491
    6  C   1.17836   0.93992   0.98218   1.00722
    7  C   1.17847   0.97269   0.94847   0.99843
    8  C   1.14454   0.89211   0.97977   1.02566
    9  C   1.14732   0.94081   1.00326   1.00266
   10  C   1.21446   0.97202   0.98767   0.99445
   11  H   0.95088
   12  H   0.95533
   13  H   0.95238
   14  H   0.89068
   15  H   0.89690
   16  H   0.89472
   17  H   0.89778
   18  H   0.88390
   19  H   0.90402
   20  H   0.90324
 *******************************************************************************
 ** Site#: 14399        For non-commercial use only    Version 18.184L 64BITS **
 *******************************************************************************
 ** Cite this program as: MOPAC2016, Version: 18.184L, James J. P. Stewart,   **
 ** Stewart Computational Chemistry, web: HTTP://OpenMOPAC.net. Days left:  20**
 *******************************************************************************
 **                                                                           **
 **                                MOPAC2016                                  **
 **                                                                           **
 *******************************************************************************

                              PM3 CALCULATION RESULTS

 *******************************************************************************
 *  CALCULATION DONE:                                Thu Jun 13 15:56:44 2019  *
 *  PM3        - The PM3 Hamiltonian to be used
 *  OLDGEO     - PREVIOUS GEOMETRY TO BE USED
 *  PRECISE    - CRITERIA TO BE INCREASED BY 100 TIMES
 *  NOSYM      - POINT-GROUP SYMMETRY SET TO C1
 *  THREADS=1  - MULTI-THREADING NOT USED
 *  T=         - A TIME OF 172800.0 SECONDS REQUESTED
 *  DUMP=N     - RESTART FILE WRITTEN EVERY  7200.000 SECONDS
 *  THERMO     - THERMODYNAMIC QUANTITIES TO BE CALCULATED
 *******************************************************************************
oldgeo thermo nosym precise THREADS=1  pm3
 InChI=1S/C10H10/c1-3-6-10-8-5-4-7-9(10)2/h4-8H,1H2,2H3

   ATOM   CHEMICAL          X               Y               Z
  NUMBER   SYMBOL      (ANGSTROMS)     (ANGSTROMS)     (ANGSTROMS)
 
     1       C         -1.06791273  *   2.20605547  *  -0.19836713  *
     2       C         -1.06025371  *   0.71907118  *  -0.17190761  *
     3       C          0.13853122  *  -0.01329156  *  -0.12104120  *
     4       C         -2.27731409  *   0.03574174  *  -0.20215580  *
     5       C          0.08779107  *  -1.41115295  *  -0.10515555  *
     6       C         -1.12983427  *  -2.07786246  *  -0.13513070  *
     7       C         -2.31503112  *  -1.35306364  *  -0.18270893  *
     8       C          1.43185799  *   0.66562599  *  -0.07615559  *
     9       C          3.69004169  *  -0.46941582  *  -0.69578451  *
    10       C          2.56196494  *   0.08664991  *  -0.38682101  *
    11       H         -0.46250038  *   2.59215640  *  -1.02982985  *
    12       H         -2.08203856  *   2.61188350  *  -0.31555444  *
    13       H         -0.65650159  *   2.61905732  *   0.73360544  *
    14       H          1.02392729  *  -1.98144677  *  -0.06972446  *
    15       H         -1.15466026  *  -3.17217736  *  -0.12140583  *
    16       H         -3.21563048  *   0.60141297  *  -0.24282765  *
    17       H         -3.27736290  *  -1.87437670  *  -0.20580755  *
    18       H          1.44618622  *   1.71844982  *   0.23707927  *
    19       H          4.30404570  *  -0.98489917  *   0.03801093  *
    20       H          4.08860106  *  -0.45279879  *  -1.70673351  *
 


          CARTESIAN COORDINATES 

    NO.       ATOM           X           Y           Z

     1         C         -1.0679      2.2061     -0.1984
     2         C         -1.0603      0.7191     -0.1719
     3         C          0.1385     -0.0133     -0.1210
     4         C         -2.2773      0.0357     -0.2022
     5         C          0.0878     -1.4112     -0.1052
     6         C         -1.1298     -2.0779     -0.1351
     7         C         -2.3150     -1.3531     -0.1827
     8         C          1.4319      0.6656     -0.0762
     9         C          3.6900     -0.4694     -0.6958
    10         C          2.5620      0.0866     -0.3868
    11         H         -0.4625      2.5922     -1.0298
    12         H         -2.0820      2.6119     -0.3156
    13         H         -0.6565      2.6191      0.7336
    14         H          1.0239     -1.9814     -0.0697
    15         H         -1.1547     -3.1722     -0.1214
    16         H         -3.2156      0.6014     -0.2428
    17         H         -3.2774     -1.8744     -0.2058
    18         H          1.4462      1.7184      0.2371
    19         H          4.3040     -0.9849      0.0380
    20         H          4.0886     -0.4528     -1.7067

  H: (PM3): J. J. P. STEWART, J. COMP. CHEM. 10, 209 (1989).
  C: (PM3): J. J. P. STEWART, J. COMP. CHEM. 10, 209 (1989).

           Empirical Formula: C10 H10  =    20 atoms



      MOLECULAR POINT GROUP   :   C1  


      RHF CALCULATION, NO. OF DOUBLY OCCUPIED LEVELS = 25



          HEAT OF FORMATION =      62.785158 KCALS/MOLE


          CARTESIAN COORDINATE DERIVATIVES

   NUMBER  ATOM         X            Y            Z

     1       C      0.002879    -0.010040    -0.003623
     2       C      0.000456    -0.000097     0.001366
     3       C     -0.001529     0.000487     0.001634
     4       C     -0.000188     0.003215     0.000571
     5       C      0.001056    -0.003210    -0.000623
     6       C     -0.002270     0.001033     0.000478
     7       C      0.002458     0.001512     0.001372
     8       C      0.004639    -0.004776    -0.002782
     9       C     -0.005911    -0.010651     0.007258
    10       C      0.006913     0.008974    -0.003581
    11       H      0.003018     0.007336    -0.002812
    12       H     -0.000938    -0.011613     0.001207
    13       H      0.002917     0.010818     0.004501
    14       H     -0.003226    -0.004387    -0.001436
    15       H      0.001118     0.002966    -0.002608
    16       H     -0.001013     0.009275    -0.001159
    17       H     -0.005140     0.002961     0.000790
    18       H     -0.002658     0.001607    -0.002075
    19       H     -0.004988    -0.002643    -0.000383
    20       H      0.002408    -0.002767     0.001902
 


          GRADIENT NORM =   0.03395


          TIME FOR SCF CALCULATION =    0.03

          TIME FOR DERIVATIVES     =    0.01

          MOLECULAR WEIGHT =  130.19



          ROTATIONAL CONSTANTS IN CM(-1)

          A =    0.07800573   B =    0.03297551   C =    0.02355609



           PRINCIPAL MOMENTS OF INERTIA IN UNITS OF 10**(-40)*GRAM-CM**2

          A =      358.8554   B =      848.8960   C =     1188.3454


          ORIENTATION OF MOLECULE IN FORCE CALCULATION

    NO.       ATOM         X         Y         Z

     1          C      -2.3463   -1.0586    0.1075
     2          C      -0.8591   -1.0586    0.1075
     3          C      -0.1198    0.1370    0.1075
     4          C      -0.1827   -2.2799    0.1038
     5          C       1.2779    0.0788    0.1004
     6          C       1.9377   -1.1430    0.0972
     7          C       1.2061   -2.3249    0.0999
     8          C      -0.7911    1.4349    0.1234
     9          C       0.3444    3.6659   -0.5873
    10          C      -0.2119    2.5514   -0.2330
    11          H      -2.7440   -0.4775   -0.7357
    12          H      -2.7594   -2.0736    0.0296
    13          H      -2.7405   -0.6156    1.0331
    14          H       1.8535    1.0123    0.0961
    15          H       3.0319   -1.1736    0.0924
    16          H      -0.7538   -3.2158    0.1028
    17          H       1.7219   -3.2904    0.0981
    18          H      -1.8381    1.4652    0.4545
    19          H       0.8760    4.2998    0.1176
    20          H       0.3118    4.0325   -1.6099


    FIRST DERIVATIVES WILL BE USED IN THE CALCULATION OF SECOND DERIVATIVES

          ESTIMATED TIME TO COMPLETE CALCULATION =        9.38 SECONDS

    FOR POINT-GROUP C1   THERE ARE   1 UNIQUE SYMMETRY FUNCTIONS.

 STEP:   1 TIME =     0.05 SECS, INTEGRAL =      0.05 TIME LEFT: 172799.91
 STEP:   2 TIME =     0.04 SECS, INTEGRAL =      0.09 TIME LEFT: 172799.87
 STEP:   3 TIME =     0.05 SECS, INTEGRAL =      0.14 TIME LEFT: 172799.82
 STEP:   4 TIME =     0.05 SECS, INTEGRAL =      0.18 TIME LEFT: 172799.78
 STEP:   5 TIME =     0.05 SECS, INTEGRAL =      0.23 TIME LEFT: 172799.73
 STEP:   6 TIME =     0.05 SECS, INTEGRAL =      0.28 TIME LEFT: 172799.68
 STEP:   7 TIME =     0.05 SECS, INTEGRAL =      0.33 TIME LEFT: 172799.63
 STEP:   8 TIME =     0.05 SECS, INTEGRAL =      0.38 TIME LEFT: 172799.59
 STEP:   9 TIME =     0.05 SECS, INTEGRAL =      0.43 TIME LEFT: 172799.54
 STEP:  10 TIME =     0.05 SECS, INTEGRAL =      0.48 TIME LEFT: 172799.48
 STEP:  11 TIME =     0.05 SECS, INTEGRAL =      0.52 TIME LEFT: 172799.44
 STEP:  12 TIME =     0.05 SECS, INTEGRAL =      0.57 TIME LEFT: 172799.39
 STEP:  13 TIME =     0.05 SECS, INTEGRAL =      0.62 TIME LEFT: 172799.34
 STEP:  14 TIME =     0.05 SECS, INTEGRAL =      0.67 TIME LEFT: 172799.29
 STEP:  15 TIME =     0.05 SECS, INTEGRAL =      0.72 TIME LEFT: 172799.24
 STEP:  16 TIME =     0.05 SECS, INTEGRAL =      0.77 TIME LEFT: 172799.20
 STEP:  17 TIME =     0.05 SECS, INTEGRAL =      0.81 TIME LEFT: 172799.15
 STEP:  18 TIME =     0.05 SECS, INTEGRAL =      0.86 TIME LEFT: 172799.10
 STEP:  19 TIME =     0.05 SECS, INTEGRAL =      0.91 TIME LEFT: 172799.05
 STEP:  20 TIME =     0.05 SECS, INTEGRAL =      0.96 TIME LEFT: 172799.00
 STEP:  21 TIME =     0.05 SECS, INTEGRAL =      1.00 TIME LEFT: 172798.96
 STEP:  22 TIME =     0.04 SECS, INTEGRAL =      1.05 TIME LEFT: 172798.91
 STEP:  23 TIME =     0.05 SECS, INTEGRAL =      1.09 TIME LEFT: 172798.87
 STEP:  24 TIME =     0.05 SECS, INTEGRAL =      1.14 TIME LEFT: 172798.82
 STEP:  25 TIME =     0.04 SECS, INTEGRAL =      1.18 TIME LEFT: 172798.78
 STEP:  26 TIME =     0.05 SECS, INTEGRAL =      1.23 TIME LEFT: 172798.73
 STEP:  27 TIME =     0.04 SECS, INTEGRAL =      1.27 TIME LEFT: 172798.69
 STEP:  28 TIME =     0.05 SECS, INTEGRAL =      1.32 TIME LEFT: 172798.64
 STEP:  29 TIME =     0.05 SECS, INTEGRAL =      1.37 TIME LEFT: 172798.59
 STEP:  30 TIME =     0.04 SECS, INTEGRAL =      1.41 TIME LEFT: 172798.55
 STEP:  31 TIME =     0.05 SECS, INTEGRAL =      1.46 TIME LEFT: 172798.50
 STEP:  32 TIME =     0.05 SECS, INTEGRAL =      1.50 TIME LEFT: 172798.46
 STEP:  33 TIME =     0.04 SECS, INTEGRAL =      1.55 TIME LEFT: 172798.41
 STEP:  34 TIME =     0.05 SECS, INTEGRAL =      1.59 TIME LEFT: 172798.37
 STEP:  35 TIME =     0.04 SECS, INTEGRAL =      1.64 TIME LEFT: 172798.32
 STEP:  36 TIME =     0.05 SECS, INTEGRAL =      1.68 TIME LEFT: 172798.28
 STEP:  37 TIME =     0.05 SECS, INTEGRAL =      1.73 TIME LEFT: 172798.23
 STEP:  38 TIME =     0.05 SECS, INTEGRAL =      1.78 TIME LEFT: 172798.18
 STEP:  39 TIME =     0.04 SECS, INTEGRAL =      1.82 TIME LEFT: 172798.14
 STEP:  40 TIME =     0.04 SECS, INTEGRAL =      1.86 TIME LEFT: 172798.10
 STEP:  41 TIME =     0.05 SECS, INTEGRAL =      1.91 TIME LEFT: 172798.05
 STEP:  42 TIME =     0.05 SECS, INTEGRAL =      1.96 TIME LEFT: 172798.00
 STEP:  43 TIME =     0.04 SECS, INTEGRAL =      2.00 TIME LEFT: 172797.96
 STEP:  44 TIME =     0.04 SECS, INTEGRAL =      2.04 TIME LEFT: 172797.92
 STEP:  45 TIME =     0.05 SECS, INTEGRAL =      2.09 TIME LEFT: 172797.87
 STEP:  46 TIME =     0.05 SECS, INTEGRAL =      2.14 TIME LEFT: 172797.82
 STEP:  47 TIME =     0.05 SECS, INTEGRAL =      2.18 TIME LEFT: 172797.78
 STEP:  48 TIME =     0.05 SECS, INTEGRAL =      2.23 TIME LEFT: 172797.73
 STEP:  49 TIME =     0.05 SECS, INTEGRAL =      2.28 TIME LEFT: 172797.68
 STEP:  50 TIME =     0.04 SECS, INTEGRAL =      2.32 TIME LEFT: 172797.64
 STEP:  51 TIME =     0.05 SECS, INTEGRAL =      2.37 TIME LEFT: 172797.59
 STEP:  52 TIME =     0.04 SECS, INTEGRAL =      2.41 TIME LEFT: 172797.55
 STEP:  53 TIME =     0.05 SECS, INTEGRAL =      2.46 TIME LEFT: 172797.50
 STEP:  54 TIME =     0.05 SECS, INTEGRAL =      2.50 TIME LEFT: 172797.46
 STEP:  55 TIME =     0.05 SECS, INTEGRAL =      2.55 TIME LEFT: 172797.41
 STEP:  56 TIME =     0.05 SECS, INTEGRAL =      2.60 TIME LEFT: 172797.36
 STEP:  57 TIME =     0.05 SECS, INTEGRAL =      2.64 TIME LEFT: 172797.32
 STEP:  58 TIME =     0.05 SECS, INTEGRAL =      2.69 TIME LEFT: 172797.27
 STEP:  59 TIME =     0.05 SECS, INTEGRAL =      2.74 TIME LEFT: 172797.22
 STEP:  60 TIME =     0.04 SECS, INTEGRAL =      2.78 TIME LEFT: 172797.18

(To convert to Hartree/Bohr^2, multiply by (10^(-21) x N x a0^2)/(4.184 x 627.51) =  0.0642)


           FORCE MATRIX IN MILLIDYNES/ANGSTROM


                  C  1       C  2       C  3       C  4       C  5       C  6
 ------------------------------------------------------------------------------
     C    1  14.678585
     C    2   4.970692  17.574239
     C    3   0.661768   6.391435  18.032385
     C    4   0.773460   6.797739   2.214133  17.498108
     C    5   0.090306   2.240831   6.709120   1.665684  17.476949
     C    6   0.018811   1.744065   2.312714   2.428055   7.141233  17.388376
     C    7   0.098718   2.371754   1.652972   7.117834   2.398018   7.103553
     C    8   0.086266   0.828073   5.259243   0.107157   0.848218   0.103023
     C    9   0.002142   0.021122   0.100076   0.010537   0.016021   0.003276
     C   10   0.009069   0.087572   1.121982   0.035221   0.084956   0.015347
     H   11   4.704608   0.449179   0.026903   0.030020   0.009414   0.002825
     H   12   4.717101   0.468135   0.047410   0.063990   0.008825   0.001552
     H   13   4.675816   0.445896   0.022388   0.026919   0.010009   0.002059
     H   14   0.007678   0.082903   0.447176   0.009887   4.806797   0.432732
     H   15   0.008481   0.007727   0.088746   0.087197   0.435414   4.866856
     H   16   0.054759   0.446000   0.082602   4.812162   0.010093   0.088484
     H   17   0.008385   0.089331   0.007891   0.435588   0.086877   0.437074
     H   18   0.047411   0.031304   0.449125   0.005378   0.038866   0.008475
     H   19   0.002364   0.004899   0.079064   0.003778   0.004240   0.002182
     H   20   0.002280   0.006465   0.080780   0.003660   0.006122   0.002391


                  C  7       C  8       C  9       C 10       H 11       H 12
 ------------------------------------------------------------------------------
     C    7  17.439940
     C    8   0.023834  18.546110
     C    9   0.006471   0.788092  18.129606
     C   10   0.017351  11.132307  11.868830  24.660578
     H   11   0.011651   0.011686   0.000710   0.001537   5.426179
     H   12   0.002768   0.004930   0.000519   0.000963   0.567512   5.443316
     H   13   0.012190   0.020169   0.000782   0.001935   0.565997   0.570267
     H   14   0.087803   0.055380   0.011175   0.028394   0.000723   0.001360
     H   15   0.436941   0.008070   0.000915   0.001300   0.001059   0.000200
     H   16   0.434559   0.007911   0.000714   0.002013   0.004596   0.025322
     H   17   4.868078   0.008557   0.000940   0.001231   0.000876   0.000495
     H   18   0.002384   4.685930   0.042967   0.440500   0.032030   0.001500
     H   19   0.000883   0.045708   5.017151   0.478678   0.000317   0.000107
     H   20   0.001480   0.049865   5.019081   0.479004   0.000460   0.000117


                  H 13       H 14       H 15       H 16       H 17       H 18
 ------------------------------------------------------------------------------
     H   13   5.399508
     H   14   0.000650   5.172833
     H   15   0.001150   0.042191   5.234058
     H   16   0.004957   0.006992   0.006708   5.180760
     H   17   0.000894   0.006841   0.040752   0.042442   5.232306
     H   18   0.026249   0.002917   0.001293   0.000839   0.000549   5.068201
     H   19   0.000650   0.001736   0.000386   0.000411   0.000412   0.065625
     H   20   0.000619   0.002540   0.000346   0.000302   0.000325   0.066741


                  H 19       H 20
 ------------------------------
     H   19   5.395915
     H   20   0.404722   5.396917


          HEAT OF FORMATION =      62.785158 KCALS/MOLE

          ZERO POINT ENERGY     103.538 KCAL/MOL


           NORMAL COORDINATE ANALYSIS (Total motion = 1 Angstrom)


   Root No.       1         2         3         4         5         6         7         8

                 1 A       2 A       3 A       4 A       5 A       6 A       7 A       8 A   

                  53.4     118.1     148.6     164.1     247.7     300.4     365.5     400.4
  
           1   -0.0033   -0.0077    0.0026    0.0010    0.0008    0.0162    0.0033   -0.0224
           2   -0.0169   -0.0251    0.0074   -0.0008   -0.0005    0.0858    0.0218    0.0379
           3    0.0153    0.0275    0.0229    0.0393   -0.0223    0.0038    0.0031    0.0010
           4   -0.0032   -0.0078    0.0026    0.0013    0.0010    0.0153    0.0035   -0.0208
           5   -0.0061   -0.0040    0.0005   -0.0002    0.0003    0.0059    0.0008   -0.0318
           6    0.0042    0.0031   -0.0012   -0.0072    0.0386    0.0003   -0.0020   -0.0060
           7   -0.0096   -0.0230    0.0073    0.0045    0.0020    0.0217    0.0050   -0.0219
           8   -0.0018    0.0045   -0.0019   -0.0017    0.0002   -0.0017   -0.0004   -0.0330
           9   -0.0339    0.0143    0.0010   -0.0090    0.0375   -0.0010   -0.0014   -0.0100
          10    0.0034    0.0097   -0.0031   -0.0028   -0.0010    0.0023   -0.0002    0.0097
          11   -0.0026    0.0052   -0.0024   -0.0024   -0.0007    0.0019   -0.0002   -0.0158
          12    0.0345   -0.0283   -0.0226   -0.0252    0.0374   -0.0016   -0.0036    0.0073
          13   -0.0091   -0.0216    0.0069    0.0044    0.0018    0.0207    0.0048   -0.0231
          14    0.0041    0.0228   -0.0079   -0.0069   -0.0026    0.0051    0.0012    0.0125
          15   -0.0445    0.0290    0.0225    0.0189    0.0385   -0.0015   -0.0066    0.0063
          16   -0.0027   -0.0048    0.0015    0.0004   -0.0002    0.0121    0.0022    0.0044
          17    0.0077    0.0329   -0.0113   -0.0094   -0.0038   -0.0013   -0.0008    0.0331
          18   -0.0152    0.0077    0.0172    0.0272   -0.0339    0.0012   -0.0027   -0.0008
          19    0.0035    0.0100   -0.0032   -0.0030   -0.0013    0.0043    0.0005    0.0156
          20    0.0040    0.0234   -0.0083   -0.0073   -0.0031    0.0026    0.0002    0.0259
          21    0.0256   -0.0308   -0.0175   -0.0092   -0.0356   -0.0003    0.0011   -0.0033
          22   -0.0135   -0.0281    0.0071    0.0064   -0.0002   -0.0361   -0.0164    0.0209
          23   -0.0038    0.0028   -0.0022   -0.0005   -0.0005   -0.0337   -0.0129   -0.0191
          24   -0.0553   -0.0064   -0.0211   -0.0346   -0.0238   -0.0081   -0.0293   -0.0042
          25    0.0268    0.0617   -0.0194   -0.0133   -0.0048   -0.0023   -0.0104   -0.0174
          26    0.0125   -0.0432    0.0193    0.0226    0.0108   -0.0484   -0.0161    0.0017
          27    0.0594   -0.0102    0.0050    0.0063    0.0032    0.0213   -0.0206    0.0060
          28    0.0049    0.0010    0.0021    0.0049    0.0049   -0.0627    0.0175    0.0650
          29    0.0041   -0.0117    0.0033    0.0047   -0.0019   -0.0296    0.0081   -0.0417
          30   -0.0014   -0.0067   -0.0113   -0.0208   -0.0209   -0.0233    0.0957   -0.0035
          31   -0.0143   -0.0302   -0.0031   -0.0365    0.0403    0.0469    0.0056    0.0070
          32   -0.0475   -0.0454   -0.1308    0.1148    0.0189    0.1197    0.0351    0.0658
          33   -0.0006    0.0242   -0.0696    0.1367   -0.0280    0.0117    0.0106    0.0057
          34    0.0037    0.0050   -0.0047    0.0001    0.0054   -0.0417   -0.0115   -0.0798
          35   -0.0226   -0.0323   -0.0032    0.0091    0.0011    0.1115    0.0288    0.0629
          36    0.0509    0.0530    0.2001   -0.0877   -0.0684   -0.0092   -0.0073    0.0020
          37   -0.0000    0.0023    0.0151    0.0391   -0.0439    0.0444    0.0144    0.0099
          38    0.0094   -0.0138    0.1645   -0.1320   -0.0236    0.0954    0.0154    0.0625
          39    0.0041    0.0263   -0.0467    0.1181   -0.0308    0.0121    0.0110    0.0037
          40   -0.0132   -0.0333    0.0108    0.0076    0.0035    0.0206    0.0054   -0.0518
          41    0.0067    0.0304   -0.0104   -0.0090   -0.0036    0.0047    0.0008    0.0310
          42   -0.0747    0.0521    0.0405    0.0341    0.0665   -0.0046   -0.0126    0.0237
          43   -0.0026   -0.0044    0.0015    0.0005   -0.0005    0.0119    0.0022    0.0048
          44    0.0134    0.0478   -0.0160   -0.0129   -0.0052   -0.0098   -0.0030    0.0552
          45   -0.0234    0.0176    0.0358    0.0564   -0.0870    0.0030   -0.0028   -0.0006
          46    0.0083    0.0225   -0.0072   -0.0061   -0.0026   -0.0030   -0.0015    0.0389
          47   -0.0056   -0.0025    0.0001   -0.0005    0.0002    0.0058    0.0008   -0.0328
          48    0.0660   -0.0494   -0.0394   -0.0451    0.0648   -0.0036   -0.0062    0.0244
          49    0.0084    0.0227   -0.0074   -0.0062   -0.0029    0.0015   -0.0001    0.0384
          50    0.0066    0.0303   -0.0106   -0.0090   -0.0038    0.0010   -0.0002    0.0379
          51    0.0503   -0.0589   -0.0357   -0.0200   -0.0913   -0.0007    0.0066   -0.0083
          52   -0.0317   -0.0357   -0.0020   -0.0018   -0.0183   -0.0340   -0.0695    0.0303
          53   -0.0085    0.0091   -0.0043    0.0012    0.0040   -0.0553   -0.0344    0.0342
          54   -0.1130   -0.0336   -0.0483   -0.0601   -0.0812   -0.0001   -0.1968    0.0193
          55   -0.0129    0.0675   -0.0497   -0.0470   -0.0635   -0.0067   -0.1017   -0.0158
          56   -0.0071   -0.0543    0.0291    0.0262    0.0276   -0.0969    0.1541    0.0111
          57    0.1071   -0.0045    0.0190    0.0285    0.0324    0.0686   -0.1077   -0.0040
          58    0.0869    0.1103   -0.0071    0.0057    0.0479    0.0622    0.0393   -0.1023
          59    0.0400   -0.0597    0.0237    0.0352    0.0060   -0.0156   -0.2171    0.0336
          60    0.0674   -0.0176    0.0062    0.0103   -0.0000    0.0318   -0.0957    0.0200


   Root No.       9        10        11        12        13        14        15        16

                 9 A      10 A      11 A      12 A      13 A      14 A      15 A      16 A   

                 414.6     467.4     482.0     572.0     586.3     641.2     721.5     778.2
  
           1   -0.0049    0.0100   -0.0304    0.0684    0.0003   -0.0102   -0.0038   -0.0019
           2    0.0002    0.0089   -0.0218   -0.0116    0.0006   -0.0070   -0.0004   -0.0001
           3   -0.0054   -0.0060   -0.0023   -0.0006   -0.0020    0.0016   -0.0087    0.0029
           4   -0.0041    0.0076   -0.0224    0.0467   -0.0002   -0.0057   -0.0017   -0.0003
           5   -0.0009   -0.0133    0.0344    0.0074   -0.0048   -0.0414   -0.0058   -0.0026
           6    0.0480    0.0466    0.0118   -0.0041   -0.0308    0.0139   -0.0477    0.0047
           7   -0.0013   -0.0110    0.0322    0.0114   -0.0054    0.0276    0.0047    0.0018
           8   -0.0027   -0.0001   -0.0037    0.0215   -0.0003   -0.0400   -0.0051   -0.0011
           9    0.0573   -0.0215   -0.0189   -0.0022   -0.0069   -0.0063    0.0630    0.0247
          10   -0.0005    0.0078   -0.0207   -0.0339    0.0024   -0.0355   -0.0041   -0.0017
          11    0.0013   -0.0151    0.0418   -0.0310   -0.0052   -0.0566   -0.0078   -0.0039
          12   -0.0439    0.0161    0.0136    0.0030    0.0195   -0.0053    0.0122   -0.0174
          13   -0.0016   -0.0131    0.0387    0.0070   -0.0075    0.0272    0.0061    0.0029
          14    0.0019   -0.0043    0.0104    0.0537   -0.0006    0.0394    0.0024    0.0006
          15   -0.0422   -0.0271   -0.0122   -0.0035   -0.0169    0.0063   -0.0041   -0.0147
          16    0.0010   -0.0072    0.0256   -0.0667   -0.0044   -0.0089    0.0043    0.0025
          17    0.0043   -0.0025    0.0063    0.0183    0.0018    0.0286    0.0016    0.0001
          18    0.0092    0.0467    0.0221    0.0035    0.0171   -0.0052    0.0175   -0.0222
          19    0.0001    0.0086   -0.0226   -0.0451    0.0028   -0.0315   -0.0030   -0.0011
          20    0.0049   -0.0120    0.0349   -0.0008   -0.0024    0.0383    0.0054    0.0021
          21    0.0184   -0.0427   -0.0227   -0.0034   -0.0208    0.0059   -0.0089   -0.0268
          22    0.0054   -0.0065    0.0139   -0.0153    0.0115    0.0592    0.0021   -0.0002
          23   -0.0012    0.0082   -0.0300   -0.0045    0.0094   -0.0201   -0.0020    0.0007
          24    0.0070   -0.0096   -0.0034    0.0016    0.0446   -0.0059   -0.0085    0.0009
          25   -0.0055    0.0072   -0.0132   -0.0124   -0.0011    0.0150    0.0026    0.0005
          26    0.0029    0.0069   -0.0236   -0.0132    0.0020    0.0154    0.0042    0.0020
          27    0.0025   -0.0032    0.0080    0.0068   -0.0035   -0.0079   -0.0009   -0.0013
          28    0.0158   -0.0092    0.0114    0.0403   -0.0001   -0.0495   -0.0064   -0.0017
          29   -0.0153    0.0192   -0.0329   -0.0389   -0.0040    0.0462    0.0076    0.0023
          30   -0.0218    0.0141    0.0036   -0.0047   -0.0191    0.0076    0.0015   -0.0009
          31    0.0379    0.0716   -0.0527    0.0584   -0.0227    0.0239   -0.0735    0.0207
          32    0.0034    0.0230   -0.0484   -0.0213    0.0026    0.0071    0.0001    0.0015
          33   -0.0242   -0.0264   -0.0095   -0.0016    0.0107   -0.0053    0.0258   -0.0073
          34   -0.0018   -0.0078    0.0282    0.0864   -0.0091   -0.0449   -0.0163   -0.0037
          35    0.0009    0.0190   -0.0468   -0.0200    0.0034    0.0078    0.0018    0.0017
          36   -0.0318   -0.0365   -0.0097    0.0025    0.0149   -0.0074    0.0320   -0.0114
          37   -0.0515   -0.0318   -0.0749    0.0707    0.0343   -0.0132    0.0777   -0.0245
          38   -0.0028    0.0143   -0.0480   -0.0197    0.0060    0.0056    0.0032   -0.0002
          39   -0.0247   -0.0270   -0.0095    0.0036    0.0104   -0.0057    0.0258   -0.0073
          40   -0.0048   -0.0127    0.0353    0.0296   -0.0086    0.0035    0.0024    0.0031
          41    0.0036   -0.0046    0.0124    0.0395    0.0002    0.0541    0.0042    0.0009
          42   -0.1573   -0.0749   -0.0224   -0.0054   -0.0210    0.0217   -0.1759    0.0911
          43    0.0010   -0.0064    0.0246   -0.0675   -0.0039   -0.0101    0.0041    0.0035
          44    0.0052    0.0100   -0.0299   -0.0132    0.0091   -0.0107   -0.0061   -0.0040
          45    0.0143    0.1397    0.0724    0.0149    0.0818   -0.0238   -0.0143    0.2158
          46    0.0026    0.0080   -0.0191   -0.0653    0.0046   -0.0027    0.0022    0.0015
          47   -0.0004   -0.0151    0.0406   -0.0119   -0.0066   -0.0765   -0.0118   -0.0061
          48   -0.1599    0.0150    0.0344    0.0151    0.1066   -0.0377    0.0907    0.1564
          49    0.0011    0.0177   -0.0507   -0.0147    0.0085    0.0075   -0.0001    0.0010
          50    0.0054   -0.0069    0.0200    0.0160    0.0006    0.0587    0.0070    0.0027
          51    0.0415   -0.1410   -0.0715   -0.0093   -0.0519    0.0143   -0.0736    0.2192
          52   -0.0097    0.0046    0.0153   -0.0140    0.0082    0.0651   -0.0216   -0.0192
          53    0.0151    0.0084   -0.0495    0.0173    0.0127   -0.0710   -0.0032    0.0008
          54   -0.0433    0.0265    0.0022   -0.0004    0.0324    0.0210   -0.0822   -0.0592
          55   -0.0913    0.0781   -0.0161   -0.0233   -0.1906    0.0198    0.0797    0.0331
          56    0.0310   -0.0167   -0.0217   -0.0062    0.0790    0.0128   -0.0348   -0.0187
          57    0.0424   -0.0357    0.0078    0.0081    0.0712   -0.0083   -0.0239   -0.0071
          58    0.0639   -0.0505   -0.0394   -0.0658    0.1991    0.0970   -0.0630   -0.0256
          59   -0.0053    0.0168   -0.0166    0.0088   -0.0639   -0.0198    0.0377    0.0220
          60   -0.0022    0.0016    0.0117    0.0166   -0.0327   -0.0236    0.0128    0.0067


   Root No.      17        18        19        20        21        22        23        24

                17 A      18 A      19 A      20 A      21 A      22 A      23 A      24 A   

                 857.2     872.1     896.7     908.4     940.2     962.5     988.2     993.6
  
           1    0.0509    0.0047   -0.0020    0.0432   -0.0043    0.0010   -0.0038    0.0003
           2   -0.0098   -0.0007   -0.0007    0.0062   -0.0018   -0.0015   -0.0055    0.0509
           3   -0.0011    0.0060   -0.0107   -0.0043   -0.0084    0.0087   -0.0010   -0.0012
           4    0.0037   -0.0000   -0.0006   -0.0033    0.0002   -0.0005    0.0003    0.0066
           5   -0.0118    0.0033    0.0014    0.0179   -0.0010    0.0008   -0.0007    0.0056
           6    0.0003    0.0048   -0.0067    0.0003    0.0011   -0.0062    0.0005    0.0012
           7   -0.0219   -0.0019    0.0015   -0.0159    0.0015    0.0003   -0.0002   -0.0040
           8   -0.0059   -0.0015   -0.0008   -0.0185    0.0019   -0.0016    0.0036   -0.0040
           9   -0.0013   -0.0017    0.0244    0.0072    0.0044    0.0274   -0.0033    0.0011
          10   -0.0393    0.0009    0.0020    0.0043    0.0002    0.0008    0.0007   -0.0059
          11   -0.0144    0.0066    0.0028    0.0442   -0.0023    0.0036   -0.0012   -0.0337
          12    0.0026   -0.0247    0.0225    0.0054    0.0152   -0.0309    0.0035   -0.0010
          13   -0.0155   -0.0042    0.0014   -0.0492    0.0059   -0.0004    0.0065   -0.0047
          14   -0.0528   -0.0020    0.0028   -0.0242    0.0035    0.0007    0.0041   -0.0126
          15   -0.0023    0.0245   -0.0115    0.0007    0.0143   -0.0363    0.0010   -0.0015
          16    0.0784   -0.0019   -0.0035   -0.0200    0.0018   -0.0015    0.0015    0.0095
          17   -0.0043    0.0002   -0.0002    0.0075   -0.0012   -0.0000   -0.0009    0.0043
          18   -0.0015    0.0127   -0.0190   -0.0051   -0.0119    0.0075    0.0030    0.0012
          19   -0.0411   -0.0006    0.0016   -0.0042    0.0005    0.0001    0.0001   -0.0008
          20    0.0711   -0.0003   -0.0034    0.0044   -0.0012   -0.0008   -0.0006    0.0025
          21    0.0016   -0.0141    0.0033   -0.0018   -0.0109    0.0331   -0.0053   -0.0002
          22   -0.0322   -0.0029   -0.0060    0.0636   -0.0158   -0.0046   -0.0055   -0.0058
          23    0.0163   -0.0063   -0.0054   -0.0312   -0.0011   -0.0056    0.0044    0.0015
          24    0.0021   -0.0267   -0.0277   -0.0103   -0.0277   -0.0252    0.0011   -0.0009
          25    0.0031    0.0042    0.0081   -0.0110   -0.0106   -0.0060   -0.0704   -0.0030
          26    0.0070    0.0009    0.0044   -0.0094   -0.0048    0.0004    0.0361    0.0050
          27    0.0002    0.0129    0.0231   -0.0035   -0.0372   -0.0111    0.0184   -0.0005
          28    0.0067   -0.0016   -0.0045   -0.0166    0.0153    0.0051    0.0241    0.0035
          29    0.0005   -0.0004   -0.0010    0.0048    0.0057    0.0031   -0.0156   -0.0003
          30   -0.0025   -0.0018   -0.0119    0.0104    0.0398    0.0163   -0.0063    0.0003
          31    0.0883    0.0391   -0.0573    0.0171   -0.0409    0.0454    0.0076   -0.1831
          32    0.0103   -0.0005   -0.0005   -0.0082    0.0020    0.0015    0.0072   -0.0746
          33   -0.0036   -0.0104    0.0171    0.0000    0.0125   -0.0110    0.0023    0.0008
          34    0.0201    0.0124   -0.0045    0.0902   -0.0145    0.0008   -0.0299    0.2663
          35    0.0038   -0.0024   -0.0022   -0.0137    0.0006    0.0004    0.0055   -0.0637
          36    0.0017   -0.0116    0.0243    0.0066    0.0171   -0.0137    0.0014    0.0043
          37    0.0928   -0.0316    0.0581    0.0671    0.0410   -0.0400    0.0118   -0.1358
          38    0.0099   -0.0003    0.0014   -0.0090    0.0027    0.0018    0.0073   -0.0713
          39    0.0064   -0.0104    0.0153    0.0124    0.0100   -0.0113   -0.0003   -0.0015
          40   -0.0587   -0.0092    0.0033   -0.0986    0.0120    0.0004    0.0208   -0.0234
          41   -0.0275    0.0004    0.0018    0.0049   -0.0003    0.0009   -0.0049   -0.0015
          42    0.0158   -0.1382    0.0556   -0.0034   -0.0680    0.1621   -0.0072    0.0069
          43    0.0780   -0.0024   -0.0030   -0.0198    0.0020   -0.0018    0.0012    0.0105
          44   -0.0436    0.0054    0.0001    0.0817   -0.0119    0.0003   -0.0177    0.0244
          45    0.0070   -0.0846    0.1206    0.0317    0.0606   -0.0311   -0.0119   -0.0048
          46   -0.0116   -0.0041   -0.0009   -0.0278    0.0014   -0.0024    0.0016    0.0268
          47   -0.0321    0.0096    0.0048    0.0649   -0.0031    0.0055   -0.0017   -0.0556
          48   -0.0162    0.1392   -0.1066   -0.0238   -0.0689    0.1423   -0.0142    0.0040
          49   -0.0963   -0.0057    0.0016   -0.0346    0.0011   -0.0042   -0.0002    0.0539
          50    0.0432   -0.0030   -0.0034   -0.0100   -0.0013   -0.0027   -0.0010    0.0311
          51   -0.0089    0.0941   -0.0280    0.0089    0.0549   -0.1556    0.0222    0.0000
          52   -0.0226    0.0562    0.0492    0.0539    0.0316    0.0317   -0.0042   -0.0008
          53    0.0600    0.0040    0.0101   -0.0608    0.0123    0.0095    0.0587   -0.0094
          54    0.0300    0.1601    0.1465   -0.0387    0.1219    0.0886   -0.0016    0.0166
          55   -0.0079   -0.0196    0.0078    0.0232   -0.0667   -0.0082    0.2764    0.0151
          56    0.0249    0.0630    0.0938   -0.0646   -0.1065   -0.0395   -0.1636   -0.0048
          57   -0.0073   -0.0269   -0.0602    0.0204    0.1016    0.0281   -0.0641   -0.0049
          58    0.0020    0.0034   -0.0301    0.0365    0.0957    0.0448    0.2716    0.0218
          59    0.0004   -0.0719   -0.1038   -0.0050    0.1340    0.0332   -0.1706   -0.0018
          60   -0.0027   -0.0143   -0.0166   -0.0020    0.0123    0.0000   -0.0662   -0.0040


   Root No.      25        26        27        28        29        30        31        32

                25 A      26 A      27 A      28 A      29 A      30 A      31 A      32 A   

                 999.5    1029.3    1104.2    1115.3    1115.9    1156.5    1200.0    1216.7
  
           1    0.0007   -0.0015    0.0030   -0.0059   -0.0080   -0.0014    0.0091    0.0044
           2    0.0013   -0.0005   -0.0009   -0.0083   -0.0046    0.0013    0.0064   -0.0051
           3    0.0282   -0.0372    0.0000    0.0002   -0.0003   -0.0001   -0.0000   -0.0002
           4    0.0006   -0.0001   -0.0069    0.0076    0.0081   -0.0005   -0.0144   -0.0148
           5    0.0003   -0.0005    0.0030    0.0110    0.0052   -0.0080   -0.0151    0.0142
           6   -0.0240    0.0504   -0.0004   -0.0004    0.0001    0.0000    0.0004    0.0005
           7   -0.0002   -0.0003   -0.0067    0.0097    0.0013    0.0081   -0.0091    0.0172
           8    0.0001    0.0016    0.0074    0.0213    0.0042    0.0090   -0.0340   -0.0124
           9   -0.0075   -0.0216   -0.0004    0.0021   -0.0018   -0.0000   -0.0026   -0.0022
          10   -0.0004   -0.0002    0.0084   -0.0191   -0.0136   -0.0031    0.0093   -0.0114
          11   -0.0009   -0.0011    0.0069   -0.0116   -0.0199   -0.0037    0.0139    0.0134
          12   -0.0054   -0.0376   -0.0001    0.0002   -0.0001   -0.0001   -0.0000   -0.0001
          13   -0.0006    0.0011   -0.0033   -0.0108    0.0080    0.0004    0.0073    0.0181
          14   -0.0009    0.0006   -0.0114   -0.0299    0.0019    0.0031    0.0053   -0.0063
          15    0.0365    0.0198    0.0003   -0.0003    0.0003    0.0001    0.0008    0.0003
          16    0.0003    0.0005   -0.0198   -0.0036    0.0209   -0.0024   -0.0075   -0.0071
          17    0.0000   -0.0003   -0.0040   -0.0004    0.0059    0.0010    0.0097   -0.0138
          18   -0.0479   -0.0241   -0.0001    0.0001   -0.0003   -0.0001   -0.0001    0.0000
          19   -0.0002    0.0005   -0.0060   -0.0003    0.0050   -0.0041    0.0040   -0.0116
          20    0.0005   -0.0001    0.0201    0.0123   -0.0158    0.0013    0.0051   -0.0126
          21    0.0347    0.0298    0.0000   -0.0001    0.0001    0.0000    0.0000    0.0001
          22    0.0006    0.0004    0.0204   -0.0006    0.0182    0.0012   -0.0142   -0.0133
          23    0.0008    0.0027    0.0056    0.0003    0.0101    0.0032   -0.0215   -0.0103
          24    0.0033    0.0082   -0.0084   -0.0015   -0.0088   -0.0015    0.0084    0.0043
          25   -0.0021   -0.0010   -0.0049   -0.0013   -0.0061   -0.0013    0.0056    0.0016
          26    0.0012    0.0001   -0.0184    0.0018   -0.0211   -0.0026    0.0093    0.0031
          27    0.0012    0.0017    0.0044    0.0001    0.0051    0.0008   -0.0032   -0.0011
          28    0.0006    0.0003   -0.0108    0.0066   -0.0125    0.0001   -0.0076   -0.0037
          29   -0.0009   -0.0014    0.0033   -0.0034    0.0047    0.0003   -0.0039   -0.0043
          30   -0.0015   -0.0030    0.0031   -0.0015    0.0038   -0.0000    0.0028    0.0023
          31    0.1168   -0.1532    0.0106    0.0124   -0.0155   -0.0061    0.0091    0.0392
          32   -0.0028    0.0025    0.0053    0.0056   -0.0003    0.0002   -0.0051    0.0094
          33   -0.0321    0.0398    0.0013    0.0001    0.0061    0.0013   -0.0058   -0.0048
          34    0.0171   -0.0187    0.0166   -0.0612   -0.0147    0.0061    0.0631    0.0126
          35   -0.0004    0.0000   -0.0049    0.0139   -0.0029   -0.0013   -0.0154   -0.0061
          36   -0.0429    0.0525   -0.0005   -0.0002    0.0005    0.0005   -0.0005   -0.0004
          37   -0.1370    0.1708    0.0083    0.0066   -0.0163   -0.0047    0.0131    0.0370
          38   -0.0023    0.0009    0.0057    0.0049    0.0015   -0.0001   -0.0052    0.0084
          39   -0.0315    0.0390   -0.0016    0.0003   -0.0070   -0.0008    0.0052    0.0055
          40   -0.0034    0.0039    0.1238    0.1184   -0.0339    0.1317    0.1705   -0.1115
          41    0.0002   -0.0013   -0.0925   -0.1121    0.0297   -0.0772   -0.0966    0.0752
          42   -0.1426   -0.0526   -0.0011    0.0007   -0.0006   -0.0009   -0.0032   -0.0005
          43    0.0013    0.0010   -0.0233    0.0022    0.0262    0.0045   -0.0073   -0.0043
          44    0.0011   -0.0033   -0.1073    0.1801    0.1381    0.2725    0.0114    0.1110
          45    0.1838    0.0718    0.0004    0.0001    0.0002    0.0002    0.0001   -0.0002
          46    0.0006    0.0012    0.1429   -0.0651   -0.1619    0.1621   -0.1126    0.1188
          47   -0.0016   -0.0021   -0.0729    0.0162    0.0678   -0.1055    0.0888   -0.0647
          48    0.0065    0.1260   -0.0003    0.0003   -0.0000   -0.0002   -0.0001   -0.0004
          49    0.0002    0.0018    0.0831    0.1891    0.0215   -0.2488   -0.0119    0.1021
          50    0.0011    0.0008    0.0684    0.1153   -0.0075   -0.1289   -0.0020    0.0476
          51   -0.1324   -0.0901   -0.0002   -0.0004   -0.0003    0.0008    0.0002   -0.0004
          52   -0.0042   -0.0087    0.0240   -0.0002    0.0238    0.0024   -0.0168   -0.0131
          53   -0.0023   -0.0024    0.1544   -0.1423    0.2454    0.0072    0.1091    0.0945
          54   -0.0117   -0.0204   -0.0176    0.0162   -0.0232    0.0008   -0.0089   -0.0047
          55    0.0099    0.0032   -0.0284    0.0064   -0.0335   -0.0043    0.0305    0.0195
          56   -0.0036    0.0010   -0.0443   -0.0007   -0.0563   -0.0118    0.0963    0.0589
          57   -0.0036   -0.0026    0.0410   -0.0033    0.0521    0.0103   -0.0922   -0.0598
          58    0.0067    0.0011   -0.0400    0.0043   -0.0479   -0.0085    0.0706    0.0448
          59   -0.0074   -0.0085   -0.0522    0.0017   -0.0665   -0.0135    0.1137    0.0719
          60   -0.0022   -0.0015   -0.0036   -0.0003   -0.0061   -0.0021    0.0265    0.0188


   Root No.      33        34        35        36        37        38        39        40

                33 A      34 A      35 A      36 A      37 A      38 A      39 A      40 A   

                1288.0    1353.0    1389.9    1398.8    1401.1    1423.7    1502.9    1572.7
  
           1   -0.0063   -0.0208    0.0173    0.0197    0.0140    0.0625    0.0149    0.0377
           2   -0.0070    0.0056   -0.0281   -0.0214   -0.0061    0.0120    0.0064   -0.0067
           3   -0.0007    0.0015    0.0034    0.0099   -0.0350    0.0034    0.0001    0.0001
           4    0.0410   -0.0212   -0.0165   -0.0205   -0.0124   -0.0274   -0.0239   -0.0761
           5    0.0130    0.0144    0.0539   -0.0374   -0.0049    0.0019   -0.0435    0.0458
           6    0.0000   -0.0004    0.0001    0.0001   -0.0010    0.0001   -0.0003    0.0004
           7    0.0030   -0.0196   -0.0553    0.0216   -0.0026   -0.0268   -0.0123    0.0758
           8    0.0298    0.0321   -0.0160    0.0190    0.0044   -0.0055   -0.0087   -0.0192
           9   -0.0002    0.0013    0.0012   -0.0000    0.0002    0.0007    0.0023   -0.0009
          10    0.0061   -0.0210    0.0249   -0.0449   -0.0146   -0.0259    0.0393   -0.0268
          11   -0.0143   -0.0202   -0.0258    0.0205    0.0041    0.0126    0.0092   -0.0422
          12   -0.0001    0.0000   -0.0000    0.0001   -0.0001    0.0001   -0.0001   -0.0000
          13   -0.0200   -0.0090    0.0364   -0.0304   -0.0057    0.0006    0.0446   -0.0037
          14   -0.0140    0.0210   -0.0098    0.0356    0.0136    0.0295   -0.0082   -0.0557
          15    0.0002   -0.0001   -0.0002    0.0001   -0.0001   -0.0001   -0.0008   -0.0001
          16   -0.0021    0.0279    0.0183    0.0126    0.0095    0.0269   -0.0196   -0.0411
          17    0.0044    0.0069    0.0490   -0.0390   -0.0064   -0.0022   -0.0233    0.0636
          18    0.0000   -0.0001   -0.0002   -0.0000   -0.0000   -0.0001    0.0000    0.0002
          19   -0.0020    0.0152   -0.0363    0.0367    0.0082    0.0018   -0.0245    0.0782
          20    0.0132   -0.0231   -0.0389    0.0041   -0.0068   -0.0289    0.0207    0.0107
          21    0.0000   -0.0000    0.0002   -0.0001   -0.0001    0.0000    0.0000   -0.0002
          22    0.0174    0.0226    0.0065    0.0039    0.0033    0.0066    0.0160   -0.0153
          23   -0.0143    0.0052   -0.0014    0.0039    0.0014   -0.0002    0.0926    0.0345
          24   -0.0042   -0.0075   -0.0007   -0.0016   -0.0006   -0.0012   -0.0181   -0.0032
          25   -0.0088   -0.0119    0.0003   -0.0036   -0.0015   -0.0011   -0.0344   -0.0080
          26   -0.0195   -0.0247    0.0005   -0.0072   -0.0032   -0.0028   -0.0675   -0.0146
          27    0.0059    0.0077   -0.0002    0.0023    0.0010    0.0008    0.0216    0.0048
          28   -0.0087   -0.0036   -0.0008    0.0007   -0.0000   -0.0010    0.0056    0.0039
          29   -0.0109   -0.0061    0.0005   -0.0015   -0.0005    0.0004    0.0065    0.0024
          30    0.0046    0.0019   -0.0002    0.0000   -0.0001    0.0001   -0.0031   -0.0012
          31   -0.0850    0.1218   -0.0489   -0.1010    0.0822   -0.1094   -0.0233   -0.0046
          32    0.0063   -0.0222    0.1293    0.0848    0.2274   -0.1387   -0.0082   -0.0129
          33    0.0378   -0.0723    0.1257    0.1195    0.1131   -0.0313    0.0058    0.0105
          34   -0.1061    0.0842    0.0316    0.0985    0.0229   -0.1888    0.0142   -0.0452
          35    0.0299   -0.0320   -0.0141   -0.0306   -0.0344    0.0936    0.0046    0.0222
          36    0.0035   -0.0088   -0.0522   -0.1180    0.3407   -0.0188    0.0004   -0.0002
          37   -0.0863    0.1223   -0.0230   -0.0238   -0.1429   -0.0917   -0.0207   -0.0066
          38    0.0107   -0.0271    0.1976    0.2223   -0.1172   -0.1138   -0.0070   -0.0092
          39   -0.0359    0.0656   -0.1124   -0.1220   -0.0192    0.0056   -0.0063   -0.0126
          40   -0.0382    0.0368    0.0429    0.0191    0.0179    0.0572   -0.0350   -0.0476
          41   -0.0049   -0.0044   -0.0123    0.0077    0.0005   -0.0011    0.0438   -0.0398
          42   -0.0000    0.0001    0.0003   -0.0002   -0.0003   -0.0001    0.0016    0.0006
          43   -0.0044    0.0307    0.0197    0.0158    0.0112    0.0317   -0.0204   -0.0531
          44   -0.0407   -0.0416   -0.0014   -0.0104   -0.0052   -0.0020    0.0669   -0.0852
          45   -0.0000    0.0000    0.0006   -0.0005    0.0000   -0.0000    0.0004    0.0001
          46    0.0120    0.0077    0.0242   -0.0036    0.0051    0.0423   -0.0387   -0.0496
          47   -0.0176   -0.0428   -0.0274   -0.0069   -0.0092   -0.0296    0.0614   -0.0401
          48    0.0000   -0.0000   -0.0005    0.0001    0.0009    0.0000    0.0003   -0.0000
          49   -0.0478    0.0121    0.0155    0.0308    0.0176    0.0553   -0.0052   -0.0782
          50   -0.0100   -0.0298   -0.0145   -0.0014   -0.0036   -0.0052    0.0373   -0.0783
          51    0.0001   -0.0001   -0.0004    0.0001    0.0000   -0.0001    0.0002    0.0002
          52    0.0204    0.0247    0.0025    0.0050    0.0018    0.0071    0.0213   -0.0130
          53    0.0531   -0.0347   -0.0636   -0.0055   -0.0129   -0.0099   -0.0926    0.0110
          54   -0.0072   -0.0029   -0.0017   -0.0016   -0.0051    0.0014    0.0026    0.0041
          55    0.0260    0.0097   -0.0007    0.0017    0.0009   -0.0005   -0.0056   -0.0016
          56    0.0909    0.0442    0.0000    0.0076    0.0033    0.0027    0.0287    0.0023
          57   -0.1130   -0.0684    0.0009   -0.0148   -0.0066   -0.0046   -0.0918   -0.0172
          58    0.0775    0.0431   -0.0001    0.0084    0.0034    0.0034    0.0453    0.0057
          59    0.1165    0.0604   -0.0006    0.0114    0.0051    0.0029    0.0536    0.0090
          60    0.0473    0.0350   -0.0006    0.0085    0.0038    0.0027    0.0661    0.0142


   Root No.      41        42        43        44        45        46        47        48

                41 A      42 A      43 A      44 A      45 A      46 A      47 A      48 A   

                1651.8    1781.3    1802.0    2249.5    3016.2    3045.6    3048.1    3063.0
  
           1    0.0309   -0.0121    0.0133    0.0002   -0.0004   -0.0001   -0.0000    0.0000
           2    0.0036   -0.0080   -0.0043    0.0000    0.0018   -0.0004   -0.0026   -0.0024
           3    0.0001   -0.0001    0.0000    0.0000    0.0023   -0.0000   -0.0006   -0.0018
           4   -0.0817    0.0526   -0.0659   -0.0010   -0.0002    0.0003   -0.0012   -0.0004
           5   -0.0074    0.1163    0.0787    0.0057    0.0004    0.0004    0.0014    0.0006
           6   -0.0000    0.0001    0.0006   -0.0001    0.0000    0.0000    0.0000   -0.0000
           7   -0.0427   -0.0865    0.0929   -0.0018   -0.0006    0.0017   -0.0004    0.0006
           8    0.1015   -0.1009   -0.0333    0.0054   -0.0007   -0.0001    0.0006   -0.0001
           9   -0.0003    0.0012   -0.0010   -0.0002    0.0001   -0.0000    0.0000   -0.0000
          10    0.0448   -0.0379    0.1217    0.0017    0.0001   -0.0044   -0.0243   -0.0074
          11   -0.0469   -0.0344   -0.0746   -0.0019    0.0001   -0.0073   -0.0408   -0.0103
          12   -0.0001    0.0000   -0.0004    0.0001    0.0000   -0.0000   -0.0000   -0.0000
          13    0.0564    0.0254   -0.1190   -0.0018    0.0015   -0.0256    0.0056   -0.0047
          14   -0.0114    0.0408    0.0804    0.0003    0.0008   -0.0409    0.0088   -0.0095
          15    0.0001   -0.0004    0.0004    0.0004    0.0001    0.0002   -0.0000    0.0000
          16   -0.0286   -0.0310    0.0412    0.0004   -0.0002    0.0158    0.0000   -0.0268
          17   -0.0527   -0.1118   -0.0773   -0.0012   -0.0000    0.0013   -0.0008    0.0022
          18    0.0001    0.0000   -0.0001    0.0001    0.0000   -0.0001   -0.0000    0.0001
          19    0.0203    0.0963   -0.0781   -0.0003    0.0000   -0.0026   -0.0067    0.0137
          20    0.0503    0.0770    0.0096    0.0005    0.0001    0.0048    0.0163   -0.0225
          21   -0.0001   -0.0003    0.0002   -0.0000    0.0000    0.0000    0.0000   -0.0000
          22    0.0109    0.0025   -0.0095   -0.0552   -0.0699   -0.0013    0.0002   -0.0004
          23   -0.0692    0.0212    0.0128   -0.1424   -0.0027   -0.0001   -0.0001    0.0000
          24    0.0061   -0.0018    0.0000    0.0390    0.0226    0.0004   -0.0000    0.0001
          25    0.0158   -0.0035   -0.0009   -0.0626   -0.0006   -0.0001    0.0000   -0.0000
          26    0.0307   -0.0072   -0.0013   -0.1263   -0.0007   -0.0000   -0.0000   -0.0000
          27   -0.0098    0.0022    0.0005    0.0401    0.0003    0.0000    0.0000    0.0000
          28   -0.0065    0.0001    0.0014    0.1336    0.0030    0.0000    0.0000   -0.0000
          29   -0.0122    0.0055   -0.0005    0.2686    0.0064    0.0004   -0.0001    0.0001
          30    0.0039   -0.0012    0.0001   -0.0851   -0.0020   -0.0001    0.0000   -0.0000
          31   -0.0060    0.0198    0.0108    0.0005   -0.0007   -0.0004   -0.0015    0.0008
          32   -0.0111    0.0105   -0.0026    0.0006    0.0018    0.0004    0.0015   -0.0024
          33    0.0033   -0.0014   -0.0013   -0.0004   -0.0002   -0.0008   -0.0042    0.0008
          34    0.0006   -0.0360   -0.0301   -0.0008   -0.0042    0.0017    0.0106    0.0087
          35    0.0131    0.0047    0.0126    0.0009   -0.0093    0.0033    0.0220    0.0205
          36    0.0008    0.0004   -0.0002   -0.0000    0.0005    0.0003    0.0016    0.0008
          37   -0.0064    0.0149    0.0086    0.0007    0.0114   -0.0002   -0.0039   -0.0082
          38   -0.0107    0.0094   -0.0022    0.0007   -0.0125    0.0001    0.0037    0.0089
          39   -0.0047    0.0018    0.0003    0.0005   -0.0281    0.0006    0.0100    0.0202
          40   -0.0603    0.0361    0.0547   -0.0001   -0.0087    0.2920   -0.0630    0.0598
          41    0.0679    0.0429   -0.0250   -0.0036   -0.0152    0.4650   -0.1008    0.0992
          42   -0.0004    0.0003   -0.0003   -0.0007   -0.0001   -0.0016    0.0003   -0.0003
          43   -0.0309   -0.0320    0.0522    0.0006    0.0019   -0.1915    0.0026    0.3084
          44    0.0499    0.0438    0.0279   -0.0001    0.0001    0.0025    0.0019   -0.0109
          45    0.0001    0.0003   -0.0003   -0.0001   -0.0000    0.0008   -0.0000   -0.0013
          46   -0.0825   -0.0177   -0.0497   -0.0008   -0.0007    0.0498    0.2796    0.0738
          47    0.0249   -0.0553    0.0303   -0.0008   -0.0013    0.0831    0.4648    0.1185
          48    0.0002   -0.0000   -0.0002    0.0000   -0.0000    0.0001    0.0004    0.0001
          49   -0.0538   -0.0544   -0.0029   -0.0006    0.0004    0.0299    0.0968   -0.1448
          50    0.0182    0.0014    0.0594    0.0008   -0.0007   -0.0547   -0.1880    0.2657
          51    0.0001    0.0003    0.0001   -0.0001   -0.0000   -0.0001   -0.0003    0.0005
          52    0.0089   -0.0009   -0.0074   -0.1009    0.8044    0.0111   -0.0008    0.0032
          53    0.0235   -0.0380    0.0170    0.0108   -0.0294   -0.0001    0.0000    0.0000
          54   -0.0016   -0.0012   -0.0009    0.0330   -0.2528   -0.0035    0.0003   -0.0010
          55    0.0074   -0.0034    0.0003   -0.0606    0.0003   -0.0000    0.0001    0.0001
          56   -0.0007   -0.0005   -0.0006   -0.0712   -0.0003   -0.0003    0.0002    0.0000
          57    0.0302   -0.0060   -0.0019   -0.0825    0.0002   -0.0002    0.0002    0.0000
          58   -0.0110    0.0034   -0.0006    0.0049   -0.0007    0.0001   -0.0000    0.0000
          59   -0.0102    0.0003    0.0014   -0.0403    0.0002   -0.0002    0.0001    0.0000
          60   -0.0274    0.0060    0.0020    0.1181   -0.0000    0.0003   -0.0004   -0.0002


   Root No.      49        50        51        52        53        54

                49 A      50 A      51 A      52 A      53 A      54 A   

                3065.5    3071.3    3077.4    3117.4    3122.5    3166.7
  
           1    0.0005   -0.0000   -0.0000    0.0000    0.0000   -0.0247
           2   -0.0195   -0.0487   -0.0016    0.0000    0.0000   -0.0015
           3   -0.0435    0.0219    0.0002   -0.0000    0.0000   -0.0014
           4    0.0003    0.0003    0.0007   -0.0000   -0.0000   -0.0005
           5   -0.0002   -0.0003   -0.0005   -0.0001    0.0000   -0.0000
           6   -0.0001    0.0000   -0.0000    0.0000    0.0000    0.0000
           7    0.0001    0.0003    0.0007   -0.0001   -0.0000    0.0002
           8   -0.0001    0.0000   -0.0004    0.0003    0.0000    0.0001
           9   -0.0000    0.0000   -0.0000   -0.0000   -0.0000   -0.0000
          10    0.0008    0.0004    0.0066   -0.0001   -0.0000    0.0004
          11    0.0018    0.0018    0.0084   -0.0001   -0.0000    0.0003
          12   -0.0001    0.0001    0.0000    0.0000   -0.0000   -0.0000
          13    0.0003    0.0003   -0.0040    0.0001    0.0000   -0.0000
          14    0.0007    0.0007   -0.0089    0.0000   -0.0000    0.0000
          15   -0.0000    0.0000    0.0000   -0.0000   -0.0000    0.0000
          16    0.0022    0.0023   -0.0310    0.0001   -0.0000    0.0000
          17   -0.0001   -0.0000    0.0000    0.0000    0.0000   -0.0000
          18   -0.0000   -0.0000    0.0001    0.0000   -0.0000    0.0000
          19   -0.0006    0.0003   -0.0137    0.0001   -0.0000   -0.0001
          20    0.0009   -0.0008    0.0273   -0.0001    0.0000    0.0000
          21   -0.0000    0.0000    0.0000    0.0000    0.0000   -0.0000
          22   -0.0016   -0.0004   -0.0002    0.0003   -0.0001    0.0005
          23   -0.0000    0.0001    0.0000    0.0006   -0.0000   -0.0000
          24    0.0005    0.0001    0.0000   -0.0002   -0.0002   -0.0002
          25   -0.0000   -0.0000    0.0000    0.0211   -0.0192    0.0000
          26   -0.0000    0.0000    0.0001    0.0414   -0.0080    0.0000
          27   -0.0000   -0.0000   -0.0000   -0.0110   -0.0615   -0.0000
          28    0.0001   -0.0000    0.0000   -0.0036   -0.0003   -0.0000
          29    0.0001   -0.0000    0.0001   -0.0074   -0.0003   -0.0000
          30   -0.0000    0.0000   -0.0000    0.0024   -0.0003    0.0000
          31    0.0758   -0.1487   -0.0039    0.0000   -0.0000    0.0987
          32   -0.1301    0.2112    0.0053    0.0000    0.0000   -0.1744
          33    0.1517   -0.3324   -0.0088    0.0001   -0.0000    0.2522
          34    0.0723    0.1542    0.0048   -0.0001   -0.0000    0.1089
          35    0.1809    0.3845    0.0129   -0.0003   -0.0001    0.3173
          36   -0.0079    0.0428    0.0011   -0.0000   -0.0000    0.0239
          37   -0.1559   -0.0058   -0.0020    0.0001    0.0000    0.0902
          38    0.1809   -0.0180    0.0016   -0.0000   -0.0000   -0.1241
          39    0.3780    0.0262    0.0052   -0.0002   -0.0001   -0.2591
          40   -0.0041   -0.0041    0.0504   -0.0006   -0.0000   -0.0002
          41   -0.0069   -0.0068    0.0843   -0.0006   -0.0000   -0.0003
          42    0.0000    0.0000   -0.0003   -0.0000   -0.0000    0.0000
          43   -0.0253   -0.0258    0.3385   -0.0013    0.0002   -0.0004
          44    0.0008    0.0007   -0.0081    0.0000   -0.0000    0.0000
          45    0.0002    0.0001   -0.0014    0.0000    0.0000   -0.0000
          46   -0.0124   -0.0122   -0.0583    0.0005    0.0000   -0.0037
          47   -0.0190   -0.0172   -0.0927    0.0009    0.0001   -0.0046
          48    0.0001   -0.0001   -0.0001   -0.0000    0.0000   -0.0000
          49    0.0058   -0.0043    0.1560   -0.0007    0.0000    0.0002
          50   -0.0103    0.0087   -0.2950    0.0014   -0.0001   -0.0002
          51    0.0000   -0.0000   -0.0005    0.0000    0.0000    0.0000
          52    0.0191    0.0050    0.0010    0.0019    0.0001   -0.0064
          53    0.0005    0.0012    0.0001   -0.0000   -0.0000   -0.0008
          54   -0.0063   -0.0010   -0.0003   -0.0005   -0.0001    0.0019
          55   -0.0001   -0.0000   -0.0007   -0.2335    0.2215    0.0000
          56   -0.0000   -0.0001   -0.0008   -0.2734    0.2671   -0.0000
          57   -0.0000   -0.0001   -0.0009   -0.3233    0.2864   -0.0000
          58    0.0000   -0.0000    0.0001    0.0206    0.0111    0.0000
          59   -0.0001   -0.0001   -0.0004   -0.1408   -0.1680   -0.0000
          60    0.0002    0.0002    0.0011    0.4284    0.4532    0.0001


           MASS-WEIGHTED COORDINATE ANALYSIS (NORMAL COORDINATES)


   Root No.       1         2         3         4         5         6         7         8

                 1 A       2 A       3 A       4 A       5 A       6 A       7 A       8 A   

                  53.4     118.1     148.6     164.1     247.7     300.4     365.5     400.4
  
           1   -0.0241   -0.0562    0.0229    0.0086    0.0071    0.1017    0.0210   -0.1609
           2   -0.1237   -0.1836    0.0654   -0.0072   -0.0042    0.5400    0.1378    0.2722
           3    0.1120    0.2007    0.2024    0.3350   -0.1874    0.0242    0.0196    0.0074
           4   -0.0233   -0.0572    0.0230    0.0107    0.0085    0.0961    0.0221   -0.1496
           5   -0.0444   -0.0291    0.0042   -0.0020    0.0024    0.0372    0.0051   -0.2287
           6    0.0309    0.0227   -0.0107   -0.0613    0.3244    0.0022   -0.0128   -0.0432
           7   -0.0705   -0.1682    0.0648    0.0384    0.0166    0.1364    0.0316   -0.1577
           8   -0.0132    0.0329   -0.0164   -0.0142    0.0017   -0.0109   -0.0026   -0.2371
           9   -0.2474    0.1042    0.0088   -0.0770    0.3154   -0.0063   -0.0088   -0.0721
          10    0.0251    0.0707   -0.0275   -0.0243   -0.0084    0.0147   -0.0011    0.0697
          11   -0.0191    0.0383   -0.0209   -0.0206   -0.0062    0.0117   -0.0009   -0.1138
          12    0.2523   -0.2063   -0.1996   -0.2152    0.3145   -0.0099   -0.0225    0.0524
          13   -0.0668   -0.1575    0.0609    0.0373    0.0153    0.1303    0.0302   -0.1660
          14    0.0302    0.1662   -0.0701   -0.0592   -0.0214    0.0323    0.0074    0.0902
          15   -0.3254    0.2119    0.1986    0.1617    0.3232   -0.0095   -0.0421    0.0454
          16   -0.0196   -0.0351    0.0135    0.0038   -0.0020    0.0760    0.0140    0.0319
          17    0.0562    0.2399   -0.1000   -0.0806   -0.0321   -0.0081   -0.0050    0.2377
          18   -0.1114    0.0565    0.1519    0.2322   -0.2850    0.0074   -0.0174   -0.0059
          19    0.0259    0.0732   -0.0279   -0.0253   -0.0111    0.0270    0.0031    0.1125
          20    0.0290    0.1710   -0.0738   -0.0622   -0.0258    0.0163    0.0010    0.1863
          21    0.1871   -0.2252   -0.1547   -0.0788   -0.2987   -0.0022    0.0072   -0.0235
          22   -0.0986   -0.2053    0.0629    0.0543   -0.0020   -0.2271   -0.1036    0.1505
          23   -0.0274    0.0206   -0.0193   -0.0039   -0.0041   -0.2124   -0.0818   -0.1372
          24   -0.4039   -0.0467   -0.1863   -0.2949   -0.2000   -0.0510   -0.1854   -0.0301
          25    0.1958    0.4506   -0.1711   -0.1132   -0.0405   -0.0145   -0.0660   -0.1254
          26    0.0915   -0.3153    0.1703    0.1928    0.0906   -0.3047   -0.1020    0.0119
          27    0.4340   -0.0745    0.0438    0.0535    0.0266    0.1340   -0.1303    0.0428
          28    0.0361    0.0072    0.0184    0.0416    0.0410   -0.3944    0.1111    0.4677
          29    0.0302   -0.0855    0.0293    0.0404   -0.0161   -0.1862    0.0514   -0.2995
          30   -0.0103   -0.0490   -0.1002   -0.1779   -0.1758   -0.1465    0.6055   -0.0250
          31   -0.0302   -0.0639   -0.0080   -0.0903    0.0980    0.0856    0.0102    0.0146
          32   -0.1005   -0.0961   -0.3350    0.2839    0.0460    0.2182    0.0643    0.1371
          33   -0.0013    0.0511   -0.1781    0.3379   -0.0682    0.0212    0.0195    0.0118
[...]
 EFF. MASS   3.2512

 VIBRATION   33   33A         ATOM PAIR      ENERGY CONTRIBUTION    RADIAL
 FREQ.      1287.99         C  1 -- C  2         +11.3% ( 42.9%)     84.8%
 T-DIPOLE    0.0552         C  9 -- H 20         +10.1% ( 40.6%)      2.4%
 TRAVEL      0.0962         C  9 -- H 19         +10.1% ( 40.6%)      2.4%
 RED. MASS   0.4964         C  2 -- C  4         +10.0% ( 40.3%)      2.5%
 EFF. MASS   5.6513

 VIBRATION   34   34A         ATOM PAIR      ENERGY CONTRIBUTION    RADIAL
 FREQ.      1353.01         C  3 -- C  8          +9.0% ( 41.0%)     72.8%
 T-DIPOLE    0.1360         C  4 -- C  7          +7.6% ( 37.6%)     99.8%
 TRAVEL      0.0829         C  2 -- C  3          +7.6% ( 37.6%)     79.1%
 RED. MASS   0.4693         C  6 -- C  7          +7.1% ( 36.4%)     97.7%
 EFF. MASS   7.2433

 VIBRATION   35   35A         ATOM PAIR      ENERGY CONTRIBUTION    RADIAL
 FREQ.      1389.88         C  6 -- C  7         +13.4% ( 55.3%)    100.0%
 T-DIPOLE    0.0661         C  2 -- C  3         +11.7% ( 51.6%)     99.8%
 TRAVEL      0.0769         C  3 -- C  5         +10.8% ( 49.6%)     98.8%
 RED. MASS   0.8956         C  2 -- C  4         +10.2% ( 48.3%)     99.9%
 EFF. MASS   8.2053

 VIBRATION   36   36A         ATOM PAIR      ENERGY CONTRIBUTION    RADIAL
 FREQ.      1398.84         C  5 -- C  6         +12.4% ( 48.6%)     99.9%
 T-DIPOLE    0.1260         C  4 -- C  7         +11.8% ( 47.3%)     97.3%
 TRAVEL      0.0846         C  1 -- H 13         +10.1% ( 43.9%)      0.4%
 RED. MASS   0.6035         C  2 -- C  4          +9.9% ( 43.4%)     98.9%
 EFF. MASS   6.7338

 VIBRATION   37   37A         ATOM PAIR      ENERGY CONTRIBUTION    RADIAL
 FREQ.      1401.11         C  1 -- H 12         +41.1% ( 59.2%)      0.1%
 T-DIPOLE    0.0707         C  1 -- H 11         +25.8% ( 46.9%)      3.1%
 TRAVEL      0.1509         C  1 -- H 13         +13.2% ( 33.5%)     23.8%
 RED. MASS   0.3778         C  1 -- C  2          +6.1% ( 22.8%)     37.6%
 EFF. MASS   2.1145

 VIBRATION   38   38A         ATOM PAIR      ENERGY CONTRIBUTION    RADIAL
 FREQ.      1423.71         C  1 -- H 12         +18.0% ( 55.6%)      6.7%
 T-DIPOLE    0.1499         C  1 -- H 11         +15.4% ( 51.4%)      2.2%
 TRAVEL      0.0860         C  1 -- C  2         +13.9% ( 48.8%)     98.6%
 RED. MASS   0.8288         C  1 -- H 13         +13.3% ( 47.8%)      1.5%
 EFF. MASS   6.4022

 VIBRATION   39   39A         ATOM PAIR      ENERGY CONTRIBUTION    RADIAL
 FREQ.      1502.86         C  8 -- H 18         +14.2% ( 59.3%)      0.9%
 T-DIPOLE    0.3296         C  3 -- C  8         +13.5% ( 57.7%)     51.4%
 TRAVEL      0.0646         C  8 -- C 10         +11.5% ( 53.3%)     87.3%
 RED. MASS   2.1519         C  9 -- C 10         +10.7% ( 51.5%)     99.9%
 EFF. MASS  10.7602

 VIBRATION   40   40A         ATOM PAIR      ENERGY CONTRIBUTION    RADIAL
 FREQ.      1572.67         C  2 -- C  3         +13.6% ( 55.3%)      2.2%
 T-DIPOLE    0.5737         C  5 -- C  6         +10.8% ( 49.3%)     96.4%
 TRAVEL      0.0613         C  2 -- C  4         +10.2% ( 48.0%)    100.0%
 RED. MASS   1.6216         C  6 -- C  7         +10.1% ( 47.8%)      1.9%
 EFF. MASS  11.4115

 VIBRATION   41   41A         ATOM PAIR      ENERGY CONTRIBUTION    RADIAL
 FREQ.      1651.79         C  3 -- C  8         +16.3% ( 60.0%)     96.8%
 T-DIPOLE    0.5183         C  2 -- C  3         +14.8% ( 57.2%)     95.7%
 TRAVEL      0.0597         C  3 -- C  5         +13.2% ( 54.0%)     47.6%
 RED. MASS   1.7967         C  2 -- C  4          +9.5% ( 45.7%)     52.3%
 EFF. MASS  11.4720

 VIBRATION   42   42A         ATOM PAIR      ENERGY CONTRIBUTION    RADIAL
 FREQ.      1781.30         C  2 -- C  3         +19.9% ( 62.3%)    100.0%
 T-DIPOLE    0.2261         C  6 -- C  7         +16.4% ( 56.6%)     99.8%
 TRAVEL      0.0565         C  3 -- C  5          +9.5% ( 43.1%)     34.4%
 RED. MASS   2.4808         C  4 -- C  7          +9.0% ( 42.0%)     56.0%
 EFF. MASS  11.8654

 VIBRATION   43   43A         ATOM PAIR      ENERGY CONTRIBUTION    RADIAL
 FREQ.      1802.02         C  2 -- C  4         +15.5% ( 55.2%)     86.3%
 T-DIPOLE    0.3119         C  3 -- C  5         +15.2% ( 54.5%)     81.0%
 TRAVEL      0.0562         C  5 -- C  6         +14.1% ( 52.7%)     91.4%
 RED. MASS   2.3229         C  4 -- C  7         +13.1% ( 50.7%)     87.2%
 EFF. MASS  11.8457

 VIBRATION   44   44A         ATOM PAIR      ENERGY CONTRIBUTION    RADIAL
 FREQ.      2249.49         C  8 -- C 10         +42.3% ( 85.5%)     99.8%
 T-DIPOLE    0.7228         C  9 -- C 10         +41.7% ( 84.9%)    100.0%
 TRAVEL      0.0503         C  3 -- C  8          +4.4% ( 27.5%)     43.1%
 RED. MASS   5.8369         C  8 -- H 18          +4.3% ( 27.3%)      3.9%
 EFF. MASS  11.8598

 VIBRATION   45   45A         ATOM PAIR      ENERGY CONTRIBUTION    RADIAL
 FREQ.      3016.20         C  8 -- H 18         +96.8% ( 99.8%)    100.0%
 T-DIPOLE    0.3515         C  8 -- C 10          +1.5% ( 12.6%)     36.4%
 TRAVEL      0.1213         C  3 -- C  8          +1.4% ( 11.9%)     17.3%
 RED. MASS   0.9248         C  1 -- H 13          +0.2% (  4.0%)     99.5%
 EFF. MASS   1.5189

 VIBRATION   46   46A         ATOM PAIR      ENERGY CONTRIBUTION    RADIAL
 FREQ.      3045.57         C  5 -- H 14         +83.2% ( 92.7%)    100.0%
 T-DIPOLE    0.2837         C  6 -- H 15         +10.1% ( 32.4%)     99.9%
 TRAVEL      0.1210         C  4 -- H 16          +2.6% ( 16.4%)    100.0%
 RED. MASS   0.6961         C  5 -- C  6          +1.4% ( 11.9%)      8.7%
 EFF. MASS   1.5123

 VIBRATION   47   47A         ATOM PAIR      ENERGY CONTRIBUTION    RADIAL
 FREQ.      3048.10         C  4 -- H 16         +80.7% ( 91.3%)    100.0%
 T-DIPOLE    0.2085         C  7 -- H 17         +12.3% ( 35.6%)     99.9%
 TRAVEL      0.1211         C  5 -- H 14          +3.9% ( 20.0%)    100.0%
 RED. MASS   0.6605         C  4 -- C  7          +1.4% ( 11.8%)      6.9%
 EFF. MASS   1.5095

 VIBRATION   48   48A         ATOM PAIR      ENERGY CONTRIBUTION    RADIAL
 FREQ.      3063.00         C  6 -- H 15         +41.8% ( 65.7%)    100.0%
 T-DIPOLE    0.4147         C  7 -- H 17         +40.2% ( 64.4%)    100.0%
 TRAVEL      0.1205         C  4 -- H 16          +8.5% ( 29.7%)     99.9%
 RED. MASS   0.3431         C  5 -- H 14          +5.9% ( 24.6%)     99.9%
 EFF. MASS   1.5172

 VIBRATION   49   49A         ATOM PAIR      ENERGY CONTRIBUTION    RADIAL
 FREQ.      3065.51         C  1 -- H 13         +68.2% ( 85.2%)     98.9%
 T-DIPOLE    0.0492         C  1 -- H 11         +16.4% ( 41.8%)     84.6%
 TRAVEL      0.1210         C  1 -- H 12         +13.8% ( 38.3%)     81.5%
 RED. MASS   0.5387         C  1 -- C  2          +1.0% ( 10.2%)      0.0%
 EFF. MASS   1.5024

 VIBRATION   50   50A         ATOM PAIR      ENERGY CONTRIBUTION    RADIAL
 FREQ.      3071.33         C  1 -- H 11         +49.1% ( 72.4%)     96.9%
 T-DIPOLE    0.0678         C  1 -- H 12         +48.4% ( 71.8%)     97.1%
 TRAVEL      0.1206         C  1 -- H 13          +1.1% ( 10.6%)      1.7%
 RED. MASS   0.5061         C  1 -- C  2          +1.0% ( 10.5%)      0.0%
 EFF. MASS   1.5108

 VIBRATION   51   51A         ATOM PAIR      ENERGY CONTRIBUTION    RADIAL
 FREQ.      3077.43         C  6 -- H 15         +44.6% ( 67.7%)    100.0%
 T-DIPOLE    0.4458         C  7 -- H 17         +43.3% ( 66.7%)    100.0%
 TRAVEL      0.1175         C  4 -- H 16          +4.7% ( 21.9%)     99.8%
 RED. MASS   0.3899         C  5 -- H 14          +3.8% ( 19.7%)     99.8%
 EFF. MASS   1.5861

 VIBRATION   52   52A         ATOM PAIR      ENERGY CONTRIBUTION    RADIAL
 FREQ.      3117.40         C  9 -- H 19         +52.5% ( 72.6%)     95.8%
 T-DIPOLE    0.3999         C  9 -- H 20         +45.6% ( 67.6%)     94.4%
 TRAVEL      0.1237         C  9 -- C 10          +1.8% ( 13.3%)     99.8%
 RED. MASS   0.4880
 EFF. MASS   1.4133

 VIBRATION   53   53A         ATOM PAIR      ENERGY CONTRIBUTION    RADIAL
 FREQ.      3122.54         C  9 -- H 20         +52.7% ( 74.3%)     97.5%
 T-DIPOLE    0.2492         C  9 -- H 19         +46.1% ( 69.5%)     96.7%
 TRAVEL      0.1164         C  9 -- C 10          +1.2% ( 11.2%)      0.1%
 RED. MASS   0.5354
 EFF. MASS   1.5945

 VIBRATION   54   54A         ATOM PAIR      ENERGY CONTRIBUTION    RADIAL
 FREQ.      3166.73         C  1 -- H 12         +36.9% ( 58.5%)     97.6%
 T-DIPOLE    0.0797         C  1 -- H 11         +33.7% ( 55.9%)     97.2%
 TRAVEL      0.1367         C  1 -- H 13         +29.1% ( 51.9%)     96.4%
 RED. MASS   0.3294         C  1 -- C  2          +0.3% (  5.3%)     99.3%
 EFF. MASS   1.1399

      SYMMETRY NUMBER FOR POINT-GROUP C1  =  1


          SYSTEM IS A GROUND STATE



 InChI=1S/C10H10/c1-3-6-10-8-5-4-7-9(10)2/h4-8H,1H2,2H3


          MOLECULE IS NOT LINEAR

          THERE ARE 54 GENUINE VIBRATIONS IN THIS SYSTEM
          THIS THERMODYNAMICS CALCULATION IS LIMITED TO
          MOLECULES WHICH HAVE NO INTERNAL ROTATIONS




                    CALCULATED THERMODYNAMIC PROPERTIES
                                          *
   TEMP. (K)   PARTITION FUNCTION   H.O.F.    ENTHALPY  HEAT CAPACITY ENTROPY
                                   KCAL/MOL   CAL/MOLE    CAL/K/MOL  CAL/K/MOL


 298.00  VIB.     0.1977D+03                  4051.6685    29.5967    24.1023
         ROT.     0.6787D+06                   888.2813     2.9808    29.6650
         INT.     0.1342D+09                  4939.9498    32.5775    53.7673
         TRA.     0.1436D+28                  1480.4688     4.9680    40.5022
         TOT.                       62.785    6420.4187    37.5455    94.2694

 200.00  VIB.     0.2244D+02                  1697.4751    18.5466    14.6691
         ROT.     0.3732D+06                   596.1620     2.9808    28.4763
         INT.     0.8373D+07                  2293.6370    21.5275    43.1454
         TRA.     0.7896D+27                   993.6033     4.9680    38.5210
         TOT.                       59.652    3287.2403    26.4955    81.6664

 210.00  VIB.     0.2781D+02                  1888.3771    19.6360    15.6003
         ROT.     0.4015D+06                   625.9700     2.9808    28.6217
         INT.     0.1116D+08                  2514.3471    22.6168    44.2220
         TRA.     0.8496D+27                  1043.2834     4.9680    38.7634
         TOT.                       59.922    3557.6305    27.5849    82.9855

 220.00  VIB.     0.3453D+02                  2090.2399    20.7386    16.5392
         ROT.     0.4305D+06                   655.7781     2.9808    28.7604
         INT.     0.1486D+08                  2746.0180    23.7194    45.2996
         TRA.     0.9110D+27                  1092.9636     4.9680    38.9945
         TOT.                       60.204    3838.9816    28.6875    84.2941

 230.00  VIB.     0.4294D+02                  2303.1892    21.8531    17.4856
         ROT.     0.4602D+06                   685.5862     2.9808    28.8929
         INT.     0.1976D+08                  2988.7755    24.8339    46.3785
         TRA.     0.9738D+27                  1142.6437     4.9680    39.2154
         TOT.                       60.496    4131.4192    29.8019    85.5939

 240.00  VIB.     0.5351D+02                  2527.3359    22.9778    18.4394
         ROT.     0.4906D+06                   715.3943     2.9808    29.0198
         INT.     0.2625D+08                  3242.7303    25.9586    47.4591
         TRA.     0.1038D+28                  1192.3239     4.9680    39.4268
         TOT.                       60.800    4435.0542    30.9266    86.8859

 250.00  VIB.     0.6679D+02                  2762.7728    24.1108    19.4003
         ROT.     0.5215D+06                   745.2024     2.9808    29.1415
         INT.     0.3483D+08                  3507.9753    27.0916    48.5418
         TRA.     0.1103D+28                  1242.0041     4.9680    39.6296
         TOT.                       61.115    4749.9793    32.0596    88.1714

 260.00  VIB.     0.8349D+02                  3009.5726    25.2500    20.3681
         ROT.     0.5531D+06                   775.0105     2.9808    29.2584
         INT.     0.4618D+08                  3784.5831    28.2308    49.6265
         TRA.     0.1170D+28                  1291.6842     4.9680    39.8245
         TOT.                       61.441    5076.2673    33.1988    89.4510

 270.00  VIB.     0.1045D+03                  3267.7863    26.3932    21.3425
         ROT.     0.5854D+06                   804.8186     2.9808    29.3709
         INT.     0.6119D+08                  4072.6050    29.3740    50.7134
         TRA.     0.1239D+28                  1341.3644     4.9680    40.0120
         TOT.                       61.779    5413.9694    34.3421    90.7253

 280.00  VIB.     0.1311D+03                  3537.4430    27.5382    22.3231
         ROT.     0.6182D+06                   834.6267     2.9808    29.4793
         INT.     0.8103D+08                  4372.0697    30.5190    51.8023
         TRA.     0.1308D+28                  1391.0445     4.9680    40.1926
         TOT.                       62.128    5763.1143    35.4870    91.9950

 290.00  VIB.     0.1646D+03                  3818.5492    28.6828    23.3094
         ROT.     0.6516D+06                   864.4348     2.9808    29.5839
         INT.     0.1073D+09                  4682.9841    31.6636    52.8932
         TRA.     0.1379D+28                  1440.7247     4.9680    40.3670
         TOT.                       62.488    6123.7088    36.6316    93.2602

 300.00  VIB.     0.2070D+03                  4111.0900    29.8248    24.3010
         ROT.     0.6856D+06                   894.2429     2.9808    29.6849
         INT.     0.1419D+09                  5005.3329    32.8056    53.9859
         TRA.     0.1451D+28                  1490.4049     4.9680    40.5354
         TOT.                       62.860    6495.7378    37.7736    94.5213

 310.00  VIB.     0.2607D+03                  4415.0294    30.9622    25.2975
         ROT.     0.7201D+06                   924.0510     2.9808    29.7827
         INT.     0.1877D+09                  5339.0804    33.9430    55.0802
         TRA.     0.1524D+28                  1540.0850     4.9680    40.6983
         TOT.                       63.244    6879.1654    38.9110    95.7785

 320.00  VIB.     0.3287D+03                  4730.3118    32.0931    26.2984
         ROT.     0.7553D+06                   953.8591     2.9808    29.8773
         INT.     0.2483D+09                  5684.1709    35.0739    56.1757
         TRA.     0.1598D+28                  1589.7652     4.9680    40.8560
         TOT.                       63.639    7273.9361    40.0419    97.0317

 330.00  VIB.     0.4150D+03                  5056.8635    33.2157    27.3032
         ROT.     0.7909D+06                   983.6672     2.9808    29.9690
         INT.     0.3282D+09                  6040.5307    36.1966    57.2722
         TRA.     0.1674D+28                  1639.4454     4.9680    41.0089
         TOT.                       64.045    7679.9761    41.1646    98.2811

 340.00  VIB.     0.5245D+03                  5394.5940    34.3286    28.3113
         ROT.     0.8272D+06                  1013.4753     2.9808    30.0580
         INT.     0.4339D+09                  6408.0693    37.3094    58.3693
         TRA.     0.1750D+28                  1689.1255     4.9680    41.1572
         TOT.                       64.462    8097.1948    42.2774    99.5265

 350.00  VIB.     0.6637D+03                  5743.3978    35.4302    29.3223
         ROT.     0.8639D+06                  1043.2834     2.9808    30.1444
         INT.     0.5734D+09                  6786.6812    38.4110    59.4668
         TRA.     0.1828D+28                  1738.8057     4.9680    41.3012
         TOT.                       64.890    8525.4869    43.3790   100.7680

 360.00  VIB.     0.8408D+03                  6103.1562    36.5193    30.3357
         ROT.     0.9012D+06                  1073.0915     2.9808    30.2284
         INT.     0.7577D+09                  7176.2477    39.5001    60.5641
         TRA.     0.1907D+28                  1788.4859     4.9680    41.4412
         TOT.                       65.329    8964.7336    44.4681   102.0053

 370.00  VIB.     0.1066D+04                  6473.7386    37.5948    31.3510
         ROT.     0.9390D+06                  1102.8996     2.9808    30.3101
         INT.     0.1001D+10                  7576.6382    40.5756    61.6611
         TRA.     0.1987D+28                  1838.1660     4.9680    41.5773
         TOT.                       65.780    9414.8042    45.5437   103.2384

 380.00  VIB.     0.1353D+04                  6855.0044    38.6558    32.3677
         ROT.     0.9773D+06                  1132.7077     2.9808    30.3896
         INT.     0.1323D+10                  7987.7121    41.6367    62.7573
         TRA.     0.2068D+28                  1887.8462     4.9680    41.7098
         TOT.                       66.240    9875.5583    46.6047   104.4671

 390.00  VIB.     0.1719D+04                  7246.8046    39.7016    33.3854
         ROT.     0.1016D+07                  1162.5158     2.9808    30.4670
         INT.     0.1747D+10                  8409.3204    42.6824    63.8524
         TRA.     0.2150D+28                  1937.5263     4.9680    41.8388
         TOT.                       66.712   10346.8468    47.6504   105.6912

 400.00  VIB.     0.2186D+04                  7648.9830    40.7314    34.4036
         ROT.     0.1056D+07                  1192.3239     2.9808    30.5424
         INT.     0.2307D+10                  8841.3069    43.7122    64.9460
         TRA.     0.2233D+28                  1987.2065     4.9680    41.9646
         TOT.                       67.193   10828.5134    48.6802   106.9106

   *: NOTE: HEATS OF FORMATION ARE RELATIVE TO THE
            ELEMENTS IN THEIR STANDARD STATE AT 298K
              (=  Standard Enthalpy of Formation).

            Hvib:  Zero-point energy is not included.
                   frequencies of less than zero cm-1 are not included.
            Hrot = (3/2)RT
            Htra = (3/2)RT + pV = (5/2)RT

            Heat capacity is Cp, not Cv

          For more information, see: HTTP://OpenMOPAC.net/Manual/thermochemistry.html


           FORCE CONSTANT IN CARTESIAN COORDINATES (Millidynes/A)

    ATOM   CHEMICAL       X               Y               Z
   NUMBER   SYMBOL  FORCE CONSTANT  FORCE CONSTANT  FORCE CONSTANT

      1       C        8.920886        8.526052        7.948116
      2       C       12.264742       12.276616        2.773349
      3       C       12.520311       12.710192        2.601896
      4       C       12.596311       11.919700        2.323248
      5       C       12.066562       12.412597        2.334637
      6       C       12.142113       12.230081        2.312178
      7       C       12.241091       12.202588        2.322195
      8       C        9.834411       14.248331        3.313273
      9       C        5.076152       12.447129        8.715851
     10       C        5.986169       18.759710        3.385613
     11       H        1.219489        2.001991        3.469515
     12       H        1.341517        4.744616        0.677910
     13       H        1.197171        1.429026        4.021801
     14       H        1.998422        3.888352        0.357306
     15       H        5.163201        0.761615        0.354837
     16       H        1.937109        3.948711        0.352957
     17       H        1.737399        4.187625        0.354089
     18       H        4.578052        0.745075        0.745379
     19       H        1.519686        2.132713        2.616497
     20       H        0.390757        1.063927        4.811847

 **********************
 *                    *
 * JOB ENDED NORMALLY *
 *                    *
 **********************



 TOTAL JOB TIME:             8.64 SECONDS

 == MOPAC DONE ==
