 *******************************************************************************
 ** Site#: 14399        For non-commercial use only    Version 18.184L 64BITS **
 *******************************************************************************
 ** Cite this program as: MOPAC2016, Version: 18.184L, James J. P. Stewart,   **
 ** Stewart Computational Chemistry, web: HTTP://OpenMOPAC.net. Days left:  20**
 *******************************************************************************
 **                                                                           **
 **                                MOPAC2016                                  **
 **                                                                           **
 *******************************************************************************

                              PM3 CALCULATION RESULTS

 *******************************************************************************
 *  CALCULATION DONE:                                Thu Jun 13 21:07:30 2019  *
 *  PM3        - The PM3 Hamiltonian to be used
 *  PRECISE    - CRITERIA TO BE INCREASED BY 100 TIMES
 *  NOSYM      - POINT-GROUP SYMMETRY SET TO C1
 *  THREADS=1  - MULTI-THREADING NOT USED
 *  T=         - A TIME OF 172800.0 SECONDS REQUESTED
 *  DUMP=N     - RESTART FILE WRITTEN EVERY  7200.000 SECONDS
 *******************************************************************************
pm3  precise nosym THREADS=1
 InChI=1S/C7H10/c1-3-7-5-4-6(7)2/h3,6-7H,1,5H2,2H3/lp4

   ATOM   CHEMICAL          X               Y               Z
  NUMBER   SYMBOL      (ANGSTROMS)     (ANGSTROMS)     (ANGSTROMS)
 
     1       C          0.22200000  *   0.31240000  *   0.19640000  *
     2       C         -0.97080000  *  -0.30520000  *  -0.53610000  *
     3       C         -0.24780000  *   1.69970000  *  -0.23090000  *
     4       C         -1.97070000  *  -0.99660000  *   0.39060000  *
     5       C          1.54740000  *  -0.07240000  *  -0.41470000  *
     6       C          2.54830000  *  -0.54620000  *   0.33130000  *
     7       C         -1.43920000  *   1.08290000  *  -0.94830000  *
     8       H          0.18400000  *   0.18410000  *   1.30290000  *
     9       H         -0.69990000  *  -0.92720000  *  -1.41820000  *
    10       H          0.43250000  *   2.22110000  *  -0.93950000  *
    11       H         -0.56880000  *   2.32530000  *   0.62940000  *
    12       H         -1.51480000  *  -1.92000000  *   0.80550000  *
    13       H         -2.26740000  *  -0.33170000  *   1.23080000  *
    14       H         -2.87930000  *  -1.27580000  *  -0.18340000  *
    15       H          1.69420000  *   0.03500000  *  -1.48630000  *
    16       H          2.43950000  *  -0.66930000  *   1.40450000  *
    17       H          3.49060000  *  -0.81620000  *  -0.13420000  *
 


          CARTESIAN COORDINATES 

    NO.       ATOM           X           Y           Z

     1         C          0.2220      0.3124      0.1964
     2         C         -0.9708     -0.3052     -0.5361
     3         C         -0.2478      1.6997     -0.2309
     4         C         -1.9707     -0.9966      0.3906
     5         C          1.5474     -0.0724     -0.4147
     6         C          2.5483     -0.5462      0.3313
     7         C         -1.4392      1.0829     -0.9483
     8         H          0.1840      0.1841      1.3029
     9         H         -0.6999     -0.9272     -1.4182
    10         H          0.4325      2.2211     -0.9395
    11         H         -0.5688      2.3253      0.6294
    12         H         -1.5148     -1.9200      0.8055
    13         H         -2.2674     -0.3317      1.2308
    14         H         -2.8793     -1.2758     -0.1834
    15         H          1.6942      0.0350     -1.4863
    16         H          2.4395     -0.6693      1.4045
    17         H          3.4906     -0.8162     -0.1342

  H: (PM3): J. J. P. STEWART, J. COMP. CHEM. 10, 209 (1989).
  C: (PM3): J. J. P. STEWART, J. COMP. CHEM. 10, 209 (1989).

           Empirical Formula: C7 H10  =    17 atoms



      MOLECULAR POINT GROUP   :   C1  


      RHF CALCULATION, NO. OF DOUBLY OCCUPIED LEVELS = 19


          Geometry optimization using EF

          DIAGONAL MATRIX USED AS START HESSIAN

 CYCLE:     1 TIME:   0.023 TIME LEFT:  2.00D  GRAD.:    77.943 HEAT:  108.9327
 CYCLE:     2 TIME:   0.047 TIME LEFT:  2.00D  GRAD.:    55.434 HEAT:  107.3337
 CYCLE:     3 TIME:   0.031 TIME LEFT:  2.00D  GRAD.:    46.324 HEAT:  106.8121
 CYCLE:     4 TIME:   0.023 TIME LEFT:  2.00D  GRAD.:    25.035 HEAT:  106.2622
 CYCLE:     5 TIME:   0.023 TIME LEFT:  2.00D  GRAD.:    39.467 HEAT:  106.1867
 CYCLE:     6 TIME:   0.023 TIME LEFT:  2.00D  GRAD.:    39.187 HEAT:  105.9637
 CYCLE:     7 TIME:   0.031 TIME LEFT:  2.00D  GRAD.:    16.378 HEAT:  105.5675
 CYCLE:     8 TIME:   0.031 TIME LEFT:  2.00D  GRAD.:    15.299 HEAT:  105.5132
 CYCLE:     9 TIME:   0.023 TIME LEFT:  2.00D  GRAD.:    14.296 HEAT:  105.4686
 CYCLE:    10 TIME:   0.023 TIME LEFT:  2.00D  GRAD.:    13.000 HEAT:  105.4266
 CYCLE:    11 TIME:   0.031 TIME LEFT:  2.00D  GRAD.:     7.174 HEAT:  105.3814
 CYCLE:    12 TIME:   0.031 TIME LEFT:  2.00D  GRAD.:     8.612 HEAT:  105.3691
 CYCLE:    13 TIME:   0.023 TIME LEFT:  2.00D  GRAD.:     8.856 HEAT:  105.3521
 CYCLE:    14 TIME:   0.016 TIME LEFT:  2.00D  GRAD.:     9.476 HEAT:  105.3417
 CYCLE:    15 TIME:   0.031 TIME LEFT:  2.00D  GRAD.:     6.660 HEAT:  105.3191
 CYCLE:    16 TIME:   0.023 TIME LEFT:  2.00D  GRAD.:     5.162 HEAT:  105.3071
 CYCLE:    17 TIME:   0.031 TIME LEFT:  2.00D  GRAD.:     2.252 HEAT:  105.2932
 CYCLE:    18 TIME:   0.023 TIME LEFT:  2.00D  GRAD.:     3.220 HEAT:  105.2830
 CYCLE:    19 TIME:   0.023 TIME LEFT:  2.00D  GRAD.:     4.153 HEAT:  105.2692
 CYCLE:    20 TIME:   0.023 TIME LEFT:  2.00D  GRAD.:     6.416 HEAT:  105.2668
 CYCLE:    21 TIME:   0.023 TIME LEFT:  2.00D  GRAD.:     2.295 HEAT:  105.2498
 CYCLE:    22 TIME:   0.023 TIME LEFT:  2.00D  GRAD.:     3.147 HEAT:  105.2440
 CYCLE:    23 TIME:   0.023 TIME LEFT:  2.00D  GRAD.:     3.764 HEAT:  105.2375
 CYCLE:    24 TIME:   0.023 TIME LEFT:  2.00D  GRAD.:     2.927 HEAT:  105.2313
 CYCLE:    25 TIME:   0.023 TIME LEFT:  2.00D  GRAD.:     2.081 HEAT:  105.2269
 CYCLE:    26 TIME:   0.023 TIME LEFT:  2.00D  GRAD.:     2.853 HEAT:  105.2222
 CYCLE:    27 TIME:   0.023 TIME LEFT:  2.00D  GRAD.:     2.438 HEAT:  105.2163
 CYCLE:    28 TIME:   0.023 TIME LEFT:  2.00D  GRAD.:     2.079 HEAT:  105.2078
 CYCLE:    29 TIME:   0.023 TIME LEFT:  2.00D  GRAD.:     1.868 HEAT:  105.2038
 CYCLE:    30 TIME:   0.023 TIME LEFT:  2.00D  GRAD.:     1.625 HEAT:  105.1991
 CYCLE:    31 TIME:   0.023 TIME LEFT:  2.00D  GRAD.:     1.240 HEAT:  105.1951
 CYCLE:    32 TIME:   0.023 TIME LEFT:  2.00D  GRAD.:     1.042 HEAT:  105.1931
 CYCLE:    33 TIME:   0.023 TIME LEFT:  2.00D  GRAD.:     1.189 HEAT:  105.1904
 CYCLE:    34 TIME:   0.023 TIME LEFT:  2.00D  GRAD.:     1.350 HEAT:  105.1874
 CYCLE:    35 TIME:   0.023 TIME LEFT:  2.00D  GRAD.:     1.382 HEAT:  105.1836
 CYCLE:    36 TIME:   0.023 TIME LEFT:  2.00D  GRAD.:     1.188 HEAT:  105.1798
 CYCLE:    37 TIME:   0.023 TIME LEFT:  2.00D  GRAD.:     1.049 HEAT:  105.1763
 CYCLE:    38 TIME:   0.016 TIME LEFT:  2.00D  GRAD.:     0.895 HEAT:  105.1736
 CYCLE:    39 TIME:   0.023 TIME LEFT:  2.00D  GRAD.:     0.636 HEAT:  105.1720
 CYCLE:    40 TIME:   0.023 TIME LEFT:  2.00D  GRAD.:     0.506 HEAT:  105.1712
 CYCLE:    41 TIME:   0.023 TIME LEFT:  2.00D  GRAD.:     0.491 HEAT:  105.1705
 CYCLE:    42 TIME:   0.023 TIME LEFT:  2.00D  GRAD.:     0.481 HEAT:  105.1699
 CYCLE:    43 TIME:   0.023 TIME LEFT:  2.00D  GRAD.:     0.404 HEAT:  105.1694
 CYCLE:    44 TIME:   0.023 TIME LEFT:  2.00D  GRAD.:     0.243 HEAT:  105.1692
 CYCLE:    45 TIME:   0.023 TIME LEFT:  2.00D  GRAD.:     0.187 HEAT:  105.1691
 CYCLE:    46 TIME:   0.023 TIME LEFT:  2.00D  GRAD.:     0.182 HEAT:  105.1690
 CYCLE:    47 TIME:   0.023 TIME LEFT:  2.00D  GRAD.:     0.198 HEAT:  105.1689
 CYCLE:    48 TIME:   0.023 TIME LEFT:  2.00D  GRAD.:     0.212 HEAT:  105.1688
 CYCLE:    49 TIME:   0.016 TIME LEFT:  2.00D  GRAD.:     0.216 HEAT:  105.1687
 CYCLE:    50 TIME:   0.023 TIME LEFT:  2.00D  GRAD.:     0.218 HEAT:  105.1686
 CYCLE:    51 TIME:   0.023 TIME LEFT:  2.00D  GRAD.:     0.278 HEAT:  105.1684
 CYCLE:    52 TIME:   0.023 TIME LEFT:  2.00D  GRAD.:     0.275 HEAT:  105.1683
 CYCLE:    53 TIME:   0.023 TIME LEFT:  2.00D  GRAD.:     0.249 HEAT:  105.1681
 CYCLE:    54 TIME:   0.023 TIME LEFT:  2.00D  GRAD.:     0.208 HEAT:  105.1680
 CYCLE:    55 TIME:   0.023 TIME LEFT:  2.00D  GRAD.:     0.544 HEAT:  105.1680
 CYCLE:    56 TIME:   0.023 TIME LEFT:  2.00D  GRAD.:     0.257 HEAT:  105.1677
 CYCLE:    57 TIME:   0.023 TIME LEFT:  2.00D  GRAD.:     0.184 HEAT:  105.1676
 CYCLE:    58 TIME:   0.023 TIME LEFT:  2.00D  GRAD.:     0.381 HEAT:  105.1674
 CYCLE:    59 TIME:   0.023 TIME LEFT:  2.00D  GRAD.:     0.209 HEAT:  105.1672
 CYCLE:    60 TIME:   0.016 TIME LEFT:  2.00D  GRAD.:     0.157 HEAT:  105.1671
 CYCLE:    61 TIME:   0.023 TIME LEFT:  2.00D  GRAD.:     0.123 HEAT:  105.1670
 CYCLE:    62 TIME:   0.023 TIME LEFT:  2.00D  GRAD.:     0.118 HEAT:  105.1670
 CYCLE:    63 TIME:   0.031 TIME LEFT:  2.00D  GRAD.:     0.210 HEAT:  105.1669
 CYCLE:    64 TIME:   0.023 TIME LEFT:  2.00D  GRAD.:     0.131 HEAT:  105.1669
 CYCLE:    65 TIME:   0.023 TIME LEFT:  2.00D  GRAD.:     0.090 HEAT:  105.1668
 CYCLE:    66 TIME:   0.031 TIME LEFT:  2.00D  GRAD.:     0.085 HEAT:  105.1668
 CYCLE:    67 TIME:   0.023 TIME LEFT:  2.00D  GRAD.:     0.098 HEAT:  105.1667
 CYCLE:    68 TIME:   0.023 TIME LEFT:  2.00D  GRAD.:     0.107 HEAT:  105.1667
 CYCLE:    69 TIME:   0.023 TIME LEFT:  2.00D  GRAD.:     0.081 HEAT:  105.1666
 CYCLE:    70 TIME:   0.023 TIME LEFT:  2.00D  GRAD.:     0.063 HEAT:  105.1666
 CYCLE:    71 TIME:   0.023 TIME LEFT:  2.00D  GRAD.:     0.039 HEAT:  105.1666

     GRADIENT =  0.03866  IS LESS THAN CUTOFF =  0.05000



 -------------------------------------------------------------------------------
 pm3  precise nosym THREADS=1
 InChI=1S/C7H10/c1-3-7-5-4-6(7)2/h3,6-7H,1,5H2,2H3/lp4



     GEOMETRY OPTIMISED USING EIGENVECTOR FOLLOWING (EF).     
     SCF FIELD WAS ACHIEVED                                   


                              PM3 CALCULATION
                                                       MOPAC2016 (Version: 18.184L)
                                                       Thu Jun 13 21:07:32 2019
                                                       No. of days remaining =  20




          FINAL HEAT OF FORMATION =        105.16663 KCAL/MOL =     440.01717 KJ/MOL


          TOTAL ENERGY            =       -979.24924 EV
          ELECTRONIC ENERGY       =      -4482.73585 EV  POINT GROUP:     C1  
          CORE-CORE REPULSION     =       3503.48661 EV
          COSMO AREA              =        151.78 SQUARE ANGSTROMS
          COSMO VOLUME            =        146.11 CUBIC ANGSTROMS

          GRADIENT NORM           =          0.03866 = 0.00938 PER ATOM
          IONIZATION POTENTIAL    =          9.192969 EV
          HOMO LUMO ENERGIES (EV) =         -9.193 -0.584
          NO. OF FILLED LEVELS    =         19
          MOLECULAR WEIGHT        =         94.1560

          MOLECULAR DIMENSIONS (Angstroms)

            Atom       Atom       Distance
            H    17    H    14     6.38742
            H    12    H    10     4.46131
            H    11    H     9     3.05377


          SCF CALCULATIONS        =         79
 
          WALL-CLOCK TIME         =          1.773 SECONDS
          COMPUTATION TIME        =          0.709 SECONDS




   ATOM   CHEMICAL          X               Y               Z
  NUMBER   SYMBOL      (ANGSTROMS)     (ANGSTROMS)     (ANGSTROMS)
 
     1       C          0.25171847  *   0.33543085  *   0.19338155  *
     2       C         -1.00530150  *  -0.27311553  *  -0.51274230  *
     3       C         -0.25587896  *   1.72323563  *  -0.28852715  *
     4       C         -1.95044968  *  -1.04515750  *   0.36527041  *
     5       C          1.55062112  *  -0.08538936  *  -0.38246229  *
     6       C          2.54367461  *  -0.56851618  *   0.35511575  *
     7       C         -1.47789178  *   1.10949585  *  -0.89249198  *
     8       H          0.23676646  *   0.21493206  *   1.29727284  *
     9       H         -0.74738021  *  -0.85919343  *  -1.42306968  *
    10       H          0.38621935  *   2.24077550  *  -1.02064704  *
    11       H         -0.48162390  *   2.44995018  *   0.50866282  *
    12       H         -1.50139927  *  -1.99316193  *   0.68738860  *
    13       H         -2.21668938  *  -0.48253132  *   1.26990594  *
    14       H         -2.88115634  *  -1.27447910  *  -0.16892643  *
    15       H          1.65356646  *   0.02324189  *  -1.46955939  *
    16       H          2.48210540  *  -0.69204005  *   1.43322106  *
    17       H          3.49310111  *  -0.87601224  *  -0.07274293  *

                             CARTESIAN COORDINATES

   1    C        0.251718471     0.335430846     0.193381553
   2    C       -1.005301505    -0.273115533    -0.512742300
   3    C       -0.255878956     1.723235629    -0.288527148
   4    C       -1.950449683    -1.045157499     0.365270411
   5    C        1.550621116    -0.085389357    -0.382462295
   6    C        2.543674612    -0.568516176     0.355115752
   7    C       -1.477891778     1.109495847    -0.892491979
   8    H        0.236766457     0.214932056     1.297272839
   9    H       -0.747380213    -0.859193429    -1.423069677
  10    H        0.386219346     2.240775498    -1.020647039
  11    H       -0.481623896     2.449950180     0.508662820
  12    H       -1.501399266    -1.993161932     0.687388600
  13    H       -2.216689381    -0.482531320     1.269905941
  14    H       -2.881156344    -1.274479099    -0.168926427
  15    H        1.653566460     0.023241890    -1.469559391
  16    H        2.482105399    -0.692040047     1.433221057
  17    H        3.493101113    -0.876012237    -0.072742934


           Empirical Formula: C7 H10  =    17 atoms



      MOLECULAR POINT GROUP   :   C1  


                  EIGENVALUES  
 -40.61204 -32.76227 -29.94713 -23.65521 -22.77389 -20.09767 -17.59546 -16.58158
 -16.28266 -15.05105 -14.38170 -14.10962 -13.35867 -13.25424 -12.78945 -12.24208
 -11.74338 -10.39090  -9.19297  -0.58398   0.81869   2.90368   3.22736   3.34833
   3.43513   3.48011   3.78039   3.80266   3.91970   3.95294   4.13343   4.32767
   4.40056   4.70210   4.72798   4.97330   5.45680   5.65899


              NET ATOMIC CHARGES AND DIPOLE CONTRIBUTIONS

  ATOM NO.   TYPE          CHARGE      No. of ELECS.   s-Pop       p-Pop       
    1          C          -0.071950        4.0719     1.19080     2.88115
    2          C          -0.242499        4.2425     1.21432     3.02818
    3          C          -0.268421        4.2684     1.19839     3.07003
    4          C          -0.062496        4.0625     1.12734     2.93515
    5          C          -0.139013        4.1390     1.19269     2.94632
    6          C          -0.144972        4.1450     1.18296     2.96201
    7          C           0.123590        3.8764     1.73149     2.14492
    8          H           0.082330        0.9177     0.91767
    9          H           0.113483        0.8865     0.88652
   10          H           0.111139        0.8889     0.88886
   11          H           0.109136        0.8909     0.89086
   12          H           0.039003        0.9610     0.96100
   13          H           0.038012        0.9620     0.96199
   14          H           0.051024        0.9490     0.94898
   15          H           0.099458        0.9005     0.90054
   16          H           0.082064        0.9179     0.91794
   17          H           0.080112        0.9199     0.91989
 DIPOLE           X         Y         Z       TOTAL
 POINT-CHG.    -0.324     0.130    -0.116     0.368
 HYBRID         1.854    -0.720     0.945     2.202
 SUM            1.530    -0.590     0.829     1.837


          ATOMIC ORBITAL ELECTRON POPULATIONS

     Atom    s        px        py        pz   
    1  C   1.19080   0.93344   0.94789   0.99981
    2  C   1.21432   0.97531   1.04579   1.00708
    3  C   1.19839   1.05348   0.97823   1.03832
    4  C   1.12734   0.97640   0.98121   0.97754
    5  C   1.19269   0.95487   1.00157   0.98988
    6  C   1.18296   0.97701   0.98973   0.99527
    7  C   1.73149   0.90026   0.87919   0.36547
    8  H   0.91767
    9  H   0.88652
   10  H   0.88886
   11  H   0.89086
   12  H   0.96100
   13  H   0.96199
   14  H   0.94898
   15  H   0.90054
   16  H   0.91794
   17  H   0.91989
 *******************************************************************************
 ** Site#: 14399        For non-commercial use only    Version 18.184L 64BITS **
 *******************************************************************************
 ** Cite this program as: MOPAC2016, Version: 18.184L, James J. P. Stewart,   **
 ** Stewart Computational Chemistry, web: HTTP://OpenMOPAC.net. Days left:  20**
 *******************************************************************************
 **                                                                           **
 **                                MOPAC2016                                  **
 **                                                                           **
 *******************************************************************************

                              PM3 CALCULATION RESULTS

 *******************************************************************************
 *  CALCULATION DONE:                                Thu Jun 13 21:07:32 2019  *
 *  PM3        - The PM3 Hamiltonian to be used
 *  OLDGEO     - PREVIOUS GEOMETRY TO BE USED
 *  PRECISE    - CRITERIA TO BE INCREASED BY 100 TIMES
 *  NOSYM      - POINT-GROUP SYMMETRY SET TO C1
 *  THREADS=1  - MULTI-THREADING NOT USED
 *  T=         - A TIME OF 172800.0 SECONDS REQUESTED
 *  DUMP=N     - RESTART FILE WRITTEN EVERY  7200.000 SECONDS
 *  THERMO     - THERMODYNAMIC QUANTITIES TO BE CALCULATED
 *******************************************************************************
oldgeo thermo nosym precise THREADS=1  pm3
 InChI=1S/C7H10/c1-3-7-5-4-6(7)2/h3,6-7H,1,5H2,2H3/lp4

   ATOM   CHEMICAL          X               Y               Z
  NUMBER   SYMBOL      (ANGSTROMS)     (ANGSTROMS)     (ANGSTROMS)
 
     1       C          0.25171847  *   0.33543085  *   0.19338155  *
     2       C         -1.00530150  *  -0.27311553  *  -0.51274230  *
     3       C         -0.25587896  *   1.72323563  *  -0.28852715  *
     4       C         -1.95044968  *  -1.04515750  *   0.36527041  *
     5       C          1.55062112  *  -0.08538936  *  -0.38246229  *
     6       C          2.54367461  *  -0.56851618  *   0.35511575  *
     7       C         -1.47789178  *   1.10949585  *  -0.89249198  *
     8       H          0.23676646  *   0.21493206  *   1.29727284  *
     9       H         -0.74738021  *  -0.85919343  *  -1.42306968  *
    10       H          0.38621935  *   2.24077550  *  -1.02064704  *
    11       H         -0.48162390  *   2.44995018  *   0.50866282  *
    12       H         -1.50139927  *  -1.99316193  *   0.68738860  *
    13       H         -2.21668938  *  -0.48253132  *   1.26990594  *
    14       H         -2.88115634  *  -1.27447910  *  -0.16892643  *
    15       H          1.65356646  *   0.02324189  *  -1.46955939  *
    16       H          2.48210540  *  -0.69204005  *   1.43322106  *
    17       H          3.49310111  *  -0.87601224  *  -0.07274293  *
 


          CARTESIAN COORDINATES 

    NO.       ATOM           X           Y           Z

     1         C          0.2517      0.3354      0.1934
     2         C         -1.0053     -0.2731     -0.5127
     3         C         -0.2559      1.7232     -0.2885
     4         C         -1.9504     -1.0452      0.3653
     5         C          1.5506     -0.0854     -0.3825
     6         C          2.5437     -0.5685      0.3551
     7         C         -1.4779      1.1095     -0.8925
     8         H          0.2368      0.2149      1.2973
     9         H         -0.7474     -0.8592     -1.4231
    10         H          0.3862      2.2408     -1.0206
    11         H         -0.4816      2.4500      0.5087
    12         H         -1.5014     -1.9932      0.6874
    13         H         -2.2167     -0.4825      1.2699
    14         H         -2.8812     -1.2745     -0.1689
    15         H          1.6536      0.0232     -1.4696
    16         H          2.4821     -0.6920      1.4332
    17         H          3.4931     -0.8760     -0.0727

  H: (PM3): J. J. P. STEWART, J. COMP. CHEM. 10, 209 (1989).
  C: (PM3): J. J. P. STEWART, J. COMP. CHEM. 10, 209 (1989).

           Empirical Formula: C7 H10  =    17 atoms



      MOLECULAR POINT GROUP   :   C1  


      RHF CALCULATION, NO. OF DOUBLY OCCUPIED LEVELS = 19



          HEAT OF FORMATION =     105.166628 KCALS/MOLE


          CARTESIAN COORDINATE DERIVATIVES

   NUMBER  ATOM         X            Y            Z

     1       C      0.000130     0.001078    -0.002418
     2       C      0.002115     0.002920     0.005026
     3       C      0.000547     0.001541     0.013847
     4       C      0.007703     0.003041    -0.004346
     5       C     -0.002209    -0.003441    -0.002479
     6       C     -0.000756    -0.002800    -0.002817
     7       C     -0.001869     0.001145    -0.020859
     8       H      0.015097     0.000306    -0.008151
     9       H     -0.002467    -0.005557     0.004328
    10       H     -0.001720    -0.005700     0.000495
    11       H      0.003702     0.005114    -0.002134
    12       H     -0.006789     0.009954     0.008392
    13       H     -0.001447    -0.005556     0.010599
    14       H     -0.004585     0.003973    -0.005201
    15       H      0.008828    -0.004395    -0.005518
    16       H     -0.015936    -0.005257     0.009516
    17       H     -0.000344     0.003631     0.001720
 


          GRADIENT NORM =   0.04666


          TIME FOR SCF CALCULATION =    0.02

          TIME FOR DERIVATIVES     =    0.01

          MOLECULAR WEIGHT =   94.16



          ROTATIONAL CONSTANTS IN CM(-1)

          A =    0.14892465   B =    0.06669097   C =    0.05182395



           PRINCIPAL MOMENTS OF INERTIA IN UNITS OF 10**(-40)*GRAM-CM**2

          A =      187.9660   B =      419.7386   C =      540.1513


          ORIENTATION OF MOLECULE IN FORCE CALCULATION

    NO.       ATOM         X         Y         Z

     1          C      -0.4592    0.0030   -0.1469
     2          C       1.1058    0.0030   -0.1469
     3          C      -0.3737    1.5549   -0.1469
     4          C       1.7690   -0.6875   -1.3061
     5          C      -1.0790   -0.5852    1.0638
     6          C      -2.0216   -1.5191    1.0100
     7          C       1.1191    1.5111   -0.2144
     8          H      -0.8984   -0.4185   -1.0757
     9          H       1.5372   -0.3466    0.8177
    10          H      -0.7604    2.0563    0.7560
    11          H      -0.8347    2.0565   -1.0132
    12          H       1.6316   -1.7745   -1.2464
    13          H       1.3559   -0.3554   -2.2678
    14          H       2.8468   -0.4816   -1.3190
    15          H      -0.7135   -0.2043    2.0258
    16          H      -2.4106   -1.9228    0.0788
    17          H      -2.4716   -1.9470    1.9007


    FIRST DERIVATIVES WILL BE USED IN THE CALCULATION OF SECOND DERIVATIVES

          ESTIMATED TIME TO COMPLETE CALCULATION =        4.78 SECONDS

    FOR POINT-GROUP C1   THERE ARE   1 UNIQUE SYMMETRY FUNCTIONS.

 STEP:   1 TIME =     0.04 SECS, INTEGRAL =      0.04 TIME LEFT: 172799.94
 STEP:   2 TIME =     0.03 SECS, INTEGRAL =      0.07 TIME LEFT: 172799.91
 STEP:   3 TIME =     0.03 SECS, INTEGRAL =      0.10 TIME LEFT: 172799.88
 STEP:   4 TIME =     0.03 SECS, INTEGRAL =      0.13 TIME LEFT: 172799.84
 STEP:   5 TIME =     0.05 SECS, INTEGRAL =      0.18 TIME LEFT: 172799.80
 STEP:   6 TIME =     0.04 SECS, INTEGRAL =      0.22 TIME LEFT: 172799.76
 STEP:   7 TIME =     0.04 SECS, INTEGRAL =      0.26 TIME LEFT: 172799.72
 STEP:   8 TIME =     0.03 SECS, INTEGRAL =      0.29 TIME LEFT: 172799.69
 STEP:   9 TIME =     0.03 SECS, INTEGRAL =      0.32 TIME LEFT: 172799.66
 STEP:  10 TIME =     0.03 SECS, INTEGRAL =      0.35 TIME LEFT: 172799.62
 STEP:  11 TIME =     0.03 SECS, INTEGRAL =      0.38 TIME LEFT: 172799.59
 STEP:  12 TIME =     0.03 SECS, INTEGRAL =      0.41 TIME LEFT: 172799.56
 STEP:  13 TIME =     0.02 SECS, INTEGRAL =      0.44 TIME LEFT: 172799.54
 STEP:  14 TIME =     0.02 SECS, INTEGRAL =      0.46 TIME LEFT: 172799.52
 STEP:  15 TIME =     0.03 SECS, INTEGRAL =      0.49 TIME LEFT: 172799.48
 STEP:  16 TIME =     0.03 SECS, INTEGRAL =      0.52 TIME LEFT: 172799.45
 STEP:  17 TIME =     0.04 SECS, INTEGRAL =      0.56 TIME LEFT: 172799.41
 STEP:  18 TIME =     0.03 SECS, INTEGRAL =      0.59 TIME LEFT: 172799.38
 STEP:  19 TIME =     0.04 SECS, INTEGRAL =      0.63 TIME LEFT: 172799.34
 STEP:  20 TIME =     0.03 SECS, INTEGRAL =      0.66 TIME LEFT: 172799.31
 STEP:  21 TIME =     0.05 SECS, INTEGRAL =      0.71 TIME LEFT: 172799.27
 STEP:  22 TIME =     0.03 SECS, INTEGRAL =      0.74 TIME LEFT: 172799.23
 STEP:  23 TIME =     0.03 SECS, INTEGRAL =      0.77 TIME LEFT: 172799.20
 STEP:  24 TIME =     0.03 SECS, INTEGRAL =      0.80 TIME LEFT: 172799.17
 STEP:  25 TIME =     0.03 SECS, INTEGRAL =      0.84 TIME LEFT: 172799.14
 STEP:  26 TIME =     0.03 SECS, INTEGRAL =      0.87 TIME LEFT: 172799.11
 STEP:  27 TIME =     0.03 SECS, INTEGRAL =      0.90 TIME LEFT: 172799.08
 STEP:  28 TIME =     0.03 SECS, INTEGRAL =      0.93 TIME LEFT: 172799.05
 STEP:  29 TIME =     0.03 SECS, INTEGRAL =      0.96 TIME LEFT: 172799.02
 STEP:  30 TIME =     0.02 SECS, INTEGRAL =      0.98 TIME LEFT: 172798.99
 STEP:  31 TIME =     0.03 SECS, INTEGRAL =      1.02 TIME LEFT: 172798.96
 STEP:  32 TIME =     0.03 SECS, INTEGRAL =      1.05 TIME LEFT: 172798.93
 STEP:  33 TIME =     0.03 SECS, INTEGRAL =      1.08 TIME LEFT: 172798.90
 STEP:  34 TIME =     0.03 SECS, INTEGRAL =      1.11 TIME LEFT: 172798.87
 STEP:  35 TIME =     0.03 SECS, INTEGRAL =      1.14 TIME LEFT: 172798.84
 STEP:  36 TIME =     0.02 SECS, INTEGRAL =      1.16 TIME LEFT: 172798.81
 STEP:  37 TIME =     0.03 SECS, INTEGRAL =      1.20 TIME LEFT: 172798.78
 STEP:  38 TIME =     0.03 SECS, INTEGRAL =      1.23 TIME LEFT: 172798.75
 STEP:  39 TIME =     0.03 SECS, INTEGRAL =      1.26 TIME LEFT: 172798.72
 STEP:  40 TIME =     0.03 SECS, INTEGRAL =      1.29 TIME LEFT: 172798.69
 STEP:  41 TIME =     0.04 SECS, INTEGRAL =      1.33 TIME LEFT: 172798.65
 STEP:  42 TIME =     0.04 SECS, INTEGRAL =      1.37 TIME LEFT: 172798.61
 STEP:  43 TIME =     0.04 SECS, INTEGRAL =      1.41 TIME LEFT: 172798.57
 STEP:  44 TIME =     0.04 SECS, INTEGRAL =      1.45 TIME LEFT: 172798.53
 STEP:  45 TIME =     0.03 SECS, INTEGRAL =      1.48 TIME LEFT: 172798.50
 STEP:  46 TIME =     0.03 SECS, INTEGRAL =      1.51 TIME LEFT: 172798.47
 STEP:  47 TIME =     0.04 SECS, INTEGRAL =      1.55 TIME LEFT: 172798.43
 STEP:  48 TIME =     0.04 SECS, INTEGRAL =      1.59 TIME LEFT: 172798.39
 STEP:  49 TIME =     0.04 SECS, INTEGRAL =      1.62 TIME LEFT: 172798.35
 STEP:  50 TIME =     0.04 SECS, INTEGRAL =      1.66 TIME LEFT: 172798.31
 STEP:  51 TIME =     0.03 SECS, INTEGRAL =      1.70 TIME LEFT: 172798.28

(To convert to Hartree/Bohr^2, multiply by (10^(-21) x N x a0^2)/(4.184 x 627.51) =  0.0642)


           FORCE MATRIX IN MILLIDYNES/ANGSTROM


                  C  1       C  2       C  3       C  4       C  5       C  6
 ------------------------------------------------------------------------------
     C    1  14.706002
     C    2   2.898836  14.106178
     C    3   3.222136   2.077204  14.040937
     C    4   0.522196   4.611234   0.062337  14.449489
     C    5   5.121825   0.574870   0.585868   0.033197  18.333559
     C    6   0.868329   0.033974   0.035183   0.005405  11.065388  18.034407
     C    7   2.011006   4.202834   4.630130   0.521034   0.064279   0.005049
     H    8   4.430417   0.425334   0.418757   0.025640   0.444258   0.052024
     H    9   0.436142   4.353756   0.050220   0.434345   0.034157   0.003710
     H   10   0.442392   0.049845   4.613811   0.007941   0.025383   0.004042
     H   11   0.435177   0.051667   4.636981   0.014849   0.031078   0.004012
     H   12   0.011149   0.480720   0.011505   4.751131   0.002480   0.000432
     H   13   0.019637   0.455712   0.004271   4.728449   0.001351   0.000718
     H   14   0.047115   0.453387   0.006052   4.764487   0.006276   0.001187
     H   15   0.436302   0.014768   0.014688   0.001328   4.773833   0.455294
     H   16   0.101080   0.008890   0.008642   0.001676   0.490450   5.069280
     H   17   0.140677   0.018340   0.018150   0.002104   0.459315   5.106198


                  C  7       H  8       H  9       H 10       H 11       H 12
 ------------------------------------------------------------------------------
     C    7   8.794838
     H    8   0.041371   4.927683
     H    9   0.302520   0.027747   4.843356
     H   10   0.336583   0.029002   0.012530   5.247657
     H   11   0.346016   0.026391   0.007322   0.561527   5.263266
     H   12   0.037470   0.004131   0.026740   0.001698   0.002344   5.468200
     H   13   0.020781   0.019195   0.043210   0.000583   0.000851   0.573471
     H   14   0.019736   0.002632   0.030205   0.000545   0.001275   0.557206
     H   15   0.010782   0.036296   0.019603   0.016442   0.001786   0.000408
     H   16   0.001493   0.029585   0.001066   0.000951   0.001457   0.000209
     H   17   0.004173   0.002028   0.001035   0.001090   0.001963   0.000294


                  H 13       H 14       H 15       H 16       H 17
 ------------------------------------------------------------------
     H   13   5.454573
     H   14   0.566645   5.475942
     H   15   0.000450   0.000398   5.144795
     H   16   0.000178   0.000374   0.117681   5.461974
     H   17   0.000128   0.000348   0.079311   0.421948   5.490470


          HEAT OF FORMATION =     105.166628 KCALS/MOLE

          ZERO POINT ENERGY      90.987 KCAL/MOL


           NORMAL COORDINATE ANALYSIS (Total motion = 1 Angstrom)


   Root No.       1         2         3         4         5         6         7         8

                 1 A       2 A       3 A       4 A       5 A       6 A       7 A       8 A   

                  69.1     128.2     150.6     263.5     279.1     368.9     425.0     487.5
  
           1   -0.0178   -0.0037   -0.0055    0.0278    0.0012    0.0268   -0.0168    0.0034
           2    0.0321   -0.0128   -0.0010   -0.0126    0.0100   -0.0204    0.0000   -0.0128
           3   -0.0012   -0.0138   -0.0063    0.0439   -0.0128   -0.0178    0.0168   -0.0339
           4   -0.0175   -0.0031   -0.0049    0.0262   -0.0036    0.0253   -0.0236   -0.0089
           5   -0.0030   -0.0201   -0.0144    0.0075    0.0126    0.0169   -0.0233   -0.0216
           6    0.0038    0.0085    0.0004    0.0295    0.0101   -0.0185   -0.0265    0.0508
           7    0.0169    0.0031    0.0085    0.0065   -0.0077   -0.0205   -0.0257   -0.0083
           8    0.0297   -0.0131   -0.0014   -0.0132    0.0095   -0.0215   -0.0081   -0.0193
           9    0.0025   -0.0331   -0.0065   -0.0224   -0.0307    0.0282    0.0064    0.0029
          10   -0.0289    0.0016    0.0037   -0.0365   -0.0410   -0.0070    0.0247   -0.0304
          11   -0.0275    0.0347    0.0128    0.0144   -0.0235   -0.0289   -0.0131    0.0215
          12    0.0124   -0.0230   -0.0117   -0.0128    0.0128   -0.0116   -0.0087    0.0236
          13   -0.0251   -0.0111   -0.0128   -0.0130    0.0419   -0.0026    0.0258    0.0273
          14    0.0302    0.0210    0.0135    0.0015   -0.0190    0.0223    0.0324    0.0211
          15   -0.0060   -0.0004   -0.0025    0.0291   -0.0083   -0.0158    0.0531   -0.0202
          16    0.0567    0.0068    0.0008   -0.0068    0.0172    0.0047    0.0331    0.0282
          17   -0.0520    0.0017   -0.0006   -0.0032    0.0068    0.0159    0.0326    0.0262
          18   -0.0127    0.0268    0.0066   -0.0323   -0.0099   -0.0007   -0.0411   -0.0125
          19    0.0161    0.0061    0.0090    0.0071   -0.0019   -0.0182   -0.0249   -0.0085
          20   -0.0037   -0.0179   -0.0137    0.0075    0.0153    0.0234   -0.0208   -0.0233
          21   -0.0004    0.0498    0.0266   -0.0189    0.0512    0.0354    0.0136   -0.0234
          22   -0.0245    0.0012   -0.0101    0.0469    0.0030    0.0422   -0.0532    0.0267
          23    0.0458   -0.0314   -0.0003   -0.0435    0.0001   -0.0286   -0.0099   -0.0207
          24   -0.0044   -0.0070   -0.0042    0.0461   -0.0095   -0.0210    0.0379   -0.0407
          25   -0.0306   -0.0131   -0.0091    0.0616   -0.0065    0.0387   -0.0256   -0.0308
          26   -0.0069   -0.0661   -0.0346    0.0146    0.0046    0.0302   -0.0333   -0.0417
          27    0.0084   -0.0047   -0.0052    0.0134    0.0096   -0.0188   -0.0272    0.0510
          28    0.0299   -0.0500   -0.0105   -0.0015   -0.0813   -0.0474   -0.0473    0.0737
          29    0.0367    0.0060    0.0052    0.0222    0.0293   -0.0663    0.0066   -0.0825
          30    0.0042   -0.0668   -0.0185   -0.0460   -0.0750    0.0428   -0.0115    0.0777
          31    0.0267    0.0584    0.0358   -0.0009    0.0575   -0.0304   -0.0070   -0.0922
          32    0.0420   -0.0277   -0.0002   -0.0607   -0.0162   -0.0044   -0.0216    0.0394
          33    0.0044   -0.0715   -0.0206   -0.0464   -0.0817    0.0438   -0.0123    0.0859
          34   -0.0587   -0.0580    0.2110   -0.0465   -0.0568   -0.0409    0.0467   -0.0163
          35   -0.0235    0.0373   -0.0078    0.0154   -0.0199   -0.0232   -0.0164    0.0181
          36    0.0184   -0.1127    0.0846   -0.0191    0.0546    0.0327   -0.0193   -0.0157
          37   -0.0141    0.0524   -0.1521   -0.0858   -0.0684   -0.0187    0.0628   -0.0668
          38   -0.0224    0.1321   -0.1387    0.0309   -0.0511   -0.0540   -0.0178    0.0564
          39    0.0078   -0.0112    0.0027    0.0132    0.0149   -0.0151   -0.0257    0.0499
          40   -0.0233    0.0128   -0.0351   -0.0354   -0.0386   -0.0010    0.0219   -0.0347
          41   -0.0568   -0.0209    0.2109    0.0026   -0.0418   -0.0661    0.0091    0.0396
          42    0.0178    0.0302   -0.1325   -0.0710   -0.0297   -0.0447    0.0427   -0.0030
          43   -0.0964   -0.0299   -0.0293   -0.0656    0.1076   -0.0609    0.0169    0.0485
          44    0.0946    0.0645    0.0377    0.0103   -0.0813    0.0954    0.0227    0.0314
          45   -0.0044   -0.0104   -0.0058    0.0442   -0.0088   -0.0222    0.0577   -0.0319
          46    0.1283    0.0238    0.0163    0.0576   -0.0475    0.0683    0.0985    0.0230
          47   -0.1158   -0.0424   -0.0252   -0.0025    0.0743   -0.0643    0.0983    0.0316
          48   -0.0149    0.0389    0.0108   -0.0602   -0.0122    0.0077   -0.0989   -0.0126
          49    0.0585    0.0062   -0.0021   -0.0661    0.0585   -0.0516   -0.0258    0.0352
          50   -0.0618    0.0286    0.0113   -0.0093   -0.0364    0.0906   -0.0349    0.0271
          51   -0.0165    0.0395    0.0108   -0.0655   -0.0100    0.0066   -0.1055   -0.0096


   Root No.       9        10        11        12        13        14        15        16

                 9 A      10 A      11 A      12 A      13 A      14 A      15 A      16 A   

                 641.7     750.4     772.1     882.5     928.6     937.3     948.5     967.6
  
           1   -0.0052   -0.0150   -0.0152    0.0293    0.0182   -0.0202    0.0166    0.0110
           2    0.0007   -0.0175   -0.0359   -0.0030   -0.0112   -0.0017   -0.0171   -0.0059
           3   -0.0025   -0.0124   -0.0233    0.0233   -0.0107    0.0075    0.0057    0.0015
           4   -0.0301   -0.0129   -0.0242   -0.0291   -0.0048    0.0048   -0.0122    0.0024
           5    0.0001    0.0234    0.0272   -0.0031   -0.0053    0.0079   -0.0027    0.0015
           6   -0.0049   -0.0206   -0.0231   -0.0137    0.0036   -0.0076   -0.0074    0.0052
           7    0.0077    0.0201    0.0339    0.0023   -0.0028   -0.0003   -0.0007   -0.0071
           8    0.0191   -0.0101   -0.0406   -0.0079    0.0298   -0.0095    0.0283    0.0183
           9    0.0011   -0.0526    0.0350    0.0028   -0.0019    0.0004   -0.0095    0.0039
          10   -0.0128   -0.0046   -0.0213   -0.0241   -0.0035    0.0105   -0.0144   -0.0041
          11    0.0097    0.0072    0.0239    0.0011   -0.0076    0.0161   -0.0072    0.0371
          12    0.0127    0.0020    0.0201    0.0015   -0.0014    0.0031   -0.0027   -0.0086
          13    0.0488   -0.0035   -0.0047    0.0054    0.0230    0.0139   -0.0055   -0.0035
          14   -0.0483   -0.0065    0.0091    0.0015   -0.0302   -0.0069    0.0065    0.0022
          15    0.0013    0.0287    0.0100   -0.0132    0.0047   -0.0041    0.0006   -0.0010
          16   -0.0028   -0.0069    0.0023    0.0057   -0.0001    0.0090   -0.0016   -0.0026
          17    0.0042   -0.0072    0.0035    0.0057   -0.0114    0.0027    0.0030    0.0005
          18   -0.0007    0.0076    0.0017   -0.0182    0.0183   -0.0179   -0.0057    0.0038
          19    0.0074    0.0229    0.0306    0.0130   -0.0087   -0.0067   -0.0154   -0.0113
          20   -0.0051    0.0219    0.0083    0.0134    0.0040   -0.0333   -0.0287   -0.0315
          21   -0.0074    0.0335   -0.0202    0.0042   -0.0035    0.0111    0.0105   -0.0091
          22   -0.0392   -0.0242   -0.0356    0.0335    0.0538   -0.0651    0.0785    0.0729
          23    0.0309   -0.0581   -0.0388   -0.0248   -0.0185    0.0204   -0.0832   -0.0453
          24   -0.0001    0.0115   -0.0123    0.0288   -0.0237    0.0188    0.0072   -0.0095
          25   -0.0470   -0.0252   -0.0320   -0.0228   -0.0191    0.0432    0.1089    0.0392
          26   -0.0019    0.0027    0.1069   -0.0610   -0.0252    0.1204    0.2052   -0.1300
          27    0.0038   -0.0214    0.0120   -0.0356    0.0026    0.0176    0.0168   -0.0591
          28   -0.0066    0.1981   -0.0959    0.0193   -0.0180    0.0936    0.0214   -0.0148
          29    0.0451   -0.0817   -0.0572    0.0258    0.0058    0.0777   -0.0113    0.0129
          30   -0.0223    0.0720   -0.0179   -0.0090    0.0050   -0.0083    0.0227    0.0026
          31    0.0428   -0.1304    0.1707   -0.0810    0.0362   -0.0198    0.0639    0.0537
          32    0.0052    0.0649   -0.0393   -0.1004    0.0798   -0.0473    0.1264    0.0646
          33   -0.0269    0.0810   -0.0405   -0.0055    0.0064   -0.0103    0.0160   -0.0014
          34    0.0037   -0.0213   -0.0293    0.0376    0.0225   -0.0575    0.0453   -0.0955
          35    0.0078    0.0114    0.0275   -0.0061   -0.0124    0.0276   -0.0153    0.0567
          36    0.0069    0.0570    0.0557    0.0063   -0.0345    0.0662   -0.0509    0.2072
          37    0.0056    0.0228    0.0026    0.0685    0.0021   -0.0261    0.0293    0.0690
          38    0.0082   -0.0376    0.0004   -0.0342    0.0095   -0.0045    0.0171   -0.1272
          39    0.0044   -0.0239    0.0021   -0.0481    0.0017    0.0116   -0.0130   -0.0924
          40   -0.0163   -0.0012   -0.0218   -0.0336   -0.0080    0.0205   -0.0252    0.0132
          41    0.0310   -0.0096    0.0269    0.0687    0.0183   -0.0485    0.0612   -0.0560
          42    0.0445    0.0229    0.0509    0.1305    0.0148   -0.0603    0.0729    0.0214
          43   -0.0123    0.0006    0.0030   -0.0588   -0.1864   -0.0781    0.0331    0.0227
          44    0.0161   -0.0086    0.0359    0.0203    0.2131    0.0747   -0.0474   -0.0152
          45   -0.0011    0.0271   -0.0042    0.0045   -0.0124   -0.0014    0.0073   -0.0042
          46    0.1483    0.0365    0.0080   -0.0861   -0.0857   -0.0920    0.0098    0.0232
          47   -0.1458    0.0254    0.0527   -0.0280    0.1809    0.0093   -0.0435   -0.0049
          48    0.0011   -0.0265   -0.0232    0.0374   -0.0314    0.0233    0.0103   -0.0051
          49   -0.2337   -0.0575    0.0132    0.0936   -0.0520    0.0499    0.0310   -0.0028
          50    0.2352   -0.0412   -0.0606    0.0485   -0.0702    0.0635    0.0044   -0.0201
          51   -0.0064   -0.0348   -0.0248    0.0482   -0.0371    0.0325    0.0119   -0.0063


   Root No.      17        18        19        20        21        22        23        24

                17 A      18 A      19 A      20 A      21 A      22 A      23 A      24 A   

                 981.0    1018.7    1031.6    1048.3    1123.6    1140.9    1164.0    1193.0
  
           1    0.0076   -0.0016   -0.0130   -0.0134    0.0408    0.0532    0.0000    0.0110
           2   -0.0072   -0.0342   -0.0006    0.0182   -0.0206   -0.0055    0.0537    0.0204
           3   -0.0073   -0.0054    0.0002    0.0044    0.0049    0.0065    0.0129    0.0583
           4   -0.0023   -0.0030    0.0129    0.0260   -0.0074   -0.0166    0.0047   -0.0450
           5   -0.0011   -0.0010   -0.0004   -0.0025   -0.0103   -0.0184    0.0169   -0.0136
           6   -0.0027    0.0009    0.0092    0.0120   -0.0493   -0.0008   -0.0362   -0.0003
           7    0.0004    0.0188    0.0098    0.0029    0.0031    0.0080   -0.0192    0.0061
           8    0.0034    0.0045   -0.0181   -0.0292    0.0150   -0.0114   -0.0429   -0.0221
           9    0.0153    0.0105    0.0036   -0.0117   -0.0092   -0.0118   -0.0021   -0.0133
          10   -0.0078    0.0066   -0.0097   -0.0181   -0.0006    0.0021   -0.0024    0.0179
          11    0.0009   -0.0073   -0.0049   -0.0013    0.0098    0.0098   -0.0009    0.0035
          12   -0.0002    0.0048   -0.0043   -0.0033    0.0524   -0.0148    0.0201   -0.0037
          13   -0.0055    0.0056   -0.0187    0.0129   -0.0112   -0.0071    0.0058   -0.0029
          14    0.0016   -0.0026    0.0197   -0.0136    0.0106    0.0085   -0.0040   -0.0081
          15   -0.0181    0.0063   -0.0034   -0.0041   -0.0057   -0.0031   -0.0138   -0.0251
          16   -0.0073   -0.0116    0.0348   -0.0148    0.0028    0.0058    0.0006   -0.0070
          17    0.0022    0.0170   -0.0328    0.0149   -0.0075   -0.0014    0.0053   -0.0055
          18    0.0254   -0.0127   -0.0004    0.0024    0.0047    0.0104    0.0142   -0.0033
          19   -0.0044   -0.0420   -0.0237   -0.0161   -0.0116   -0.0269   -0.0037   -0.0064
          20   -0.0090    0.0327    0.0161    0.0054   -0.0087    0.0035   -0.0239    0.0160
          21    0.0080   -0.0021   -0.0004    0.0001    0.0018    0.0029    0.0024    0.0014
          22    0.0464   -0.0083    0.0006   -0.0918   -0.1225   -0.0452    0.1804    0.0316
          23    0.0418   -0.0661    0.0032    0.1335    0.1052    0.1981   -0.0524   -0.0185
          24   -0.0502    0.0131   -0.0080   -0.0105    0.0246   -0.0399   -0.0267    0.0677
          25    0.0334   -0.0623    0.0549    0.1194    0.1450   -0.1716   -0.0624   -0.0113
          26    0.0539   -0.0982   -0.0322   -0.0082   -0.0929    0.0935   -0.0365    0.0319
          27    0.0024   -0.0100   -0.0232   -0.0333   -0.1477    0.1133   -0.0262    0.0015
          28    0.0878    0.1574    0.0837    0.0261   -0.0210    0.0350    0.0895    0.0196
          29    0.1536    0.1296    0.0406   -0.0458   -0.0202   -0.0292   -0.0025   -0.0944
          30   -0.0331   -0.0017    0.0023    0.0089   -0.0000    0.0086    0.0209    0.0333
          31   -0.0760    0.1297    0.0798    0.0596   -0.0159    0.0424    0.0922    0.0647
          32   -0.1367    0.0385    0.0129    0.0421    0.0236    0.0251    0.0211    0.0399
          33   -0.0266   -0.0287   -0.0161   -0.0015    0.0059   -0.0087   -0.0221   -0.0047
          34    0.0079    0.0040    0.0286    0.0333   -0.0427   -0.0317   -0.0089   -0.0197
          35   -0.0006   -0.0095   -0.0103   -0.0072    0.0148    0.0172    0.0003    0.0073
          36    0.0005   -0.0295   -0.0128    0.0015    0.0178    0.0472   -0.0110    0.0083
          37    0.0156   -0.0293    0.0373    0.0579   -0.1060    0.0101   -0.0483   -0.0152
          38   -0.0042    0.0205   -0.0175   -0.0271    0.0993   -0.0333    0.0562   -0.0087
          39   -0.0118    0.0287   -0.0276   -0.0422    0.1287   -0.0332    0.0585    0.0050
          40   -0.0109    0.0069   -0.0138   -0.0240   -0.0049    0.0064   -0.0093    0.0273
          41    0.0208   -0.0150    0.0289    0.0490    0.0171   -0.0233    0.0281   -0.0532
          42    0.0329   -0.0370    0.0547    0.0977   -0.0098   -0.0143    0.0042   -0.0752
          43    0.0756    0.0000    0.0662   -0.0354    0.0163   -0.0577   -0.0869    0.1964
          44    0.0298    0.0052   -0.0361    0.0537   -0.0219   -0.0941   -0.0665    0.1987
          45   -0.0606    0.0052   -0.0137   -0.0125   -0.0039    0.0569    0.0456   -0.1799
          46    0.1057    0.0289   -0.1125    0.0539   -0.0130    0.0058    0.0380    0.0176
          47    0.0500   -0.0821    0.1201   -0.0370    0.0224    0.0289    0.0211    0.0125
          48   -0.0453    0.0141   -0.0051   -0.0039   -0.0025   -0.0018   -0.0076   -0.0229
          49   -0.0552    0.0960   -0.1351    0.0460   -0.0239   -0.0148   -0.0163   -0.0008
          50   -0.0991   -0.0324    0.1415   -0.0583   -0.0080   -0.0050   -0.0185   -0.0015
          51   -0.0502    0.0182   -0.0030   -0.0024   -0.0087   -0.0011   -0.0057   -0.0011


   Root No.      25        26        27        28        29        30        31        32

                25 A      26 A      27 A      28 A      29 A      30 A      31 A      32 A   

                1212.3    1223.3    1299.8    1314.9    1340.5    1374.6    1391.0    1402.6
  
           1   -0.0174    0.0075   -0.0027   -0.0238   -0.0024   -0.0119   -0.0150   -0.0234
           2   -0.0073   -0.0101   -0.0339   -0.0022    0.0077   -0.0092   -0.0194   -0.0284
           3   -0.0095   -0.0017    0.0209    0.0131   -0.0030    0.0222    0.0213    0.0290
           4   -0.0417    0.0377   -0.0105    0.0271    0.0038    0.0005   -0.0077   -0.0048
           5   -0.0117    0.0241    0.0375   -0.0104   -0.0472    0.0240    0.0205    0.0151
           6    0.0089   -0.0208    0.0116   -0.0169   -0.0099   -0.0059    0.0113    0.0090
           7    0.0120   -0.0179   -0.0329    0.0464   -0.0071    0.0432    0.0074   -0.0020
           8   -0.0060    0.0012   -0.0042    0.0201   -0.0330   -0.0141    0.0007    0.0073
           9   -0.0029   -0.0038   -0.0032   -0.0048    0.0017   -0.0053   -0.0032   -0.0037
          10    0.0126   -0.0127    0.0010   -0.0018    0.0052   -0.0139    0.0304    0.0148
          11    0.0007   -0.0037   -0.0063   -0.0010    0.0042    0.0084   -0.0313   -0.0087
          12    0.0032    0.0044   -0.0005   -0.0012   -0.0059    0.0169   -0.0041   -0.0427
          13   -0.0009   -0.0083   -0.0130   -0.0090   -0.0021    0.0067    0.0055    0.0064
          14   -0.0060   -0.0001   -0.0068   -0.0134   -0.0040    0.0054    0.0053    0.0062
          15    0.0389    0.0398   -0.0189   -0.0046    0.0020   -0.0176   -0.0180   -0.0231
          16   -0.0007   -0.0101    0.0034   -0.0040   -0.0026    0.0097    0.0112    0.0150
          17    0.0007   -0.0123    0.0018   -0.0029   -0.0022    0.0097    0.0111    0.0148
          18   -0.0130   -0.0201    0.0047    0.0004   -0.0002    0.0036    0.0032    0.0038
          19    0.0026    0.0071    0.0323   -0.0355    0.0184   -0.0246   -0.0004    0.0072
          20    0.0202   -0.0255   -0.0112   -0.0016    0.0325   -0.0164   -0.0039    0.0010
          21   -0.0008    0.0011   -0.0015    0.0027   -0.0013    0.0021    0.0004   -0.0004
          22    0.2353    0.0451   -0.0359    0.0524    0.0141    0.0332    0.0147    0.0337
          23    0.1729    0.1054    0.0654   -0.0192   -0.0325    0.0189    0.0341    0.0455
          24   -0.2171   -0.0701   -0.0096   -0.0148    0.0059   -0.0111   -0.0170   -0.0324
          25    0.1413   -0.1402   -0.0044   -0.0536    0.0148   -0.0320   -0.0038   -0.0067
          26    0.0054   -0.0330   -0.0437    0.0020    0.0500   -0.0243   -0.0222   -0.0180
          27   -0.0713    0.0405   -0.0208    0.0236    0.0212   -0.0104   -0.0061   -0.0033
          28   -0.0053   -0.0029    0.0155   -0.0590   -0.0668   -0.0958   -0.0190   -0.0036
          29   -0.0202    0.0370    0.0512   -0.0776    0.1809    0.0493   -0.0042   -0.0214
          30   -0.0041   -0.0162   -0.0131    0.0052   -0.1264   -0.0889   -0.0107    0.0101
          31   -0.0071   -0.0047    0.0280   -0.0561   -0.0559   -0.0807   -0.0099    0.0066
          32   -0.0301    0.0497    0.0841   -0.0595    0.1730    0.0736    0.0188    0.0091
          33   -0.0075    0.0151    0.0153    0.0034    0.1292    0.1003    0.0158   -0.0052
          34   -0.0038    0.0032    0.0426   -0.0343   -0.0620    0.0899   -0.2649    0.0582
          35   -0.0001   -0.0032   -0.0173    0.0097    0.0217   -0.0161    0.0187   -0.0048
          36   -0.0113   -0.0022   -0.0628    0.0498    0.0856   -0.0698   -0.0358    0.1070
          37   -0.0035   -0.0107    0.0247   -0.0273   -0.0434    0.0545    0.0330   -0.1669
          38   -0.0054    0.0273   -0.0181    0.0329    0.0276   -0.0275   -0.0251    0.0747
          39    0.0054    0.0150   -0.0175    0.0246    0.0279   -0.0297   -0.0179    0.0869
          40    0.0212   -0.0241    0.0073   -0.0132   -0.0049    0.0094   -0.0410    0.0218
          41   -0.0440    0.0530   -0.0255    0.0452    0.0343   -0.0744    0.2692   -0.0726
          42   -0.0743    0.0604   -0.0368    0.0521    0.0519   -0.0688   -0.0461    0.1876
          43   -0.0094    0.1420   -0.0219   -0.0060   -0.0015   -0.0146   -0.0164   -0.0212
          44    0.0055    0.1216   -0.0339    0.0015   -0.0009   -0.0144   -0.0170   -0.0220
          45    0.0395   -0.0614   -0.0070   -0.0123   -0.0001   -0.0025   -0.0019   -0.0029
          46   -0.0191   -0.0650    0.1180    0.1094    0.0244   -0.0339   -0.0294   -0.0341
          47   -0.0227   -0.0592    0.1210    0.1033    0.0219   -0.0334   -0.0282   -0.0327
          48    0.0086    0.0225   -0.0878   -0.0862   -0.0204    0.0380    0.0351    0.0427
          49    0.0502    0.0174    0.0942    0.0955    0.0219   -0.0454   -0.0389   -0.0453
          50    0.0489    0.0176    0.0922    0.0984    0.0238   -0.0452   -0.0398   -0.0466
          51    0.0362    0.0102    0.0851    0.0913    0.0229   -0.0484   -0.0450   -0.0545


   Root No.      33        34        35        36        37        38        39        40

                33 A      34 A      35 A      36 A      37 A      38 A      39 A      40 A   

                1406.3    1455.0    1863.5    2931.6    2952.6    3021.8    3037.5    3078.4
  
           1   -0.0044    0.0440   -0.0238    0.0030   -0.0229   -0.0014   -0.0013    0.0001
           2   -0.0073    0.0382   -0.0236    0.0042   -0.0219   -0.0014   -0.0013    0.0000
           3    0.0063   -0.0404    0.0283    0.0083   -0.0480   -0.0032   -0.0025   -0.0000
           4   -0.0018   -0.0447   -0.0015   -0.0234   -0.0044   -0.0002    0.0001   -0.0007
           5   -0.0009    0.0605   -0.0014    0.0197    0.0026    0.0001   -0.0001    0.0006
           6    0.0022    0.0361    0.0007   -0.0515   -0.0079   -0.0006    0.0000   -0.0015
           7   -0.0052    0.0352   -0.0020    0.0005   -0.0000   -0.0014    0.0003   -0.0001
           8    0.0028   -0.0275   -0.0006   -0.0002   -0.0007   -0.0011   -0.0003    0.0001
           9   -0.0007    0.0048    0.0003   -0.0005    0.0047   -0.0566   -0.0007   -0.0000
          10   -0.0228    0.0212    0.0007    0.0016    0.0001    0.0000   -0.0000   -0.0231
          11   -0.0308   -0.0279   -0.0001   -0.0014   -0.0000   -0.0000    0.0001    0.0319
          12   -0.0104   -0.0376   -0.0004    0.0012    0.0001    0.0000   -0.0001   -0.0333
          13    0.0012   -0.0040    0.1653   -0.0007    0.0007    0.0001   -0.0255    0.0000
          14    0.0014   -0.0036    0.1628   -0.0003    0.0009   -0.0002   -0.0263    0.0000
          15   -0.0054    0.0266   -0.0345   -0.0005    0.0024    0.0006   -0.0578    0.0001
          16    0.0033   -0.0173   -0.1411    0.0001   -0.0001    0.0000    0.0011   -0.0000
          17    0.0032   -0.0172   -0.1397    0.0001   -0.0001    0.0000    0.0012   -0.0000
          18    0.0008   -0.0032   -0.0043    0.0001   -0.0005   -0.0001    0.0049   -0.0000
          19    0.0049   -0.0290    0.0029   -0.0008    0.0005    0.0000    0.0001    0.0001
          20    0.0035   -0.0329    0.0026    0.0006    0.0007   -0.0000    0.0001   -0.0001
          21   -0.0002    0.0004    0.0000   -0.0008   -0.0003   -0.0009   -0.0000   -0.0002
          22    0.0001   -0.0606    0.0317   -0.0454    0.2803    0.0175    0.0115    0.0004
          23    0.0096   -0.0353    0.0314   -0.0465    0.2657    0.0207    0.0109   -0.0003
          24   -0.0032    0.0433   -0.0210   -0.1015    0.5767    0.0353    0.0313   -0.0015
          25   -0.0047    0.0474   -0.0060    0.2908    0.0478    0.0023    0.0007    0.0060
          26   -0.0067   -0.0376   -0.0012   -0.2394   -0.0366   -0.0017    0.0007   -0.0042
          27    0.0013   -0.0434    0.0044    0.6354    0.0963    0.0045   -0.0032    0.0201
          28    0.0065   -0.0351   -0.0020    0.0012    0.0139   -0.1675   -0.0034    0.0004
          29   -0.0067    0.0441   -0.0042   -0.0020   -0.0141    0.2132    0.0058   -0.0006
          30    0.0086   -0.0599    0.0038   -0.0029   -0.0304    0.3667    0.0072   -0.0012
          31    0.0080   -0.0381    0.0026    0.0028   -0.0165    0.1845   -0.0005    0.0009
          32   -0.0001    0.0040    0.0044   -0.0020    0.0128   -0.1980    0.0005   -0.0009
          33   -0.0082    0.0557    0.0029    0.0056   -0.0281    0.3237   -0.0015    0.0015
          34    0.1038   -0.0016   -0.0008    0.0036    0.0001    0.0000   -0.0002   -0.0542
          35   -0.0089   -0.0137    0.0001    0.0130    0.0014    0.0003   -0.0007   -0.2888
          36    0.2589    0.0469    0.0005   -0.0030   -0.0004   -0.0000    0.0000    0.0065
          37    0.2242   -0.0578   -0.0004   -0.0101   -0.0019   -0.0002    0.0004    0.1806
          38    0.3064    0.0684   -0.0003    0.0089    0.0007    0.0002   -0.0003   -0.1405
          39    0.0071    0.0399    0.0000   -0.0163   -0.0003   -0.0002    0.0010    0.4074
          40   -0.0226    0.0071    0.0008   -0.0111   -0.0042   -0.0003    0.0001    0.1487
          41    0.0612    0.0209   -0.0003   -0.0045   -0.0010   -0.0001    0.0001    0.0488
          42   -0.1741    0.0555   -0.0007   -0.0025   -0.0003   -0.0000    0.0000   -0.0156
          43   -0.0042    0.0206   -0.0039    0.0018   -0.0125   -0.0026    0.2586   -0.0003
          44   -0.0047    0.0203   -0.0012    0.0029   -0.0126   -0.0032    0.2697   -0.0003
          45   -0.0012    0.0099    0.1367    0.0069   -0.0246   -0.0056    0.6925   -0.0007
          46   -0.0070    0.0208   -0.0023   -0.0002    0.0027    0.0004    0.0041    0.0001
          47   -0.0065    0.0203   -0.0054   -0.0003    0.0028    0.0004    0.0043    0.0001
          48    0.0088   -0.0344   -0.1561   -0.0001    0.0033    0.0007    0.0057    0.0003
          49   -0.0094    0.0322   -0.0254    0.0000    0.0009   -0.0002    0.0282   -0.0001
          50   -0.0099    0.0326   -0.0223   -0.0000    0.0009   -0.0000    0.0266   -0.0001
          51   -0.0116    0.0458    0.1460   -0.0001   -0.0013    0.0003   -0.0643    0.0001


   Root No.      41        42        43        44        45

                41 A      42 A      43 A      44 A      45 A   

                3086.6    3095.7    3133.9    3145.7    3176.5
  
           1    0.0002   -0.0004   -0.0002   -0.0005    0.0000
           2   -0.0002    0.0008   -0.0002   -0.0005   -0.0001
           3   -0.0003   -0.0002    0.0005   -0.0003   -0.0001
           4   -0.0002    0.0010    0.0000    0.0000   -0.0003
           5   -0.0000   -0.0011   -0.0000   -0.0000    0.0003
           6   -0.0002    0.0003    0.0000   -0.0000    0.0001
           7   -0.0001   -0.0278   -0.0001    0.0000    0.0000
           8    0.0002    0.0321    0.0001    0.0000   -0.0000
           9    0.0000   -0.0011    0.0001   -0.0000    0.0000
          10   -0.0419    0.0003    0.0000   -0.0000   -0.0118
          11   -0.0345    0.0001   -0.0000   -0.0000    0.0116
          12   -0.0039    0.0002    0.0000   -0.0000    0.0182
          13    0.0000   -0.0003    0.0025   -0.0063   -0.0000
          14   -0.0000   -0.0002    0.0025   -0.0063   -0.0000
          15    0.0000   -0.0004   -0.0013   -0.0046    0.0000
          16   -0.0000    0.0001   -0.0181    0.0326    0.0000
          17   -0.0000    0.0001   -0.0192    0.0316    0.0000
          18    0.0000    0.0002   -0.0636   -0.0345   -0.0000
          19   -0.0002   -0.0006   -0.0000    0.0000   -0.0000
          20    0.0001    0.0007    0.0000    0.0000   -0.0000
          21    0.0001   -0.0000    0.0000   -0.0000    0.0000
          22    0.0011    0.0006   -0.0031    0.0016    0.0002
          23    0.0004    0.0015   -0.0030    0.0015    0.0007
          24    0.0010    0.0021   -0.0023    0.0046    0.0015
          25    0.0000   -0.0019   -0.0002    0.0003    0.0005
          26   -0.0015    0.0014    0.0002   -0.0001   -0.0004
          27    0.0031   -0.0044   -0.0004    0.0001    0.0029
          28    0.0010    0.1434    0.0006   -0.0002   -0.0001
          29   -0.0012   -0.1878   -0.0008    0.0005    0.0001
          30   -0.0025   -0.3798   -0.0015    0.0005    0.0003
          31    0.0011    0.1899    0.0004   -0.0002   -0.0001
          32   -0.0013   -0.2030   -0.0004    0.0002    0.0002
          33    0.0025    0.3931    0.0009   -0.0005   -0.0003
          34    0.0347   -0.0001   -0.0000    0.0001   -0.0497
          35    0.3798   -0.0020   -0.0001    0.0004   -0.3189
          36   -0.0332    0.0002    0.0000   -0.0000    0.0335
          37    0.0150   -0.0009   -0.0002    0.0001   -0.1290
          38   -0.0466    0.0010    0.0002   -0.0001    0.1064
          39    0.0771   -0.0025   -0.0005    0.0003   -0.2661
          40    0.4516   -0.0036   -0.0000   -0.0002    0.3219
          41    0.0796   -0.0006   -0.0000   -0.0000    0.0716
          42    0.0026    0.0001   -0.0000    0.0000    0.0111
          43    0.0000    0.0020    0.0074    0.0212    0.0000
          44    0.0000    0.0025    0.0076    0.0220    0.0000
          45    0.0002    0.0051    0.0112    0.0512    0.0001
          46    0.0001   -0.0006    0.2620   -0.0523   -0.0001
          47    0.0000   -0.0007    0.2719   -0.0549   -0.0001
          48    0.0001   -0.0015    0.6288   -0.1581   -0.0003
          49    0.0001    0.0001   -0.0783   -0.2798   -0.0001
          50    0.0001    0.0001   -0.0749   -0.2658   -0.0001
          51   -0.0001   -0.0002    0.1292    0.5713    0.0003


           MASS-WEIGHTED COORDINATE ANALYSIS (NORMAL COORDINATES)


   Root No.       1         2         3         4         5         6         7         8

                 1 A       2 A       3 A       4 A       5 A       6 A       7 A       8 A   

                  69.1     128.2     150.6     263.5     279.1     368.9     425.0     487.5
  
           1   -0.1301   -0.0309   -0.0439    0.2320    0.0093    0.2277   -0.1215    0.0266
           2    0.2346   -0.1074   -0.0082   -0.1055    0.0797   -0.1732    0.0002   -0.0989
           3   -0.0091   -0.1165   -0.0500    0.3658   -0.1024   -0.1512    0.1212   -0.2616
           4   -0.1283   -0.0260   -0.0387    0.2183   -0.0284    0.2147   -0.1704   -0.0688
           5   -0.0222   -0.1695   -0.1143    0.0624    0.1008    0.1435   -0.1683   -0.1666
           6    0.0277    0.0713    0.0035    0.2461    0.0809   -0.1570   -0.1914    0.3927
           7    0.1236    0.0261    0.0671    0.0545   -0.0617   -0.1741   -0.1854   -0.0644
           8    0.2171   -0.1105   -0.0115   -0.1103    0.0757   -0.1825   -0.0582   -0.1494
           9    0.0183   -0.2787   -0.0519   -0.1867   -0.2457    0.2391    0.0465    0.0223
          10   -0.2115    0.0136    0.0294   -0.3041   -0.3279   -0.0594    0.1787   -0.2347
          11   -0.2014    0.2916    0.1014    0.1197   -0.1879   -0.2453   -0.0944    0.1658
          12    0.0904   -0.1931   -0.0927   -0.1070    0.1025   -0.0986   -0.0631    0.1826
          13   -0.1834   -0.0937   -0.1014   -0.1086    0.3355   -0.0221    0.1860    0.2107
          14    0.2211    0.1762    0.1073    0.0124   -0.1523    0.1888    0.2338    0.1627
          15   -0.0442   -0.0036   -0.0201    0.2430   -0.0666   -0.1344    0.3836   -0.1562
          16    0.4146    0.0572    0.0064   -0.0565    0.1374    0.0399    0.2392    0.2179
          17   -0.3800    0.0140   -0.0046   -0.0270    0.0543    0.1346    0.2353    0.2025
          18   -0.0927    0.2256    0.0520   -0.2694   -0.0793   -0.0062   -0.2969   -0.0966
          19    0.1177    0.0511    0.0713    0.0594   -0.0153   -0.1542   -0.1798   -0.0655
          20   -0.0274   -0.1509   -0.1089    0.0622    0.1226    0.1987   -0.1500   -0.1801
          21   -0.0031    0.4189    0.2111   -0.1580    0.4097    0.3000    0.0982   -0.1810
          22   -0.0520    0.0030   -0.0232    0.1133    0.0069    0.1036   -0.1112    0.0597
          23    0.0970   -0.0764   -0.0008   -0.1051    0.0003   -0.0702   -0.0206   -0.0463
          24   -0.0092   -0.0170   -0.0096    0.1114   -0.0221   -0.0517    0.0794   -0.0911
          25   -0.0648   -0.0320   -0.0209    0.1487   -0.0151    0.0950   -0.0536   -0.0690
          26   -0.0146   -0.1611   -0.0795    0.0353    0.0105    0.0741   -0.0697   -0.0933
          27    0.0177   -0.0115   -0.0120    0.0323    0.0222   -0.0462   -0.0569    0.1141
          28    0.0633   -0.1219   -0.0242   -0.0037   -0.1883   -0.1165   -0.0989    0.1650
          29    0.0778    0.0146    0.0120    0.0537    0.0679   -0.1629    0.0138   -0.1846
          30    0.0089   -0.1628   -0.0426   -0.1111   -0.1738    0.1052   -0.0241    0.1739
          31    0.0565    0.1423    0.0821   -0.0021    0.1331   -0.0747   -0.0147   -0.2063
          32    0.0891   -0.0676   -0.0004   -0.1466   -0.0376   -0.0109   -0.0452    0.0883
          33    0.0094   -0.1742   -0.0472   -0.1120   -0.1892    0.1075   -0.0257    0.1922
          34   -0.1243   -0.1414    0.4845   -0.1123   -0.1315   -0.1005    0.0976   -0.0364
          35   -0.0498    0.0910   -0.0179    0.0371   -0.0460   -0.0569   -0.0342    0.0406
          36    0.0391   -0.2745    0.1942   -0.0461    0.1264    0.0804   -0.0405   -0.0351
          37   -0.0298    0.1276   -0.3491   -0.2073   -0.1584   -0.0459    0.1312   -0.1495
          38   -0.0475    0.3220   -0.3184    0.0745   -0.1184   -0.1326   -0.0372    0.1263
          39    0.0165   -0.0273    0.0061    0.0319    0.0346   -0.0372   -0.0537    0.1118
          40   -0.0494    0.0311   -0.0806   -0.0854   -0.0895   -0.0025    0.0459   -0.0778
          41   -0.1203   -0.0509    0.4842    0.0064   -0.0969   -0.1626    0.0189    0.0886
          42    0.0376    0.0737   -0.3042   -0.1715   -0.0688   -0.1097    0.0893   -0.0066
          43   -0.2042   -0.0728   -0.0672   -0.1584    0.2493   -0.1498    0.0354    0.1086
          44    0.2003    0.1572    0.0866    0.0250   -0.1882    0.2345    0.0475    0.0702
          45   -0.0094   -0.0253   -0.0132    0.1068   -0.0204   -0.0546    0.1208   -0.0715
          46    0.2717    0.0579    0.0374    0.1390   -0.1101    0.1679    0.2060    0.0515
          47   -0.2453   -0.1032   -0.0579   -0.0060    0.1721   -0.1580    0.2055    0.0707
          48   -0.0316    0.0949    0.0249   -0.1453   -0.0283    0.0189   -0.2067   -0.0281
          49    0.1239    0.0151   -0.0048   -0.1597    0.1354   -0.1268   -0.0539    0.0788
          50   -0.1308    0.0697    0.0259   -0.0226   -0.0843    0.2226   -0.0729    0.0607
          51   -0.0349    0.0962    0.0248   -0.1583   -0.0231    0.0163   -0.2205   -0.0214


   Root No.       9        10        11        12        13        14        15        16

                 9 A      10 A      11 A      12 A      13 A      14 A      15 A      16 A   

                 641.7     750.4     772.1     882.5     928.6     937.3     948.5     967.6
  
           1   -0.0359   -0.1154   -0.1144    0.2764    0.1446   -0.2014    0.1480    0.0934
           2    0.0051   -0.1351   -0.2705   -0.0280   -0.0892   -0.0168   -0.1519   -0.0499
           3   -0.0171   -0.0960   -0.1761    0.2196   -0.0852    0.0754    0.0512    0.0124
           4   -0.2093   -0.0999   -0.1823   -0.2742   -0.0381    0.0483   -0.1088    0.0205
           5    0.0006    0.1805    0.2054   -0.0296   -0.0423    0.0791   -0.0245    0.0125
           6   -0.0342   -0.1592   -0.1741   -0.1292    0.0288   -0.0762   -0.0659    0.0437
           7    0.0534    0.1548    0.2555    0.0215   -0.0221   -0.0029   -0.0062   -0.0600
           8    0.1329   -0.0782   -0.3061   -0.0744    0.2368   -0.0949    0.2525    0.1548
           9    0.0077   -0.4062    0.2638    0.0268   -0.0152    0.0041   -0.0850    0.0328
          10   -0.0891   -0.0352   -0.1604   -0.2274   -0.0277    0.1045   -0.1283   -0.0350
          11    0.0677    0.0552    0.1800    0.0101   -0.0606    0.1606   -0.0645    0.3137
          12    0.0882    0.0156    0.1517    0.0144   -0.0108    0.0311   -0.0240   -0.0731
          13    0.3393   -0.0267   -0.0358    0.0512    0.1828    0.1387   -0.0491   -0.0296
          14   -0.3354   -0.0503    0.0683    0.0140   -0.2395   -0.0690    0.0582    0.0188
          15    0.0089    0.2216    0.0754   -0.1246    0.0372   -0.0412    0.0055   -0.0086
          16   -0.0198   -0.0535    0.0171    0.0536   -0.0010    0.0900   -0.0140   -0.0224
          17    0.0293   -0.0554    0.0260    0.0537   -0.0907    0.0273    0.0263    0.0040
          18   -0.0046    0.0590    0.0131   -0.1715    0.1452   -0.1789   -0.0507    0.0322
          19    0.0515    0.1769    0.2312    0.1224   -0.0689   -0.0669   -0.1376   -0.0955
          20   -0.0353    0.1690    0.0624    0.1264    0.0318   -0.3325   -0.2557   -0.2662
          21   -0.0514    0.2584   -0.1525    0.0398   -0.0276    0.1105    0.0933   -0.0771
          22   -0.0789   -0.0541   -0.0778    0.0916    0.1236   -0.1883    0.2027    0.1787
          23    0.0622   -0.1298   -0.0849   -0.0679   -0.0425    0.0591   -0.2148   -0.1110
          24   -0.0002    0.0257   -0.0268    0.0788   -0.0544    0.0545    0.0186   -0.0234
          25   -0.0946   -0.0563   -0.0699   -0.0624   -0.0439    0.1250    0.2810    0.0962
          26   -0.0039    0.0060    0.2337   -0.1666   -0.0580    0.3487    0.5295   -0.3187
          27    0.0077   -0.0478    0.0262   -0.0973    0.0061    0.0511    0.0432   -0.1449
          28   -0.0132    0.4429   -0.2095    0.0527   -0.0415    0.2709    0.0551   -0.0362
          29    0.0907   -0.1826   -0.1250    0.0705    0.0133    0.2249   -0.0292    0.0316
          30   -0.0449    0.1608   -0.0391   -0.0246    0.0114   -0.0240    0.0585    0.0063
          31    0.0863   -0.2915    0.3731   -0.2212    0.0832   -0.0573    0.1648    0.1315
          32    0.0105    0.1452   -0.0858   -0.2744    0.1835   -0.1371    0.3261    0.1584
          33   -0.0542    0.1811   -0.0885   -0.0150    0.0147   -0.0299    0.0414   -0.0034
          34    0.0074   -0.0475   -0.0641    0.1028    0.0516   -0.1664    0.1170   -0.2340
          35    0.0157    0.0255    0.0600   -0.0167   -0.0284    0.0800   -0.0394    0.1389
          36    0.0140    0.1274    0.1218    0.0173   -0.0793    0.1916   -0.1314    0.5078
          37    0.0114    0.0510    0.0056    0.1873    0.0048   -0.0756    0.0755    0.1691
          38    0.0164   -0.0841    0.0008   -0.0934    0.0218   -0.0129    0.0442   -0.3117
          39    0.0090   -0.0534    0.0045   -0.1313    0.0039    0.0335   -0.0335   -0.2265
          40   -0.0328   -0.0028   -0.0477   -0.0918   -0.0183    0.0592   -0.0649    0.0325
          41    0.0623   -0.0213    0.0588    0.1877    0.0421   -0.1405    0.1579   -0.1373
          42    0.0896    0.0512    0.1111    0.3565    0.0340   -0.1747    0.1880    0.0524
          43   -0.0247    0.0014    0.0065   -0.1606   -0.4284   -0.2262    0.0855    0.0557
          44    0.0325   -0.0193    0.0785    0.0554    0.4898    0.2162   -0.1223   -0.0374
          45   -0.0021    0.0605   -0.0092    0.0122   -0.0285   -0.0040    0.0188   -0.0102
          46    0.2987    0.0816    0.0174   -0.2354   -0.1970   -0.2664    0.0254    0.0570
          47   -0.2936    0.0568    0.1150   -0.0766    0.4157    0.0268   -0.1123   -0.0119
          48    0.0023   -0.0592   -0.0506    0.1023   -0.0722    0.0673    0.0266   -0.0124
          49   -0.4705   -0.1285    0.0288    0.2556   -0.1196    0.1443    0.0799   -0.0067
          50    0.4736   -0.0921   -0.1323    0.1325   -0.1614    0.1839    0.0114   -0.0492
          51   -0.0129   -0.0778   -0.0541    0.1318   -0.0854    0.0942    0.0308   -0.0155


   Root No.      17        18        19        20        21        22        23        24

                17 A      18 A      19 A      20 A      21 A      22 A      23 A      24 A   

                 981.0    1018.7    1031.6    1048.3    1123.6    1140.9    1164.0    1193.0
  
           1    0.0723   -0.0133   -0.1132   -0.1288    0.2981    0.4288    0.0002    0.0771
           2   -0.0682   -0.2901   -0.0054    0.1750   -0.1509   -0.0442    0.4299    0.1428
           3   -0.0697   -0.0457    0.0016    0.0420    0.0360    0.0524    0.1032    0.4080
           4   -0.0223   -0.0251    0.1122    0.2502   -0.0543   -0.1335    0.0380   -0.3144
           5   -0.0103   -0.0081   -0.0032   -0.0237   -0.0756   -0.1483    0.1350   -0.0954
           6   -0.0256    0.0079    0.0800    0.1153   -0.3604   -0.0062   -0.2900   -0.0020
           7    0.0041    0.1593    0.0855    0.0281    0.0225    0.0643   -0.1539    0.0430
           8    0.0322    0.0380   -0.1581   -0.2807    0.1097   -0.0917   -0.3433   -0.1548
           9    0.1453    0.0887    0.0311   -0.1121   -0.0670   -0.0951   -0.0165   -0.0933
          10   -0.0745    0.0558   -0.0849   -0.1739   -0.0043    0.0172   -0.0193    0.1255
          11    0.0084   -0.0622   -0.0429   -0.0124    0.0719    0.0790   -0.0076    0.0245
          12   -0.0020    0.0409   -0.0373   -0.0315    0.3828   -0.1189    0.1606   -0.0256
          13   -0.0523    0.0479   -0.1627    0.1238   -0.0819   -0.0576    0.0467   -0.0200
          14    0.0154   -0.0219    0.1716   -0.1304    0.0776    0.0684   -0.0318   -0.0568
          15   -0.1722    0.0539   -0.0300   -0.0398   -0.0415   -0.0252   -0.1102   -0.1757
          16   -0.0697   -0.0983    0.3038   -0.1426    0.0203    0.0468    0.0049   -0.0488
          17    0.0210    0.1444   -0.2858    0.1436   -0.0547   -0.0114    0.0422   -0.0388
          18    0.2411   -0.1081   -0.0032    0.0232    0.0343    0.0839    0.1135   -0.0228
          19   -0.0415   -0.3563   -0.2063   -0.1545   -0.0847   -0.2165   -0.0295   -0.0444
          20   -0.0857    0.2777    0.1402    0.0521   -0.0638    0.0279   -0.1911    0.1116
          21    0.0758   -0.0180   -0.0038    0.0014    0.0131    0.0233    0.0195    0.0101
          22    0.1278   -0.0203    0.0015   -0.2557   -0.2595   -0.1055    0.4183    0.0640
          23    0.1150   -0.1626    0.0082    0.3719    0.2229    0.4624   -0.1215   -0.0375
          24   -0.1382    0.0321   -0.0203   -0.0292    0.0522   -0.0930   -0.0620    0.1372
          25    0.0920   -0.1532    0.1388    0.3327    0.3072   -0.4005   -0.1448   -0.0228
          26    0.1485   -0.2414   -0.0815   -0.0227   -0.1967    0.2183   -0.0847    0.0646
          27    0.0067   -0.0245   -0.0586   -0.0928   -0.3129    0.2644   -0.0608    0.0029
          28    0.2418    0.3871    0.2115    0.0726   -0.0445    0.0818    0.2076    0.0396
          29    0.4230    0.3188    0.1026   -0.1277   -0.0427   -0.0682   -0.0058   -0.1913
          30   -0.0910   -0.0042    0.0057    0.0247   -0.0001    0.0201    0.0484    0.0675
          31   -0.2093    0.3190    0.2016    0.1660   -0.0337    0.0990    0.2138    0.1311
          32   -0.3764    0.0946    0.0326    0.1174    0.0500    0.0585    0.0489    0.0808
          33   -0.0731   -0.0706   -0.0406   -0.0042    0.0124   -0.0202   -0.0513   -0.0096
          34    0.0218    0.0099    0.0722    0.0927   -0.0905   -0.0739   -0.0205   -0.0399
          35   -0.0016   -0.0235   -0.0260   -0.0200    0.0313    0.0401    0.0007    0.0148
          36    0.0014   -0.0725   -0.0324    0.0041    0.0377    0.1101   -0.0255    0.0168
          37    0.0430   -0.0720    0.0942    0.1613   -0.2245    0.0236   -0.1119   -0.0308
          38   -0.0116    0.0503   -0.0443   -0.0754    0.2103   -0.0778    0.1303   -0.0176
          39   -0.0324    0.0706   -0.0697   -0.1175    0.2726   -0.0775    0.1357    0.0102
          40   -0.0299    0.0170   -0.0350   -0.0669   -0.0104    0.0149   -0.0217    0.0553
          41    0.0573   -0.0368    0.0729    0.1366    0.0362   -0.0544    0.0652   -0.1078
          42    0.0907   -0.0909    0.1381    0.2722   -0.0208   -0.0333    0.0097   -0.1524
          43    0.2081    0.0001    0.1671   -0.0986    0.0345   -0.1347   -0.2016    0.3979
          44    0.0821    0.0128   -0.0911    0.1496   -0.0463   -0.2195   -0.1542    0.4026
          45   -0.1668    0.0128   -0.0347   -0.0348   -0.0083    0.1328    0.1057   -0.3645
          46    0.2911    0.0710   -0.2842    0.1502   -0.0275    0.0136    0.0881    0.0357
          47    0.1377   -0.2018    0.3033   -0.1031    0.0475    0.0675    0.0490    0.0254
          48   -0.1248    0.0347   -0.0128   -0.0109   -0.0053   -0.0041   -0.0176   -0.0463
          49   -0.1520    0.2360   -0.3413    0.1281   -0.0507   -0.0346   -0.0377   -0.0015
          50   -0.2728   -0.0795    0.3575   -0.1624   -0.0169   -0.0116   -0.0429   -0.0031
          51   -0.1381    0.0447   -0.0075   -0.0067   -0.0184   -0.0027   -0.0133   -0.0022


   Root No.      25        26        27        28        29        30        31        32

                25 A      26 A      27 A      28 A      29 A      30 A      31 A      32 A   

                1212.3    1223.3    1299.8    1314.9    1340.5    1374.6    1391.0    1402.6
  
           1   -0.1243    0.0623   -0.0233   -0.2030   -0.0187   -0.1068   -0.1119   -0.1884
           2   -0.0517   -0.0839   -0.2886   -0.0191    0.0608   -0.0822   -0.1451   -0.2282
           3   -0.0675   -0.0142    0.1777    0.1115   -0.0236    0.1987    0.1594    0.2335
           4   -0.2972    0.3125   -0.0895    0.2315    0.0300    0.0042   -0.0579   -0.0385
           5   -0.0837    0.1998    0.3192   -0.0885   -0.3739    0.2153    0.1531    0.1219
           6    0.0632   -0.1722    0.0988   -0.1443   -0.0784   -0.0533    0.0846    0.0723
           7    0.0855   -0.1479   -0.2796    0.3961   -0.0565    0.3875    0.0555   -0.0160
           8   -0.0426    0.0096   -0.0358    0.1717   -0.2616   -0.1265    0.0055    0.0591
           9   -0.0204   -0.0318   -0.0270   -0.0412    0.0132   -0.0471   -0.0239   -0.0300
          10    0.0897   -0.1053    0.0085   -0.0157    0.0416   -0.1246    0.2274    0.1194
          11    0.0053   -0.0309   -0.0535   -0.0084    0.0334    0.0749   -0.2341   -0.0698
          12    0.0232    0.0366   -0.0045   -0.0106   -0.0466    0.1518   -0.0310   -0.3437
          13   -0.0067   -0.0687   -0.1108   -0.0768   -0.0164    0.0605    0.0414    0.0515
          14   -0.0425   -0.0011   -0.0576   -0.1146   -0.0316    0.0483    0.0394    0.0498
          15    0.2773    0.3292   -0.1611   -0.0397    0.0161   -0.1575   -0.1347   -0.1863
          16   -0.0047   -0.0835    0.0286   -0.0340   -0.0203    0.0866    0.0835    0.1203
          17    0.0050   -0.1022    0.0151   -0.0250   -0.0172    0.0873    0.0827    0.1191
          18   -0.0927   -0.1666    0.0397    0.0036   -0.0018    0.0322    0.0237    0.0304
          19    0.0184    0.0585    0.2745   -0.3035    0.1462   -0.2205   -0.0027    0.0580
          20    0.1442   -0.2110   -0.0954   -0.0140    0.2578   -0.1469   -0.0295    0.0080
          21   -0.0060    0.0094   -0.0129    0.0227   -0.0103    0.0191    0.0032   -0.0030
          22    0.4863    0.1083   -0.0884    0.1296    0.0323    0.0862    0.0318    0.0786
          23    0.3573    0.2528    0.1612   -0.0476   -0.0746    0.0489    0.0738    0.1062
          24   -0.4487   -0.1682   -0.0236   -0.0366    0.0136   -0.0288   -0.0369   -0.0754
          25    0.2920   -0.3364   -0.0110   -0.1327    0.0340   -0.0830   -0.0082   -0.0156
          26    0.0112   -0.0793   -0.1076    0.0050    0.1147   -0.0631   -0.0480   -0.0421
          27   -0.1473    0.0972   -0.0513    0.0583    0.0486   -0.0270   -0.0132   -0.0076
          28   -0.0110   -0.0070    0.0383   -0.1459   -0.1533   -0.2486   -0.0412   -0.0085
          29   -0.0418    0.0887    0.1261   -0.1919    0.4152    0.1280   -0.0092   -0.0498
          30   -0.0084   -0.0388   -0.0323    0.0128   -0.2900   -0.2308   -0.0231    0.0235
          31   -0.0147   -0.0112    0.0690   -0.1388   -0.1282   -0.2094   -0.0214    0.0154
          32   -0.0622    0.1191    0.2071   -0.1472    0.3971    0.1911    0.0407    0.0213
          33   -0.0156    0.0362    0.0377    0.0084    0.2966    0.2604    0.0342   -0.0122
          34   -0.0078    0.0076    0.1051   -0.0849   -0.1424    0.2334   -0.5734    0.1357
          35   -0.0002   -0.0077   -0.0426    0.0240    0.0497   -0.0417    0.0404   -0.0112
          36   -0.0233   -0.0052   -0.1548    0.1231    0.1965   -0.1812   -0.0775    0.2494
          37   -0.0073   -0.0258    0.0610   -0.0677   -0.0996    0.1414    0.0715   -0.3890
          38   -0.0112    0.0654   -0.0446    0.0815    0.0634   -0.0714   -0.0544    0.1743
          39    0.0111    0.0360   -0.0432    0.0608    0.0640   -0.0771   -0.0388    0.2026
          40    0.0438   -0.0577    0.0180   -0.0328   -0.0113    0.0243   -0.0887    0.0509
          41   -0.0909    0.1272   -0.0629    0.1117    0.0788   -0.1932    0.5825   -0.1692
          42   -0.1536    0.1449   -0.0907    0.1290    0.1190   -0.1785   -0.0997    0.4374
          43   -0.0195    0.3406   -0.0540   -0.0149   -0.0035   -0.0380   -0.0355   -0.0495
          44    0.0115    0.2917   -0.0835    0.0037   -0.0022   -0.0373   -0.0368   -0.0512
          45    0.0817   -0.1471   -0.0173   -0.0305   -0.0001   -0.0065   -0.0042   -0.0068
          46   -0.0395   -0.1559    0.2909    0.2706    0.0561   -0.0881   -0.0636   -0.0796
          47   -0.0468   -0.1420    0.2981    0.2555    0.0502   -0.0867   -0.0610   -0.0763
          48    0.0178    0.0539   -0.2165   -0.2132   -0.0468    0.0986    0.0759    0.0995
          49    0.1037    0.0416    0.2321    0.2362    0.0502   -0.1179   -0.0842   -0.1057
          50    0.1011    0.0423    0.2272    0.2435    0.0546   -0.1173   -0.0862   -0.1086
          51    0.0748    0.0245    0.2097    0.2259    0.0526   -0.1255   -0.0973   -0.1271


   Root No.      33        34        35        36        37        38        39        40

                33 A      34 A      35 A      36 A      37 A      38 A      39 A      40 A   

                1406.3    1455.0    1863.5    2931.6    2952.6    3021.8    3037.5    3078.4
  
           1   -0.0286    0.2852   -0.0745    0.0134   -0.1075   -0.0073   -0.0056    0.0007
           2   -0.0474    0.2475   -0.0740    0.0187   -0.1028   -0.0074   -0.0055    0.0001
           3    0.0410   -0.2620    0.0886    0.0367   -0.2259   -0.0171   -0.0103   -0.0001
           4   -0.0120   -0.2897   -0.0046   -0.1038   -0.0208   -0.0011    0.0006   -0.0040
           5   -0.0060    0.3920   -0.0043    0.0874    0.0124    0.0007   -0.0003    0.0035
           6    0.0146    0.2341    0.0023   -0.2285   -0.0372   -0.0033    0.0002   -0.0087
[...]
 RED. MASS   0.9123         C  1 -- C  7          +8.1% ( 44.8%)     50.9%
 EFF. MASS   7.1093

 VIBRATION   24   24A         ATOM PAIR      ENERGY CONTRIBUTION    RADIAL
 FREQ.      1193.04         C  5 -- H 15         +20.3% ( 64.8%)      4.2%
 T-DIPOLE    0.1109         C  1 -- C  2         +12.8% ( 51.5%)     40.5%
 TRAVEL      0.0992         C  1 -- C  5         +12.1% ( 50.1%)     32.7%
 RED. MASS   0.8330         C  1 -- C  3         +11.0% ( 47.7%)     26.2%
 EFF. MASS   5.7456

 VIBRATION   25   25A         ATOM PAIR      ENERGY CONTRIBUTION    RADIAL
 FREQ.      1212.30         C  1 -- H  8         +37.8% ( 74.6%)      0.9%
 T-DIPOLE    0.1261         C  2 -- H  9         +12.8% ( 43.4%)      0.1%
 TRAVEL      0.1260         C  1 -- C  5          +6.2% ( 30.3%)     39.4%
 RED. MASS   0.5432         C  2 -- C  7          +6.2% ( 30.1%)     34.9%
 EFF. MASS   3.5046

 VIBRATION   26   26A         ATOM PAIR      ENERGY CONTRIBUTION    RADIAL
 FREQ.      1223.29         C  5 -- H 15         +16.7% ( 54.4%)      6.7%
 T-DIPOLE    0.2680         C  2 -- H  9         +14.3% ( 50.4%)      0.8%
 TRAVEL      0.1008         C  2 -- C  7          +9.3% ( 40.6%)     66.5%
 RED. MASS   0.6337         C  5 -- C  6          +8.6% ( 39.2%)      4.0%
 EFF. MASS   5.4297

 VIBRATION   27   27A         ATOM PAIR      ENERGY CONTRIBUTION    RADIAL
 FREQ.      1299.82         C  1 -- C  2          +9.6% ( 42.8%)      1.2%
 T-DIPOLE    0.5231         C  6 -- H 16          +8.3% ( 39.8%)      0.2%
 TRAVEL      0.0949         C  2 -- C  7          +8.1% ( 39.3%)     52.0%
 RED. MASS   0.5933         C  3 -- C  7          +7.9% ( 39.0%)     98.9%
 EFF. MASS   5.7659

 VIBRATION   28   28A         ATOM PAIR      ENERGY CONTRIBUTION    RADIAL
 FREQ.      1314.86         C  3 -- C  7         +13.8% ( 49.9%)     91.7%
 T-DIPOLE    0.5538         C  3 -- H 10          +9.6% ( 41.8%)      1.1%
 TRAVEL      0.0969         C  3 -- H 11          +8.8% ( 40.0%)      0.4%
 RED. MASS   0.7192         C  2 -- C  3          +8.7% ( 39.6%)      5.3%
 EFF. MASS   5.4650

 VIBRATION   29   29A         ATOM PAIR      ENERGY CONTRIBUTION    RADIAL
 FREQ.      1340.52         C  3 -- H 10         +16.9% ( 49.7%)      1.6%
 T-DIPOLE    0.6161         C  3 -- H 11         +15.7% ( 47.9%)      2.2%
 TRAVEL      0.1098         C  2 -- C  7         +14.5% ( 46.0%)     94.8%
 RED. MASS   0.5676         C  2 -- C  3          +8.8% ( 35.9%)     69.8%
 EFF. MASS   4.1760

 VIBRATION   30   30A         ATOM PAIR      ENERGY CONTRIBUTION    RADIAL
 FREQ.      1374.65         C  3 -- H 11         +12.2% ( 47.2%)      4.2%
 T-DIPOLE    0.6696         C  3 -- C  7         +11.6% ( 46.1%)     99.2%
 TRAVEL      0.0938         C  3 -- H 10         +11.2% ( 45.3%)      7.1%
 RED. MASS   0.5635         C  2 -- C  3          +9.1% ( 40.8%)     99.3%
 EFF. MASS   5.5752

 VIBRATION   31   31A         ATOM PAIR      ENERGY CONTRIBUTION    RADIAL
 FREQ.      1391.04         C  4 -- H 14         +24.8% ( 55.8%)      3.2%
 T-DIPOLE    0.1103         C  4 -- H 12         +23.2% ( 54.0%)      4.2%
 TRAVEL      0.1179         C  2 -- C  4          +9.2% ( 33.9%)     63.1%
 RED. MASS   0.4461         C  1 -- C  5          +6.5% ( 28.7%)     99.0%
 EFF. MASS   3.4866

 VIBRATION   32   32A         ATOM PAIR      ENERGY CONTRIBUTION    RADIAL
 FREQ.      1402.56         C  4 -- H 14         +15.1% ( 50.0%)      1.4%
 T-DIPOLE    0.2286         C  4 -- H 13         +15.0% ( 49.9%)      7.4%
 TRAVEL      0.0989         C  1 -- C  5         +10.7% ( 42.2%)     98.5%
 RED. MASS   0.6136         C  4 -- H 12          +9.1% ( 38.8%)      0.2%
 EFF. MASS   4.9171

 VIBRATION   33   33A         ATOM PAIR      ENERGY CONTRIBUTION    RADIAL
 FREQ.      1406.30         C  4 -- H 13         +49.6% ( 62.3%)      0.3%
 T-DIPOLE    0.0916         C  4 -- H 12         +27.2% ( 46.2%)      8.2%
 TRAVEL      0.1682         C  4 -- H 14         +13.4% ( 32.3%)     15.4%
 RED. MASS   0.4169         C  2 -- C  4          +5.2% ( 20.1%)     13.5%
 EFF. MASS   1.6957

 VIBRATION   34   34A         ATOM PAIR      ENERGY CONTRIBUTION    RADIAL
 FREQ.      1454.96         C  1 -- C  2         +12.5% ( 60.0%)     55.3%
 T-DIPOLE    0.5755         C  2 -- C  4         +12.0% ( 58.8%)     91.0%
 TRAVEL      0.0674         C  2 -- C  3          +9.9% ( 53.3%)     93.4%
 RED. MASS   1.8983         C  2 -- C  7          +9.2% ( 51.6%)     81.8%
 EFF. MASS  10.1873

 VIBRATION   35   35A         ATOM PAIR      ENERGY CONTRIBUTION    RADIAL
 FREQ.      1863.53         C  5 -- C  6         +44.7% ( 99.0%)     98.8%
 T-DIPOLE    0.0340         C  1 -- C  5         +17.1% ( 61.1%)     56.1%
 TRAVEL      0.0554         C  5 -- H 15         +15.5% ( 58.3%)      3.7%
 RED. MASS   5.2830         C  6 -- H 16         +10.7% ( 48.4%)     10.9%
 EFF. MASS  11.7945         C  6 -- H 17         +10.5% ( 47.9%)     12.9%

 VIBRATION   36   36A         ATOM PAIR      ENERGY CONTRIBUTION    RADIAL
 FREQ.      2931.62         C  2 -- H  9         +93.5% ( 98.6%)    100.0%
 T-DIPOLE    0.3467         C  1 -- H  8          +2.5% ( 16.2%)     99.9%
 TRAVEL      0.1268         C  1 -- C  2          +1.0% ( 10.1%)     15.5%
 RED. MASS   0.8802         C  2 -- C  4          +0.9% (  9.8%)     10.3%
 EFF. MASS   1.4297

 VIBRATION   37   37A         ATOM PAIR      ENERGY CONTRIBUTION    RADIAL
 FREQ.      2952.59         C  1 -- H  8         +92.5% ( 98.3%)    100.0%
 T-DIPOLE    0.1369         C  2 -- H  9          +2.4% ( 16.0%)     99.8%
 TRAVEL      0.1255         C  1 -- C  5          +1.1% ( 10.6%)     13.8%
 RED. MASS   0.8700         C  1 -- C  3          +1.1% ( 10.6%)     13.4%
 EFF. MASS   1.4506

 VIBRATION   38   38A         ATOM PAIR      ENERGY CONTRIBUTION    RADIAL
 FREQ.      3021.79         C  3 -- H 10         +51.8% ( 74.8%)     97.4%
 T-DIPOLE    0.3538         C  3 -- H 11         +44.9% ( 69.6%)     96.6%
 TRAVEL      0.1213         C  2 -- C  3          +1.0% ( 10.3%)      0.0%
 RED. MASS   0.5120         C  3 -- C  7          +1.0% ( 10.3%)      0.0%
 EFF. MASS   1.5168

 VIBRATION   39   39A         ATOM PAIR      ENERGY CONTRIBUTION    RADIAL
 FREQ.      3037.50         C  5 -- H 15         +96.2% ( 99.4%)    100.0%
 T-DIPOLE    0.2468         C  5 -- C  6          +1.4% ( 12.1%)     30.8%
 TRAVEL      0.1215         C  1 -- C  5          +1.3% ( 11.8%)     14.9%
 RED. MASS   0.9100         C  6 -- H 17          +0.9% (  9.4%)     95.2%
 EFF. MASS   1.5035

 VIBRATION   40   40A         ATOM PAIR      ENERGY CONTRIBUTION    RADIAL
 FREQ.      3078.37         C  4 -- H 13         +64.6% ( 82.9%)     98.8%
 T-DIPOLE    0.0294         C  4 -- H 12         +26.2% ( 52.8%)     91.0%
 TRAVEL      0.1206         C  4 -- H 14          +8.1% ( 29.3%)     68.1%
 RED. MASS   0.5218         C  2 -- C  4          +1.0% ( 10.3%)      0.0%
 EFF. MASS   1.5063

 VIBRATION   41   41A         ATOM PAIR      ENERGY CONTRIBUTION    RADIAL
 FREQ.      3086.63         C  4 -- H 14         +56.5% ( 77.5%)     98.1%
 T-DIPOLE    0.0768         C  4 -- H 12         +39.5% ( 64.8%)     95.2%
 TRAVEL      0.1203         C  4 -- H 13          +3.0% ( 17.8%)     35.4%
 RED. MASS   0.5066         C  2 -- C  4          +1.0% ( 10.4%)      0.0%
 EFF. MASS   1.5101

 VIBRATION   42   42A         ATOM PAIR      ENERGY CONTRIBUTION    RADIAL
 FREQ.      3095.72         C  3 -- H 11         +52.7% ( 72.0%)     97.7%
 T-DIPOLE    0.4575         C  3 -- H 10         +45.1% ( 66.6%)     96.7%
 TRAVEL      0.1302         C  2 -- C  3          +0.7% (  8.4%)     99.7%
 RED. MASS   0.4865         C  1 -- C  3          +0.7% (  8.3%)     51.2%
 EFF. MASS   1.2855

 VIBRATION   43   43A         ATOM PAIR      ENERGY CONTRIBUTION    RADIAL
 FREQ.      3133.85         C  6 -- H 16         +91.7% ( 97.5%)     99.9%
 T-DIPOLE    0.2010         C  6 -- H 17          +7.0% ( 26.9%)     71.8%
 TRAVEL      0.1182         C  5 -- C  6          +1.3% ( 11.7%)     22.1%
 RED. MASS   0.8514
 EFF. MASS   1.5399

 VIBRATION   44   44A         ATOM PAIR      ENERGY CONTRIBUTION    RADIAL
 FREQ.      3145.73         C  6 -- H 17         +91.7% ( 96.4%)     99.7%
 T-DIPOLE    0.2605         C  6 -- H 16          +6.0% ( 24.6%)     42.3%
 TRAVEL      0.1209         C  5 -- C  6          +1.6% ( 12.7%)     73.3%
 RED. MASS   0.8169         C  5 -- H 15          +0.7% (  8.6%)     94.4%
 EFF. MASS   1.4655

 VIBRATION   45   45A         ATOM PAIR      ENERGY CONTRIBUTION    RADIAL
 FREQ.      3176.51         C  4 -- H 14         +34.9% ( 56.8%)     97.3%
 T-DIPOLE    0.0608         C  4 -- H 12         +33.6% ( 55.8%)     97.2%
 TRAVEL      0.1368         C  4 -- H 13         +31.3% ( 53.9%)     96.8%
 RED. MASS   0.3276         C  2 -- C  4          +0.3% (  5.1%)     99.8%
 EFF. MASS   1.1350

      SYMMETRY NUMBER FOR POINT-GROUP C1  =  1


          SYSTEM IS A GROUND STATE



 InChI=1S/C7H10/c1-3-7-5-4-6(7)2/h3,6-7H,1,5H2,2H3/lp4


          MOLECULE IS NOT LINEAR

          THERE ARE 45 GENUINE VIBRATIONS IN THIS SYSTEM
          THIS THERMODYNAMICS CALCULATION IS LIMITED TO
          MOLECULES WHICH HAVE NO INTERNAL ROTATIONS




                    CALCULATED THERMODYNAMIC PROPERTIES
                                          *
   TEMP. (K)   PARTITION FUNCTION   H.O.F.    ENTHALPY  HEAT CAPACITY ENTROPY
                                   KCAL/MOL   CAL/MOLE    CAL/K/MOL  CAL/K/MOL


 298.00  VIB.     0.5249D+02                  2990.7978    21.8518    17.9067
         ROT.     0.2329D+06                   888.2813     2.9808    27.5392
         INT.     0.1222D+08                  3879.0791    24.8326    45.4460
         TRA.     0.8833D+27                  1480.4688     4.9680    39.5363
         TOT.                      105.167    5359.5480    29.8006    84.9822

 200.00  VIB.     0.1044D+02                  1275.8856    13.4344    11.0399
         ROT.     0.1280D+06                   596.1620     2.9808    26.3506
         INT.     0.1336D+07                  1872.0475    16.4153    37.3905
         TRA.     0.4856D+27                   993.6033     4.9680    37.5551
         TOT.                      102.673    2865.6508    21.3833    74.9456

 210.00  VIB.     0.1226D+02                  1414.0526    14.2030    11.7139
         ROT.     0.1378D+06                   625.9700     2.9808    26.4960
         INT.     0.1689D+07                  2040.0227    17.1838    38.2099
         TRA.     0.5225D+27                  1043.2834     4.9680    37.7975
         TOT.                      102.890    3083.3061    22.1519    76.0074

 220.00  VIB.     0.1441D+02                  1560.0278    14.9960    12.3928
         ROT.     0.1477D+06                   655.7781     2.9808    26.6347
         INT.     0.2129D+07                  2215.8059    17.9769    39.0275
         TRA.     0.5603D+27                  1092.9636     4.9680    38.0286
         TOT.                      103.116    3308.7695    22.9449    77.0561

 230.00  VIB.     0.1696D+02                  1714.0530    15.8129    13.0773
         ROT.     0.1579D+06                   685.5862     2.9808    26.7672
         INT.     0.2677D+07                  2399.6393    18.7937    39.8445
         TRA.     0.5989D+27                  1142.6437     4.9680    38.2495
         TOT.                      103.349    3542.2830    23.7617    78.0940

 240.00  VIB.     0.1997D+02                  1876.3611    16.6523    13.7680
         ROT.     0.1683D+06                   715.3943     2.9808    26.8940
         INT.     0.3361D+07                  2591.7554    19.6331    40.6620
         TRA.     0.6384D+27                  1192.3239     4.9680    38.4609
         TOT.                      103.591    3784.0793    24.6012    79.1229

 250.00  VIB.     0.2353D+02                  2047.1688    17.5125    14.4651
         ROT.     0.1789D+06                   745.2024     2.9808    27.0157
         INT.     0.4211D+07                  2792.3713    20.4933    41.4808
         TRA.     0.6787D+27                  1242.0041     4.9680    38.6637
         TOT.                      103.841    4034.3753    25.4613    80.1446

 260.00  VIB.     0.2776D+02                  2226.6725    18.3911    15.1690
         ROT.     0.1898D+06                   775.0105     2.9808    27.1326
         INT.     0.5269D+07                  3001.6830    21.3719    42.3017
         TRA.     0.7198D+27                  1291.6842     4.9680    38.8586
         TOT.                      104.100    4293.3673    26.3399    81.1602

 270.00  VIB.     0.3278D+02                  2415.0442    19.2857    15.8799
         ROT.     0.2008D+06                   804.8186     2.9808    27.2451
         INT.     0.6584D+07                  3219.8629    22.2665    43.1250
         TRA.     0.7618D+27                  1341.3644     4.9680    39.0461
         TOT.                      104.368    4561.2273    27.2345    82.1710

 280.00  VIB.     0.3875D+02                  2612.4297    20.1934    16.5976
         ROT.     0.2121D+06                   834.6267     2.9808    27.3535
         INT.     0.8219D+07                  3447.0565    23.1742    43.9511
         TRA.     0.8045D+27                  1391.0445     4.9680    39.2267
         TOT.                      104.645    4838.1010    28.1422    83.1779

 290.00  VIB.     0.4585D+02                  2818.9472    21.1116    17.3222
         ROT.     0.2236D+06                   864.4348     2.9808    27.4581
         INT.     0.1025D+08                  3683.3820    24.0924    44.7803
         TRA.     0.8479D+27                  1440.7247     4.9680    39.4011
         TOT.                      104.931    5124.1067    29.0604    84.1814

 300.00  VIB.     0.5430D+02                  3034.6870    22.0374    18.0535
         ROT.     0.2352D+06                   894.2429     2.9808    27.5592
         INT.     0.1277D+08                  3928.9299    25.0182    45.6127
         TRA.     0.8922D+27                  1490.4049     4.9680    39.5695
         TOT.                      105.226    5419.3348    29.9862    85.1822

 310.00  VIB.     0.6437D+02                  3259.7120    22.9682    18.7913
         ROT.     0.2471D+06                   924.0510     2.9808    27.6569
         INT.     0.1591D+08                  4183.7630    25.9490    46.4482
         TRA.     0.9372D+27                  1540.0850     4.9680    39.7324
         TOT.                      105.531    5723.8480    30.9170    86.1806

 320.00  VIB.     0.7639D+02                  3494.0589    23.9014    19.5352
         ROT.     0.2591D+06                   953.8591     2.9808    27.7516
         INT.     0.1980D+08                  4447.9180    26.8822    47.2868
         TRA.     0.9829D+27                  1589.7652     4.9680    39.8901
         TOT.                      105.845    6037.6832    31.8502    87.1769

 330.00  VIB.     0.9075D+02                  3737.7395    24.8345    20.2850
         ROT.     0.2714D+06                   983.6672     2.9808    27.8433
         INT.     0.2463D+08                  4721.4067    27.8153    48.1283
         TRA.     0.1029D+28                  1639.4454     4.9680    40.0430
         TOT.                      106.168    6360.8521    32.7834    88.1713

 340.00  VIB.     0.1079D+03                  3990.7422    25.7655    21.0402
         ROT.     0.2838D+06                  1013.4753     2.9808    27.9323
         INT.     0.3063D+08                  5004.2175    28.7463    48.9725
         TRA.     0.1076D+28                  1689.1255     4.9680    40.1913
         TOT.                      106.500    6693.3430    33.7143    89.1638

 350.00  VIB.     0.1284D+03                  4253.0343    26.6921    21.8005
         ROT.     0.2964D+06                  1043.2834     2.9808    28.0187
         INT.     0.3807D+08                  5296.3177    29.6729    49.8191
         TRA.     0.1124D+28                  1738.8057     4.9680    40.3353
         TOT.                      106.842    7035.1234    34.6409    90.1545

 360.00  VIB.     0.1530D+03                  4524.5637    27.6126    22.5653
         ROT.     0.3092D+06                  1073.0915     2.9808    28.1026
         INT.     0.4732D+08                  5597.6553    30.5935    50.6680
         TRA.     0.1173D+28                  1788.4859     4.9680    40.4753
         TOT.                      107.193    7386.1411    35.5615    91.1433

 370.00  VIB.     0.1825D+03                  4805.2615    28.5255    23.3344
         ROT.     0.3222D+06                  1102.8996     2.9808    28.1843
         INT.     0.5881D+08                  5908.1611    31.5063    51.5187
         TRA.     0.1222D+28                  1838.1660     4.9680    40.6114
         TOT.                      107.553    7746.3271    36.4743    92.1301

 380.00  VIB.     0.2179D+03                  5095.0432    29.4292    24.1071
         ROT.     0.3353D+06                  1132.7077     2.9808    28.2638
         INT.     0.7307D+08                  6227.7509    32.4100    52.3709
         TRA.     0.1272D+28                  1887.8462     4.9680    40.7439
         TOT.                      107.923    8115.5970    37.3780    93.1148

 390.00  VIB.     0.2603D+03                  5393.8113    30.3226    24.8831
         ROT.     0.3487D+06                  1162.5158     2.9808    28.3412
         INT.     0.9077D+08                  6556.3271    33.3034    53.2243
         TRA.     0.1322D+28                  1937.5263     4.9680    40.8729
         TOT.                      108.301    8493.8534    38.2714    94.0973

 400.00  VIB.     0.3113D+03                  5701.4572    31.2046    25.6620
         ROT.     0.3622D+06                  1192.3239     2.9808    28.4167
         INT.     0.1128D+09                  6893.7811    34.1854    54.0787
         TRA.     0.1374D+28                  1987.2065     4.9680    40.9987
         TOT.                      108.688    8880.9876    39.1534    95.0774

   *: NOTE: HEATS OF FORMATION ARE RELATIVE TO THE
            ELEMENTS IN THEIR STANDARD STATE AT 298K
              (=  Standard Enthalpy of Formation).

            Hvib:  Zero-point energy is not included.
                   frequencies of less than zero cm-1 are not included.
            Hrot = (3/2)RT
            Htra = (3/2)RT + pV = (5/2)RT

            Heat capacity is Cp, not Cv

          For more information, see: HTTP://OpenMOPAC.net/Manual/thermochemistry.html


           FORCE CONSTANT IN CARTESIAN COORDINATES (Millidynes/A)

    ATOM   CHEMICAL       X               Y               Z
   NUMBER   SYMBOL  FORCE CONSTANT  FORCE CONSTANT  FORCE CONSTANT

      1       C        7.650802        7.761229        9.360258
      2       C        7.454899        8.524203        8.015890
      3       C        8.463986        7.778735        7.597225
      4       C        8.381927        8.336238        8.306863
      5       C        9.141586        8.997325        9.242308
      6       C        8.805578        8.668971        9.035439
      7       C        6.310935        5.877957        0.881835
      8       H        1.388508        1.311854        3.575727
      9       H        1.330324        0.978131        3.707731
     10       H        1.074510        1.572647        3.729153
     11       H        1.317526        1.562925        3.502370
     12       H        0.743658        5.270846        0.730311
     13       H        1.398871        1.155085        4.201765
     14       H        5.205724        0.845941        0.696170
     15       H        1.034556        1.068622        4.102300
     16       H        1.124237        1.167484        4.172007
     17       H        1.320910        1.239858        3.916597

 **********************
 *                    *
 * JOB ENDED NORMALLY *
 *                    *
 **********************



 TOTAL JOB TIME:             5.87 SECONDS

 == MOPAC DONE ==
