 *******************************************************************************
 ** Site#: 14399        For non-commercial use only    Version 18.184L 64BITS **
 *******************************************************************************
 ** Cite this program as: MOPAC2016, Version: 18.184L, James J. P. Stewart,   **
 ** Stewart Computational Chemistry, web: HTTP://OpenMOPAC.net. Days left:  20**
 *******************************************************************************
 **                                                                           **
 **                                MOPAC2016                                  **
 **                                                                           **
 *******************************************************************************

                              PM3 CALCULATION RESULTS

 *******************************************************************************
 *  CALCULATION DONE:                                Thu Jun 13 16:00:07 2019  *
 *  PM3        - The PM3 Hamiltonian to be used
 *  PRECISE    - CRITERIA TO BE INCREASED BY 100 TIMES
 *  NOSYM      - POINT-GROUP SYMMETRY SET TO C1
 *  THREADS=1  - MULTI-THREADING NOT USED
 *  T=         - A TIME OF 172800.0 SECONDS REQUESTED
 *  DUMP=N     - RESTART FILE WRITTEN EVERY  7200.000 SECONDS
 *******************************************************************************
pm3  precise nosym THREADS=1
 InChI=1S/C10H10/c1-2-7-10(6-1)8-4-3-5-9(8)10/h1-4,6-9H,5H2

   ATOM   CHEMICAL          X               Y               Z
  NUMBER   SYMBOL      (ANGSTROMS)     (ANGSTROMS)     (ANGSTROMS)
 
     1       C         -0.56250000  *   0.29870000  *  -0.13970000  *
     2       C          0.70740000  *   0.88400000  *  -0.72960000  *
     3       C          0.53550000  *   0.79810000  *   0.79790000  *
     4       C          1.84590000  *  -0.07300000  *  -1.09740000  *
     5       C         -0.92510000  *  -1.14090000  *  -0.04010000  *
     6       C         -1.83340000  *   1.05200000  *  -0.03890000  *
     7       C          1.60310000  *  -0.15790000  *   1.21990000  *
     8       C          2.31860000  *  -0.61370000  *   0.20440000  *
     9       C         -2.23920000  *  -1.19560000  *   0.13260000  *
    10       C         -2.80120000  *   0.16100000  *   0.13370000  *
    11       H          0.68370000  *   1.92420000  *  -1.12020000  *
    12       H          0.49770000  *   1.81700000  *   1.24030000  *
    13       H          2.66760000  *   0.48320000  *  -1.59540000  *
    14       H          1.48360000  *  -0.89060000  *  -1.75570000  *
    15       H         -0.26850000  *  -1.99720000  *  -0.12030000  *
    16       H         -1.96890000  *   2.12310000  *  -0.11480000  *
    17       H          1.77920000  *  -0.44820000  *   2.25000000  *
    18       H          3.13600000  *  -1.31870000  *   0.31380000  *
    19       H         -2.80900000  *  -2.11010000  *   0.22790000  *
    20       H         -3.85060000  *   0.40460000  *   0.23130000  *
 


          CARTESIAN COORDINATES 

    NO.       ATOM           X           Y           Z

     1         C         -0.5625      0.2987     -0.1397
     2         C          0.7074      0.8840     -0.7296
     3         C          0.5355      0.7981      0.7979
     4         C          1.8459     -0.0730     -1.0974
     5         C         -0.9251     -1.1409     -0.0401
     6         C         -1.8334      1.0520     -0.0389
     7         C          1.6031     -0.1579      1.2199
     8         C          2.3186     -0.6137      0.2044
     9         C         -2.2392     -1.1956      0.1326
    10         C         -2.8012      0.1610      0.1337
    11         H          0.6837      1.9242     -1.1202
    12         H          0.4977      1.8170      1.2403
    13         H          2.6676      0.4832     -1.5954
    14         H          1.4836     -0.8906     -1.7557
    15         H         -0.2685     -1.9972     -0.1203
    16         H         -1.9689      2.1231     -0.1148
    17         H          1.7792     -0.4482      2.2500
    18         H          3.1360     -1.3187      0.3138
    19         H         -2.8090     -2.1101      0.2279
    20         H         -3.8506      0.4046      0.2313

  H: (PM3): J. J. P. STEWART, J. COMP. CHEM. 10, 209 (1989).
  C: (PM3): J. J. P. STEWART, J. COMP. CHEM. 10, 209 (1989).

           Empirical Formula: C10 H10  =    20 atoms



      MOLECULAR POINT GROUP   :   C1  


      RHF CALCULATION, NO. OF DOUBLY OCCUPIED LEVELS = 25


          Geometry optimization using EF

          DIAGONAL MATRIX USED AS START HESSIAN

 CYCLE:     1 TIME:   0.023 TIME LEFT:  2.00D  GRAD.:   123.921 HEAT:  95.15230
 CYCLE:     2 TIME:   0.039 TIME LEFT:  2.00D  GRAD.:   161.931 HEAT:  93.69524
 CYCLE:     3 TIME:   0.023 TIME LEFT:  2.00D  GRAD.:   110.859 HEAT:  89.89238
 CYCLE:     4 TIME:   0.031 TIME LEFT:  2.00D  GRAD.:   114.913 HEAT:  88.73628
 CYCLE:     5 TIME:   0.027 TIME LEFT:  2.00D  GRAD.:    56.950 HEAT:  86.45975
 CYCLE:     6 TIME:   0.031 TIME LEFT:  2.00D  GRAD.:    60.989 HEAT:  85.80609
 CYCLE:     7 TIME:   0.020 TIME LEFT:  2.00D  GRAD.:    39.102 HEAT:  84.99689
 CYCLE:     8 TIME:   0.031 TIME LEFT:  2.00D  GRAD.:    38.330 HEAT:  84.61836
 CYCLE:     9 TIME:   0.020 TIME LEFT:  2.00D  GRAD.:    39.442 HEAT:  84.39111
 CYCLE:    10 TIME:   0.023 TIME LEFT:  2.00D  GRAD.:    28.915 HEAT:  84.04391
 CYCLE:    11 TIME:   0.023 TIME LEFT:  2.00D  GRAD.:    35.697 HEAT:  83.93623
 CYCLE:    12 TIME:   0.031 TIME LEFT:  2.00D  GRAD.:    21.960 HEAT:  83.71753
 CYCLE:    13 TIME:   0.027 TIME LEFT:  2.00D  GRAD.:    18.327 HEAT:  83.63731
 CYCLE:    14 TIME:   0.020 TIME LEFT:  2.00D  GRAD.:    10.945 HEAT:  83.53762
 CYCLE:    15 TIME:   0.023 TIME LEFT:  2.00D  GRAD.:    15.500 HEAT:  83.49525
 CYCLE:    16 TIME:   0.023 TIME LEFT:  2.00D  GRAD.:     9.494 HEAT:  83.41114
 CYCLE:    17 TIME:   0.023 TIME LEFT:  2.00D  GRAD.:    14.330 HEAT:  83.37327
 CYCLE:    18 TIME:   0.023 TIME LEFT:  2.00D  GRAD.:    22.151 HEAT:  83.36471
 CYCLE:    19 TIME:   0.023 TIME LEFT:  2.00D  GRAD.:    13.644 HEAT:  83.25241
 CYCLE:    20 TIME:   0.023 TIME LEFT:  2.00D  GRAD.:    16.897 HEAT:  83.23402
 CYCLE:    21 TIME:   0.023 TIME LEFT:  2.00D  GRAD.:     9.954 HEAT:  83.15297
 CYCLE:    22 TIME:   0.020 TIME LEFT:  2.00D  GRAD.:    14.315 HEAT:  83.13389
 CYCLE:    23 TIME:   0.023 TIME LEFT:  2.00D  GRAD.:     6.146 HEAT:  83.06276
 CYCLE:    24 TIME:   0.023 TIME LEFT:  2.00D  GRAD.:     7.220 HEAT:  83.02841
 CYCLE:    25 TIME:   0.023 TIME LEFT:  2.00D  GRAD.:     8.887 HEAT:  82.97947
 CYCLE:    26 TIME:   0.023 TIME LEFT:  2.00D  GRAD.:     6.660 HEAT:  82.92601
 CYCLE:    27 TIME:   0.023 TIME LEFT:  2.00D  GRAD.:    10.234 HEAT:  82.87937
 CYCLE:    28 TIME:   0.023 TIME LEFT:  2.00D  GRAD.:     7.354 HEAT:  82.84114
 CYCLE:    29 TIME:   0.020 TIME LEFT:  2.00D  GRAD.:     5.696 HEAT:  82.81265
 CYCLE:    30 TIME:   0.023 TIME LEFT:  2.00D  GRAD.:     3.799 HEAT:  82.79078
 CYCLE:    31 TIME:   0.062 TIME LEFT:  2.00D  GRAD.:     4.973 HEAT:  82.77165
 CYCLE:    32 TIME:   0.023 TIME LEFT:  2.00D  GRAD.:     4.679 HEAT:  82.75853
 CYCLE:    33 TIME:   0.023 TIME LEFT:  2.00D  GRAD.:     2.994 HEAT:  82.74726
 CYCLE:    34 TIME:   0.023 TIME LEFT:  2.00D  GRAD.:     3.827 HEAT:  82.73707
 CYCLE:    35 TIME:   0.023 TIME LEFT:  2.00D  GRAD.:     3.927 HEAT:  82.72508
 CYCLE:    36 TIME:   0.020 TIME LEFT:  2.00D  GRAD.:     2.403 HEAT:  82.71105
 CYCLE:    37 TIME:   0.023 TIME LEFT:  2.00D  GRAD.:     1.950 HEAT:  82.70361
 CYCLE:    38 TIME:   0.023 TIME LEFT:  2.00D  GRAD.:     1.831 HEAT:  82.70127
 CYCLE:    39 TIME:   0.023 TIME LEFT:  2.00D  GRAD.:     1.438 HEAT:  82.69859
 CYCLE:    40 TIME:   0.023 TIME LEFT:  2.00D  GRAD.:     1.292 HEAT:  82.69518
 CYCLE:    41 TIME:   0.023 TIME LEFT:  2.00D  GRAD.:     1.354 HEAT:  82.69215
 CYCLE:    42 TIME:   0.023 TIME LEFT:  2.00D  GRAD.:     1.007 HEAT:  82.68909
 CYCLE:    43 TIME:   0.023 TIME LEFT:  2.00D  GRAD.:     0.672 HEAT:  82.68761
 CYCLE:    44 TIME:   0.020 TIME LEFT:  2.00D  GRAD.:     0.577 HEAT:  82.68683
 CYCLE:    45 TIME:   0.023 TIME LEFT:  2.00D  GRAD.:     0.532 HEAT:  82.68618
 CYCLE:    46 TIME:   0.023 TIME LEFT:  2.00D  GRAD.:     0.391 HEAT:  82.68564
 CYCLE:    47 TIME:   0.023 TIME LEFT:  2.00D  GRAD.:     0.225 HEAT:  82.68540
 CYCLE:    48 TIME:   0.023 TIME LEFT:  2.00D  GRAD.:     0.172 HEAT:  82.68530
 CYCLE:    49 TIME:   0.020 TIME LEFT:  2.00D  GRAD.:     0.169 HEAT:  82.68523
 CYCLE:    50 TIME:   0.023 TIME LEFT:  2.00D  GRAD.:     0.145 HEAT:  82.68515
 CYCLE:    51 TIME:   0.023 TIME LEFT:  2.00D  GRAD.:     0.118 HEAT:  82.68511
 CYCLE:    52 TIME:   0.023 TIME LEFT:  2.00D  GRAD.:     0.119 HEAT:  82.68507
 CYCLE:    53 TIME:   0.023 TIME LEFT:  2.00D  GRAD.:     0.130 HEAT:  82.68504
 CYCLE:    54 TIME:   0.023 TIME LEFT:  2.00D  GRAD.:     0.132 HEAT:  82.68499
 CYCLE:    55 TIME:   0.023 TIME LEFT:  2.00D  GRAD.:     0.096 HEAT:  82.68494
 CYCLE:    56 TIME:   0.020 TIME LEFT:  2.00D  GRAD.:     0.056 HEAT:  82.68493
 CYCLE:    57 TIME:   0.023 TIME LEFT:  2.00D  GRAD.:     0.059 HEAT:  82.68492
 CYCLE:    58 TIME:   0.023 TIME LEFT:  2.00D  GRAD.:     0.043 HEAT:  82.68491

     GRADIENT =  0.04281  IS LESS THAN CUTOFF =  0.05000



 -------------------------------------------------------------------------------
 pm3  precise nosym THREADS=1
 InChI=1S/C10H10/c1-2-7-10(6-1)8-4-3-5-9(8)10/h1-4,6-9H,5H2



     GEOMETRY OPTIMISED USING EIGENVECTOR FOLLOWING (EF).     
     SCF FIELD WAS ACHIEVED                                   


                              PM3 CALCULATION
                                                       MOPAC2016 (Version: 18.184L)
                                                       Thu Jun 13 16:00:08 2019
                                                       No. of days remaining =  20




          FINAL HEAT OF FORMATION =         82.68491 KCAL/MOL =     345.95368 KJ/MOL


          TOTAL ENERGY            =      -1336.14538 EV
          ELECTRONIC ENERGY       =      -7180.16291 EV  POINT GROUP:     C1  
          CORE-CORE REPULSION     =       5844.01753 EV
          COSMO AREA              =        168.14 SQUARE ANGSTROMS
          COSMO VOLUME            =        171.69 CUBIC ANGSTROMS

          GRADIENT NORM           =          0.04281 = 0.00957 PER ATOM
          IONIZATION POTENTIAL    =          9.159504 EV
          HOMO LUMO ENERGIES (EV) =         -9.160  0.054
          NO. OF FILLED LEVELS    =         25
          MOLECULAR WEIGHT        =        130.1890

          MOLECULAR DIMENSIONS (Angstroms)

            Atom       Atom       Distance
            H    20    H    18     7.25585
            H    19    H    11     4.77759
            H    14    H    17     4.06386


          SCF CALCULATIONS        =         65
 
          WALL-CLOCK TIME         =          1.477 SECONDS
          COMPUTATION TIME        =          0.563 SECONDS




   ATOM   CHEMICAL          X               Y               Z
  NUMBER   SYMBOL      (ANGSTROMS)     (ANGSTROMS)     (ANGSTROMS)
 
     1       C         -0.52500465  *   0.30618823  *   0.04066911  *
     2       C          0.67345220  *   0.86696668  *  -0.69281709  *
     3       C          0.64742457  *   0.86581555  *   0.82314514  *
     4       C          1.76429052  *  -0.10517462  *  -1.11998776  *
     5       C         -0.92933972  *  -1.13101912  *   0.03454704  *
     6       C         -1.82653637  *   1.04385092  *   0.01890192  *
     7       C          1.69998181  *  -0.09827761  *   1.24495941  *
     8       C          2.32660280  *  -0.61960331  *   0.17729388  *
     9       C         -2.27888382  *  -1.20849225  *   0.01172321  *
    10       C         -2.83873150  *   0.14814046  *   0.00184149  *
    11       H          0.54976413  *   1.77127720  *  -1.30533750  *
    12       H          0.50892809  *   1.76119263  *   1.44522716  *
    13       H          2.54388720  *   0.39944347  *  -1.71860661  *
    14       H          1.36696377  *  -0.92928019  *  -1.74057607  *
    15       H         -0.20558733  *  -1.94404035  *   0.05024184  *
    16       H         -1.88737794  *   2.12995411  *   0.01759282  *
    17       H          1.90375805  *  -0.30304545  *   2.29472421  *
    18       H          3.14612015  *  -1.33702614  *   0.19062622  *
    19       H         -2.89040740  *  -2.10819536  *   0.00251469  *
    20       H         -3.90671985  *   0.35475674  *  -0.01600293  *

                             CARTESIAN COORDINATES

   1    C       -0.525004650     0.306188230     0.040669113
   2    C        0.673452201     0.866966678    -0.692817091
   3    C        0.647424566     0.865815546     0.823145140
   4    C        1.764290521    -0.105174617    -1.119987760
   5    C       -0.929339717    -1.131019119     0.034547038
   6    C       -1.826536368     1.043850923     0.018901915
   7    C        1.699981809    -0.098277612     1.244959415
   8    C        2.326602801    -0.619603310     0.177293880
   9    C       -2.278883817    -1.208492251     0.011723211
  10    C       -2.838731495     0.148140458     0.001841490
  11    H        0.549764127     1.771277199    -1.305337498
  12    H        0.508928090     1.761192629     1.445227160
  13    H        2.543887198     0.399443473    -1.718606610
  14    H        1.366963770    -0.929280190    -1.740576065
  15    H       -0.205587332    -1.944040351     0.050241838
  16    H       -1.887377936     2.129954115     0.017592818
  17    H        1.903758047    -0.303045454     2.294724212
  18    H        3.146120152    -1.337026137     0.190626221
  19    H       -2.890407402    -2.108195365     0.002514687
  20    H       -3.906719852     0.354756740    -0.016002934


           Empirical Formula: C10 H10  =    20 atoms



      MOLECULAR POINT GROUP   :   C1  


                  EIGENVALUES  
 -42.81483 -36.75567 -30.05700 -27.75981 -27.16317 -23.29565 -20.17266 -19.37055
 -19.31121 -18.34723 -17.43228 -16.89552 -14.94408 -14.33212 -14.09042 -13.86775
 -13.61530 -13.10455 -13.07506 -12.98193 -12.26984 -11.43523 -10.78413  -9.59015
  -9.15950   0.05416   0.94299   2.06660   2.83442   3.02128   3.22081   3.28854
   3.35762   3.49802   3.61780   3.82778   4.00354   4.04883   4.15928   4.27682
   4.38828   4.48618   4.57376   4.82337   5.11395   5.39324   5.79106   5.90256
   5.92494   6.21037


              NET ATOMIC CHARGES AND DIPOLE CONTRIBUTIONS

  ATOM NO.   TYPE          CHARGE      No. of ELECS.   s-Pop       p-Pop       
    1          C          -0.060092        4.0601     1.17235     2.88774
    2          C          -0.107735        4.1077     1.18539     2.92235
    3          C          -0.071567        4.0716     1.17318     2.89839
    4          C          -0.043423        4.0434     1.14873     2.89469
    5          C          -0.116721        4.1167     1.19616     2.92056
    6          C          -0.131988        4.1320     1.19891     2.93308
    7          C          -0.123641        4.1236     1.19500     2.92865
    8          C          -0.154585        4.1546     1.20721     2.94738
    9          C          -0.121081        4.1211     1.19255     2.92853
   10          C          -0.113599        4.1136     1.19233     2.92127
   11          H           0.107168        0.8928     0.89283
   12          H           0.109165        0.8908     0.89084
   13          H           0.062304        0.9377     0.93770
   14          H           0.070256        0.9297     0.92974
   15          H           0.121419        0.8786     0.87858
   16          H           0.116217        0.8838     0.88378
   17          H           0.117350        0.8826     0.88265
   18          H           0.113128        0.8869     0.88687
   19          H           0.113930        0.8861     0.88607
   20          H           0.113495        0.8865     0.88651
 DIPOLE           X         Y         Z       TOTAL
 POINT-CHG.     0.699     0.139    -0.200     0.740
 HYBRID        -0.055     0.007     0.021     0.059
 SUM            0.644     0.146    -0.179     0.684


          ATOMIC ORBITAL ELECTRON POPULATIONS

     Atom    s        px        py        pz   
    1  C   1.17235   0.89944   0.94403   1.04428
    2  C   1.18539   0.96167   1.00569   0.95499
    3  C   1.17318   0.96015   0.99600   0.94224
    4  C   1.14873   0.95957   0.97703   0.95810
    5  C   1.19616   0.96260   0.94589   1.01208
    6  C   1.19891   0.93546   0.97391   1.02371
    7  C   1.19500   0.96982   0.97961   0.97921
    8  C   1.20721   0.99154   1.00283   0.95301
    9  C   1.19255   0.95247   0.96246   1.01360
   10  C   1.19233   0.97467   0.94027   1.00632
   11  H   0.89283
   12  H   0.89084
   13  H   0.93770
   14  H   0.92974
   15  H   0.87858
   16  H   0.88378
   17  H   0.88265
   18  H   0.88687
   19  H   0.88607
   20  H   0.88651
 *******************************************************************************
 ** Site#: 14399        For non-commercial use only    Version 18.184L 64BITS **
 *******************************************************************************
 ** Cite this program as: MOPAC2016, Version: 18.184L, James J. P. Stewart,   **
 ** Stewart Computational Chemistry, web: HTTP://OpenMOPAC.net. Days left:  20**
 *******************************************************************************
 **                                                                           **
 **                                MOPAC2016                                  **
 **                                                                           **
 *******************************************************************************

                              PM3 CALCULATION RESULTS

 *******************************************************************************
 *  CALCULATION DONE:                                Thu Jun 13 16:00:08 2019  *
 *  PM3        - The PM3 Hamiltonian to be used
 *  OLDGEO     - PREVIOUS GEOMETRY TO BE USED
 *  PRECISE    - CRITERIA TO BE INCREASED BY 100 TIMES
 *  NOSYM      - POINT-GROUP SYMMETRY SET TO C1
 *  THREADS=1  - MULTI-THREADING NOT USED
 *  T=         - A TIME OF 172800.0 SECONDS REQUESTED
 *  DUMP=N     - RESTART FILE WRITTEN EVERY  7200.000 SECONDS
 *  THERMO     - THERMODYNAMIC QUANTITIES TO BE CALCULATED
 *******************************************************************************
oldgeo thermo nosym precise THREADS=1  pm3
 InChI=1S/C10H10/c1-2-7-10(6-1)8-4-3-5-9(8)10/h1-4,6-9H,5H2

   ATOM   CHEMICAL          X               Y               Z
  NUMBER   SYMBOL      (ANGSTROMS)     (ANGSTROMS)     (ANGSTROMS)
 
     1       C         -0.52500465  *   0.30618823  *   0.04066911  *
     2       C          0.67345220  *   0.86696668  *  -0.69281709  *
     3       C          0.64742457  *   0.86581555  *   0.82314514  *
     4       C          1.76429052  *  -0.10517462  *  -1.11998776  *
     5       C         -0.92933972  *  -1.13101912  *   0.03454704  *
     6       C         -1.82653637  *   1.04385092  *   0.01890192  *
     7       C          1.69998181  *  -0.09827761  *   1.24495941  *
     8       C          2.32660280  *  -0.61960331  *   0.17729388  *
     9       C         -2.27888382  *  -1.20849225  *   0.01172321  *
    10       C         -2.83873150  *   0.14814046  *   0.00184149  *
    11       H          0.54976413  *   1.77127720  *  -1.30533750  *
    12       H          0.50892809  *   1.76119263  *   1.44522716  *
    13       H          2.54388720  *   0.39944347  *  -1.71860661  *
    14       H          1.36696377  *  -0.92928019  *  -1.74057607  *
    15       H         -0.20558733  *  -1.94404035  *   0.05024184  *
    16       H         -1.88737794  *   2.12995411  *   0.01759282  *
    17       H          1.90375805  *  -0.30304545  *   2.29472421  *
    18       H          3.14612015  *  -1.33702614  *   0.19062622  *
    19       H         -2.89040740  *  -2.10819536  *   0.00251469  *
    20       H         -3.90671985  *   0.35475674  *  -0.01600293  *
 


          CARTESIAN COORDINATES 

    NO.       ATOM           X           Y           Z

     1         C         -0.5250      0.3062      0.0407
     2         C          0.6735      0.8670     -0.6928
     3         C          0.6474      0.8658      0.8231
     4         C          1.7643     -0.1052     -1.1200
     5         C         -0.9293     -1.1310      0.0345
     6         C         -1.8265      1.0439      0.0189
     7         C          1.7000     -0.0983      1.2450
     8         C          2.3266     -0.6196      0.1773
     9         C         -2.2789     -1.2085      0.0117
    10         C         -2.8387      0.1481      0.0018
    11         H          0.5498      1.7713     -1.3053
    12         H          0.5089      1.7612      1.4452
    13         H          2.5439      0.3994     -1.7186
    14         H          1.3670     -0.9293     -1.7406
    15         H         -0.2056     -1.9440      0.0502
    16         H         -1.8874      2.1300      0.0176
    17         H          1.9038     -0.3030      2.2947
    18         H          3.1461     -1.3370      0.1906
    19         H         -2.8904     -2.1082      0.0025
    20         H         -3.9067      0.3548     -0.0160

  H: (PM3): J. J. P. STEWART, J. COMP. CHEM. 10, 209 (1989).
  C: (PM3): J. J. P. STEWART, J. COMP. CHEM. 10, 209 (1989).

           Empirical Formula: C10 H10  =    20 atoms



      MOLECULAR POINT GROUP   :   C1  


      RHF CALCULATION, NO. OF DOUBLY OCCUPIED LEVELS = 25



          HEAT OF FORMATION =      82.684915 KCALS/MOLE


          CARTESIAN COORDINATE DERIVATIVES

   NUMBER  ATOM         X            Y            Z

     1       C     -0.008073    -0.003212    -0.008271
     2       C      0.013542     0.005694     0.006164
     3       C      0.009027     0.004235     0.001171
     4       C     -0.003120    -0.003075    -0.001708
     5       C      0.013296     0.006902    -0.005184
     6       C     -0.000502     0.000398     0.002516
     7       C     -0.010035    -0.007222     0.000037
     8       C     -0.010596    -0.005400     0.001064
     9       C      0.009635     0.000793    -0.005059
    10       C     -0.004154     0.002583     0.014228
    11       H      0.001045    -0.003678    -0.000654
    12       H      0.007123     0.005640    -0.002429
    13       H      0.007374     0.004078     0.003946
    14       H     -0.009974     0.000158     0.002076
    15       H     -0.001403     0.005232    -0.004126
    16       H     -0.010838    -0.001060    -0.000162
    17       H     -0.004998    -0.003960    -0.005647
    18       H     -0.003109    -0.007811    -0.001127
    19       H      0.013461    -0.000694     0.001793
    20       H     -0.007703     0.000399     0.001373
 


          GRADIENT NORM =   0.04764


          TIME FOR SCF CALCULATION =    0.03

          TIME FOR DERIVATIVES     =    0.01

          MOLECULAR WEIGHT =  130.19



          ROTATIONAL CONSTANTS IN CM(-1)

          A =    0.10858604   B =    0.03571184   C =    0.03361272



           PRINCIPAL MOMENTS OF INERTIA IN UNITS OF 10**(-40)*GRAM-CM**2

          A =      257.7935   B =      783.8514   C =      832.8031


          ORIENTATION OF MOLECULE IN FORCE CALCULATION

    NO.       ATOM         X         Y         Z

     1          C      -0.2155   -0.1196   -0.4499
     2          C       1.2974   -0.1196   -0.4499
     3          C       0.5413    1.1946   -0.4499
     4          C       2.0083   -0.2242    0.8922
     5          C      -1.0656   -0.6064    0.6768
     6          C      -0.9626   -0.5494   -1.6729
     7          C       0.8133    1.8176    0.8742
     8          C       1.6341    1.0463    1.6061
     9          C      -2.1523   -1.2311    0.1703
    10          C      -2.0881   -1.1957   -1.2955
    11          H       1.8315   -0.5172   -1.3244
    12          H       0.4619    1.8684   -1.3145
    13          H       3.1031   -0.3007    0.7650
    14          H       1.6889   -1.1151    1.4635
    15          H      -0.8012   -0.4499    1.7212
    16          H      -0.6075   -0.3464   -2.6809
    17          H       0.3898    2.7810    1.1534
    18          H       2.0109    1.2628    2.6049
    19          H      -2.9658   -1.6968    0.7225
    20          H      -2.8489   -1.6330   -1.9386


    FIRST DERIVATIVES WILL BE USED IN THE CALCULATION OF SECOND DERIVATIVES

          ESTIMATED TIME TO COMPLETE CALCULATION =        9.38 SECONDS

    FOR POINT-GROUP C1   THERE ARE   1 UNIQUE SYMMETRY FUNCTIONS.

 STEP:   1 TIME =     0.05 SECS, INTEGRAL =      0.05 TIME LEFT: 172799.91
 STEP:   2 TIME =     0.05 SECS, INTEGRAL =      0.10 TIME LEFT: 172799.86
 STEP:   3 TIME =     0.05 SECS, INTEGRAL =      0.15 TIME LEFT: 172799.81
 STEP:   4 TIME =     0.04 SECS, INTEGRAL =      0.19 TIME LEFT: 172799.77
 STEP:   5 TIME =     0.05 SECS, INTEGRAL =      0.24 TIME LEFT: 172799.72
 STEP:   6 TIME =     0.05 SECS, INTEGRAL =      0.29 TIME LEFT: 172799.68
 STEP:   7 TIME =     0.05 SECS, INTEGRAL =      0.33 TIME LEFT: 172799.63
 STEP:   8 TIME =     0.05 SECS, INTEGRAL =      0.38 TIME LEFT: 172799.58
 STEP:   9 TIME =     0.04 SECS, INTEGRAL =      0.42 TIME LEFT: 172799.54
 STEP:  10 TIME =     0.05 SECS, INTEGRAL =      0.47 TIME LEFT: 172799.49
 STEP:  11 TIME =     0.05 SECS, INTEGRAL =      0.52 TIME LEFT: 172799.45
 STEP:  12 TIME =     0.04 SECS, INTEGRAL =      0.56 TIME LEFT: 172799.40
 STEP:  13 TIME =     0.05 SECS, INTEGRAL =      0.61 TIME LEFT: 172799.36
 STEP:  14 TIME =     0.05 SECS, INTEGRAL =      0.65 TIME LEFT: 172799.31
 STEP:  15 TIME =     0.05 SECS, INTEGRAL =      0.70 TIME LEFT: 172799.26
 STEP:  16 TIME =     0.05 SECS, INTEGRAL =      0.75 TIME LEFT: 172799.21
 STEP:  17 TIME =     0.04 SECS, INTEGRAL =      0.79 TIME LEFT: 172799.17
 STEP:  18 TIME =     0.05 SECS, INTEGRAL =      0.84 TIME LEFT: 172799.12
 STEP:  19 TIME =     0.05 SECS, INTEGRAL =      0.88 TIME LEFT: 172799.08
 STEP:  20 TIME =     0.04 SECS, INTEGRAL =      0.93 TIME LEFT: 172799.04
 STEP:  21 TIME =     0.05 SECS, INTEGRAL =      0.97 TIME LEFT: 172798.99
 STEP:  22 TIME =     0.05 SECS, INTEGRAL =      1.02 TIME LEFT: 172798.94
 STEP:  23 TIME =     0.04 SECS, INTEGRAL =      1.06 TIME LEFT: 172798.90
 STEP:  24 TIME =     0.05 SECS, INTEGRAL =      1.11 TIME LEFT: 172798.85
 STEP:  25 TIME =     0.05 SECS, INTEGRAL =      1.16 TIME LEFT: 172798.80
 STEP:  26 TIME =     0.05 SECS, INTEGRAL =      1.20 TIME LEFT: 172798.76
 STEP:  27 TIME =     0.05 SECS, INTEGRAL =      1.25 TIME LEFT: 172798.71
 STEP:  28 TIME =     0.04 SECS, INTEGRAL =      1.29 TIME LEFT: 172798.67
 STEP:  29 TIME =     0.05 SECS, INTEGRAL =      1.34 TIME LEFT: 172798.62
 STEP:  30 TIME =     0.05 SECS, INTEGRAL =      1.39 TIME LEFT: 172798.57
 STEP:  31 TIME =     0.04 SECS, INTEGRAL =      1.43 TIME LEFT: 172798.53
 STEP:  32 TIME =     0.05 SECS, INTEGRAL =      1.48 TIME LEFT: 172798.48
 STEP:  33 TIME =     0.05 SECS, INTEGRAL =      1.52 TIME LEFT: 172798.44
 STEP:  34 TIME =     0.05 SECS, INTEGRAL =      1.57 TIME LEFT: 172798.39
 STEP:  35 TIME =     0.05 SECS, INTEGRAL =      1.62 TIME LEFT: 172798.34
 STEP:  36 TIME =     0.04 SECS, INTEGRAL =      1.66 TIME LEFT: 172798.30
 STEP:  37 TIME =     0.05 SECS, INTEGRAL =      1.71 TIME LEFT: 172798.25
 STEP:  38 TIME =     0.04 SECS, INTEGRAL =      1.75 TIME LEFT: 172798.21
 STEP:  39 TIME =     0.05 SECS, INTEGRAL =      1.80 TIME LEFT: 172798.16
 STEP:  40 TIME =     0.05 SECS, INTEGRAL =      1.84 TIME LEFT: 172798.12
 STEP:  41 TIME =     0.05 SECS, INTEGRAL =      1.89 TIME LEFT: 172798.07
 STEP:  42 TIME =     0.05 SECS, INTEGRAL =      1.94 TIME LEFT: 172798.02
 STEP:  43 TIME =     0.05 SECS, INTEGRAL =      1.98 TIME LEFT: 172797.98
 STEP:  44 TIME =     0.05 SECS, INTEGRAL =      2.03 TIME LEFT: 172797.93
 STEP:  45 TIME =     0.04 SECS, INTEGRAL =      2.07 TIME LEFT: 172797.89
 STEP:  46 TIME =     0.05 SECS, INTEGRAL =      2.12 TIME LEFT: 172797.84
 STEP:  47 TIME =     0.05 SECS, INTEGRAL =      2.17 TIME LEFT: 172797.79
 STEP:  48 TIME =     0.05 SECS, INTEGRAL =      2.21 TIME LEFT: 172797.75
 STEP:  49 TIME =     0.05 SECS, INTEGRAL =      2.27 TIME LEFT: 172797.70
 STEP:  50 TIME =     0.05 SECS, INTEGRAL =      2.31 TIME LEFT: 172797.65
 STEP:  51 TIME =     0.04 SECS, INTEGRAL =      2.36 TIME LEFT: 172797.61
 STEP:  52 TIME =     0.05 SECS, INTEGRAL =      2.40 TIME LEFT: 172797.56
 STEP:  53 TIME =     0.05 SECS, INTEGRAL =      2.45 TIME LEFT: 172797.51
 STEP:  54 TIME =     0.04 SECS, INTEGRAL =      2.49 TIME LEFT: 172797.47
 STEP:  55 TIME =     0.04 SECS, INTEGRAL =      2.54 TIME LEFT: 172797.43
 STEP:  56 TIME =     0.05 SECS, INTEGRAL =      2.58 TIME LEFT: 172797.38
 STEP:  57 TIME =     0.05 SECS, INTEGRAL =      2.63 TIME LEFT: 172797.33
 STEP:  58 TIME =     0.05 SECS, INTEGRAL =      2.68 TIME LEFT: 172797.29
 STEP:  59 TIME =     0.05 SECS, INTEGRAL =      2.72 TIME LEFT: 172797.24
 STEP:  60 TIME =     0.04 SECS, INTEGRAL =      2.77 TIME LEFT: 172797.20

(To convert to Hartree/Bohr^2, multiply by (10^(-21) x N x a0^2)/(4.184 x 627.51) =  0.0642)


           FORCE MATRIX IN MILLIDYNES/ANGSTROM


                  C  1       C  2       C  3       C  4       C  5       C  6
 ------------------------------------------------------------------------------
     C    1  16.209957
     C    2   4.340111  15.190793
     C    3   4.155358   4.357465  15.505027
     C    4   0.542079   4.009620   0.792261  14.710236
     C    5   4.477563   0.516535   0.511444   0.030387  18.137811
     C    6   4.393234   0.563703   0.566962   0.045756   1.095218  18.111688
     C    7   0.594636   0.947035   4.784436   1.122089   0.038866   0.046231
     C    8   0.088234   0.940977   1.259642   4.407640   0.033393   0.013403
     C    9   1.342778   0.091872   0.093265   0.016164   9.710908   1.564780
     C   10   1.331916   0.089937   0.091093   0.012921   1.561239   9.727203
     H   11   0.442896   4.754598   0.417212   0.411868   0.037516   0.028481
     H   12   0.446604   0.402835   4.750991   0.040976   0.036595   0.028942
     H   13   0.042765   0.432942   0.018063   4.543985   0.007377   0.008629
     H   14   0.013510   0.436289   0.042834   4.516428   0.008691   0.004643
     H   15   0.419580   0.011175   0.009865   0.011054   5.049257   0.039054
     H   16   0.415177   0.012215   0.012086   0.002090   0.038529   5.073318
     H   17   0.013455   0.043071   0.416855   0.111669   0.003555   0.002650
     H   18   0.018700   0.044767   0.112876   0.407709   0.002884   0.004506
     H   19   0.111772   0.014953   0.014414   0.001738   0.444322   0.048754
     H   20   0.110727   0.015380   0.015035   0.002768   0.049242   0.444822


                  C  7       C  8       C  9       C 10       H 11       H 12
 ------------------------------------------------------------------------------
     C    7  18.265682
     C    8  10.272099  18.087574
     C    9   0.013417   0.005000  18.284165
     C   10   0.011296   0.004837   5.098718  18.290935
     H   11   0.040355   0.037370   0.013803   0.016391   5.287297
     H   12   0.415932   0.042640   0.014360   0.016238   0.013759   5.282018
     H   13   0.037593   0.428047   0.003063   0.003036   0.031475   0.001557
     H   14   0.038493   0.429049   0.003210   0.003115   0.014299   0.006687
     H   15   0.008041   0.014082   0.440762   0.100213   0.001225   0.001300
     H   16   0.002334   0.001180   0.099373   0.443270   0.005649   0.005355
     H   17   5.051018   0.447666   0.002001   0.001537   0.003953   0.013692
     H   18   0.445592   5.034890   0.001743   0.001405   0.004885   0.009914
     H   19   0.001985   0.000650   5.077627   0.419536   0.002113   0.002084
     H   20   0.003034   0.001002   0.418836   5.076819   0.001149   0.001112


                  H 13       H 14       H 15       H 16       H 17       H 18
 ------------------------------------------------------------------------------
     H   13   5.137317
     H   14   0.549890   5.121967
     H   15   0.001010   0.014165   5.447884
     H   16   0.000482   0.000506   0.009756   5.473929
     H   17   0.015394   0.014572   0.002665   0.000586   5.441245
     H   18   0.013527   0.012794   0.002428   0.000373   0.044993   5.427311
     H   19   0.000231   0.000577   0.041652   0.005490   0.000517   0.000450
     H   20   0.000536   0.000388   0.005270   0.041317   0.000383   0.000361


                  H 19       H 20
 ------------------------------
     H   19   5.468469
     H   20   0.009046   5.467006


          HEAT OF FORMATION =      82.684915 KCALS/MOLE

          ZERO POINT ENERGY     105.960 KCAL/MOL


           NORMAL COORDINATE ANALYSIS (Total motion = 1 Angstrom)


   Root No.       1         2         3         4         5         6         7         8

                 1 A       2 A       3 A       4 A       5 A       6 A       7 A       8 A   

                 141.3     163.1     176.6     306.1     376.1     436.2     502.3     554.3
  
           1    0.0241   -0.0120    0.0098   -0.0098    0.0022   -0.0060   -0.0067    0.0279
           2   -0.0424   -0.0110    0.0031    0.0115   -0.0011    0.0027    0.0113   -0.0393
           3    0.0005    0.0241   -0.0154    0.0154    0.0399   -0.0256   -0.0003    0.0046
           4    0.0237   -0.0121    0.0094   -0.0045   -0.0064   -0.0003   -0.0102    0.0441
           5   -0.0023   -0.0154   -0.0099   -0.0289    0.0138    0.0146    0.0041    0.0262
           6    0.0005    0.0231    0.0002    0.0114   -0.0190    0.0092    0.0064   -0.0164
           7   -0.0103   -0.0080    0.0212    0.0243   -0.0116    0.0127   -0.0006   -0.0123
           8   -0.0219   -0.0128   -0.0032   -0.0129    0.0134    0.0130    0.0103   -0.0131
           9   -0.0009    0.0108   -0.0221   -0.0154   -0.0091    0.0125   -0.0044    0.0030
          10    0.0322    0.0032   -0.0328    0.0409   -0.0158    0.0148   -0.0007    0.0101
          11    0.0258    0.0099   -0.0097    0.0183   -0.0072    0.0182   -0.0022    0.0011
          12   -0.0011    0.0181    0.0250   -0.0091   -0.0232    0.0084   -0.0035    0.0051
          13    0.0197   -0.0190    0.0410   -0.0240   -0.0044    0.0024   -0.0167   -0.0289
          14   -0.0351   -0.0463   -0.0217    0.0172   -0.0282   -0.0172    0.0309    0.0225
          15    0.0003    0.0027   -0.0019    0.0076    0.0275   -0.0276    0.0000   -0.0030
          16    0.0092   -0.0059   -0.0242   -0.0094    0.0375   -0.0282    0.0284   -0.0145
          17   -0.0160    0.0257    0.0323    0.0305   -0.0037   -0.0322   -0.0484    0.0113
          18    0.0003    0.0054   -0.0036    0.0088    0.0268   -0.0146   -0.0006    0.0109
          19   -0.0355    0.0284   -0.0012   -0.0052    0.0290    0.0525    0.0002    0.0121
          20   -0.0140    0.0231    0.0094   -0.0091    0.0249    0.0277   -0.0011   -0.0006
          21   -0.0002   -0.0154   -0.0251   -0.0129   -0.0266    0.0052    0.0041   -0.0097
          22   -0.0129    0.0467   -0.0387   -0.0240   -0.0381   -0.0078    0.0034   -0.0051
          23    0.0116    0.0421   -0.0002   -0.0096   -0.0251   -0.0061   -0.0038   -0.0048
          24    0.0011   -0.0165    0.0067    0.0071   -0.0031    0.0372   -0.0012    0.0059
          25   -0.0203   -0.0140    0.0340    0.0005   -0.0109   -0.0178    0.0280   -0.0059
          26    0.0347   -0.0348   -0.0220   -0.0179    0.0046   -0.0034   -0.0469   -0.0229
          27   -0.0000   -0.0246    0.0154   -0.0039   -0.0024   -0.0032    0.0000   -0.0016
          28   -0.0283   -0.0100   -0.0139    0.0049    0.0207   -0.0351   -0.0295   -0.0095
          29    0.0492    0.0174    0.0241   -0.0005    0.0135   -0.0190    0.0529   -0.0056
          30   -0.0000   -0.0232    0.0144   -0.0033   -0.0013   -0.0019   -0.0002    0.0009
          31    0.0337   -0.0162    0.0267   -0.0314   -0.0248    0.0145   -0.0210    0.0766
          32    0.0106   -0.0283   -0.0213   -0.0725    0.0110    0.0265   -0.0073    0.0847
          33    0.0007    0.0263    0.0168    0.0142   -0.0289    0.0123    0.0043   -0.0223
          34   -0.0282   -0.0164    0.0371    0.0490   -0.0614    0.0245    0.0154   -0.0782
          35   -0.0247   -0.0299   -0.0149   -0.0245   -0.0052    0.0154    0.0145   -0.0161
          36   -0.0014   -0.0028   -0.0327   -0.0266   -0.0189    0.0129   -0.0019    0.0062
          37    0.0348   -0.0009   -0.0298    0.0439   -0.0124    0.0183   -0.0018    0.0144
          38    0.0699   -0.0257   -0.0237    0.1211    0.0214    0.0906   -0.0028   -0.0255
          39   -0.0063    0.0051    0.0610   -0.0563   -0.0123   -0.0178   -0.0140    0.0654
          40    0.0705   -0.0138   -0.0610    0.1458   -0.0034    0.0827    0.0034   -0.0451
          41    0.0132    0.0387   -0.0031   -0.0136   -0.0323   -0.0161   -0.0039   -0.0014
          42    0.0003    0.0538    0.0201   -0.0034   -0.0558   -0.0108   -0.0040   -0.0282
          43    0.0416   -0.0256    0.0703   -0.0405   -0.0113    0.0268   -0.0375   -0.1042
          44   -0.0733   -0.0851   -0.0458    0.0302   -0.0664   -0.0396    0.0702    0.1339
          45    0.0004    0.0098   -0.0054    0.0097    0.0347   -0.0303   -0.0006   -0.0007
          46    0.0204   -0.0006   -0.0588   -0.0191    0.0777   -0.0362    0.0838   -0.0620
          47   -0.0351    0.0614    0.0643    0.0675   -0.0186   -0.0698   -0.1445    0.0881
          48    0.0004    0.0143   -0.0093    0.0128    0.0377   -0.0248   -0.0005    0.0096
          49   -0.0692    0.0445    0.0084   -0.0276    0.0902    0.1199   -0.0003    0.0433
          50   -0.0286    0.0357    0.0203   -0.0173    0.0566    0.0653   -0.0042    0.0186
          51   -0.0006   -0.0342   -0.0481   -0.0190   -0.0434   -0.0219    0.0144   -0.0284
          52   -0.0234    0.0837   -0.0685   -0.0716   -0.0824   -0.0446    0.0072   -0.0225
          53    0.0220    0.0743   -0.0004   -0.0230   -0.0626   -0.0348   -0.0068   -0.0048
          54    0.0027   -0.0374    0.0179    0.0278    0.0216    0.0576   -0.0019    0.0124
          55   -0.0409   -0.0136    0.0579    0.0114   -0.0323   -0.0115    0.1024   -0.0094
          56    0.0706   -0.0594   -0.0485   -0.0477    0.0128    0.0095   -0.1767   -0.0183
          57   -0.0002   -0.0447    0.0282   -0.0130   -0.0269    0.0173    0.0001   -0.0024
          58   -0.0568   -0.0092   -0.0369    0.0143    0.0336   -0.0420   -0.1001   -0.0290
          59    0.0993    0.0438    0.0467   -0.0042    0.0231   -0.0264    0.1757    0.0396
          60   -0.0003   -0.0421    0.0262   -0.0119   -0.0227    0.0105   -0.0000   -0.0069


   Root No.       9        10        11        12        13        14        15        16

                 9 A      10 A      11 A      12 A      13 A      14 A      15 A      16 A   

                 594.7     719.9     771.7     776.0     798.0     813.7     831.1     890.9
  
           1    0.0051   -0.0105   -0.0117   -0.0037    0.0074   -0.0059    0.0030   -0.0234
           2    0.0265    0.0258   -0.0046   -0.0002   -0.0086    0.0099    0.0100   -0.0154
           3    0.0116   -0.0004    0.0028    0.0019    0.0048   -0.0031    0.0395    0.0015
           4    0.0283    0.0095   -0.0041   -0.0183    0.0070   -0.0060    0.0064   -0.0103
           5    0.0241    0.0387   -0.0009    0.0058   -0.0184    0.0089    0.0050    0.0216
           6   -0.0175    0.0448   -0.0176    0.0183    0.0113    0.0031   -0.0043    0.0057
           7    0.0582   -0.0407   -0.0142   -0.0065   -0.0011   -0.0011    0.0076    0.0103
           8    0.0205    0.0204   -0.0157    0.0169   -0.0058    0.0081    0.0052   -0.0170
           9   -0.0246   -0.0304   -0.0120   -0.0101    0.0356   -0.0154   -0.0081    0.0014
          10    0.0051    0.0447   -0.0006    0.0088    0.0207   -0.0005   -0.0007   -0.0068
          11    0.0054   -0.0331    0.0307   -0.0016   -0.0195    0.0007    0.0005   -0.0035
          12   -0.0058    0.0408    0.0002    0.0028   -0.0083    0.0100    0.0020   -0.0032
          13   -0.0232   -0.0034    0.0018    0.0100    0.0080    0.0158    0.0343   -0.0061
          14   -0.0228    0.0059    0.0090   -0.0079    0.0027   -0.0367    0.0140   -0.0033
          15   -0.0059   -0.0036    0.0111    0.0020   -0.0018   -0.0015    0.0268    0.0540
          16   -0.0063   -0.0053   -0.0069    0.0066   -0.0176   -0.0100   -0.0344   -0.0067
          17   -0.0086    0.0048    0.0087   -0.0190    0.0125    0.0265   -0.0197   -0.0036
          18    0.0321    0.0010   -0.0100   -0.0040    0.0000   -0.0008    0.0437   -0.0326
          19   -0.0089   -0.0020    0.0279    0.0139   -0.0046    0.0019   -0.0094    0.0058
          20   -0.0055   -0.0290   -0.0272    0.0056    0.0501   -0.0187   -0.0097   -0.0050
          21    0.0040   -0.0336   -0.0101   -0.0068    0.0046   -0.0076    0.0034   -0.0087
          22    0.0083    0.0016    0.0205    0.0126   -0.0064    0.0034   -0.0089    0.0051
          23    0.0065   -0.0247    0.0107    0.0003    0.0039   -0.0032   -0.0058    0.0053
          24   -0.0027   -0.0233    0.0348   -0.0077   -0.0409    0.0078    0.0071    0.0067
          25   -0.0358   -0.0060    0.0084    0.0107    0.0101    0.0086    0.0568    0.0163
          26   -0.0147    0.0081    0.0111   -0.0039    0.0043   -0.0293    0.0276    0.0095
          27   -0.0019   -0.0005   -0.0029   -0.0032   -0.0078    0.0046   -0.0529   -0.0025
          28   -0.0182   -0.0041   -0.0030    0.0042   -0.0174   -0.0032   -0.0567    0.0036
          29   -0.0090    0.0012    0.0078   -0.0145    0.0063    0.0178   -0.0333    0.0028
          30    0.0055   -0.0000   -0.0061   -0.0045   -0.0088    0.0050   -0.0568   -0.0098
          31    0.0193    0.0352   -0.0182   -0.0309    0.0086   -0.0012   -0.0320    0.0637
          32    0.0084    0.0773   -0.0435   -0.0194    0.0326   -0.0040   -0.0514    0.2151
          33   -0.0157    0.0442   -0.0057    0.0219   -0.0115    0.0123   -0.0011   -0.0386
          34    0.1041   -0.0613   -0.1053   -0.0100    0.0043    0.0000   -0.0258    0.1908
          35    0.0261    0.0087   -0.0061    0.0060   -0.0307    0.0126    0.0026   -0.0455
          36   -0.0241   -0.0386    0.0038   -0.0180    0.0156   -0.0122   -0.0064   -0.0389
          37    0.0037    0.0470   -0.0053    0.0027    0.0189   -0.0005    0.0026   -0.0096
          38   -0.0733   -0.0373   -0.0369   -0.0477   -0.0680    0.0202    0.0145    0.0088
          39    0.0459    0.0517    0.0215   -0.0175    0.0084   -0.0052    0.0240   -0.0367
          40   -0.0855    0.0518   -0.0735   -0.0128   -0.0109    0.0189   -0.0062    0.0149
          41    0.0284   -0.0415    0.0561    0.0211    0.0167   -0.0083   -0.0153   -0.0219
          42   -0.0167    0.0330    0.0015    0.0283    0.0341    0.0051   -0.0256   -0.0223
          43   -0.0261    0.0536    0.0227   -0.0224   -0.0193   -0.1110   -0.0472   -0.0299
          44   -0.0855   -0.0957   -0.0290    0.0478    0.0378    0.2037   -0.0043   -0.0142
          45    0.0038   -0.0028    0.0117    0.0020   -0.0000   -0.0054    0.0509    0.0624
          46    0.0061    0.0106    0.0423   -0.0620    0.0537    0.0924    0.0305    0.0002
          47   -0.0447   -0.0295   -0.0565    0.1079   -0.1045   -0.1613    0.0102    0.0004
          48    0.0292   -0.0002   -0.0060   -0.0026    0.0017   -0.0026    0.0736   -0.0300
          49   -0.1145    0.0263   -0.0552   -0.0778   -0.0647    0.0072    0.0358   -0.0380
          50   -0.0640   -0.0257   -0.0673   -0.0549    0.0108   -0.0162    0.0169   -0.0174
          51    0.0452   -0.0017    0.0011    0.0634    0.0519   -0.0089   -0.0204   -0.0342
          52   -0.0309   -0.0307   -0.0997   -0.1133   -0.1349    0.0237    0.0859   -0.0085
          53   -0.0176    0.0373   -0.0417   -0.0675   -0.0955    0.0336    0.0544    0.0063
          54    0.0171   -0.0245    0.0919    0.0546    0.0287   -0.0077   -0.0417    0.0112
          55   -0.0321    0.0325    0.0435   -0.0507    0.0335   -0.1027    0.0569   -0.0121
          56   -0.0271   -0.0553   -0.0544    0.1070   -0.0218    0.1585    0.0737   -0.0095
          57   -0.0054    0.0028   -0.0069   -0.0002    0.0042   -0.0007   -0.0167   -0.0596
          58    0.0069    0.0282    0.0337   -0.0780    0.0374    0.0385   -0.0756   -0.0238
          59   -0.0190   -0.0557   -0.0734    0.1186   -0.1041   -0.0475   -0.0262   -0.0185
          60   -0.0179    0.0002    0.0057    0.0021    0.0009    0.0002   -0.0414    0.0362


   Root No.      17        18        19        20        21        22        23        24

                17 A      18 A      19 A      20 A      21 A      22 A      23 A      24 A   

                 895.0     941.5     955.6     990.4     995.7    1007.3    1031.5    1036.5
  
           1   -0.0202   -0.0100    0.0017    0.0091    0.0201   -0.0053   -0.0086   -0.0154
           2    0.0205    0.0190    0.0022   -0.0143   -0.0161    0.0284    0.0116    0.0211
           3   -0.0013    0.0000   -0.0008   -0.0002   -0.0019   -0.0013   -0.0028   -0.0028
           4    0.0063    0.0124   -0.0119    0.0011    0.0039    0.0090   -0.0055    0.0155
           5   -0.0055   -0.0102   -0.0029    0.0033    0.0002   -0.0135   -0.0260   -0.0065
           6   -0.0033   -0.0157    0.0035    0.0090    0.0015   -0.0279   -0.0198   -0.0078
           7   -0.0042    0.0000   -0.0089   -0.0035    0.0039    0.0129   -0.0079   -0.0253
           8   -0.0114   -0.0171   -0.0088    0.0012    0.0168    0.0015    0.0002   -0.0147
           9    0.0106    0.0162    0.0031   -0.0072   -0.0190    0.0108   -0.0027    0.0037
          10    0.0433   -0.0045   -0.0093   -0.0075   -0.0193   -0.0055    0.0082   -0.0183
          11    0.0153   -0.0109    0.0020    0.0077    0.0095   -0.0192    0.0268    0.0122
          12   -0.0121    0.0074   -0.0053   -0.0063    0.0037    0.0159    0.0053    0.0087
          13   -0.0027   -0.0101    0.0089   -0.0226   -0.0083    0.0006    0.0021    0.0044
          14   -0.0021    0.0196    0.0056    0.0399    0.0051   -0.0082   -0.0032   -0.0070
          15    0.0101   -0.0037   -0.0275   -0.0007    0.0150    0.0105    0.0023    0.0027
          16   -0.0006   -0.0095    0.0054    0.0089   -0.0146    0.0102    0.0048    0.0042
          17   -0.0009    0.0180    0.0044   -0.0151    0.0182   -0.0232   -0.0077   -0.0071
          18   -0.0172    0.0027    0.0368    0.0006   -0.0044   -0.0027    0.0057    0.0048
          19   -0.0232    0.0093   -0.0105   -0.0022   -0.0165   -0.0106    0.0203   -0.0019
          20   -0.0092    0.0060   -0.0219    0.0014   -0.0114   -0.0112    0.0024   -0.0071
          21    0.0091   -0.0080   -0.0022    0.0058    0.0131   -0.0005   -0.0062    0.0026
          22   -0.0104   -0.0015    0.0149    0.0033    0.0153    0.0113   -0.0267    0.0261
          23   -0.0023    0.0060    0.0107   -0.0026   -0.0031    0.0140   -0.0313    0.0023
          24    0.0005    0.0005    0.0041   -0.0023   -0.0172   -0.0079   -0.0042   -0.0275
          25    0.0052    0.0078   -0.0041    0.0288    0.0025    0.0042   -0.0009   -0.0020
          26   -0.0058   -0.0151   -0.0019   -0.0492    0.0044   -0.0010   -0.0004    0.0023
          27    0.0029    0.0002    0.0011   -0.0002   -0.0057   -0.0055    0.0029    0.0031
          28    0.0088    0.0123   -0.0055   -0.0213    0.0099   -0.0075   -0.0033   -0.0032
          29   -0.0042   -0.0222   -0.0054    0.0371   -0.0151    0.0158    0.0034    0.0017
          30    0.0014    0.0002   -0.0046    0.0005    0.0038    0.0043   -0.0036   -0.0042
          31   -0.0461    0.0328    0.0228    0.0147    0.0527    0.0128    0.0465    0.0463
          32   -0.0375    0.0540    0.1081   -0.0136   -0.0284    0.0369    0.1121   -0.0360
          33   -0.0198   -0.0321   -0.0273    0.0248    0.0444   -0.0485   -0.0507    0.0274
          34    0.0542   -0.0650    0.0756    0.0158   -0.0109   -0.0855    0.0141    0.0973
          35    0.0038   -0.0075   -0.0158   -0.0170    0.0223    0.0793   -0.0022   -0.0108
          36    0.0167    0.0290   -0.0108   -0.0229   -0.0121    0.0813   -0.0067   -0.0051
          37    0.0413    0.0018   -0.0209   -0.0088   -0.0233   -0.0047    0.0127    0.0142
          38   -0.1225    0.0411   -0.0253    0.0027    0.0331    0.0330    0.0173    0.1675
          39    0.0817    0.0239   -0.0858   -0.0151   -0.0528   -0.0158    0.0632    0.1890
          40   -0.1092    0.0331    0.0107   -0.0106    0.0300    0.0680   -0.0138   -0.0107
          41    0.0673   -0.0296    0.0293    0.0075    0.0518    0.0004    0.1596   -0.0532
          42   -0.0087   -0.0028    0.0472   -0.0077    0.0956    0.0840    0.2011   -0.0911
          43    0.0055    0.0588    0.0504    0.0740   -0.0386   -0.0630    0.0086    0.0051
          44   -0.0220   -0.0951    0.0232   -0.1473   -0.0622    0.0021    0.0205    0.0330
          45    0.0112   -0.0040   -0.0409    0.0028    0.0324    0.0246   -0.0025   -0.0033
          46   -0.0012    0.0583    0.0556   -0.0277    0.0013   -0.0783    0.0083    0.0112
          47   -0.0192   -0.0951    0.0256    0.0480   -0.0915    0.0492    0.0350    0.0355
          48   -0.0214    0.0038    0.0591    0.0004   -0.0206   -0.0190    0.0154    0.0157
          49    0.1422   -0.0745    0.0578    0.0248    0.1148    0.0212    0.0082    0.0455
          50    0.0909   -0.0288    0.0295    0.0075    0.0358    0.0215   -0.0436   -0.0045
          51   -0.0853   -0.0139   -0.0772    0.0243    0.0463   -0.0633    0.1290    0.0609
          52   -0.0367   -0.0033   -0.0788    0.0147   -0.0305   -0.0927    0.1005   -0.0407
          53    0.0002    0.0270   -0.0265   -0.0469   -0.0911    0.0350   -0.0106   -0.1024
          54    0.0098   -0.0036    0.0472    0.0032    0.0196    0.0264   -0.0557    0.0209
          55   -0.0383   -0.0483    0.0271   -0.1048   -0.0126   -0.0229    0.0016    0.0062
          56    0.0518    0.0904    0.0154    0.1868   -0.0195    0.0004    0.0024   -0.0016
          57   -0.0124    0.0063    0.0604    0.0020   -0.0475   -0.0437    0.0090    0.0119
          58   -0.0389   -0.0689    0.0295    0.0799   -0.0469    0.0154    0.0203    0.0149
          59    0.0519    0.1269    0.0272   -0.1412    0.0474   -0.0565   -0.0016    0.0033
          60    0.0195   -0.0049   -0.0671    0.0020    0.0281    0.0260   -0.0279   -0.0266


   Root No.      25        26        27        28        29        30        31        32

                25 A      26 A      27 A      28 A      29 A      30 A      31 A      32 A   

                1070.1    1078.3    1082.9    1094.4    1106.5    1124.5    1127.7    1171.0
  
           1    0.0144   -0.0139   -0.0125   -0.0142    0.0082   -0.0157   -0.0039   -0.0102
           2   -0.0301   -0.0032   -0.0138   -0.0143   -0.0178    0.0217    0.0110   -0.0040
           3   -0.0043   -0.0057    0.0036   -0.0005   -0.0045   -0.0031   -0.0083    0.0237
           4   -0.0121    0.0022   -0.0027   -0.0061    0.0013    0.0497    0.0000    0.0027
           5   -0.0044    0.0098    0.0112    0.0105    0.0182    0.0314   -0.0207    0.0383
           6   -0.0225    0.0006   -0.0080   -0.0032    0.0021   -0.0219    0.0228    0.0220
           7   -0.0101    0.0194    0.0269    0.0322   -0.0121   -0.0290    0.0078    0.0322
           8    0.0176   -0.0024    0.0033    0.0036    0.0068   -0.0260   -0.0021   -0.0244
           9    0.0014   -0.0070   -0.0075   -0.0093    0.0149    0.0090    0.0084    0.0316
          10    0.0065    0.0020    0.0004    0.0034   -0.0014   -0.0102   -0.0034   -0.0204
          11   -0.0093   -0.0034   -0.0051   -0.0052    0.0033   -0.0111    0.0189    0.0193
          12    0.0110    0.0033    0.0091    0.0075    0.0024    0.0035   -0.0232   -0.0069
          13   -0.0051    0.0023   -0.0085   -0.0073   -0.0044   -0.0023   -0.0008   -0.0011
          14    0.0089    0.0008   -0.0032   -0.0033    0.0029   -0.0044   -0.0036   -0.0004
          15    0.0097    0.0264   -0.0022    0.0275    0.0078    0.0119    0.0100   -0.0128
          16   -0.0065   -0.0078    0.0022   -0.0040   -0.0039    0.0003   -0.0009    0.0077
          17    0.0064   -0.0061    0.0022   -0.0017    0.0040   -0.0056   -0.0036    0.0037
          18    0.0045    0.0079   -0.0231   -0.0297   -0.0020   -0.0093   -0.0001    0.0001
          19    0.0070   -0.0081   -0.0092   -0.0103    0.0119    0.0067    0.0060    0.0043
          20   -0.0038    0.0066    0.0008    0.0034   -0.0052    0.0107   -0.0071   -0.0219
          21   -0.0043    0.0084    0.0079    0.0091   -0.0181    0.0026   -0.0121   -0.0155
          22   -0.0006    0.0019    0.0042    0.0036   -0.0051   -0.0064   -0.0093   -0.0014
          23    0.0055    0.0013    0.0016    0.0021   -0.0132   -0.0015   -0.0067   -0.0232
          24   -0.0003   -0.0027   -0.0083   -0.0071   -0.0105    0.0050   -0.0085   -0.0313
          25    0.0006   -0.0050   -0.0091   -0.0056   -0.0007   -0.0036   -0.0012    0.0005
          26   -0.0036   -0.0032   -0.0059   -0.0036   -0.0017   -0.0013    0.0000    0.0001
          27    0.0036    0.0078    0.0131    0.0248    0.0049    0.0081    0.0057   -0.0135
          28   -0.0004   -0.0062   -0.0063   -0.0030   -0.0024   -0.0039   -0.0046    0.0052
          29   -0.0031   -0.0028   -0.0040   -0.0018   -0.0032   -0.0002   -0.0019    0.0032
          30   -0.0046   -0.0119   -0.0122   -0.0251   -0.0055   -0.0079   -0.0056   -0.0006
          31   -0.0848    0.0169   -0.0198   -0.0042   -0.0253    0.0281    0.2110   -0.0836
          32   -0.0310   -0.0089    0.0031    0.0087   -0.0785   -0.1594    0.0106   -0.0066
          33   -0.0560    0.0183   -0.0154   -0.0013    0.0314    0.0528    0.1399   -0.0090
          34    0.1148   -0.0760   -0.0600   -0.0872    0.1051    0.0842   -0.0376   -0.0262
          35    0.0846   -0.0107    0.0072    0.0129    0.1891   -0.0688    0.1054   -0.0319
          36    0.0438   -0.0047    0.0038    0.0098    0.1491   -0.0372    0.0998    0.0335
          37    0.0095    0.0019    0.0040    0.0069    0.0024   -0.0300   -0.0131   -0.0205
          38    0.0060   -0.0112    0.0177    0.0103    0.0210   -0.0559   -0.0382    0.0721
          39    0.0368   -0.0005    0.0237    0.0244    0.0222   -0.1571   -0.0717   -0.0143
          40    0.0104    0.0141    0.0206    0.0154    0.0082    0.0566   -0.0570   -0.0425
          41   -0.0223   -0.0017   -0.0013   -0.0085    0.0420    0.0216   -0.0062    0.0529
          42   -0.0079    0.0139    0.0258    0.0090    0.0683    0.0902   -0.0927    0.0282
          43    0.0616    0.2463    0.0665   -0.0245    0.0150    0.0039    0.0015    0.0660
          44    0.0001    0.1366    0.0316   -0.0165   -0.0058    0.0147    0.0076    0.0353
          45   -0.0051   -0.0523   -0.0256    0.0358    0.0047    0.0083    0.0083   -0.0351
          46    0.0134   -0.0214    0.2479   -0.0095    0.0434    0.0309    0.0397   -0.0973
          47   -0.0217   -0.0080    0.1389   -0.0074    0.0095    0.0315    0.0304   -0.0546
          48    0.0058    0.0030    0.0884   -0.0351    0.0153    0.0079    0.0207   -0.0474
          49    0.0566    0.0004    0.0386    0.0251   -0.1071    0.0037    0.0280    0.0302
          50   -0.0191    0.0203    0.0164    0.0209   -0.0120   -0.0060   -0.0183   -0.0261
          51    0.1250   -0.0250    0.0260    0.0029   -0.1741    0.0560    0.0575    0.0258
          52   -0.1128    0.0241   -0.0189   -0.0032    0.0564   -0.0204   -0.0469   -0.0579
          53    0.1862   -0.0571    0.0009   -0.0184   -0.0959    0.0453    0.0974    0.0671
          54    0.0023    0.0021    0.0007    0.0000   -0.0164    0.0002   -0.0193   -0.0330
          55   -0.0193   -0.1014    0.0072    0.1016    0.0030    0.0068   -0.0046    0.0273
          56   -0.0068   -0.0558    0.0047    0.0582    0.0015    0.0065   -0.0020    0.0164
          57   -0.0281   -0.1771    0.0479    0.2355    0.0135    0.0310   -0.0000    0.0378
          58    0.0253    0.0522   -0.1133    0.1151    0.0008    0.0078    0.0006   -0.0271
          59    0.0154    0.0283   -0.0647    0.0642    0.0006    0.0063    0.0008   -0.0153
          60   -0.0477   -0.1032    0.1540   -0.2103   -0.0123   -0.0268   -0.0143    0.0505


   Root No.      33        34        35        36        37        38        39        40

                33 A      34 A      35 A      36 A      37 A      38 A      39 A      40 A   

                1209.2    1234.1    1281.0    1341.3    1366.0    1391.4    1397.7    1406.0
  
           1    0.0104   -0.0078    0.0453    0.0122    0.0103   -0.0122   -0.0021   -0.0100
           2    0.0065    0.0046    0.0299    0.0021    0.0016   -0.0051    0.0034   -0.0042
           3    0.0269   -0.0005    0.0162   -0.0020    0.0488    0.0865   -0.0003    0.0229
           4    0.0070    0.0186    0.0455   -0.0209   -0.0153    0.0025    0.0222   -0.0124
           5   -0.0223   -0.0019   -0.0344   -0.0162    0.0054   -0.0042   -0.0100    0.0098
           6   -0.0101    0.0126    0.0392   -0.0495   -0.0165   -0.0126    0.0231   -0.0033
           7   -0.0173    0.0031   -0.0167    0.0021    0.0090   -0.0086   -0.0081   -0.0032
           8    0.0161   -0.0288    0.0337    0.0258    0.0182   -0.0122   -0.0177   -0.0334
           9   -0.0137   -0.0114    0.0126    0.0302    0.0355   -0.0379   -0.0343   -0.0324
          10    0.0016    0.0004   -0.0189    0.0123   -0.0121    0.0100   -0.0335    0.0023
          11   -0.0057    0.0094    0.0053    0.0645    0.0116   -0.0114    0.0443   -0.0006
          12   -0.0011    0.0237   -0.0174    0.1012   -0.0105    0.0146   -0.0104    0.0044
          13   -0.0213    0.0027   -0.0001   -0.0027    0.0125    0.0125   -0.0030    0.0339
          14   -0.0122   -0.0011   -0.0013    0.0011    0.0086    0.0065   -0.0038    0.0186
          15    0.0135   -0.0026    0.0117    0.0044   -0.0230   -0.0381    0.0026   -0.0320
          16    0.0136    0.0003   -0.0148    0.0019   -0.0091   -0.0229   -0.0044    0.0226
          17    0.0079    0.0004   -0.0076   -0.0018   -0.0069   -0.0124   -0.0007    0.0139
          18   -0.0005    0.0020   -0.0386   -0.0006   -0.0282   -0.0448   -0.0028    0.0148
          19   -0.0022   -0.0077    0.0034    0.0017   -0.0067    0.0005    0.0108    0.0029
          20    0.0024    0.0008   -0.0174   -0.0038   -0.0243    0.0168    0.0151    0.0175
          21    0.0009   -0.0265   -0.0093    0.0055   -0.0353    0.0260    0.0373    0.0252
          22    0.0004   -0.0131    0.0040    0.0057   -0.0077    0.0046    0.0109    0.0036
          23    0.0108    0.0237   -0.0043   -0.0464    0.0182   -0.0087   -0.0314   -0.0101
          24    0.0126    0.0027    0.0008   -0.0430    0.0048   -0.0017   -0.0146   -0.0034
          25   -0.0096    0.0010   -0.0126   -0.0024   -0.0013    0.0056    0.0013   -0.0084
          26   -0.0056    0.0013   -0.0069   -0.0022   -0.0011    0.0034    0.0013   -0.0045
          27   -0.0133   -0.0018    0.0354    0.0062    0.0179   -0.0164   -0.0124    0.0889
          28    0.0046    0.0009   -0.0142   -0.0014   -0.0045    0.0008    0.0008    0.0000
          29    0.0026    0.0003   -0.0085   -0.0001   -0.0022    0.0003    0.0000   -0.0003
          30   -0.0265    0.0030   -0.0225   -0.0082   -0.0006    0.0414    0.0125   -0.0841
          31    0.0588   -0.1055   -0.1214    0.0246    0.0580    0.0609   -0.0601    0.0132
          32    0.0137    0.0483    0.0474   -0.0092   -0.0234    0.0252    0.0433    0.0170
          33    0.0050   -0.0882   -0.1032   -0.0238    0.0441    0.0102   -0.0529    0.0098
          34    0.0381   -0.0013   -0.0123    0.0137    0.0234    0.0405   -0.0077    0.0098
          35    0.0391    0.1101   -0.0334   -0.0835   -0.0425    0.0794    0.0493    0.0520
          36   -0.0011    0.0998   -0.0412   -0.0575   -0.0124    0.0304    0.0189    0.0348
          37    0.0007   -0.0185   -0.0243   -0.0303    0.0009   -0.0009   -0.0220    0.0021
          38   -0.0298   -0.0605    0.0765   -0.0746   -0.1429    0.0813   -0.1691    0.0068
          39   -0.0055   -0.0991   -0.0623   -0.1732    0.0994   -0.0737    0.0903    0.0012
          40    0.0199    0.0026   -0.0789   -0.0439    0.1681   -0.0986    0.1924   -0.0046
          41   -0.0173   -0.0543    0.0310   -0.0760   -0.0491    0.0228   -0.0527    0.0026
          42   -0.0063   -0.0731   -0.0172   -0.1510    0.0156   -0.0053   -0.0068    0.0049
          43    0.1433   -0.0098    0.0127    0.0052   -0.0117    0.0257    0.0077   -0.0959
          44    0.0802   -0.0003    0.0081   -0.0013   -0.0063    0.0142    0.0090   -0.0530
          45   -0.0397    0.0001    0.0102    0.0032   -0.0146   -0.0440   -0.0024    0.0120
          46   -0.1097   -0.0018    0.0494   -0.0025    0.0046    0.0296    0.0139   -0.0954
          47   -0.0629    0.0001    0.0277    0.0007    0.0035    0.0164    0.0068   -0.0554
          48   -0.0580    0.0014   -0.0126   -0.0023   -0.0223   -0.0201    0.0054   -0.0419
          49   -0.0034    0.0731   -0.0142   -0.0417    0.0371   -0.0188   -0.0366   -0.0134
          50    0.0042   -0.0148   -0.0171    0.0028   -0.0284    0.0237    0.0198    0.0204
          51   -0.0030    0.1470   -0.0404   -0.0858    0.0370   -0.0197   -0.0498   -0.0056
          52    0.0204    0.0780   -0.0117   -0.0109    0.0324   -0.0142   -0.0509   -0.0187
          53   -0.0238   -0.1360    0.0229   -0.0232   -0.0497    0.0232    0.0724    0.0274
          54    0.0137    0.0036   -0.0002   -0.0434    0.0035   -0.0004   -0.0148   -0.0025
          55    0.0618   -0.0002   -0.0459   -0.0048   -0.0293    0.0009    0.0123   -0.0905
          56    0.0358    0.0009   -0.0256   -0.0034   -0.0178    0.0009    0.0077   -0.0517
          57    0.1273   -0.0045   -0.0225    0.0031   -0.0358   -0.0294    0.0077   -0.0633
          58   -0.0789    0.0029   -0.0021   -0.0095    0.0132    0.0617    0.0131   -0.0815
          59   -0.0447    0.0029   -0.0007   -0.0054    0.0075    0.0352    0.0074   -0.0465
          60    0.1021   -0.0006   -0.0482    0.0037   -0.0300   -0.0513   -0.0058    0.0366


   Root No.      41        42        43        44        45        46        47        48

                41 A      42 A      43 A      44 A      45 A      46 A      47 A      48 A   

                1614.2    1728.9    1786.3    1801.2    2982.9    3052.5    3068.1    3073.1
  
           1    0.1721   -0.0120   -0.0015   -0.0040    0.0002    0.0002   -0.0003   -0.0007
           2    0.0962   -0.0066   -0.0008   -0.0048   -0.0001   -0.0001    0.0006   -0.0004
           3   -0.0046   -0.0001    0.0005   -0.0009    0.0003    0.0000   -0.0000   -0.0005
           4   -0.1094   -0.0013    0.0016    0.0016    0.0011    0.0022   -0.0166    0.0178
           5    0.0520   -0.0044   -0.0006    0.0036   -0.0010   -0.0018    0.0129   -0.0133
           6   -0.0140   -0.0007    0.0032    0.0059   -0.0017   -0.0046    0.0269   -0.0274
           7   -0.0069   -0.0044    0.0003   -0.0075   -0.0001    0.0001   -0.0034   -0.0026
           8   -0.1184    0.0006    0.0019    0.0085   -0.0000    0.0006    0.0231    0.0205
           9   -0.0207   -0.0009    0.0034   -0.0143   -0.0001   -0.0008   -0.0294   -0.0254
          10    0.0123    0.0002   -0.0005    0.0100   -0.0467   -0.0242   -0.0024    0.0034
          11   -0.0067    0.0004    0.0003   -0.0141   -0.0281    0.0277    0.0006   -0.0021
          12    0.0059    0.0002   -0.0008    0.0031    0.0238   -0.0125    0.0003    0.0005
          13   -0.0212    0.1142    0.1081    0.0017    0.0001   -0.0001    0.0001   -0.0002
          14   -0.0119    0.0655    0.0621    0.0010    0.0000   -0.0000   -0.0002   -0.0001
          15    0.0354    0.0480    0.0337    0.0001    0.0002   -0.0003    0.0000    0.0002
          16   -0.0167    0.1165   -0.1116    0.0030    0.0000    0.0000   -0.0001    0.0002
          17   -0.0091    0.0668   -0.0640    0.0021   -0.0000   -0.0000    0.0001    0.0001
          18   -0.0276   -0.0343    0.0216    0.0002   -0.0000   -0.0000    0.0000    0.0000
          19    0.0031   -0.0014    0.0005    0.1375   -0.0002    0.0000    0.0005    0.0008
          20    0.0125    0.0017   -0.0013   -0.1160   -0.0001    0.0002   -0.0010   -0.0016
          21    0.0145   -0.0011   -0.0004    0.1416    0.0001    0.0003   -0.0003   -0.0003
          22   -0.0046    0.0017   -0.0008   -0.1408   -0.0001    0.0002    0.0001   -0.0003
          23    0.0010   -0.0020    0.0006    0.1467   -0.0001    0.0009   -0.0001   -0.0001
          24   -0.0038    0.0016   -0.0006   -0.1085    0.0000    0.0013   -0.0000   -0.0009
          25   -0.0189   -0.0995   -0.1089   -0.0006   -0.0000    0.0000   -0.0000    0.0001
          26   -0.0109   -0.0571   -0.0625   -0.0003   -0.0000    0.0000    0.0000    0.0000
          27   -0.0098   -0.0604   -0.0544   -0.0008    0.0000    0.0000   -0.0000   -0.0001
          28   -0.0155   -0.1031    0.1145   -0.0020    0.0000   -0.0000    0.0000    0.0000
          29   -0.0090   -0.0591    0.0656   -0.0012    0.0000   -0.0000   -0.0000    0.0000
          30    0.0047    0.0480   -0.0419    0.0011   -0.0000   -0.0000    0.0000    0.0001
          31   -0.0214    0.0057   -0.0018   -0.0011   -0.0156   -0.0314    0.2033   -0.2044
          32    0.0118    0.0039   -0.0006    0.0040    0.0097    0.0236   -0.1509    0.1530
          33    0.0661   -0.0004    0.0023    0.0065    0.0190    0.0476   -0.3266    0.3275
          34   -0.0077    0.0064   -0.0013   -0.0025   -0.0001    0.0014    0.0328    0.0287
          35   -0.0205    0.0038   -0.0018   -0.0333    0.0006   -0.0098   -0.2810   -0.2386
          36    0.0628    0.0003    0.0019   -0.0440   -0.0009    0.0119    0.3527    0.2980
          37    0.0144    0.0004   -0.0005    0.0016    0.4338    0.4309    0.0355   -0.0498
          38    0.0037    0.0000   -0.0005   -0.0280   -0.0379   -0.0083   -0.0013    0.0016
          39    0.0397    0.0015    0.0002   -0.0244   -0.0462   -0.0629   -0.0023    0.0044
          40   -0.0041   -0.0014    0.0003    0.0038    0.1271   -0.1423   -0.0047    0.0100
          41    0.0043   -0.0000   -0.0001   -0.0253    0.3793   -0.3245   -0.0072    0.0189
          42    0.0112   -0.0009   -0.0007   -0.0260   -0.2416    0.2124    0.0049   -0.0123
          43    0.0468   -0.0050   -0.0055    0.0002    0.0001    0.0006   -0.0000   -0.0008
          44    0.0260   -0.0028   -0.0031    0.0009   -0.0004    0.0006    0.0000   -0.0005
          45    0.0188    0.1132    0.0952    0.0004   -0.0018    0.0031   -0.0000   -0.0026
          46    0.0499    0.0031   -0.0020   -0.0005    0.0000    0.0000   -0.0001    0.0003
          47    0.0281    0.0020   -0.0012   -0.0005    0.0000    0.0000    0.0003    0.0002
          48   -0.0027   -0.1127    0.0971   -0.0020   -0.0001    0.0001   -0.0001    0.0008
          49    0.0094   -0.0011    0.0004    0.0386   -0.0007    0.0036   -0.0047   -0.0105
          50    0.0071    0.0021   -0.0016   -0.1381    0.0000   -0.0078    0.0098    0.0238
          51    0.0366    0.0006   -0.0009   -0.0908    0.0003   -0.0020    0.0014    0.0059
          52   -0.0066    0.0002   -0.0003   -0.0265   -0.0009   -0.0055    0.0006    0.0068
          53   -0.0022    0.0014   -0.0006   -0.0817   -0.0004   -0.0013   -0.0001    0.0038
          54   -0.0027    0.0022   -0.0009   -0.1472    0.0008   -0.0125    0.0008    0.0171
          55   -0.0063   -0.0714   -0.0442   -0.0005   -0.0001    0.0002   -0.0001   -0.0007
          56   -0.0037   -0.0409   -0.0251   -0.0004   -0.0001    0.0001    0.0001   -0.0004
          57    0.0274    0.0437    0.1131   -0.0003    0.0001   -0.0001    0.0000    0.0005
          58   -0.0066   -0.0671    0.0353   -0.0010   -0.0001    0.0002   -0.0000   -0.0005
          59   -0.0041   -0.0387    0.0204   -0.0007   -0.0000    0.0001   -0.0001   -0.0003
          60   -0.0189   -0.0505    0.1184   -0.0011   -0.0001    0.0001   -0.0000   -0.0004


   Root No.      49        50        51        52        53        54

                49 A      50 A      51 A      52 A      53 A      54 A   

                3121.4    3130.0    3133.9    3140.3    3144.3    3155.2
  
           1   -0.0000   -0.0000   -0.0001    0.0002    0.0002    0.0012
           2   -0.0001    0.0000   -0.0001    0.0001    0.0001    0.0007
           3   -0.0000   -0.0001   -0.0001    0.0001   -0.0002    0.0001
           4    0.0000    0.0001   -0.0000   -0.0008   -0.0000   -0.0002
           5    0.0001   -0.0000    0.0000    0.0012    0.0000   -0.0000
           6    0.0004   -0.0002    0.0000    0.0017    0.0001   -0.0000
           7    0.0001    0.0000   -0.0000    0.0007   -0.0000   -0.0001
           8    0.0004    0.0001   -0.0001   -0.0016   -0.0000   -0.0001
           9   -0.0001   -0.0001   -0.0000    0.0026    0.0001   -0.0000
          10   -0.0002    0.0000   -0.0000   -0.0012   -0.0000   -0.0000
          11    0.0001   -0.0002    0.0000    0.0014    0.0001    0.0000
          12   -0.0002    0.0001   -0.0000   -0.0005   -0.0001   -0.0000
          13    0.0000   -0.0100    0.0023    0.0002    0.0070    0.0055
          14    0.0000   -0.0059    0.0014    0.0001    0.0041    0.0032
          15    0.0001   -0.0376    0.0086    0.0006    0.0184    0.0150
          16   -0.0000    0.0016    0.0098    0.0002   -0.0087    0.0104
          17    0.0000    0.0009    0.0056    0.0001   -0.0049    0.0059
          18    0.0000   -0.0039   -0.0291   -0.0006    0.0193   -0.0224
          19   -0.0122    0.0003   -0.0002    0.0190    0.0001   -0.0001
          20    0.0288   -0.0006    0.0004   -0.0389   -0.0003    0.0001
          21    0.0091   -0.0001    0.0001   -0.0073   -0.0001    0.0000
          22   -0.0154   -0.0002    0.0001   -0.0142   -0.0001    0.0001
          23   -0.0081   -0.0000    0.0000   -0.0027   -0.0000    0.0000
          24   -0.0400   -0.0006    0.0003   -0.0313   -0.0002    0.0002
          25   -0.0000   -0.0203   -0.0007    0.0005   -0.0219   -0.0171
          26   -0.0000   -0.0116   -0.0004    0.0003   -0.0126   -0.0098
          27    0.0000    0.0148   -0.0002   -0.0003    0.0118    0.0101
          28   -0.0000    0.0038    0.0262   -0.0001    0.0112   -0.0188
          29   -0.0000    0.0022    0.0150   -0.0000    0.0064   -0.0108
          30   -0.0000    0.0034    0.0220   -0.0000    0.0066   -0.0133
          31    0.0012   -0.0006    0.0002    0.0079    0.0003   -0.0001
          32   -0.0010    0.0005   -0.0003   -0.0057   -0.0001    0.0000
          33   -0.0016    0.0010   -0.0008   -0.0125   -0.0000   -0.0002
          34    0.0002    0.0002   -0.0001   -0.0020    0.0000   -0.0000
          35   -0.0028   -0.0008    0.0002    0.0161    0.0004   -0.0002
          36    0.0057    0.0009   -0.0007   -0.0228   -0.0002   -0.0001
          37    0.0048   -0.0010    0.0003    0.0124    0.0005    0.0002
          38   -0.0011   -0.0001    0.0000   -0.0009    0.0000    0.0000
          39   -0.0019    0.0001   -0.0000   -0.0024   -0.0001    0.0000
          40   -0.0016    0.0011   -0.0003   -0.0040   -0.0006   -0.0004
          41   -0.0044    0.0020   -0.0005   -0.0096   -0.0010   -0.0005
          42    0.0012   -0.0014    0.0004    0.0052    0.0007    0.0003
          43   -0.0002    0.1072   -0.0246   -0.0018   -0.0507   -0.0381
          44   -0.0002    0.0636   -0.0146   -0.0011   -0.0300   -0.0226
          45   -0.0009    0.4377   -0.0986   -0.0073   -0.2028   -0.1521
          46    0.0000   -0.0166   -0.1188   -0.0024    0.0783   -0.0845
          47   -0.0000   -0.0095   -0.0679   -0.0013    0.0447   -0.0483
          48   -0.0001    0.0488    0.3439    0.0067   -0.2236    0.2407
          49    0.1508   -0.0030    0.0018   -0.1807   -0.0015    0.0006
          50   -0.3461    0.0067   -0.0040    0.4119    0.0034   -0.0014
          51   -0.1024    0.0019   -0.0012    0.1195    0.0010   -0.0004
          52    0.1748    0.0022   -0.0010    0.1227    0.0009   -0.0007
          53    0.1040    0.0012   -0.0006    0.0705    0.0005   -0.0004
          54    0.4681    0.0060   -0.0028    0.3254    0.0022   -0.0018
          55    0.0003    0.2472    0.0017   -0.0061    0.2252    0.1694
          56    0.0001    0.1415    0.0010   -0.0035    0.1289    0.0969
          57   -0.0002   -0.1695    0.0007    0.0042   -0.1523   -0.1159
          58    0.0005   -0.0437   -0.3037    0.0004   -0.1074    0.1807
          59    0.0002   -0.0251   -0.1745    0.0003   -0.0617    0.1038
          60    0.0004   -0.0359   -0.2587    0.0003   -0.0892    0.1534


           MASS-WEIGHTED COORDINATE ANALYSIS (NORMAL COORDINATES)


   Root No.       1         2         3         4         5         6         7         8

                 1 A       2 A       3 A       4 A       5 A       6 A       7 A       8 A   

                 141.3     163.1     176.6     306.1     376.1     436.2     502.3     554.3
  
           1    0.1802   -0.0879    0.0770   -0.0836    0.0170   -0.0460   -0.0460    0.2295
           2   -0.3166   -0.0809    0.0242    0.0983   -0.0082    0.0204    0.0771   -0.3229
           3    0.0034    0.1766   -0.1211    0.1309    0.3100   -0.1963   -0.0020    0.0377
           4    0.1769   -0.0888    0.0739   -0.0381   -0.0493   -0.0021   -0.0694    0.3624
           5   -0.0173   -0.1133   -0.0776   -0.2463    0.1072    0.1120    0.0276    0.2156
           6    0.0035    0.1695    0.0014    0.0968   -0.1472    0.0703    0.0435   -0.1346
           7   -0.0770   -0.0587    0.1673    0.2066   -0.0901    0.0972   -0.0038   -0.1009
           8   -0.1638   -0.0941   -0.0253   -0.1096    0.1042    0.1002    0.0699   -0.1076
           9   -0.0066    0.0789   -0.1738   -0.1315   -0.0709    0.0956   -0.0303    0.0243
          10    0.2404    0.0233   -0.2584    0.3483   -0.1228    0.1139   -0.0045    0.0831
          11    0.1928    0.0729   -0.0764    0.1560   -0.0556    0.1401   -0.0148    0.0087
          12   -0.0085    0.1330    0.1972   -0.0777   -0.1801    0.0643   -0.0240    0.0423
          13    0.1472   -0.1394    0.3233   -0.2048   -0.0342    0.0183   -0.1141   -0.2371
          14   -0.2624   -0.3398   -0.1713    0.1462   -0.2187   -0.1323    0.2109    0.1852
          15    0.0020    0.0199   -0.0147    0.0648    0.2139   -0.2119    0.0003   -0.0248
          16    0.0685   -0.0431   -0.1907   -0.0798    0.2912   -0.2162    0.1938   -0.1193
          17   -0.1193    0.1883    0.2545    0.2595   -0.0285   -0.2476   -0.3299    0.0925
          18    0.0022    0.0394   -0.0282    0.0751    0.2082   -0.1125   -0.0044    0.0893
          19   -0.2656    0.2086   -0.0092   -0.0440    0.2251    0.4032    0.0012    0.0992
          20   -0.1043    0.1697    0.0741   -0.0777    0.1937    0.2127   -0.0073   -0.0045
          21   -0.0014   -0.1130   -0.1977   -0.1099   -0.2066    0.0398    0.0280   -0.0800
          22   -0.0966    0.3426   -0.3052   -0.2041   -0.2961   -0.0600    0.0231   -0.0416
          23    0.0865    0.3089   -0.0014   -0.0816   -0.1952   -0.0467   -0.0257   -0.0392
          24    0.0081   -0.1212    0.0527    0.0602   -0.0237    0.2860   -0.0080    0.0482
          25   -0.1516   -0.1028    0.2675    0.0046   -0.0845   -0.1366    0.1912   -0.0483
          26    0.2594   -0.2552   -0.1733   -0.1522    0.0356   -0.0262   -0.3198   -0.1878
          27   -0.0001   -0.1809    0.1212   -0.0336   -0.0188   -0.0243    0.0003   -0.0132
          28   -0.2114   -0.0735   -0.1094    0.0417    0.1610   -0.2698   -0.2009   -0.0782
          29    0.3674    0.1277    0.1899   -0.0041    0.1049   -0.1459    0.3609   -0.0458
          30   -0.0000   -0.1703    0.1135   -0.0282   -0.0099   -0.0143   -0.0011    0.0077
          31    0.0731   -0.0344    0.0609   -0.0775   -0.0558    0.0323   -0.0415    0.1822
          32    0.0230   -0.0602   -0.0485   -0.1789    0.0247    0.0589   -0.0145    0.2016
          33    0.0015    0.0559    0.0383    0.0350   -0.0649    0.0273    0.0084   -0.0532
          34   -0.0610   -0.0349    0.0846    0.1209   -0.1382    0.0544    0.0304   -0.1860
          35   -0.0535   -0.0637   -0.0339   -0.0604   -0.0116    0.0344    0.0287   -0.0382
          36   -0.0030   -0.0059   -0.0747   -0.0656   -0.0425    0.0287   -0.0038    0.0147
          37    0.0752   -0.0019   -0.0679    0.1082   -0.0279    0.0407   -0.0036    0.0343
          38    0.1512   -0.0547   -0.0540    0.2987    0.0480    0.2016   -0.0056   -0.0608
          39   -0.0137    0.0109    0.1391   -0.1389   -0.0277   -0.0396   -0.0276    0.1557
          40    0.1526   -0.0294   -0.1391    0.3598   -0.0076    0.1839    0.0068   -0.1074
          41    0.0286    0.0823   -0.0070   -0.0336   -0.0727   -0.0359   -0.0077   -0.0033
          42    0.0007    0.1144    0.0459   -0.0085   -0.1255   -0.0240   -0.0078   -0.0671
          43    0.0902   -0.0544    0.1604   -0.0998   -0.0253    0.0595   -0.0742   -0.2480
          44   -0.1587   -0.1809   -0.1046    0.0744   -0.1494   -0.0881    0.1388    0.3187
          45    0.0009    0.0209   -0.0123    0.0238    0.0781   -0.0674   -0.0012   -0.0018
          46    0.0442   -0.0013   -0.1342   -0.0471    0.1747   -0.0806    0.1655   -0.1476
          47   -0.0761    0.1306    0.1467    0.1666   -0.0418   -0.1552   -0.2855    0.2097
          48    0.0009    0.0304   -0.0211    0.0315    0.0847   -0.0552   -0.0010    0.0229
          49   -0.1499    0.0947    0.0192   -0.0681    0.2030    0.2666   -0.0005    0.1031
          50   -0.0620    0.0758    0.0462   -0.0426    0.1274    0.1453   -0.0084    0.0442
          51   -0.0012   -0.0728   -0.1097   -0.0469   -0.0976   -0.0488    0.0285   -0.0676
          52   -0.0506    0.1781   -0.1563   -0.1767   -0.1854   -0.0992    0.0143   -0.0535
          53    0.0476    0.1580   -0.0009   -0.0568   -0.1408   -0.0775   -0.0134   -0.0114
          54    0.0059   -0.0796    0.0409    0.0687    0.0486    0.1282   -0.0038    0.0296
          55   -0.0887   -0.0290    0.1321    0.0282   -0.0726   -0.0256    0.2024   -0.0223
          56    0.1529   -0.1263   -0.1107   -0.1176    0.0287    0.0212   -0.3492   -0.0435
          57   -0.0004   -0.0952    0.0644   -0.0320   -0.0604    0.0385    0.0003   -0.0057
          58   -0.1231   -0.0196   -0.0841    0.0353    0.0757   -0.0934   -0.1978   -0.0690
          59    0.2150    0.0931    0.1066   -0.0103    0.0519   -0.0588    0.3472    0.0942
          60   -0.0006   -0.0895    0.0599   -0.0293   -0.0511    0.0234   -0.0001   -0.0165


   Root No.       9        10        11        12        13        14        15        16

                 9 A      10 A      11 A      12 A      13 A      14 A      15 A      16 A   

                 594.7     719.9     771.7     776.0     798.0     813.7     831.1     890.9
  
           1    0.0395   -0.0748   -0.1066   -0.0361    0.0619   -0.0470    0.0186   -0.1862
           2    0.2046    0.1835   -0.0423   -0.0015   -0.0714    0.0784    0.0617   -0.1220
           3    0.0897   -0.0031    0.0256    0.0190    0.0397   -0.0248    0.2438    0.0117
           4    0.2184    0.0676   -0.0379   -0.1789    0.0580   -0.0480    0.0393   -0.0820
           5    0.1864    0.2750   -0.0086    0.0564   -0.1533    0.0703    0.0308    0.1713
           6   -0.1355    0.3180   -0.1611    0.1790    0.0937    0.0246   -0.0263    0.0456
           7    0.4495   -0.2888   -0.1298   -0.0633   -0.0088   -0.0091    0.0467    0.0817
           8    0.1587    0.1447   -0.1432    0.1658   -0.0486    0.0646    0.0319   -0.1350
           9   -0.1899   -0.2163   -0.1098   -0.0990    0.2958   -0.1223   -0.0501    0.0112
          10    0.0392    0.3173   -0.0058    0.0861    0.1725   -0.0038   -0.0046   -0.0539
          11    0.0415   -0.2349    0.2807   -0.0153   -0.1620    0.0056    0.0028   -0.0280
          12   -0.0447    0.2902    0.0014    0.0276   -0.0687    0.0792    0.0125   -0.0254
[...]
 RED. MASS   0.3147         C  6 -- H 16          +7.6% ( 38.0%)      0.7%
 EFF. MASS   4.4795

 VIBRATION   34   34A         ATOM PAIR      ENERGY CONTRIBUTION    RADIAL
 FREQ.      1234.11         C  7 -- H 17         +14.9% ( 47.4%)      0.1%
 T-DIPOLE    0.0741         C  8 -- H 18         +14.0% ( 45.9%)      0.1%
 TRAVEL      0.1335         C  3 -- H 12         +13.9% ( 45.6%)      0.6%
 RED. MASS   0.2765         C  2 -- H 11         +11.2% ( 41.0%)      0.0%
 EFF. MASS   3.0651

 VIBRATION   35   35A         ATOM PAIR      ENERGY CONTRIBUTION    RADIAL
 FREQ.      1280.96         C  2 -- H 11         +11.7% ( 58.1%)      0.0%
 T-DIPOLE    0.7272         C  2 -- C  3         +11.0% ( 56.4%)     88.0%
 TRAVEL      0.0746         C  1 -- C  6         +10.7% ( 55.6%)     91.3%
 RED. MASS   1.2958         C  1 -- C  2          +9.5% ( 52.3%)      0.0%
 EFF. MASS   9.4638

 VIBRATION   36   36A         ATOM PAIR      ENERGY CONTRIBUTION    RADIAL
 FREQ.      1341.33         C  4 -- C  8         +21.4% ( 71.1%)     77.7%
 T-DIPOLE    0.1537         C  2 -- C  4         +18.7% ( 66.4%)     67.3%
 TRAVEL      0.0743         C  4 -- H 13         +17.4% ( 63.9%)      0.0%
 RED. MASS   2.9683         C  4 -- H 14         +16.4% ( 62.2%)      0.0%
 EFF. MASS   9.1092

 VIBRATION   37   37A         ATOM PAIR      ENERGY CONTRIBUTION    RADIAL
 FREQ.      1366.02         C  3 -- C  7         +11.9% ( 48.5%)     99.0%
 T-DIPOLE    0.2252         C  1 -- C  6         +10.1% ( 44.8%)     88.4%
 TRAVEL      0.0819         C  1 -- C  5          +8.8% ( 41.7%)     63.9%
 RED. MASS   0.7221         C  1 -- C  3          +8.1% ( 39.9%)     41.4%
 EFF. MASS   7.3536

 VIBRATION   38   38A         ATOM PAIR      ENERGY CONTRIBUTION    RADIAL
 FREQ.      1391.44         C  1 -- C  6         +16.3% ( 64.2%)     75.6%
 T-DIPOLE    0.3614         C  1 -- C  5         +14.8% ( 61.2%)     77.0%
 TRAVEL      0.0697         C  1 -- C  3         +11.7% ( 54.4%)      0.1%
 RED. MASS   1.9497         C  1 -- C  2          +9.5% ( 49.2%)      2.2%
 EFF. MASS   9.9782

 VIBRATION   39   39A         ATOM PAIR      ENERGY CONTRIBUTION    RADIAL
 FREQ.      1397.65         C  4 -- H 14         +14.3% ( 51.1%)      6.1%
 T-DIPOLE    0.0979         C  4 -- H 13         +13.4% ( 49.5%)      7.9%
 TRAVEL      0.0856         C  4 -- C  8         +12.4% ( 47.6%)     76.7%
 RED. MASS   0.7764         C  2 -- C  4         +10.8% ( 44.4%)     49.0%
 EFF. MASS   6.5808         C  3 -- C  7         +10.4% ( 43.6%)     99.7%

 VIBRATION   40   40A         ATOM PAIR      ENERGY CONTRIBUTION    RADIAL
 FREQ.      1405.98         C  9 -- C 10         +21.8% ( 76.4%)    100.0%
 T-DIPOLE    0.3852         C  5 -- C  9         +10.4% ( 52.7%)      0.0%
 TRAVEL      0.0686         C  5 -- C 10          +9.4% ( 50.1%)     99.0%
 RED. MASS   2.0266         C  6 -- C  9          +9.1% ( 49.3%)     96.6%
 EFF. MASS  10.1826

 VIBRATION   41   41A         ATOM PAIR      ENERGY CONTRIBUTION    RADIAL
 FREQ.      1614.23         C  1 -- C  2         +21.3% ( 77.9%)     97.5%
 T-DIPOLE    1.2292         C  1 -- C  3         +20.8% ( 76.9%)     96.7%
 TRAVEL      0.0593         C  1 -- C  5         +14.4% ( 64.1%)     60.8%
 RED. MASS   4.2169         C  1 -- C  6         +13.8% ( 62.8%)     43.5%
 EFF. MASS  11.8959         C  2 -- C  3         +10.1% ( 53.8%)     99.8%

 VIBRATION   42   42A         ATOM PAIR      ENERGY CONTRIBUTION    RADIAL
 FREQ.      1728.93         C  5 -- C  9         +18.4% ( 73.1%)     99.9%
 T-DIPOLE    0.8578         C  6 -- C 10         +18.0% ( 72.3%)     99.9%
 TRAVEL      0.0569         C  5 -- C 10         +10.7% ( 55.9%)     26.3%
 RED. MASS   2.7237         C  6 -- C  9         +10.7% ( 55.8%)     26.0%
 EFF. MASS  12.0260

 VIBRATION   43   43A         ATOM PAIR      ENERGY CONTRIBUTION    RADIAL
 FREQ.      1786.25         C  6 -- C 10         +18.1% ( 70.6%)     99.8%
 T-DIPOLE    0.2076         C  5 -- C  9         +17.6% ( 69.8%)     99.8%
 TRAVEL      0.0565         C  9 -- C 10         +12.1% ( 57.7%)      0.0%
 RED. MASS   2.6896         C  5 -- C 10         +10.9% ( 54.8%)     64.7%
 EFF. MASS  11.8175         C  6 -- C  9         +10.9% ( 54.7%)     68.2%

 VIBRATION   44   44A         ATOM PAIR      ENERGY CONTRIBUTION    RADIAL
 FREQ.      1801.20         C  7 -- C  8         +45.9% (100.2%)    100.0%
 T-DIPOLE    0.1759         C  4 -- C  8         +14.0% ( 55.4%)     23.7%
 TRAVEL      0.0561         C  3 -- C  7         +13.8% ( 54.9%)     21.0%
 RED. MASS   5.3682         C  8 -- H 18         +13.1% ( 53.5%)     10.3%
 EFF. MASS  11.8741         C  7 -- H 17         +12.8% ( 52.9%)     10.8%

 VIBRATION   45   45A         ATOM PAIR      ENERGY CONTRIBUTION    RADIAL
 FREQ.      2982.87         C  4 -- H 14         +51.7% ( 74.5%)     97.0%
 T-DIPOLE    0.0899         C  4 -- H 13         +45.9% ( 70.2%)     96.3%
 TRAVEL      0.1211         C  2 -- C  4          +1.1% ( 11.0%)      0.1%
 RED. MASS   0.5187         C  4 -- C  8          +1.1% ( 11.0%)      0.0%
 EFF. MASS   1.5425

 VIBRATION   46   46A         ATOM PAIR      ENERGY CONTRIBUTION    RADIAL
 FREQ.      3052.53         C  4 -- H 13         +51.4% ( 70.8%)     97.7%
 T-DIPOLE    0.1412         C  4 -- H 14         +45.9% ( 67.0%)     97.0%
 TRAVEL      0.1311         C  2 -- H 11          +1.1% ( 10.5%)    100.0%
 RED. MASS   0.4738         C  2 -- C  4          +0.7% (  8.3%)     27.8%
 EFF. MASS   1.2859

 VIBRATION   47   47A         ATOM PAIR      ENERGY CONTRIBUTION    RADIAL
 FREQ.      3068.13         C  3 -- H 12         +52.4% ( 73.7%)    100.0%
 T-DIPOLE    0.2720         C  2 -- H 11         +43.7% ( 67.4%)    100.0%
 TRAVEL      0.1231         C  2 -- C  3          +1.1% ( 10.7%)      0.1%
 RED. MASS   0.4651         C  3 -- C  7          +0.7% (  8.3%)     18.8%
 EFF. MASS   1.4503

 VIBRATION   48   48A         ATOM PAIR      ENERGY CONTRIBUTION    RADIAL
 FREQ.      3073.09         C  2 -- H 11         +51.3% ( 73.0%)    100.0%
 T-DIPOLE    0.3492         C  3 -- H 12         +43.6% ( 67.3%)    100.0%
 TRAVEL      0.1214         C  2 -- C  3          +1.4% ( 12.0%)     99.7%
 RED. MASS   0.4563         C  4 -- H 13          +0.7% (  8.5%)     98.9%
 EFF. MASS   1.4879

 VIBRATION   49   49A         ATOM PAIR      ENERGY CONTRIBUTION    RADIAL
 FREQ.      3121.36         C  8 -- H 18         +61.4% ( 79.6%)    100.0%
 T-DIPOLE    0.3929         C  7 -- H 17         +36.0% ( 60.9%)    100.0%
 TRAVEL      0.1213         C  7 -- C  8          +1.2% ( 10.9%)      1.5%
 RED. MASS   0.4967         C  4 -- C  8          +0.9% (  9.8%)     25.8%
 EFF. MASS   1.4693

 VIBRATION   50   50A         ATOM PAIR      ENERGY CONTRIBUTION    RADIAL
 FREQ.      3130.05         C  5 -- H 15         +61.3% ( 80.2%)    100.0%
 T-DIPOLE    0.3630         C  9 -- H 19         +32.4% ( 58.3%)    100.0%
 TRAVEL      0.1206         C  5 -- C  9          +1.2% ( 11.2%)      2.7%
 RED. MASS   0.4889         C 10 -- H 20          +1.1% ( 10.9%)    100.0%
 EFF. MASS   1.4818

 VIBRATION   51   51A         ATOM PAIR      ENERGY CONTRIBUTION    RADIAL
 FREQ.      3133.87         C 10 -- H 20         +53.9% ( 75.2%)    100.0%
 T-DIPOLE    0.3932         C  6 -- H 16         +38.9% ( 63.8%)    100.0%
 TRAVEL      0.1206         C  5 -- H 15          +3.0% ( 17.7%)    100.0%
 RED. MASS   0.4485         C  6 -- C 10          +1.2% ( 11.0%)      0.5%
 EFF. MASS   1.4785

 VIBRATION   52   52A         ATOM PAIR      ENERGY CONTRIBUTION    RADIAL
 FREQ.      3140.33         C  7 -- H 17         +60.2% ( 79.0%)     99.9%
 T-DIPOLE    0.3923         C  8 -- H 18         +35.1% ( 60.3%)     99.9%
 TRAVEL      0.1142         C  7 -- C  8          +2.4% ( 15.9%)     98.1%
 RED. MASS   0.4951         C  3 -- C  7          +1.2% ( 11.0%)     24.4%
 EFF. MASS   1.6470

 VIBRATION   53   53A         ATOM PAIR      ENERGY CONTRIBUTION    RADIAL
 FREQ.      3144.34         C  9 -- H 19         +39.4% ( 64.6%)     99.9%
 T-DIPOLE    0.5141         C  6 -- H 16         +25.2% ( 51.6%)    100.0%
 TRAVEL      0.1157         C  5 -- H 15         +19.4% ( 45.3%)     99.9%
 RED. MASS   0.2803         C 10 -- H 20         +10.2% ( 32.8%)     99.8%
 EFF. MASS   1.6028

 VIBRATION   54   54A         ATOM PAIR      ENERGY CONTRIBUTION    RADIAL
 FREQ.      3155.20         C  6 -- H 16         +29.8% ( 56.2%)     99.9%
 T-DIPOLE    0.2905         C 10 -- H 20         +29.6% ( 56.0%)    100.0%
 TRAVEL      0.1121         C  9 -- H 19         +22.8% ( 49.1%)    100.0%
 RED. MASS   0.2591         C  5 -- H 15         +11.2% ( 34.4%)     99.9%
 EFF. MASS   1.7005

      SYMMETRY NUMBER FOR POINT-GROUP C1  =  1


          SYSTEM IS A GROUND STATE



 InChI=1S/C10H10/c1-2-7-10(6-1)8-4-3-5-9(8)10/h1-4,6-9H,5H2


          MOLECULE IS NOT LINEAR

          THERE ARE 54 GENUINE VIBRATIONS IN THIS SYSTEM
          THIS THERMODYNAMICS CALCULATION IS LIMITED TO
          MOLECULES WHICH HAVE NO INTERNAL ROTATIONS




                    CALCULATED THERMODYNAMIC PROPERTIES
                                          *
   TEMP. (K)   PARTITION FUNCTION   H.O.F.    ENTHALPY  HEAT CAPACITY ENTROPY
                                   KCAL/MOL   CAL/MOLE    CAL/K/MOL  CAL/K/MOL


 298.00  VIB.     0.1880D+02                  2905.5250    24.8698    15.5806
         ROT.     0.4628D+06                   888.2813     2.9808    28.9039
         INT.     0.8701D+07                  3793.8063    27.8506    44.4845
         TRA.     0.1436D+28                  1480.4688     4.9680    40.5022
         TOT.                       82.685    5274.2751    32.8186    84.9866

 200.00  VIB.     0.4366D+01                  1055.4679    13.2690     8.2063
         ROT.     0.2544D+06                   596.1620     2.9808    27.7152
         INT.     0.1111D+07                  1651.6299    16.2498    35.9215
         TRA.     0.7896D+27                   993.6033     4.9680    38.5210
         TOT.                       80.056    2645.2331    21.2178    74.4425

 210.00  VIB.     0.4995D+01                  1193.3916    14.3227     8.8790
         ROT.     0.2738D+06                   625.9700     2.9808    27.8606
         INT.     0.1367D+07                  1819.3616    17.3035    36.7396
         TRA.     0.8496D+27                  1043.2834     4.9680    38.7634
         TOT.                       80.273    2862.6450    22.2716    75.5031

 220.00  VIB.     0.5733D+01                  1342.0569    15.4168     9.5704
         ROT.     0.2935D+06                   655.7781     2.9808    27.9993
         INT.     0.1683D+07                  1997.8351    18.3976    37.5697
         TRA.     0.9110D+27                  1092.9636     4.9680    38.9945
         TOT.                       80.501    3090.7987    23.3656    76.5642

 230.00  VIB.     0.6602D+01                  1501.8496    16.5475    10.2805
         ROT.     0.3138D+06                   685.5862     2.9808    28.1318
         INT.     0.2072D+07                  2187.4358    19.5284    38.4123
         TRA.     0.9738D+27                  1142.6437     4.9680    39.2154
         TOT.                       80.741    3330.0796    24.4964    77.6277

 240.00  VIB.     0.7629D+01                  1673.1165    17.7109    11.0092
         ROT.     0.3345D+06                   715.3943     2.9808    28.2587
         INT.     0.2552D+07                  2388.5109    20.6917    39.2679
         TRA.     0.1038D+28                  1192.3239     4.9680    39.4268
         TOT.                       80.991    3580.8348    25.6597    78.6947

 250.00  VIB.     0.8844D+01                  1856.1619    18.9025    11.7563
         ROT.     0.3556D+06                   745.2024     2.9808    28.3804
         INT.     0.3145D+07                  2601.3644    21.8833    40.1367
         TRA.     0.1103D+28                  1242.0041     4.9680    39.6296
         TOT.                       81.254    3843.3684    26.8513    79.7663

 260.00  VIB.     0.1029D+02                  2051.2447    20.1176    12.5213
         ROT.     0.3771D+06                   775.0105     2.9808    28.4973
         INT.     0.3879D+07                  2826.2552    23.0984    41.0185
         TRA.     0.1170D+28                  1291.6842     4.9680    39.8245
         TOT.                       81.529    4117.9394    28.0664    80.8430

 270.00  VIB.     0.1200D+02                  2258.5772    21.3517    13.3036
         ROT.     0.3991D+06                   804.8186     2.9808    28.6098
         INT.     0.4790D+07                  3063.3958    24.3325    41.9134
         TRA.     0.1239D+28                  1341.3644     4.9680    40.0120
         TOT.                       81.815    4404.7602    29.3005    81.9253

 280.00  VIB.     0.1405D+02                  2478.3260    22.6001    14.1027
         ROT.     0.4215D+06                   834.6267     2.9808    28.7182
         INT.     0.5922D+07                  3312.9528    25.5809    42.8208
         TRA.     0.1308D+28                  1391.0445     4.9680    40.1926
         TOT.                       82.115    4703.9973    30.5490    83.0135

 290.00  VIB.     0.1650D+02                  2710.6131    23.8586    14.9176
         ROT.     0.4443D+06                   864.4348     2.9808    28.8228
         INT.     0.7330D+07                  3575.0479    26.8394    43.7404
         TRA.     0.1379D+28                  1440.7247     4.9680    40.3670
         TOT.                       82.426    5015.7727    31.8074    84.1074

 300.00  VIB.     0.1943D+02                  2955.5178    25.1230    15.7478
         ROT.     0.4674D+06                   894.2429     2.9808    28.9238
         INT.     0.9084D+07                  3849.7607    28.1038    44.6716
         TRA.     0.1451D+28                  1490.4049     4.9680    40.5354
         TOT.                       82.751    5340.1656    33.0718    85.2070

 310.00  VIB.     0.2296D+02                  3213.0794    26.3894    16.5922
         ROT.     0.4910D+06                   924.0510     2.9808    29.0216
         INT.     0.1127D+08                  4137.1305    29.3702    45.6138
         TRA.     0.1524D+28                  1540.0850     4.9680    40.6983
         TOT.                       83.088    5677.2155    34.3382    86.3121

 320.00  VIB.     0.2721D+02                  3483.3008    27.6543    17.4500
         ROT.     0.5149D+06                   953.8591     2.9808    29.1162
         INT.     0.1401D+08                  4437.1599    30.6352    46.5662
         TRA.     0.1598D+28                  1589.7652     4.9680    40.8560
         TOT.                       83.438    6026.9251    35.6032    87.4223

 330.00  VIB.     0.3233D+02                  3766.1507    28.9146    18.3203
         ROT.     0.5393D+06                   983.6672     2.9808    29.2079
         INT.     0.1744D+08                  4749.8179    31.8954    47.5282
         TRA.     0.1674D+28                  1639.4454     4.9680    41.0089
         TOT.                       83.800    6389.2632    36.8634    88.5371

 340.00  VIB.     0.3853D+02                  4061.5677    30.1673    19.2021
         ROT.     0.5640D+06                  1013.4753     2.9808    29.2969
         INT.     0.2173D+08                  5075.0431    33.1481    48.4990
         TRA.     0.1750D+28                  1689.1255     4.9680    41.1572
         TOT.                       84.175    6764.1686    38.1162    89.6562

 350.00  VIB.     0.4605D+02                  4369.4636    31.4100    20.0945
         ROT.     0.5890D+06                  1043.2834     2.9808    29.3833
         INT.     0.2712D+08                  5412.7470    34.3908    49.4779
         TRA.     0.1828D+28                  1738.8057     4.9680    41.3012
         TOT.                       84.562    7151.5527    39.3588    90.7791

 360.00  VIB.     0.5517D+02                  4689.7261    32.6403    20.9967
         ROT.     0.6145D+06                  1073.0915     2.9808    29.4673
         INT.     0.3390D+08                  5762.8176    35.6211    50.4640
         TRA.     0.1907D+28                  1788.4859     4.9680    41.4412
         TOT.                       84.962    7551.3035    40.5891    91.9051

 370.00  VIB.     0.6628D+02                  5022.2223    33.8564    21.9076
         ROT.     0.6402D+06                  1102.8996     2.9808    29.5490
         INT.     0.4243D+08                  6125.1219    36.8372    51.4566
         TRA.     0.1987D+28                  1838.1660     4.9680    41.5773
         TOT.                       85.374    7963.2880    41.8052    93.0339

 380.00  VIB.     0.7981D+02                  5366.8016    35.0567    22.8265
         ROT.     0.6664D+06                  1132.7077     2.9808    29.6285
         INT.     0.5318D+08                  6499.5093    38.0375    52.4549
         TRA.     0.2068D+28                  1887.8462     4.9680    41.7098
         TOT.                       85.798    8387.3555    43.0055    94.1647

 390.00  VIB.     0.9634D+02                  5723.2983    36.2397    23.7524
         ROT.     0.6928D+06                  1162.5158     2.9808    29.7059
         INT.     0.6675D+08                  6885.8141    39.2205    53.4583
         TRA.     0.2150D+28                  1937.5263     4.9680    41.8388
         TOT.                       86.234    8823.3405    44.1885    95.2971

 400.00  VIB.     0.1166D+03                  6091.5343    37.4044    24.6846
         ROT.     0.7197D+06                  1192.3239     2.9808    29.7813
         INT.     0.8388D+08                  7283.8582    40.3852    54.4660
         TRA.     0.2233D+28                  1987.2065     4.9680    41.9646
         TOT.                       86.682    9271.0647    45.3532    96.4306

   *: NOTE: HEATS OF FORMATION ARE RELATIVE TO THE
            ELEMENTS IN THEIR STANDARD STATE AT 298K
              (=  Standard Enthalpy of Formation).

            Hvib:  Zero-point energy is not included.
                   frequencies of less than zero cm-1 are not included.
            Hrot = (3/2)RT
            Htra = (3/2)RT + pV = (5/2)RT

            Heat capacity is Cp, not Cv

          For more information, see: HTTP://OpenMOPAC.net/Manual/thermochemistry.html


           FORCE CONSTANT IN CARTESIAN COORDINATES (Millidynes/A)

    ATOM   CHEMICAL       X               Y               Z
   NUMBER   SYMBOL  FORCE CONSTANT  FORCE CONSTANT  FORCE CONSTANT

      1       C       10.880945        6.470286        8.699192
      2       C        9.266471        6.494691        9.191484
      3       C        4.792328       10.688091        9.885244
      4       C        8.760399        8.829421        7.741564
      5       C       10.085803        4.892541       12.121391
      6       C       10.515850        5.017818       11.518706
      7       C        7.007678       11.332375        9.135260
      8       C        7.018612        8.653397       11.387227
      9       C       11.929893        5.406944       10.019683
     10       C       11.876736        5.392651       10.095715
     11       H        1.810966        1.153040        3.518811
     12       H        0.533236        2.474762        3.440779
     13       H        4.970529        0.656455        0.757103
     14       H        1.076385        3.456096        1.814309
     15       H        0.872369        0.511135        5.036250
     16       H        1.099647        0.581198        4.765073
     17       H        1.179490        4.294395        0.964039
     18       H        1.035779        0.823575        4.571852
     19       H        3.242903        1.298909        1.920771
     20       H        2.912678        1.197011        2.353516

 **********************
 *                    *
 * JOB ENDED NORMALLY *
 *                    *
 **********************



 TOTAL JOB TIME:             6.48 SECONDS

 == MOPAC DONE ==
