 *******************************************************************************
 ** Site#: 14399        For non-commercial use only    Version 18.184L 64BITS **
 *******************************************************************************
 ** Cite this program as: MOPAC2016, Version: 18.184L, James J. P. Stewart,   **
 ** Stewart Computational Chemistry, web: HTTP://OpenMOPAC.net. Days left:  20**
 *******************************************************************************
 **                                                                           **
 **                                MOPAC2016                                  **
 **                                                                           **
 *******************************************************************************

                              PM3 CALCULATION RESULTS

 *******************************************************************************
 *  CALCULATION DONE:                                Thu Jun 13 15:59:27 2019  *
 *  PM3        - The PM3 Hamiltonian to be used
 *  PRECISE    - CRITERIA TO BE INCREASED BY 100 TIMES
 *  NOSYM      - POINT-GROUP SYMMETRY SET TO C1
 *  THREADS=1  - MULTI-THREADING NOT USED
 *  T=         - A TIME OF 172800.0 SECONDS REQUESTED
 *  DUMP=N     - RESTART FILE WRITTEN EVERY  7200.000 SECONDS
 *******************************************************************************
pm3  precise nosym THREADS=1
 InChI=1S/C10H10/c1-2-8-7-9-5-3-4-6-10(8)9/h2-8,10H,1H2

   ATOM   CHEMICAL          X               Y               Z
  NUMBER   SYMBOL      (ANGSTROMS)     (ANGSTROMS)     (ANGSTROMS)
 
     1       C         -0.03520000  *   0.15090000  *   0.30090000  *
     2       C         -1.05350000  *  -0.23070000  *  -0.64560000  *
     3       C          0.78510000  *  -0.99150000  *  -0.16110000  *
     4       C         -0.24320000  *  -1.45020000  *  -0.97230000  *
     5       C          0.76380000  *   1.41290000  *   0.03980000  *
     6       C         -2.38050000  *  -0.57770000  *  -0.01900000  *
     7       C          2.23290000  *  -1.08930000  *  -0.12160000  *
     8       C          2.11630000  *   1.37840000  *  -0.02810000  *
     9       C          2.87560000  *   0.08510000  *  -0.03340000  *
    10       C         -3.17710000  *   0.37330000  *   0.47540000  *
    11       H         -1.14990000  *   0.44870000  *  -1.52310000  *
    12       H         -0.31350000  *   0.04460000  *   1.37460000  *
    13       H         -0.32380000  *  -2.22020000  *  -1.72780000  *
    14       H         -2.71480000  *  -1.61150000  *   0.00770000  *
    15       H          0.25170000  *   2.36650000  *   0.02370000  *
    16       H          2.66620000  *   2.30600000  *  -0.12020000  *
    17       H          3.95750000  *   0.10550000  *  -0.04930000  *
    18       H          2.75710000  *  -2.02640000  *  -0.25450000  *
    19       H         -2.87940000  *   1.41750000  *   0.45100000  *
    20       H         -4.13540000  *   0.10820000  *   0.91000000  *
 


          CARTESIAN COORDINATES 

    NO.       ATOM           X           Y           Z

     1         C         -0.0352      0.1509      0.3009
     2         C         -1.0535     -0.2307     -0.6456
     3         C          0.7851     -0.9915     -0.1611
     4         C         -0.2432     -1.4502     -0.9723
     5         C          0.7638      1.4129      0.0398
     6         C         -2.3805     -0.5777     -0.0190
     7         C          2.2329     -1.0893     -0.1216
     8         C          2.1163      1.3784     -0.0281
     9         C          2.8756      0.0851     -0.0334
    10         C         -3.1771      0.3733      0.4754
    11         H         -1.1499      0.4487     -1.5231
    12         H         -0.3135      0.0446      1.3746
    13         H         -0.3238     -2.2202     -1.7278
    14         H         -2.7148     -1.6115      0.0077
    15         H          0.2517      2.3665      0.0237
    16         H          2.6662      2.3060     -0.1202
    17         H          3.9575      0.1055     -0.0493
    18         H          2.7571     -2.0264     -0.2545
    19         H         -2.8794      1.4175      0.4510
    20         H         -4.1354      0.1082      0.9100

  H: (PM3): J. J. P. STEWART, J. COMP. CHEM. 10, 209 (1989).
  C: (PM3): J. J. P. STEWART, J. COMP. CHEM. 10, 209 (1989).

           Empirical Formula: C10 H10  =    20 atoms



      MOLECULAR POINT GROUP   :   C1  


      RHF CALCULATION, NO. OF DOUBLY OCCUPIED LEVELS = 25


          Geometry optimization using EF

          DIAGONAL MATRIX USED AS START HESSIAN

 CYCLE:     1 TIME:   0.035 TIME LEFT:  2.00D  GRAD.:   237.660 HEAT:  110.9530
 CYCLE:     2 TIME:   0.035 TIME LEFT:  2.00D  GRAD.:   200.465 HEAT:  108.0599
 CYCLE:     3 TIME:   0.027 TIME LEFT:  2.00D  GRAD.:   128.008 HEAT:  100.4339
 CYCLE:     4 TIME:   0.035 TIME LEFT:  2.00D  GRAD.:    79.459 HEAT:  98.11557
 CYCLE:     5 TIME:   0.027 TIME LEFT:  2.00D  GRAD.:    66.024 HEAT:  97.42463
 CYCLE:     6 TIME:   0.027 TIME LEFT:  2.00D  GRAD.:    34.715 HEAT:  96.51282
 CYCLE:     7 TIME:   0.031 TIME LEFT:  2.00D  GRAD.:    27.947 HEAT:  96.21899
 CYCLE:     8 TIME:   0.020 TIME LEFT:  2.00D  GRAD.:    41.636 HEAT:  96.18364
 CYCLE:     9 TIME:   0.023 TIME LEFT:  2.00D  GRAD.:    27.041 HEAT:  95.79039
 CYCLE:    10 TIME:   0.031 TIME LEFT:  2.00D  GRAD.:    30.030 HEAT:  95.72224
 CYCLE:    11 TIME:   0.020 TIME LEFT:  2.00D  GRAD.:    24.580 HEAT:  95.57184
 CYCLE:    12 TIME:   0.031 TIME LEFT:  2.00D  GRAD.:    18.641 HEAT:  95.47733
 CYCLE:    13 TIME:   0.020 TIME LEFT:  2.00D  GRAD.:    10.566 HEAT:  95.38271
 CYCLE:    14 TIME:   0.023 TIME LEFT:  2.00D  GRAD.:    14.522 HEAT:  95.33970
 CYCLE:    15 TIME:   0.023 TIME LEFT:  2.00D  GRAD.:    15.473 HEAT:  95.30527
 CYCLE:    16 TIME:   0.023 TIME LEFT:  2.00D  GRAD.:    14.795 HEAT:  95.26676
 CYCLE:    17 TIME:   0.023 TIME LEFT:  2.00D  GRAD.:     8.620 HEAT:  95.21557
 CYCLE:    18 TIME:   0.023 TIME LEFT:  2.00D  GRAD.:     8.045 HEAT:  95.19279
 CYCLE:    19 TIME:   0.020 TIME LEFT:  2.00D  GRAD.:     6.892 HEAT:  95.17351
 CYCLE:    20 TIME:   0.023 TIME LEFT:  2.00D  GRAD.:     3.425 HEAT:  95.14862
 CYCLE:    21 TIME:   0.023 TIME LEFT:  2.00D  GRAD.:     4.141 HEAT:  95.13364
 CYCLE:    22 TIME:   0.023 TIME LEFT:  2.00D  GRAD.:     3.418 HEAT:  95.12328
 CYCLE:    23 TIME:   0.023 TIME LEFT:  2.00D  GRAD.:     1.871 HEAT:  95.11562
 CYCLE:    24 TIME:   0.023 TIME LEFT:  2.00D  GRAD.:     4.271 HEAT:  95.10753
 CYCLE:    25 TIME:   0.023 TIME LEFT:  2.00D  GRAD.:     6.017 HEAT:  95.10177
 CYCLE:    26 TIME:   0.020 TIME LEFT:  2.00D  GRAD.:     2.210 HEAT:  95.09373
 CYCLE:    27 TIME:   0.023 TIME LEFT:  2.00D  GRAD.:     1.988 HEAT:  95.09071
 CYCLE:    28 TIME:   0.023 TIME LEFT:  2.00D  GRAD.:     1.579 HEAT:  95.08798
 CYCLE:    29 TIME:   0.023 TIME LEFT:  2.00D  GRAD.:     1.338 HEAT:  95.08609
 CYCLE:    30 TIME:   0.023 TIME LEFT:  2.00D  GRAD.:     1.572 HEAT:  95.08461
 CYCLE:    31 TIME:   0.023 TIME LEFT:  2.00D  GRAD.:     1.598 HEAT:  95.08342
 CYCLE:    32 TIME:   0.023 TIME LEFT:  2.00D  GRAD.:     1.188 HEAT:  95.08234
 CYCLE:    33 TIME:   0.020 TIME LEFT:  2.00D  GRAD.:     0.801 HEAT:  95.08133
 CYCLE:    34 TIME:   0.023 TIME LEFT:  2.00D  GRAD.:     0.632 HEAT:  95.08041
 CYCLE:    35 TIME:   0.023 TIME LEFT:  2.00D  GRAD.:     0.762 HEAT:  95.07889
 CYCLE:    36 TIME:   0.023 TIME LEFT:  2.00D  GRAD.:     0.829 HEAT:  95.07787
 CYCLE:    37 TIME:   0.023 TIME LEFT:  2.00D  GRAD.:     0.794 HEAT:  95.07646
 CYCLE:    38 TIME:   0.023 TIME LEFT:  2.00D  GRAD.:     0.867 HEAT:  95.07418
 CYCLE:    39 TIME:   0.020 TIME LEFT:  2.00D  GRAD.:     0.849 HEAT:  95.07236
 CYCLE:    40 TIME:   0.023 TIME LEFT:  2.00D  GRAD.:     0.676 HEAT:  95.07081
 CYCLE:    41 TIME:   0.023 TIME LEFT:  2.00D  GRAD.:     0.508 HEAT:  95.06990
 CYCLE:    42 TIME:   0.023 TIME LEFT:  2.00D  GRAD.:     0.470 HEAT:  95.06934
 CYCLE:    43 TIME:   0.023 TIME LEFT:  2.00D  GRAD.:     0.381 HEAT:  95.06891
 CYCLE:    44 TIME:   0.023 TIME LEFT:  2.00D  GRAD.:     0.359 HEAT:  95.06852
 CYCLE:    45 TIME:   0.023 TIME LEFT:  2.00D  GRAD.:     0.344 HEAT:  95.06820
 CYCLE:    46 TIME:   0.020 TIME LEFT:  2.00D  GRAD.:     0.330 HEAT:  95.06791
 CYCLE:    47 TIME:   0.023 TIME LEFT:  2.00D  GRAD.:     0.296 HEAT:  95.06764
 CYCLE:    48 TIME:   0.023 TIME LEFT:  2.00D  GRAD.:     0.244 HEAT:  95.06738
 CYCLE:    49 TIME:   0.023 TIME LEFT:  2.00D  GRAD.:     0.198 HEAT:  95.06724
 CYCLE:    50 TIME:   0.023 TIME LEFT:  2.00D  GRAD.:     0.160 HEAT:  95.06716
 CYCLE:    51 TIME:   0.023 TIME LEFT:  2.00D  GRAD.:     0.158 HEAT:  95.06709
 CYCLE:    52 TIME:   0.020 TIME LEFT:  2.00D  GRAD.:     0.179 HEAT:  95.06703
 CYCLE:    53 TIME:   0.023 TIME LEFT:  2.00D  GRAD.:     0.224 HEAT:  95.06691
 CYCLE:    54 TIME:   0.023 TIME LEFT:  2.00D  GRAD.:     0.288 HEAT:  95.06674
 CYCLE:    55 TIME:   0.023 TIME LEFT:  2.00D  GRAD.:     0.375 HEAT:  95.06643
 CYCLE:    56 TIME:   0.023 TIME LEFT:  2.00D  GRAD.:     0.379 HEAT:  95.06617
 CYCLE:    57 TIME:   0.023 TIME LEFT:  2.00D  GRAD.:     0.502 HEAT:  95.06550
 CYCLE:    58 TIME:   0.023 TIME LEFT:  2.00D  GRAD.:     0.479 HEAT:  95.06516
 CYCLE:    59 TIME:   0.023 TIME LEFT:  2.00D  GRAD.:     0.595 HEAT:  95.06356
 CYCLE:    60 TIME:   0.020 TIME LEFT:  2.00D  GRAD.:     0.738 HEAT:  95.06263
 CYCLE:    61 TIME:   0.023 TIME LEFT:  2.00D  GRAD.:     1.113 HEAT:  95.06091
 CYCLE:    62 TIME:   0.023 TIME LEFT:  2.00D  GRAD.:     0.887 HEAT:  95.05946
 CYCLE:    63 TIME:   0.023 TIME LEFT:  2.00D  GRAD.:     1.398 HEAT:  95.05561
 CYCLE:    64 TIME:   0.035 TIME LEFT:  2.00D  GRAD.:     2.440 HEAT:  95.05144
 CYCLE:    65 TIME:   0.023 TIME LEFT:  2.00D  GRAD.:     4.492 HEAT:  95.05190
 CYCLE:    66 TIME:   0.020 TIME LEFT:  2.00D  GRAD.:     1.251 HEAT:  95.04123
 CYCLE:    67 TIME:   0.023 TIME LEFT:  2.00D  GRAD.:     1.082 HEAT:  95.03342
 CYCLE:    68 TIME:   0.027 TIME LEFT:  2.00D  GRAD.:     3.870 HEAT:  95.01802
 CYCLE:    69 TIME:   0.020 TIME LEFT:  2.00D  GRAD.:     2.251 HEAT:  95.00847
 CYCLE:    70 TIME:   0.023 TIME LEFT:  2.00D  GRAD.:     2.615 HEAT:  94.99634
 CYCLE:    71 TIME:   0.039 TIME LEFT:  2.00D  GRAD.:     4.456 HEAT:  94.99257
 CYCLE:    72 TIME:   0.023 TIME LEFT:  2.00D  GRAD.:     2.007 HEAT:  94.97823
 CYCLE:    73 TIME:   0.023 TIME LEFT:  2.00D  GRAD.:     1.521 HEAT:  94.97216
 CYCLE:    74 TIME:   0.023 TIME LEFT:  2.00D  GRAD.:     3.420 HEAT:  94.96153
 CYCLE:    75 TIME:   0.020 TIME LEFT:  2.00D  GRAD.:     2.044 HEAT:  94.95494
 CYCLE:    76 TIME:   0.023 TIME LEFT:  2.00D  GRAD.:     1.387 HEAT:  94.94711
 CYCLE:    77 TIME:   0.023 TIME LEFT:  2.00D  GRAD.:     2.172 HEAT:  94.94109
 CYCLE:    78 TIME:   0.023 TIME LEFT:  2.00D  GRAD.:     1.406 HEAT:  94.93755
 CYCLE:    79 TIME:   0.023 TIME LEFT:  2.00D  GRAD.:     1.083 HEAT:  94.93356
 CYCLE:    80 TIME:   0.023 TIME LEFT:  2.00D  GRAD.:     1.122 HEAT:  94.93046
 CYCLE:    81 TIME:   0.023 TIME LEFT:  2.00D  GRAD.:     0.905 HEAT:  94.92906
 CYCLE:    82 TIME:   0.023 TIME LEFT:  2.00D  GRAD.:     0.705 HEAT:  94.92806
 CYCLE:    83 TIME:   0.020 TIME LEFT:  2.00D  GRAD.:     0.364 HEAT:  94.92726
 CYCLE:    84 TIME:   0.023 TIME LEFT:  2.00D  GRAD.:     0.227 HEAT:  94.92709
 CYCLE:    85 TIME:   0.023 TIME LEFT:  2.00D  GRAD.:     0.139 HEAT:  94.92704
 CYCLE:    86 TIME:   0.023 TIME LEFT:  2.00D  GRAD.:     0.136 HEAT:  94.92700
 CYCLE:    87 TIME:   0.020 TIME LEFT:  2.00D  GRAD.:     0.111 HEAT:  94.92697
 CYCLE:    88 TIME:   0.027 TIME LEFT:  2.00D  GRAD.:     0.110 HEAT:  94.92692
 CYCLE:    89 TIME:   0.020 TIME LEFT:  2.00D  GRAD.:     0.094 HEAT:  94.92690
 CYCLE:    90 TIME:   0.023 TIME LEFT:  2.00D  GRAD.:     0.067 HEAT:  94.92689
 CYCLE:    91 TIME:   0.023 TIME LEFT:  2.00D  GRAD.:     0.075 HEAT:  94.92688
 CYCLE:    92 TIME:   0.023 TIME LEFT:  2.00D  GRAD.:     0.063 HEAT:  94.92687
 CYCLE:    93 TIME:   0.023 TIME LEFT:  2.00D  GRAD.:     0.028 HEAT:  94.92687

     GRADIENT =  0.02774  IS LESS THAN CUTOFF =  0.05000



 -------------------------------------------------------------------------------
 pm3  precise nosym THREADS=1
 InChI=1S/C10H10/c1-2-8-7-9-5-3-4-6-10(8)9/h2-8,10H,1H2



     GEOMETRY OPTIMISED USING EIGENVECTOR FOLLOWING (EF).     
     SCF FIELD WAS ACHIEVED                                   


                              PM3 CALCULATION
                                                       MOPAC2016 (Version: 18.184L)
                                                       Thu Jun 13 15:59:29 2019
                                                       No. of days remaining =  20




          FINAL HEAT OF FORMATION =         94.92687 KCAL/MOL =     397.17403 KJ/MOL


          TOTAL ENERGY            =      -1335.61452 EV
          ELECTRONIC ENERGY       =      -6996.92632 EV  POINT GROUP:     C1  
          CORE-CORE REPULSION     =       5661.31180 EV
          COSMO AREA              =        177.08 SQUARE ANGSTROMS
          COSMO VOLUME            =        178.55 CUBIC ANGSTROMS

          GRADIENT NORM           =          0.02774 = 0.00620 PER ATOM
          IONIZATION POTENTIAL    =          8.729922 EV
          HOMO LUMO ENERGIES (EV) =         -8.730 -0.240
          NO. OF FILLED LEVELS    =         25
          MOLECULAR WEIGHT        =        130.1890

          MOLECULAR DIMENSIONS (Angstroms)

            Atom       Atom       Distance
            H    20    H    17     8.05627
            H    15    H    13     5.01019
            H    12    H    11     2.93456


          SCF CALCULATIONS        =        102
 
          WALL-CLOCK TIME         =          2.273 SECONDS
          COMPUTATION TIME        =          0.886 SECONDS




   ATOM   CHEMICAL          X               Y               Z
  NUMBER   SYMBOL      (ANGSTROMS)     (ANGSTROMS)     (ANGSTROMS)
 
     1       C          0.00392894  *   0.24571864  *   0.24237872  *
     2       C         -1.12151248  *  -0.25566012  *  -0.75090376  *
     3       C          0.77374929  *  -0.99051258  *  -0.20681243  *
     4       C         -0.22329802  *  -1.47487961  *  -0.97853894  *
     5       C          0.80363821  *   1.46502932  *  -0.01419920  *
     6       C         -2.46100970  *  -0.53660591  *  -0.18771079  *
     7       C          2.19621624  *  -1.07824392  *  -0.02670265  *
     8       C          2.14385757  *   1.37104567  *  -0.07634421  *
     9       C          2.85030426  *   0.10013123  *   0.03704154  *
    10       C         -3.07578587  *   0.25650072  *   0.68169273  *
    11       H         -1.21661662  *   0.38141150  *  -1.65553934  *
    12       H         -0.33640425  *   0.23683189  *   1.30059182  *
    13       H         -0.38288628  *  -2.35103155  *  -1.59140297  *
    14       H         -2.93389742  *  -1.45750926  *  -0.55003017  *
    15       H          0.27628233  *   2.41904578  *  -0.10455662  *
    16       H          2.76094792  *   2.26490244  *  -0.21728868  *
    17       H          3.93785206  *   0.14046426  *   0.15467763  *
    18       H          2.69115113  *  -2.05157632  *   0.01622185  *
    19       H         -2.63566791  *   1.17338240  *   1.06467118  *
    20       H         -4.06538835  *   0.04032710  *   1.07208622  *

                             CARTESIAN COORDINATES

   1    C        0.003928945     0.245718642     0.242378717
   2    C       -1.121512480    -0.255660123    -0.750903760
   3    C        0.773749293    -0.990512584    -0.206812425
   4    C       -0.223298021    -1.474879613    -0.978538940
   5    C        0.803638214     1.465029316    -0.014199198
   6    C       -2.461009702    -0.536605909    -0.187710788
   7    C        2.196216243    -1.078243918    -0.026702649
   8    C        2.143857565     1.371045667    -0.076344212
   9    C        2.850304262     0.100131227     0.037041542
  10    C       -3.075785870     0.256500719     0.681692725
  11    H       -1.216616618     0.381411498    -1.655539335
  12    H       -0.336404254     0.236831889     1.300591824
  13    H       -0.382886280    -2.351031550    -1.591402974
  14    H       -2.933897421    -1.457509258    -0.550030168
  15    H        0.276282326     2.419045779    -0.104556618
  16    H        2.760947923     2.264902437    -0.217288685
  17    H        3.937852065     0.140464263     0.154677631
  18    H        2.691151128    -2.051576324     0.016221851
  19    H       -2.635667912     1.173382400     1.064671181
  20    H       -4.065388353     0.040327097     1.072086224


           Empirical Formula: C10 H10  =    20 atoms



      MOLECULAR POINT GROUP   :   C1  


                  EIGENVALUES  
 -41.53252 -35.31119 -31.39959 -29.88140 -25.07162 -23.59657 -21.47443 -19.63428
 -18.52945 -17.76255 -17.22020 -16.39263 -15.94413 -15.14164 -14.68975 -13.87124
 -13.57508 -13.17034 -12.74548 -12.09143 -11.95186 -11.42664 -10.17111 -10.15771
  -8.72992  -0.23982   1.04399   1.15355   2.10583   2.99407   3.09922   3.20363
   3.30707   3.49238   3.60331   3.81129   3.89524   4.05638   4.17555   4.20984
   4.33496   4.64352   4.90294   5.01356   5.33738   5.50630   5.69427   5.80729
   6.07701   6.33328


              NET ATOMIC CHARGES AND DIPOLE CONTRIBUTIONS

  ATOM NO.   TYPE          CHARGE      No. of ELECS.   s-Pop       p-Pop       
    1          C          -0.046260        4.0463     1.17914     2.86712
    2          C          -0.016565        4.0166     1.17667     2.83989
    3          C          -0.112921        4.1129     1.20484     2.90808
    4          C          -0.133932        4.1339     1.21686     2.91707
    5          C          -0.116693        4.1167     1.19289     2.92380
    6          C          -0.128254        4.1283     1.19083     2.93742
    7          C          -0.060015        4.0600     1.16829     2.89173
    8          C          -0.113417        4.1134     1.18134     2.93208
    9          C          -0.098752        4.0988     1.18296     2.91579
   10          C          -0.164641        4.1646     1.18097     2.98367
   11          H           0.089262        0.9107     0.91074
   12          H           0.095365        0.9046     0.90463
   13          H           0.128117        0.8719     0.87188
   14          H           0.100508        0.8995     0.89949
   15          H           0.104138        0.8959     0.89586
   16          H           0.099905        0.9001     0.90009
   17          H           0.100798        0.8992     0.89920
   18          H           0.109714        0.8903     0.89029
   19          H           0.082859        0.9171     0.91714
   20          H           0.080785        0.9192     0.91922
 DIPOLE           X         Y         Z       TOTAL
 POINT-CHG.    -0.009     0.163    -0.229     0.281
 HYBRID         0.004     0.009     0.025     0.027
 SUM           -0.005     0.172    -0.203     0.267


          ATOMIC ORBITAL ELECTRON POPULATIONS

     Atom    s        px        py        pz   
    1  C   1.17914   0.94678   0.92878   0.99156
    2  C   1.17667   0.91199   0.95460   0.97330
    3  C   1.20484   0.94443   0.97109   0.99256
    4  C   1.21686   0.96456   0.97706   0.97545
    5  C   1.19289   0.95345   0.97562   0.99473
    6  C   1.19083   0.96238   0.99117   0.98387
    7  C   1.16829   0.92071   0.97118   0.99984
    8  C   1.18134   0.95119   0.96556   1.01533
    9  C   1.18296   0.98010   0.93417   1.00151
   10  C   1.18097   0.99865   0.99467   0.99036
   11  H   0.91074
   12  H   0.90463
   13  H   0.87188
   14  H   0.89949
   15  H   0.89586
   16  H   0.90009
   17  H   0.89920
   18  H   0.89029
   19  H   0.91714
   20  H   0.91922
 *******************************************************************************
 ** Site#: 14399        For non-commercial use only    Version 18.184L 64BITS **
 *******************************************************************************
 ** Cite this program as: MOPAC2016, Version: 18.184L, James J. P. Stewart,   **
 ** Stewart Computational Chemistry, web: HTTP://OpenMOPAC.net. Days left:  20**
 *******************************************************************************
 **                                                                           **
 **                                MOPAC2016                                  **
 **                                                                           **
 *******************************************************************************

                              PM3 CALCULATION RESULTS

 *******************************************************************************
 *  CALCULATION DONE:                                Thu Jun 13 15:59:29 2019  *
 *  PM3        - The PM3 Hamiltonian to be used
 *  OLDGEO     - PREVIOUS GEOMETRY TO BE USED
 *  PRECISE    - CRITERIA TO BE INCREASED BY 100 TIMES
 *  NOSYM      - POINT-GROUP SYMMETRY SET TO C1
 *  THREADS=1  - MULTI-THREADING NOT USED
 *  T=         - A TIME OF 172800.0 SECONDS REQUESTED
 *  DUMP=N     - RESTART FILE WRITTEN EVERY  7200.000 SECONDS
 *  THERMO     - THERMODYNAMIC QUANTITIES TO BE CALCULATED
 *******************************************************************************
oldgeo thermo nosym precise THREADS=1  pm3
 InChI=1S/C10H10/c1-2-8-7-9-5-3-4-6-10(8)9/h2-8,10H,1H2

   ATOM   CHEMICAL          X               Y               Z
  NUMBER   SYMBOL      (ANGSTROMS)     (ANGSTROMS)     (ANGSTROMS)
 
     1       C          0.00392894  *   0.24571864  *   0.24237872  *
     2       C         -1.12151248  *  -0.25566012  *  -0.75090376  *
     3       C          0.77374929  *  -0.99051258  *  -0.20681243  *
     4       C         -0.22329802  *  -1.47487961  *  -0.97853894  *
     5       C          0.80363821  *   1.46502932  *  -0.01419920  *
     6       C         -2.46100970  *  -0.53660591  *  -0.18771079  *
     7       C          2.19621624  *  -1.07824392  *  -0.02670265  *
     8       C          2.14385757  *   1.37104567  *  -0.07634421  *
     9       C          2.85030426  *   0.10013123  *   0.03704154  *
    10       C         -3.07578587  *   0.25650072  *   0.68169273  *
    11       H         -1.21661662  *   0.38141150  *  -1.65553934  *
    12       H         -0.33640425  *   0.23683189  *   1.30059182  *
    13       H         -0.38288628  *  -2.35103155  *  -1.59140297  *
    14       H         -2.93389742  *  -1.45750926  *  -0.55003017  *
    15       H          0.27628233  *   2.41904578  *  -0.10455662  *
    16       H          2.76094792  *   2.26490244  *  -0.21728868  *
    17       H          3.93785206  *   0.14046426  *   0.15467763  *
    18       H          2.69115113  *  -2.05157632  *   0.01622185  *
    19       H         -2.63566791  *   1.17338240  *   1.06467118  *
    20       H         -4.06538835  *   0.04032710  *   1.07208622  *
 


          CARTESIAN COORDINATES 

    NO.       ATOM           X           Y           Z

     1         C          0.0039      0.2457      0.2424
     2         C         -1.1215     -0.2557     -0.7509
     3         C          0.7737     -0.9905     -0.2068
     4         C         -0.2233     -1.4749     -0.9785
     5         C          0.8036      1.4650     -0.0142
     6         C         -2.4610     -0.5366     -0.1877
     7         C          2.1962     -1.0782     -0.0267
     8         C          2.1439      1.3710     -0.0763
     9         C          2.8503      0.1001      0.0370
    10         C         -3.0758      0.2565      0.6817
    11         H         -1.2166      0.3814     -1.6555
    12         H         -0.3364      0.2368      1.3006
    13         H         -0.3829     -2.3510     -1.5914
    14         H         -2.9339     -1.4575     -0.5500
    15         H          0.2763      2.4190     -0.1046
    16         H          2.7609      2.2649     -0.2173
    17         H          3.9379      0.1405      0.1547
    18         H          2.6912     -2.0516      0.0162
    19         H         -2.6357      1.1734      1.0647
    20         H         -4.0654      0.0403      1.0721

  H: (PM3): J. J. P. STEWART, J. COMP. CHEM. 10, 209 (1989).
  C: (PM3): J. J. P. STEWART, J. COMP. CHEM. 10, 209 (1989).

           Empirical Formula: C10 H10  =    20 atoms



      MOLECULAR POINT GROUP   :   C1  


      RHF CALCULATION, NO. OF DOUBLY OCCUPIED LEVELS = 25



          HEAT OF FORMATION =      94.926874 KCALS/MOLE


          CARTESIAN COORDINATE DERIVATIVES

   NUMBER  ATOM         X            Y            Z

     1       C     -0.000052     0.000877    -0.002750
     2       C     -0.004724     0.000882    -0.000300
     3       C     -0.014365     0.003909    -0.003550
     4       C      0.003457    -0.004314    -0.000138
     5       C      0.005264    -0.003483     0.008559
     6       C     -0.000661     0.000641    -0.007202
     7       C      0.008203     0.001537     0.001678
     8       C     -0.006259     0.016636    -0.001016
     9       C     -0.002377    -0.009837    -0.004478
    10       C     -0.001362    -0.011510    -0.005077
    11       H     -0.004259    -0.001329    -0.003541
    12       H      0.000003     0.003189     0.002030
    13       H      0.000114     0.001410     0.005246
    14       H      0.009418     0.007772     0.010417
    15       H      0.001932    -0.002991     0.000580
    16       H      0.000795    -0.001250    -0.000889
    17       H     -0.000341     0.000556    -0.000411
    18       H      0.002636    -0.001477    -0.002531
    19       H      0.000614    -0.001199     0.005197
    20       H      0.001962    -0.000021    -0.001824
 


          GRADIENT NORM =   0.03919


          TIME FOR SCF CALCULATION =    0.02

          TIME FOR DERIVATIVES     =    0.01

          MOLECULAR WEIGHT =  130.19



          ROTATIONAL CONSTANTS IN CM(-1)

          A =    0.10535622   B =    0.03259181   C =    0.02684904



           PRINCIPAL MOMENTS OF INERTIA IN UNITS OF 10**(-40)*GRAM-CM**2

          A =      265.6965   B =      858.8898   C =     1042.5989


          ORIENTATION OF MOLECULE IN FORCE CALCULATION

    NO.       ATOM         X         Y         Z

     1          C      -0.2201   -0.4308    0.1641
     2          C       1.3625   -0.4308    0.1641
     3          C      -0.0940    1.0880    0.1641
     4          C       1.2528    1.0933    0.2653
     5          C      -1.0141   -0.8761   -1.0036
     6          C       2.0506   -1.1048    1.2878
     7          C      -1.1908    1.9182   -0.2498
     8          C      -1.8984   -0.0285   -1.5590
     9          C      -2.0693    1.3447   -1.0982
    10          C       1.6908   -2.2892    1.7679
    11          H       1.7960   -0.7660   -0.8018
    12          H      -0.6395   -0.8742    1.0932
    13          H       2.0286    1.8424    0.3418
    14          H       2.9060   -0.5588    1.7038
    15          H      -0.8846   -1.9040   -1.3545
    16          H      -2.5319   -0.3490   -2.3930
    17          H      -2.9293    1.8997   -1.4862
    18          H      -1.2614    2.9545    0.0898
    19          H       0.8470   -2.8556    1.3830
    20          H       2.2180   -2.7741    2.5837


    FIRST DERIVATIVES WILL BE USED IN THE CALCULATION OF SECOND DERIVATIVES

          ESTIMATED TIME TO COMPLETE CALCULATION =        8.44 SECONDS

    FOR POINT-GROUP C1   THERE ARE   1 UNIQUE SYMMETRY FUNCTIONS.

 STEP:   1 TIME =     0.05 SECS, INTEGRAL =      0.05 TIME LEFT: 172799.91
 STEP:   2 TIME =     0.05 SECS, INTEGRAL =      0.10 TIME LEFT: 172799.87
 STEP:   3 TIME =     0.05 SECS, INTEGRAL =      0.14 TIME LEFT: 172799.82
 STEP:   4 TIME =     0.05 SECS, INTEGRAL =      0.19 TIME LEFT: 172799.77
 STEP:   5 TIME =     0.04 SECS, INTEGRAL =      0.23 TIME LEFT: 172799.73
 STEP:   6 TIME =     0.05 SECS, INTEGRAL =      0.28 TIME LEFT: 172799.68
 STEP:   7 TIME =     0.05 SECS, INTEGRAL =      0.33 TIME LEFT: 172799.64
 STEP:   8 TIME =     0.04 SECS, INTEGRAL =      0.37 TIME LEFT: 172799.59
 STEP:   9 TIME =     0.05 SECS, INTEGRAL =      0.42 TIME LEFT: 172799.54
 STEP:  10 TIME =     0.05 SECS, INTEGRAL =      0.47 TIME LEFT: 172799.50
 STEP:  11 TIME =     0.05 SECS, INTEGRAL =      0.52 TIME LEFT: 172799.45
 STEP:  12 TIME =     0.05 SECS, INTEGRAL =      0.56 TIME LEFT: 172799.40
 STEP:  13 TIME =     0.05 SECS, INTEGRAL =      0.61 TIME LEFT: 172799.36
 STEP:  14 TIME =     0.05 SECS, INTEGRAL =      0.66 TIME LEFT: 172799.31
 STEP:  15 TIME =     0.05 SECS, INTEGRAL =      0.70 TIME LEFT: 172799.26
 STEP:  16 TIME =     0.04 SECS, INTEGRAL =      0.75 TIME LEFT: 172799.22
 STEP:  17 TIME =     0.05 SECS, INTEGRAL =      0.79 TIME LEFT: 172799.17
 STEP:  18 TIME =     0.05 SECS, INTEGRAL =      0.84 TIME LEFT: 172799.12
 STEP:  19 TIME =     0.04 SECS, INTEGRAL =      0.88 TIME LEFT: 172799.08
 STEP:  20 TIME =     0.05 SECS, INTEGRAL =      0.93 TIME LEFT: 172799.04
 STEP:  21 TIME =     0.05 SECS, INTEGRAL =      0.98 TIME LEFT: 172798.99
 STEP:  22 TIME =     0.05 SECS, INTEGRAL =      1.02 TIME LEFT: 172798.94
 STEP:  23 TIME =     0.05 SECS, INTEGRAL =      1.07 TIME LEFT: 172798.89
 STEP:  24 TIME =     0.04 SECS, INTEGRAL =      1.11 TIME LEFT: 172798.85
 STEP:  25 TIME =     0.05 SECS, INTEGRAL =      1.16 TIME LEFT: 172798.80
 STEP:  26 TIME =     0.05 SECS, INTEGRAL =      1.21 TIME LEFT: 172798.76
 STEP:  27 TIME =     0.04 SECS, INTEGRAL =      1.25 TIME LEFT: 172798.71
 STEP:  28 TIME =     0.05 SECS, INTEGRAL =      1.30 TIME LEFT: 172798.67
 STEP:  29 TIME =     0.05 SECS, INTEGRAL =      1.34 TIME LEFT: 172798.62
 STEP:  30 TIME =     0.05 SECS, INTEGRAL =      1.39 TIME LEFT: 172798.57
 STEP:  31 TIME =     0.05 SECS, INTEGRAL =      1.44 TIME LEFT: 172798.53
 STEP:  32 TIME =     0.05 SECS, INTEGRAL =      1.48 TIME LEFT: 172798.48
 STEP:  33 TIME =     0.04 SECS, INTEGRAL =      1.53 TIME LEFT: 172798.44
 STEP:  34 TIME =     0.05 SECS, INTEGRAL =      1.57 TIME LEFT: 172798.39
 STEP:  35 TIME =     0.04 SECS, INTEGRAL =      1.62 TIME LEFT: 172798.35
 STEP:  36 TIME =     0.05 SECS, INTEGRAL =      1.66 TIME LEFT: 172798.30
 STEP:  37 TIME =     0.05 SECS, INTEGRAL =      1.71 TIME LEFT: 172798.25
 STEP:  38 TIME =     0.05 SECS, INTEGRAL =      1.76 TIME LEFT: 172798.21
 STEP:  39 TIME =     0.05 SECS, INTEGRAL =      1.80 TIME LEFT: 172798.16
 STEP:  40 TIME =     0.04 SECS, INTEGRAL =      1.85 TIME LEFT: 172798.12
 STEP:  41 TIME =     0.05 SECS, INTEGRAL =      1.89 TIME LEFT: 172798.07
 STEP:  42 TIME =     0.05 SECS, INTEGRAL =      1.94 TIME LEFT: 172798.02
 STEP:  43 TIME =     0.05 SECS, INTEGRAL =      1.99 TIME LEFT: 172797.98
 STEP:  44 TIME =     0.05 SECS, INTEGRAL =      2.04 TIME LEFT: 172797.93
 STEP:  45 TIME =     0.05 SECS, INTEGRAL =      2.08 TIME LEFT: 172797.88
 STEP:  46 TIME =     0.05 SECS, INTEGRAL =      2.13 TIME LEFT: 172797.84
 STEP:  47 TIME =     0.05 SECS, INTEGRAL =      2.18 TIME LEFT: 172797.79
 STEP:  48 TIME =     0.05 SECS, INTEGRAL =      2.22 TIME LEFT: 172797.74
 STEP:  49 TIME =     0.05 SECS, INTEGRAL =      2.27 TIME LEFT: 172797.70
 STEP:  50 TIME =     0.05 SECS, INTEGRAL =      2.32 TIME LEFT: 172797.65
 STEP:  51 TIME =     0.04 SECS, INTEGRAL =      2.36 TIME LEFT: 172797.61
 STEP:  52 TIME =     0.05 SECS, INTEGRAL =      2.41 TIME LEFT: 172797.56
 STEP:  53 TIME =     0.04 SECS, INTEGRAL =      2.45 TIME LEFT: 172797.52
 STEP:  54 TIME =     0.04 SECS, INTEGRAL =      2.49 TIME LEFT: 172797.47
 STEP:  55 TIME =     0.05 SECS, INTEGRAL =      2.54 TIME LEFT: 172797.43
 STEP:  56 TIME =     0.04 SECS, INTEGRAL =      2.58 TIME LEFT: 172797.38
 STEP:  57 TIME =     0.05 SECS, INTEGRAL =      2.63 TIME LEFT: 172797.34
 STEP:  58 TIME =     0.05 SECS, INTEGRAL =      2.68 TIME LEFT: 172797.29
 STEP:  59 TIME =     0.05 SECS, INTEGRAL =      2.72 TIME LEFT: 172797.24
 STEP:  60 TIME =     0.05 SECS, INTEGRAL =      2.77 TIME LEFT: 172797.20

(To convert to Hartree/Bohr^2, multiply by (10^(-21) x N x a0^2)/(4.184 x 627.51) =  0.0642)


           FORCE MATRIX IN MILLIDYNES/ANGSTROM


                  C  1       C  2       C  3       C  4       C  5       C  6
 ------------------------------------------------------------------------------
     C    1  14.676548
     C    2   2.553271  14.512864
     C    3   3.854991   2.244640  19.716901
     C    4   2.190509   3.684067   9.840410  18.024708
     C    5   5.103916   0.434738   0.741668   0.053680  17.831814
     C    6   0.478330   5.162855   0.042405   0.567285   0.031694  18.315046
     C    7   0.543887   0.125716   6.165688   0.673363   0.174873   0.021902
     C    8   0.952141   0.048474   0.184991   0.047959   9.975764   0.011127
     C    9   0.145166   0.023644   1.326713   0.127421   1.065147   0.008320
     C   10   0.047201   0.833588   0.010812   0.042877   0.004230  11.071787
     H   11   0.431027   4.389529   0.052896   0.413938   0.011598   0.401321
     H   12   4.352912   0.432980   0.417889   0.044767   0.401484   0.022975
     H   13   0.117404   0.334635   0.428813   5.290876   0.023536   0.013264
     H   14   0.032838   0.436223   0.002414   0.022232   0.005373   4.794191
     H   15   0.428544   0.010191   0.045678   0.006633   4.884286   0.002173
     H   16   0.120149   0.013230   0.004297   0.001710   0.441480   0.001545
     H   17   0.004929   0.007644   0.122620   0.012809   0.046772   0.001116
     H   18   0.031025   0.008362   0.445859   0.019052   0.013632   0.002111
     H   19   0.014550   0.097126   0.002695   0.006333   0.003378   0.492018
     H   20   0.006148   0.134113   0.001972   0.012556   0.001178   0.463309


                  C  7       C  8       C  9       C 10       H 11       H 12
 ------------------------------------------------------------------------------
     C    7  18.181126
     C    8   1.089206  18.006815
     C    9   9.718836   5.322169  17.953317
     C   10   0.002965   0.001819   0.001825  18.022705
     H   11   0.019410   0.008511   0.007272   0.024297   4.881130
     H   12   0.012926   0.034797   0.017685   0.013415   0.021296   4.862364
     H   13   0.042479   0.013819   0.016054   0.003024   0.005906   0.013984
     H   14   0.001455   0.001569   0.000975   0.456222   0.013817   0.002382
     H   15   0.017443   0.444694   0.121033   0.001858   0.003651   0.013898
     H   16   0.047502   4.843288   0.432021   0.000466   0.000752   0.014550
     H   17   0.438381   0.431615   4.865904   0.000508   0.001471   0.000841
     H   18   4.913065   0.119364   0.447742   0.000630   0.001069   0.004192
     H   19   0.001083   0.000883   0.000633   5.071357   0.011765   0.022110
     H   20   0.001134   0.000750   0.000629   5.110594   0.015518   0.001278


                  H 13       H 14       H 15       H 16       H 17       H 18
 ------------------------------------------------------------------------------
     H   13   5.674593
     H   14   0.004808   5.152958
     H   15   0.004251   0.000552   5.262140
     H   16   0.000941   0.000386   0.063928   5.203984
     H   17   0.002335   0.000237   0.007261   0.033271   5.228170
     H   18   0.005021   0.000403   0.010045   0.007219   0.059211   5.292549
     H   19   0.000920   0.116869   0.001610   0.000404   0.000220   0.000195
     H   20   0.000610   0.079090   0.000698   0.000131   0.000195   0.000214


                  H 19       H 20
 ------------------------------
     H   19   5.463061
     H   20   0.418743   5.497347


          HEAT OF FORMATION =      94.926874 KCALS/MOLE

          ZERO POINT ENERGY     104.076 KCAL/MOL


           NORMAL COORDINATE ANALYSIS (Total motion = 1 Angstrom)


   Root No.       1         2         3         4         5         6         7         8

                 1 A       2 A       3 A       4 A       5 A       6 A       7 A       8 A   

                  95.4     146.9     165.5     222.1     288.3     418.2     428.1     452.4
  
           1    0.0104   -0.0310    0.0016    0.0069    0.0150   -0.0083    0.0141   -0.0207
           2   -0.0174   -0.0170   -0.0029   -0.0029   -0.0274   -0.0233   -0.0133   -0.0127
           3   -0.0291    0.0137   -0.0160   -0.0412   -0.0161    0.0233   -0.0020    0.0113
           4    0.0101   -0.0279    0.0016    0.0107    0.0209   -0.0088    0.0325   -0.0059
           5   -0.0127   -0.0240   -0.0154    0.0022    0.0062   -0.0034    0.0094   -0.0117
           6   -0.0241    0.0002    0.0058    0.0125   -0.0252    0.0127    0.0419    0.0121
           7    0.0048   -0.0212    0.0126    0.0043   -0.0060   -0.0264   -0.0080    0.0070
           8   -0.0169   -0.0167   -0.0035   -0.0036   -0.0275   -0.0204   -0.0158   -0.0143
           9   -0.0001    0.0200   -0.0238   -0.0196    0.0242    0.0323   -0.0229   -0.0212
          10    0.0054   -0.0200    0.0130   -0.0017   -0.0056   -0.0232   -0.0078    0.0022
          11   -0.0132   -0.0246   -0.0116   -0.0017   -0.0012   -0.0078    0.0106   -0.0235
          12   -0.0137   -0.0025   -0.0386    0.0613    0.0078   -0.0188   -0.0290    0.0219
          13    0.0117   -0.0253    0.0036   -0.0166   -0.0262    0.0403   -0.0195   -0.0230
          14    0.0082    0.0066    0.0103    0.0042   -0.0171    0.0131    0.0123   -0.0104
          15   -0.0406   -0.0016   -0.0241   -0.0285    0.0083   -0.0246    0.0029    0.0084
          16    0.0092    0.0141   -0.0337    0.0131   -0.0073    0.0143    0.0445    0.0315
          17    0.0016    0.0058    0.0250   -0.0087    0.0317    0.0098   -0.0112    0.0301
          18   -0.0143   -0.0078    0.0539    0.0055    0.0068    0.0047    0.0340    0.0089
          19   -0.0066   -0.0008    0.0026    0.0206    0.0130    0.0225   -0.0217    0.0205
          20   -0.0141    0.0046   -0.0004    0.0074   -0.0108    0.0141   -0.0129    0.0000
          21    0.0359    0.0084    0.0082   -0.0374    0.0172   -0.0257    0.0069   -0.0175
          22   -0.0006    0.0107   -0.0112   -0.0529   -0.0136   -0.0091   -0.0127    0.0183
          23    0.0156    0.0277    0.0121   -0.0019   -0.0005   -0.0022    0.0179    0.0133
          24   -0.0100   -0.0273    0.0011    0.0173    0.0122    0.0307   -0.0070   -0.0229
          25   -0.0123    0.0193   -0.0179   -0.0163    0.0320   -0.0026   -0.0143   -0.0161
          26    0.0003    0.0291    0.0030    0.0072    0.0147    0.0070    0.0216   -0.0066
          27    0.0322   -0.0283    0.0274    0.0005   -0.0187    0.0067   -0.0224    0.0260
          28   -0.0293    0.0702    0.0284    0.0284   -0.0172   -0.0078   -0.0028   -0.0084
          29    0.0424    0.0044   -0.0156   -0.0066    0.0255    0.0092   -0.0133    0.0303
          30    0.0570    0.0288    0.0003    0.0206   -0.0172   -0.0136   -0.0006   -0.0268
          31    0.0175   -0.0455    0.0194    0.0393    0.0395   -0.0200    0.0547   -0.0227
          32   -0.0121   -0.0324   -0.0556    0.0391    0.0182   -0.0170   -0.0023   -0.0207
          33   -0.0205   -0.0049    0.0287    0.0126   -0.0190    0.0116    0.0552    0.0077
          34    0.0065   -0.0294   -0.0122   -0.0027    0.0443   -0.0227    0.0122   -0.0246
          35   -0.0365   -0.0282   -0.0006   -0.0062   -0.0563   -0.0611   -0.0150    0.0158
          36   -0.0398    0.0077   -0.0214   -0.0457   -0.0153   -0.0032   -0.0039    0.0222
          37    0.0035   -0.0148    0.0195   -0.0095   -0.0215   -0.0308   -0.0290    0.0056
          38   -0.0114   -0.0282   -0.0160   -0.0019    0.0143    0.0077    0.0380   -0.0322
          39   -0.0114   -0.0191   -0.0606    0.1435    0.0160   -0.0943   -0.0791    0.0726
          40    0.0455    0.0116   -0.1142    0.0206   -0.0499    0.0267    0.0881    0.0313
          41   -0.0167    0.0383    0.0893   -0.0080    0.0573   -0.0024   -0.0656    0.0306
          42   -0.0643   -0.0437    0.1353   -0.0089    0.0599   -0.0072    0.0129    0.0054
          43    0.0217   -0.0461    0.0142   -0.0223   -0.0779    0.1091   -0.0622   -0.0332
          44    0.0205    0.0028    0.0197    0.0086   -0.0308    0.0472    0.0035   -0.0112
          45   -0.0728    0.0015   -0.0473   -0.0434    0.0288   -0.0996    0.0122    0.0076
          46   -0.0019    0.0286   -0.0157   -0.0991   -0.0473   -0.0227   -0.0208    0.0753
          47    0.0345    0.0413    0.0229   -0.0101   -0.0043   -0.0089    0.0062    0.0514
          48   -0.0162   -0.0462    0.0004    0.0554    0.0389    0.0435    0.0031   -0.0808
          49   -0.0239    0.0419   -0.0352   -0.0124    0.0718    0.0194   -0.0031   -0.0615
          50    0.0012    0.0464   -0.0013    0.0202    0.0466    0.0191    0.0330   -0.0301
          51    0.0594   -0.0534    0.0599    0.0100   -0.0614   -0.0240   -0.0306    0.0940
          52   -0.0113    0.0045    0.0074    0.0572    0.0272    0.0932   -0.0296    0.0412
          53   -0.0241    0.0002   -0.0046    0.0221   -0.0111    0.0454   -0.0297    0.0025
          54    0.0655    0.0229    0.0218   -0.0740    0.0210   -0.1071    0.0567   -0.0212
          55   -0.0631    0.0754    0.1054    0.0235    0.0223   -0.0262   -0.0549   -0.0220
          56    0.0564   -0.0311   -0.0761   -0.0141    0.0089    0.0420    0.0618    0.0828
          57    0.1106    0.0707   -0.0791    0.0431   -0.0804   -0.0231    0.0010   -0.0771
          58   -0.0276    0.1151    0.0054    0.0481   -0.0676   -0.0169   -0.0061   -0.0536
          59    0.0634    0.0405    0.0099    0.0036    0.0346   -0.0258   -0.0933   -0.0227
          60    0.0685    0.0213    0.0303    0.0141    0.0202   -0.0292   -0.0464   -0.0311


   Root No.       9        10        11        12        13        14        15        16

                 9 A      10 A      11 A      12 A      13 A      14 A      15 A      16 A   

                 524.9     558.3     598.8     664.9     723.3     756.1     830.1     837.0
  
           1    0.0187    0.0113   -0.0057   -0.0199    0.0255    0.0030   -0.0039   -0.0087
           2   -0.0238    0.0078    0.0047    0.0155    0.0097   -0.0101   -0.0029    0.0107
           3    0.0014    0.0312   -0.0028   -0.0176   -0.0275    0.0089    0.0056    0.0181
           4    0.0209    0.0237    0.0051    0.0029    0.0133   -0.0143    0.0192    0.0183
           5    0.0158   -0.0145    0.0247    0.0019   -0.0281    0.0008   -0.0015   -0.0008
           6   -0.0143   -0.0191    0.0051    0.0166   -0.0228    0.0091   -0.0161   -0.0165
           7   -0.0228    0.0063    0.0126   -0.0102   -0.0159    0.0002   -0.0071   -0.0178
           8   -0.0168   -0.0018   -0.0031    0.0215    0.0305   -0.0074    0.0064   -0.0127
           9   -0.0129    0.0242    0.0554    0.0175    0.0438    0.0020    0.0074   -0.0049
          10   -0.0259    0.0137    0.0173   -0.0096   -0.0040   -0.0031   -0.0079   -0.0202
          11    0.0180   -0.0135    0.0264    0.0062   -0.0339   -0.0001   -0.0097    0.0036
          12   -0.0055    0.0118   -0.0051   -0.0071    0.0005    0.0121    0.0014   -0.0402
          13   -0.0051    0.0015   -0.0320   -0.0124    0.0041    0.0210   -0.0212    0.0071
          14   -0.0131    0.0546    0.0113   -0.0231    0.0011    0.0141   -0.0055    0.0313
          15    0.0192    0.0201   -0.0053   -0.0207    0.0038   -0.0083    0.0127    0.0015
          16   -0.0142    0.0212   -0.0190    0.0455    0.0038   -0.0049    0.0022    0.0046
          17   -0.0198   -0.0140    0.0024   -0.0239    0.0072    0.0018   -0.0003   -0.0035
          18   -0.0102   -0.0124    0.0057   -0.0062    0.0212   -0.0085    0.0067    0.0081
          19    0.0075   -0.0141    0.0315    0.0007   -0.0241    0.0155    0.0116    0.0086
          20    0.0204   -0.0337   -0.0279    0.0320    0.0317   -0.0021    0.0311    0.0088
          21   -0.0213   -0.0227   -0.0115    0.0083   -0.0107   -0.0213   -0.0176    0.0133
          22    0.0327   -0.0202   -0.0222   -0.0047    0.0149    0.0141   -0.0250   -0.0071
          23    0.0195    0.0098   -0.0050   -0.0124    0.0033    0.0083   -0.0159   -0.0073
          24    0.0067   -0.0157   -0.0447   -0.0145   -0.0034   -0.0060    0.0037   -0.0338
          25   -0.0196   -0.0395    0.0031    0.0219   -0.0165    0.0054    0.0276    0.0269
          26    0.0112    0.0019   -0.0280   -0.0144   -0.0029    0.0078    0.0024   -0.0187
          27    0.0171   -0.0239    0.0169    0.0158   -0.0011   -0.0145   -0.0160    0.0117
          28    0.0001   -0.0034    0.0015    0.0031    0.0023   -0.0020    0.0001    0.0011
          29   -0.0162    0.0005   -0.0059   -0.0070   -0.0003    0.0043   -0.0023   -0.0068
          30    0.0153    0.0065    0.0021    0.0099    0.0021   -0.0042    0.0038    0.0066
          31    0.0440   -0.0085    0.0218   -0.0142    0.0475   -0.0233    0.0371   -0.0153
          32    0.0539   -0.0054    0.0321    0.0165   -0.0548    0.0133    0.0146   -0.0516
          33   -0.0165   -0.0354    0.0105    0.0036    0.0027   -0.0001   -0.0126   -0.0125
          34    0.0610    0.0381    0.0075   -0.0419    0.0495   -0.0151    0.0450    0.0097
          35   -0.0397   -0.0128   -0.0378    0.0174   -0.0344   -0.0401   -0.0178    0.0149
          36    0.0132    0.0327   -0.0170   -0.0275   -0.0364   -0.0136    0.0201    0.0279
          37   -0.0592    0.0203    0.0123   -0.0086    0.0349    0.0005   -0.0139   -0.0905
          38    0.0530   -0.0195    0.0443    0.0137   -0.0729    0.0043   -0.0025    0.0462
          39   -0.0133    0.0079   -0.1239   -0.0856   -0.0078   -0.0712   -0.0064    0.2432
          40   -0.0294   -0.0296    0.0046    0.0176    0.0077   -0.0051   -0.0109   -0.0014
          41   -0.0162    0.0204   -0.0217   -0.0105    0.0090    0.0080    0.0015   -0.0108
          42    0.0182    0.0470   -0.0098    0.0329    0.0099   -0.0161    0.0316    0.0297
          43   -0.0410    0.0429   -0.0420   -0.0330   -0.0782   -0.0935    0.1418   -0.0014
          44   -0.0167    0.0666    0.0010   -0.0375   -0.0349   -0.0315    0.0585    0.0089
          45    0.0163   -0.0014    0.0206    0.0145    0.0774    0.0826   -0.1148    0.0654
          46    0.0810    0.0191    0.0039   -0.0340   -0.0022   -0.1207    0.0405   -0.0953
          47    0.0415   -0.0230    0.0250    0.0145   -0.0192   -0.0675    0.0224   -0.0466
          48   -0.0388   -0.0327   -0.0759   -0.0029    0.0180    0.1257   -0.0612    0.0484
          49   -0.0538   -0.0316   -0.0090    0.0087   -0.0451   -0.1073   -0.0626    0.0055
          50   -0.0208    0.0171   -0.0080   -0.0278   -0.0456   -0.0573   -0.0534   -0.0189
          51    0.0481   -0.0199    0.0722    0.0246   -0.0015    0.1430    0.1038    0.0611
          52    0.0557   -0.0137    0.0518   -0.0187   -0.0441   -0.0582   -0.1243    0.0433
          53    0.0321   -0.0285   -0.0058    0.0407    0.0552   -0.0506   -0.0303    0.0261
          54   -0.0477   -0.0371   -0.0737   -0.0217   -0.0845    0.1111    0.1429   -0.0330
          55    0.0310    0.0666   -0.0290    0.0726   -0.0408    0.0099   -0.0179   -0.0123
          56   -0.0675   -0.0473    0.0000   -0.0321    0.0544   -0.0125    0.0141    0.0096
          57    0.0248   -0.0768    0.0613   -0.1069    0.0135   -0.0049    0.0185    0.0108
          58    0.0002   -0.1082    0.0719   -0.1540    0.0314   -0.0035    0.0183    0.0051
          59    0.0391    0.0680   -0.0248    0.0497   -0.0754    0.0261   -0.0288   -0.0334
          60    0.0495    0.1143   -0.0537    0.1449   -0.0619    0.0094   -0.0233   -0.0112


   Root No.      17        18        19        20        21        22        23        24

                17 A      18 A      19 A      20 A      21 A      22 A      23 A      24 A   

                 902.8     921.5     935.0     957.2     967.1     983.0    1001.7    1018.2
  
           1    0.0079    0.0086   -0.0214   -0.0222    0.0042    0.0287   -0.0075   -0.0066
           2   -0.0127   -0.0126   -0.0092    0.0296    0.0161    0.0022    0.0028   -0.0079
           3   -0.0048    0.0106    0.0152   -0.0105   -0.0131   -0.0200   -0.0021    0.0161
           4   -0.0173    0.0068    0.0192    0.0281    0.0038   -0.0183   -0.0064    0.0104
           5    0.0092    0.0042    0.0186   -0.0011   -0.0084   -0.0140    0.0141    0.0010
           6    0.0163    0.0186    0.0153   -0.0105    0.0074    0.0184    0.0068   -0.0085
           7    0.0057   -0.0037    0.0056   -0.0059   -0.0081   -0.0024   -0.0055    0.0064
           8    0.0097    0.0026    0.0066   -0.0104   -0.0064   -0.0008   -0.0041    0.0020
           9    0.0271   -0.0217    0.0132    0.0174    0.0073   -0.0056   -0.0012   -0.0101
          10    0.0165   -0.0058    0.0165   -0.0033   -0.0108   -0.0053   -0.0045    0.0073
          11    0.0171   -0.0265   -0.0106   -0.0164   -0.0052    0.0102   -0.0175    0.0051
          12   -0.0333    0.0075   -0.0173    0.0004   -0.0026    0.0064   -0.0183    0.0100
          13   -0.0052   -0.0021   -0.0039   -0.0020    0.0197   -0.0079    0.0157    0.0126
          14   -0.0136    0.0210   -0.0194   -0.0210    0.0141    0.0051    0.0116    0.0021
          15   -0.0031    0.0072   -0.0140   -0.0013   -0.0073    0.0162   -0.0028   -0.0192
          16   -0.0083   -0.0109    0.0188   -0.0061    0.0067    0.0069   -0.0074    0.0118
          17    0.0056    0.0121   -0.0061    0.0085    0.0010   -0.0012   -0.0020   -0.0045
          18    0.0074    0.0025   -0.0131    0.0120   -0.0020   -0.0070   -0.0052   -0.0023
          19    0.0011   -0.0076   -0.0087   -0.0004    0.0169   -0.0143   -0.0022   -0.0142
          20   -0.0055    0.0228    0.0028   -0.0176    0.0018   -0.0092   -0.0075    0.0019
          21   -0.0119    0.0108   -0.0025    0.0031   -0.0160    0.0259    0.0119    0.0142
          22    0.0007   -0.0107    0.0080    0.0135   -0.0188   -0.0064   -0.0161   -0.0174
          23    0.0046   -0.0072    0.0065    0.0042   -0.0111   -0.0036   -0.0111   -0.0059
          24    0.0153   -0.0199    0.0015    0.0057    0.0182    0.0026    0.0142    0.0152
          25   -0.0059    0.0127   -0.0098   -0.0083   -0.0032    0.0220    0.0106    0.0142
          26    0.0077   -0.0156    0.0062    0.0194   -0.0033    0.0093    0.0091    0.0040
          27   -0.0125    0.0120   -0.0051   -0.0147    0.0086   -0.0251   -0.0150   -0.0166
          28   -0.0020   -0.0168   -0.0107   -0.0090   -0.0068    0.0005    0.0112   -0.0226
          29   -0.0001    0.0103    0.0010    0.0042    0.0017   -0.0018   -0.0031    0.0137
          30   -0.0009   -0.0188   -0.0210   -0.0044   -0.0160   -0.0207    0.0052    0.0216
          31   -0.0287    0.0758    0.0083    0.0599   -0.0117   -0.0293    0.1054   -0.0932
          32   -0.0580    0.0252    0.0333   -0.0143   -0.0806   -0.1079    0.1758   -0.0134
          33    0.0340    0.0419    0.0052    0.0097    0.0259    0.0460   -0.0003   -0.0505
          34    0.0210    0.0455   -0.0314   -0.0643   -0.0414    0.0147   -0.0428   -0.0062
          35   -0.0831   -0.0508   -0.0183    0.1452    0.0174    0.0046    0.0016   -0.0155
          36   -0.0325    0.0092    0.0042    0.0257   -0.0331   -0.0234   -0.0188    0.0112
          37    0.0357    0.0344    0.0542   -0.0367   -0.0573   -0.0179    0.0657   -0.0055
          38   -0.0219   -0.0634   -0.0567    0.0195    0.0402    0.0252   -0.0962    0.0226
          39    0.1636   -0.0420    0.0698   -0.0164    0.0119   -0.0227    0.0341   -0.0212
          40    0.0885    0.0790   -0.0786    0.0759   -0.0043   -0.0303   -0.0151   -0.0051
          41   -0.0655   -0.0748    0.0171   -0.0798   -0.0064    0.0360    0.0217   -0.0160
          42   -0.0989   -0.0667    0.1590   -0.0392    0.0309    0.0204   -0.0201    0.0476
          43   -0.0234    0.0048   -0.0279    0.0617   -0.0570    0.0476   -0.0155   -0.0842
          44   -0.0028    0.0206   -0.0135   -0.0129   -0.0358    0.0254   -0.0207   -0.0205
          45   -0.0428    0.0114   -0.0410   -0.0011    0.1110   -0.0230    0.0799    0.0114
          46    0.0353   -0.0233   -0.0369   -0.0194    0.1084    0.0282    0.0784    0.0448
          47    0.0251   -0.0174    0.0113   -0.0120    0.0296   -0.0134   -0.0036    0.0482
          48   -0.0191   -0.0071    0.0331    0.0377   -0.0933   -0.0197   -0.0598   -0.0536
          49   -0.0381    0.0350   -0.0184   -0.0517    0.0355   -0.0791   -0.0387   -0.0437
          50   -0.0154   -0.0083   -0.0100    0.0004    0.0289   -0.0472   -0.0091   -0.0411
          51    0.0243   -0.0263   -0.0118    0.0538   -0.0299    0.1190    0.0692    0.0464
          52   -0.0431   -0.0146   -0.0297    0.0667   -0.0276    0.0843    0.0628   -0.0021
          53   -0.0142    0.0352    0.0094   -0.0108   -0.0388    0.0383    0.0049    0.0304
          54    0.0061   -0.0274   -0.0262   -0.0050    0.0979   -0.0986   -0.0128   -0.0698
          55    0.0583    0.0586   -0.0582    0.0502   -0.0138   -0.0460   -0.0149    0.0777
          56   -0.0508   -0.1127   -0.0327   -0.0711   -0.0337    0.0058    0.0483   -0.0731
          57   -0.0584    0.0043    0.1400   -0.0184    0.0560    0.0724   -0.0159   -0.0692
          58   -0.0239    0.0552    0.0572    0.0438    0.0252   -0.0141   -0.0407    0.0953
          59    0.0264    0.1161    0.1043    0.0444    0.0761    0.0783   -0.0308   -0.0552
          60    0.0291   -0.0010   -0.0010   -0.0134    0.0085    0.0363    0.0212   -0.0946


   Root No.      25        26        27        28        29        30        31        32

                25 A      26 A      27 A      28 A      29 A      30 A      31 A      32 A   

                1040.4    1056.0    1074.6    1098.6    1114.2    1129.0    1147.7    1154.2
  
           1    0.0010    0.0192    0.0354   -0.0129   -0.0116    0.0184   -0.0024    0.0261
           2    0.0118    0.0021   -0.0107   -0.0192    0.0161   -0.0263    0.0107   -0.0221
           3   -0.0180   -0.0181    0.0150    0.0253   -0.0001    0.0000   -0.0017    0.0054
           4   -0.0095   -0.0183   -0.0134    0.0101   -0.0022   -0.0081   -0.0221    0.0003
           5    0.0063   -0.0128   -0.0022   -0.0133    0.0016   -0.0193   -0.0259   -0.0140
           6    0.0108    0.0205    0.0100    0.0047    0.0040   -0.0066    0.0105   -0.0025
           7   -0.0045   -0.0061   -0.0122    0.0169   -0.0006    0.0073    0.0146    0.0013
           8   -0.0004   -0.0005    0.0057    0.0051    0.0036    0.0069    0.0112   -0.0115
           9    0.0010    0.0091    0.0125    0.0042   -0.0107    0.0038    0.0072    0.0059
          10   -0.0010   -0.0127   -0.0116    0.0219   -0.0053    0.0039    0.0169    0.0050
          11   -0.0002   -0.0017    0.0090    0.0109   -0.0117    0.0071   -0.0190    0.0194
          12   -0.0048   -0.0151   -0.0037    0.0049    0.0008   -0.0040   -0.0102   -0.0013
          13   -0.0062   -0.0091    0.0104    0.0032    0.0065    0.0000   -0.0000   -0.0040
          14   -0.0086    0.0135   -0.0206   -0.0119   -0.0112   -0.0048   -0.0048   -0.0009
          15    0.0136    0.0171   -0.0256   -0.0116   -0.0023    0.0062   -0.0098    0.0031
          16    0.0161    0.0144    0.0027   -0.0086    0.0011    0.0046    0.0117    0.0006
          17   -0.0078   -0.0124   -0.0031   -0.0091   -0.0016    0.0057    0.0030    0.0020
          18   -0.0088   -0.0210   -0.0048   -0.0244   -0.0035    0.0156    0.0169    0.0074
          19    0.0049    0.0094    0.0015   -0.0086   -0.0007   -0.0000   -0.0013   -0.0059
          20    0.0049   -0.0151    0.0058    0.0220   -0.0236    0.0085    0.0013    0.0122
          21    0.0013   -0.0098   -0.0047    0.0065   -0.0052    0.0015    0.0039   -0.0028
          22    0.0044    0.0119   -0.0164   -0.0100    0.0049   -0.0028   -0.0023   -0.0076
          23   -0.0106    0.0165   -0.0159   -0.0139    0.0090   -0.0085   -0.0009    0.0006
          24   -0.0170    0.0086   -0.0208   -0.0134    0.0087   -0.0122   -0.0002   -0.0095
          25   -0.0166    0.0107   -0.0104   -0.0146    0.0062   -0.0069   -0.0063   -0.0037
          26    0.0156   -0.0197    0.0125    0.0195    0.0006    0.0131    0.0053    0.0033
          27    0.0042    0.0063   -0.0001   -0.0029   -0.0017    0.0035   -0.0039   -0.0007
          28   -0.0161   -0.0197   -0.0044   -0.0016   -0.0004   -0.0030   -0.0093   -0.0030
          29    0.0102    0.0151    0.0013    0.0060    0.0007   -0.0020   -0.0031   -0.0019
          30    0.0131    0.0126    0.0011    0.0051    0.0005   -0.0063   -0.0099   -0.0033
          31   -0.0463    0.0942   -0.0110    0.1930    0.0310   -0.0443   -0.0055   -0.0325
          32    0.0005    0.0492   -0.0199   -0.0939   -0.0072    0.1034    0.1692    0.0418
          33   -0.0045    0.0491    0.0173    0.1182    0.0228   -0.0681   -0.0513   -0.0385
          34    0.0303   -0.0554    0.1607   -0.0560    0.0919   -0.1162    0.1353   -0.1344
          35   -0.1022    0.0927    0.1867   -0.0285   -0.0836    0.0470   -0.0283    0.0466
          36   -0.0595   -0.0068    0.1710    0.0012   -0.0006   -0.0266    0.0437   -0.0347
          37    0.0334   -0.0198    0.0704   -0.0564   -0.0324   -0.0326   -0.1387    0.0402
          38   -0.0374   -0.0006   -0.0782    0.0941    0.0161    0.0435    0.1389   -0.0176
          39    0.0084    0.0276    0.0105    0.0125   -0.0065    0.0113    0.0177    0.0121
          40   -0.0274   -0.0569   -0.0186   -0.0536   -0.0094    0.0267    0.0057    0.0066
          41    0.0151    0.0747    0.0322    0.0997    0.0181   -0.0260    0.0573    0.0131
          42    0.0508    0.0118   -0.0076   -0.0743   -0.0075    0.0118   -0.0402   -0.0192
          43    0.1227   -0.0231   -0.0346    0.0174    0.1000    0.0179   -0.0008    0.1334
          44   -0.0125    0.0435   -0.0346   -0.0300   -0.0357   -0.0045   -0.0095   -0.0267
          45    0.0679   -0.0708   -0.0048    0.0409    0.1034    0.0066    0.0031    0.1280
          46    0.0045   -0.0117   -0.0384    0.0078   -0.0659    0.0410   -0.0063   -0.0997
          47   -0.0822    0.0199    0.0469   -0.0478    0.1613   -0.1126    0.0115    0.1881
          48    0.0110    0.0263   -0.0310   -0.0154    0.0058   -0.0050   -0.0029   -0.0135
          49    0.0076    0.0203    0.0221   -0.0172    0.0462    0.0439   -0.0352   -0.0406
          50    0.0516   -0.0200    0.1016    0.0178    0.1326    0.1536   -0.0739   -0.1034
          51    0.0022   -0.0125    0.0533   -0.0039    0.0981    0.0914   -0.0557   -0.0769
          52    0.1011   -0.0676    0.0561   -0.0005   -0.1307   -0.1026    0.0490    0.0119
          53   -0.0114   -0.0183   -0.0094    0.0278   -0.0024    0.0240   -0.0013    0.0068
          54    0.0744   -0.0208    0.0573   -0.0030   -0.1010   -0.0621    0.0236    0.0179
          55    0.0446    0.0518    0.0047    0.0074   -0.0010   -0.0030   -0.0081   -0.0017
          56   -0.0455   -0.0410   -0.0077    0.0236    0.0021   -0.0191   -0.0317   -0.0099
          57   -0.0376   -0.0594   -0.0058   -0.0418   -0.0012    0.0205    0.0298    0.0066
          58    0.0580    0.0704    0.0083    0.0066   -0.0031    0.0107    0.0115    0.0096
          59   -0.0292   -0.0187    0.0001   -0.0152   -0.0044    0.0245    0.0323    0.0151
          60   -0.0577   -0.0668   -0.0082   -0.0155   -0.0011    0.0014   -0.0018   -0.0013


   Root No.      33        34        35        36        37        38        39        40

                33 A      34 A      35 A      36 A      37 A      38 A      39 A      40 A   

                1179.8    1195.5    1208.3    1308.5    1347.2    1382.2    1408.0    1470.1
  
           1   -0.0124    0.0035   -0.0261   -0.0053   -0.0113    0.0479   -0.0033    0.0606
           2    0.0017    0.0150    0.0004    0.0217   -0.0545    0.0223   -0.0144    0.0550
           3    0.0148    0.0125   -0.0079    0.0038   -0.0075    0.0509   -0.0115    0.0545
           4   -0.0318    0.0258    0.0024    0.0195    0.0061    0.0126   -0.0457   -0.0464
           5   -0.0435   -0.0034   -0.0115   -0.0348    0.0202   -0.0049    0.0620    0.0338
           6   -0.0378   -0.0017   -0.0132    0.0126   -0.0086   -0.0006   -0.0455   -0.0323
           7    0.0029   -0.0065   -0.0027   -0.0048    0.0080   -0.0009    0.0039   -0.0192
           8    0.0250    0.0141   -0.0198   -0.0144    0.0595    0.0628    0.0038   -0.0543
           9   -0.0077   -0.0037   -0.0032   -0.0010    0.0011   -0.0169   -0.0036   -0.0034
          10   -0.0138   -0.0090   -0.0074   -0.0053   -0.0097   -0.0606    0.0014    0.0359
          11    0.0432   -0.0001    0.0376    0.0246   -0.0122   -0.0152   -0.0234   -0.0198
          12    0.0061    0.0006    0.0030   -0.0023   -0.0001   -0.0024    0.0036    0.0064
          13    0.0059    0.0040   -0.0044   -0.0005   -0.0164   -0.0158    0.0216   -0.0335
          14    0.0002   -0.0056    0.0052   -0.0048    0.0113   -0.0345    0.0064   -0.0252
          15    0.0016    0.0095   -0.0125   -0.0032   -0.0167   -0.0299    0.0264   -0.0464
          16    0.0209    0.0072    0.0223   -0.0166    0.0052   -0.0071    0.0343    0.0196
          17    0.0056   -0.0013    0.0003   -0.0236   -0.0079    0.0016   -0.0098   -0.0013
          18    0.0145    0.0160    0.0222    0.0069    0.0101   -0.0048    0.0319    0.0164
          19   -0.0029   -0.0093    0.0118    0.0014   -0.0132    0.0518    0.0224   -0.0298
          20   -0.0117   -0.0020   -0.0044    0.0022   -0.0144   -0.0520   -0.0076    0.0200
          21   -0.0044   -0.0057    0.0037    0.0006   -0.0115    0.0170    0.0128   -0.0150
          22    0.0045    0.0052   -0.0009    0.0004    0.0015   -0.0182    0.0002   -0.0084
          23   -0.0032   -0.0096    0.0134   -0.0016    0.0364    0.0114   -0.0336    0.0475
          24    0.0045   -0.0013    0.0085   -0.0004    0.0204   -0.0141   -0.0154    0.0117
          25    0.0028    0.0004    0.0055    0.0003    0.0141    0.0028   -0.0120    0.0139
          26   -0.0093   -0.0104    0.0053    0.0032   -0.0339    0.0413    0.0310   -0.0355
          27   -0.0040   -0.0049    0.0068    0.0019   -0.0058    0.0191    0.0043   -0.0038
          28   -0.0024   -0.0126   -0.0151    0.0001   -0.0050    0.0021   -0.0149   -0.0075
          29    0.0030   -0.0130   -0.0130   -0.0063   -0.0117    0.0024   -0.0317   -0.0163
          30   -0.0051   -0.0052   -0.0061    0.0026    0.0036   -0.0001    0.0094    0.0051
          31    0.1653   -0.0356    0.0180   -0.0276   -0.0170   -0.0014    0.0440    0.0590
          32    0.0204    0.0079   -0.0062    0.0431   -0.0357   -0.0094   -0.0572   -0.0087
          33    0.0316   -0.0339   -0.0056   -0.0355    0.0001   -0.0069    0.0375    0.0297
          34   -0.0055   -0.0725    0.0633    0.0352   -0.0039   -0.0618   -0.0214   -0.0597
          35   -0.0706   -0.0591    0.0158   -0.0397    0.0418   -0.0660    0.0208   -0.0298
          36   -0.0164   -0.0606    0.0415   -0.0072    0.0412   -0.0461   -0.0024   -0.0409
          37    0.0428    0.0154    0.0934    0.0417   -0.0341   -0.0372   -0.0277   -0.0028
          38   -0.0149   -0.0253   -0.0650   -0.0244    0.0140   -0.0492    0.0065    0.0220
          39    0.0019   -0.0001   -0.0034    0.0059   -0.0032    0.0004   -0.0106   -0.0001
          40    0.0474   -0.0166    0.0022   -0.0132   -0.0015   -0.0039    0.0192    0.0143
          41   -0.1134    0.1600    0.1172   -0.0221    0.0276   -0.0054    0.0469    0.0146
          42    0.1145   -0.1413   -0.0843   -0.0064   -0.0212   -0.0039   -0.0044    0.0101
          43   -0.0389   -0.0718    0.0419   -0.0171    0.0884    0.0203   -0.0416    0.0377
          44    0.0055    0.0172   -0.0133   -0.0013   -0.0147   -0.0427    0.0200   -0.0401
          45   -0.0291   -0.0834    0.0587   -0.0193    0.0976   -0.0047   -0.0368    0.0196
          46   -0.0229   -0.0319    0.0541    0.0042    0.0434    0.0225   -0.0441    0.0535
          47    0.0545    0.0646   -0.0973   -0.0100   -0.0466   -0.0777    0.0550   -0.0781
          48    0.0034   -0.0019    0.0108   -0.0002    0.0244   -0.0151   -0.0186    0.0139
          49    0.0160    0.0296   -0.0137   -0.0012    0.0330   -0.0494   -0.0330    0.0353
          50    0.0304    0.0747   -0.0515   -0.0010    0.0149   -0.1152   -0.0255    0.0220
          51    0.0257    0.0536   -0.0304   -0.0006    0.0304   -0.0897   -0.0371    0.0391
          52    0.0970    0.0830   -0.0837   -0.0199    0.1006   -0.0558   -0.0463    0.0183
          53   -0.0236   -0.0131    0.0052    0.0039   -0.0283   -0.0391    0.0024    0.0113
          54    0.0513    0.0482   -0.0485   -0.0096    0.0507   -0.0565   -0.0305    0.0207
          55    0.0053   -0.0091   -0.0035   -0.0548   -0.0180    0.0021   -0.0288   -0.0117
          56   -0.0304   -0.0436   -0.0702    0.2278    0.0483   -0.0024    0.0429    0.0087
          57    0.0288    0.0291    0.0489   -0.1931   -0.0494    0.0056   -0.0620   -0.0206
          58    0.0061    0.0055    0.0011    0.1803    0.0552   -0.0102    0.0855    0.0319
          59    0.0106    0.0105    0.0050    0.2262    0.0644   -0.0136    0.0950    0.0332
          60   -0.0038   -0.0023   -0.0034    0.0091    0.0069   -0.0014    0.0184    0.0097


   Root No.      41        42        43        44        45        46        47        48

                41 A      42 A      43 A      44 A      45 A      46 A      47 A      48 A   

                1788.7    1822.1    1862.7    1916.3    2935.9    2946.4    3041.3    3052.8
  
           1   -0.0011   -0.0227   -0.0012    0.0011    0.0194    0.0088    0.0002    0.0002
           2   -0.0073   -0.0078    0.0039    0.0195    0.0219    0.0083   -0.0003   -0.0001
           3   -0.0008   -0.0233   -0.0032   -0.0013   -0.0436   -0.0173    0.0004    0.0003
           4    0.0016    0.0010    0.0134   -0.0127   -0.0072    0.0213   -0.0003   -0.0000
           5   -0.0030   -0.0051   -0.0246    0.0258    0.0069   -0.0162   -0.0002    0.0000
           6    0.0003   -0.0013    0.0274   -0.0074    0.0179   -0.0461   -0.0001    0.0000
           7   -0.0436   -0.0379    0.0289    0.2197    0.0011   -0.0006    0.0000   -0.0002
           8    0.0078    0.0080   -0.0070   -0.0615    0.0002    0.0009    0.0000   -0.0001
           9   -0.0008   -0.0025    0.0064    0.0399   -0.0000   -0.0005    0.0000   -0.0001
          10    0.0475    0.0336   -0.0179   -0.1436   -0.0008    0.0005   -0.0002    0.0001
          11   -0.0029    0.0021    0.0005   -0.0023   -0.0001   -0.0007    0.0002   -0.0000
          12    0.0038    0.0026   -0.0003   -0.0134   -0.0003   -0.0004   -0.0002    0.0000
          13   -0.0249    0.1340    0.0047    0.0162   -0.0004    0.0001   -0.0000   -0.0005
          14    0.0271   -0.0965   -0.0041   -0.0163   -0.0003   -0.0001    0.0001    0.0133
          15   -0.0154    0.1011    0.0040    0.0107   -0.0007   -0.0003    0.0000    0.0057
          16   -0.0013   -0.0008    0.0260   -0.0008    0.0001    0.0001   -0.0551    0.0001
          17   -0.0047   -0.0048    0.1864   -0.0274   -0.0003    0.0003   -0.0389    0.0001
          18    0.0025    0.0028   -0.1033    0.0161    0.0001   -0.0003   -0.0242    0.0000
          19   -0.1276   -0.0248   -0.0160   -0.0826   -0.0001    0.0001   -0.0000   -0.0008
          20   -0.0686   -0.0154    0.0021    0.0262    0.0000   -0.0001    0.0000    0.0031
          21   -0.1150   -0.0246   -0.0098   -0.0437   -0.0001   -0.0001    0.0000    0.0006
          22    0.0226   -0.1209   -0.0048   -0.0167    0.0003    0.0001   -0.0001   -0.0251
          23   -0.0637    0.1385    0.0044    0.0172   -0.0004   -0.0001   -0.0000   -0.0112
          24   -0.0037   -0.0638   -0.0030   -0.0096   -0.0001   -0.0000   -0.0001   -0.0322
          25    0.1138    0.0366    0.0064    0.0194   -0.0000    0.0000    0.0000    0.0145
          26    0.1240   -0.0033    0.0043    0.0115    0.0001    0.0001   -0.0000   -0.0084
          27    0.1317    0.0260    0.0064    0.0189    0.0001    0.0001    0.0000    0.0069
          28    0.0015    0.0014   -0.0466    0.0057    0.0003    0.0002    0.0044    0.0000
          29    0.0053    0.0048   -0.1624    0.0200    0.0002   -0.0002    0.0019    0.0000
          30   -0.0023   -0.0021    0.0682   -0.0081    0.0000    0.0000    0.0028   -0.0000
          31    0.0018    0.0038    0.0022   -0.0140    0.0987   -0.2607   -0.0014    0.0000
          32    0.0018    0.0028    0.0102   -0.0118   -0.0788    0.2014   -0.0008    0.0001
          33   -0.0029   -0.0042    0.0072    0.0133   -0.2210    0.5624    0.0009    0.0001
          34   -0.0002   -0.0032    0.0085    0.0155   -0.2485   -0.1022    0.0014    0.0005
          35    0.0078   -0.0052   -0.0029   -0.0077   -0.2617   -0.1036    0.0012    0.0007
          36    0.0059   -0.0063   -0.0023   -0.0135    0.5352    0.2114   -0.0026   -0.0003
          37    0.0226    0.0212   -0.0115   -0.0942   -0.0036   -0.0015   -0.0002    0.0001
          38    0.0388    0.0286   -0.0134   -0.1193   -0.0036   -0.0014    0.0005    0.0001
          39    0.0063   -0.0039    0.0010    0.0018   -0.0004   -0.0010   -0.0003    0.0000
          40   -0.0027   -0.0020    0.0937   -0.0124    0.0020    0.0015    0.6433   -0.0013
          41   -0.0002   -0.0004    0.0084   -0.0002    0.0018   -0.0008    0.4069   -0.0008
          42   -0.0026   -0.0023    0.0793   -0.0089    0.0016   -0.0007    0.3151   -0.0006
          43   -0.0092   -0.0177   -0.0017   -0.0077   -0.0004    0.0003    0.0002    0.0192
          44    0.0276   -0.0877   -0.0035   -0.0161    0.0060    0.0024   -0.0016   -0.1700
          45    0.0068   -0.0677   -0.0040   -0.0155    0.0005    0.0002   -0.0006   -0.0605
          46    0.0128   -0.0335   -0.0006   -0.0022    0.0027    0.0009    0.0011    0.2823
          47   -0.0330   -0.0817   -0.0053   -0.0187    0.0011    0.0004    0.0005    0.1437
          48    0.0006   -0.0814   -0.0039   -0.0122    0.0022    0.0007    0.0014    0.3721
          49    0.0676    0.0197    0.0049    0.0177   -0.0000   -0.0002   -0.0003   -0.1643
          50   -0.0933   -0.0710   -0.0043   -0.0049    0.0001    0.0001    0.0002    0.1038
          51    0.0057   -0.0148    0.0010    0.0065    0.0000   -0.0001   -0.0002   -0.0751
          52    0.0430    0.0197    0.0056    0.0244    0.0003    0.0001    0.0001    0.0036
          53   -0.1167   -0.0304   -0.0007    0.0193   -0.0013   -0.0009   -0.0005   -0.0373
          54   -0.0227    0.0043    0.0006    0.0038   -0.0005   -0.0003   -0.0002   -0.0116
          55    0.0034    0.0030   -0.1100    0.0146   -0.0017   -0.0023    0.0052   -0.0002
          56   -0.0001    0.0004   -0.0132    0.0021   -0.0019   -0.0010    0.0052   -0.0001
          57    0.0034    0.0028   -0.0905    0.0104   -0.0010   -0.0005    0.0013   -0.0001
          58   -0.0034   -0.0026    0.0938   -0.0113   -0.0003    0.0014   -0.0418    0.0001
          59   -0.0000    0.0004   -0.0186    0.0042    0.0004   -0.0011    0.0316   -0.0001
          60   -0.0033   -0.0032    0.0979   -0.0111    0.0000    0.0008   -0.0600    0.0002


   Root No.      49        50        51        52        53        54

                49 A      50 A      51 A      52 A      53 A      54 A   

                3064.1    3080.4    3090.9    3134.9    3147.4    3207.4
  
           1    0.0001    0.0001   -0.0002    0.0002   -0.0000    0.0018
           2    0.0001   -0.0004    0.0004    0.0001   -0.0001    0.0021
           3   -0.0001    0.0007   -0.0003   -0.0002    0.0001   -0.0001
           4    0.0000   -0.0000    0.0000    0.0000   -0.0001   -0.0008
           5    0.0000   -0.0000   -0.0000   -0.0005   -0.0003    0.0010
           6   -0.0000   -0.0001   -0.0000    0.0002    0.0004   -0.0001
           7    0.0002    0.0001   -0.0014   -0.0000   -0.0000    0.0085
           8    0.0000    0.0004    0.0004    0.0000    0.0000   -0.0016
           9    0.0001    0.0002   -0.0006    0.0000   -0.0000    0.0009
          10   -0.0001   -0.0000    0.0002   -0.0000   -0.0000   -0.0625
          11   -0.0000   -0.0000   -0.0001   -0.0000    0.0001   -0.0535
          12   -0.0000   -0.0000   -0.0000    0.0000   -0.0000   -0.0061
          13   -0.0012    0.0080   -0.0013   -0.0000    0.0000   -0.0000
          14    0.0111   -0.0441    0.0070    0.0001   -0.0000   -0.0000
          15    0.0040   -0.0123    0.0018    0.0000   -0.0000   -0.0000
          16    0.0000   -0.0001   -0.0000    0.0003   -0.0059   -0.0000
          17    0.0000   -0.0000   -0.0000    0.0038   -0.0084   -0.0000
          18    0.0000   -0.0000   -0.0000   -0.0023    0.0003    0.0000
          19    0.0023    0.0005    0.0008    0.0000   -0.0000   -0.0003
          20   -0.0134   -0.0100   -0.0461   -0.0000   -0.0000    0.0003
          21   -0.0034   -0.0034   -0.0168   -0.0000   -0.0000   -0.0001
          22   -0.0074   -0.0138    0.0044    0.0000    0.0000   -0.0000
          23   -0.0041   -0.0027    0.0019   -0.0000    0.0000    0.0001
          24   -0.0098   -0.0161    0.0056    0.0000    0.0000    0.0000
          25   -0.0307   -0.0029    0.0173   -0.0000    0.0000   -0.0002
          26    0.0188    0.0028   -0.0075    0.0000   -0.0000   -0.0001
          27   -0.0143   -0.0010    0.0093   -0.0000    0.0000   -0.0001
          28    0.0000   -0.0001    0.0000   -0.0561   -0.0198    0.0000
          29    0.0000   -0.0000   -0.0000   -0.0327    0.0373    0.0000
          30   -0.0000   -0.0000    0.0000   -0.0291   -0.0437    0.0000
          31   -0.0001   -0.0001    0.0000   -0.0004    0.0006   -0.0010
          32    0.0001   -0.0001    0.0000    0.0002   -0.0008    0.0002
          33    0.0003    0.0000    0.0001    0.0010   -0.0012    0.0006
          34   -0.0003    0.0020   -0.0008   -0.0009    0.0005   -0.0015
          35   -0.0001    0.0010   -0.0006   -0.0022    0.0003   -0.0019
          36    0.0010   -0.0048    0.0018    0.0031   -0.0009    0.0037
          37   -0.0001    0.0003    0.0002    0.0002   -0.0001    0.6423
          38   -0.0002    0.0002    0.0001    0.0003   -0.0001    0.6205
          39    0.0001   -0.0000    0.0001    0.0001   -0.0001    0.0642
          40   -0.0002    0.0005    0.0002    0.0085    0.0497   -0.0000
          41   -0.0001    0.0003    0.0001    0.0088    0.0339   -0.0005
          42   -0.0001    0.0002    0.0001    0.0019    0.0227    0.0001
          43    0.0165   -0.0611    0.0093    0.0003   -0.0000   -0.0000
          44   -0.1370    0.4876   -0.0729   -0.0013   -0.0001   -0.0006
          45   -0.0476    0.1671   -0.0250   -0.0003    0.0000   -0.0002
          46    0.0855    0.1277   -0.0434   -0.0000   -0.0002   -0.0002
          47    0.0475    0.0623   -0.0231    0.0000   -0.0001   -0.0001
          48    0.1148    0.1669   -0.0578   -0.0000   -0.0002   -0.0003
          49    0.3496    0.0357   -0.1670    0.0001   -0.0003    0.0000
          50   -0.2281   -0.0249    0.1060   -0.0001    0.0002    0.0001
          51    0.1564    0.0151   -0.0761    0.0000   -0.0001   -0.0001
          52   -0.0133   -0.0081   -0.0347   -0.0000    0.0000   -0.0000
          53    0.1681    0.1175    0.5160   -0.0000    0.0003    0.0005
          54    0.0538    0.0383    0.1692    0.0000    0.0001   -0.0002
          55   -0.0003    0.0006   -0.0000    0.6085   -0.1030   -0.0003
          56   -0.0002    0.0005   -0.0001    0.4074   -0.0548   -0.0003
          57   -0.0001    0.0003   -0.0000    0.2796   -0.0570   -0.0002
          58    0.0001    0.0000   -0.0002    0.0473    0.3603    0.0001
          59   -0.0001   -0.0001    0.0002   -0.0659   -0.3189   -0.0001
          60    0.0001    0.0001   -0.0003    0.0887    0.5491    0.0002


           MASS-WEIGHTED COORDINATE ANALYSIS (NORMAL COORDINATES)


   Root No.       1         2         3         4         5         6         7         8

                 1 A       2 A       3 A       4 A       5 A       6 A       7 A       8 A   

                  95.4     146.9     165.5     222.1     288.3     418.2     428.1     452.4
  
           1    0.0759   -0.2208    0.0121    0.0501    0.1249   -0.0659    0.1106   -0.1693
           2   -0.1277   -0.1210   -0.0219   -0.0210   -0.2292   -0.1839   -0.1043   -0.1042
           3   -0.2129    0.0973   -0.1202   -0.2993   -0.1341    0.1842   -0.0156    0.0926
           4    0.0744   -0.1990    0.0118    0.0774    0.1743   -0.0699    0.2552   -0.0478
           5   -0.0934   -0.1713   -0.1156    0.0163    0.0515   -0.0271    0.0735   -0.0954
           6   -0.1766    0.0017    0.0438    0.0910   -0.2103    0.1007    0.3284    0.0987
           7    0.0354   -0.1511    0.0946    0.0309   -0.0501   -0.2091   -0.0631    0.0575
           8   -0.1241   -0.1191   -0.0259   -0.0263   -0.2297   -0.1616   -0.1236   -0.1171
           9   -0.0009    0.1427   -0.1786   -0.1425    0.2023    0.2553   -0.1801   -0.1737
          10    0.0392   -0.1425    0.0974   -0.0121   -0.0465   -0.1833   -0.0609    0.0179
          11   -0.0964   -0.1755   -0.0870   -0.0126   -0.0103   -0.0614    0.0833   -0.1923
          12   -0.1001   -0.0180   -0.2893    0.4454    0.0649   -0.1483   -0.2279    0.1790
          13    0.0856   -0.1800    0.0266   -0.1203   -0.2185    0.3190   -0.1528   -0.1883
          14    0.0597    0.0473    0.0776    0.0302   -0.1428    0.1035    0.0965   -0.0848
          15   -0.2972   -0.0111   -0.1808   -0.2071    0.0691   -0.1947    0.0224    0.0689
          16    0.0675    0.1006   -0.2528    0.0953   -0.0608    0.1132    0.3489    0.2573
          17    0.0114    0.0410    0.1875   -0.0634    0.2644    0.0774   -0.0880    0.2462
          18   -0.1046   -0.0557    0.4043    0.0399    0.0565    0.0374    0.2665    0.0729
          19   -0.0482   -0.0060    0.0195    0.1493    0.1084    0.1777   -0.1706    0.1678
          20   -0.1032    0.0330   -0.0032    0.0538   -0.0901    0.1112   -0.1015    0.0003
          21    0.2629    0.0599    0.0617   -0.2717    0.1438   -0.2030    0.0544   -0.1434
          22   -0.0046    0.0763   -0.0838   -0.3840   -0.1138   -0.0718   -0.0998    0.1494
          23    0.1143    0.1975    0.0908   -0.0139   -0.0041   -0.0170    0.1401    0.1088
          24   -0.0732   -0.1944    0.0082    0.1260    0.1016    0.2431   -0.0552   -0.1875
          25   -0.0901    0.1377   -0.1344   -0.1187    0.2673   -0.0206   -0.1122   -0.1313
          26    0.0022    0.2071    0.0224    0.0522    0.1230    0.0553    0.1698   -0.0543
          27    0.2362   -0.2016    0.2057    0.0039   -0.1559    0.0531   -0.1759    0.2126
          28   -0.2147    0.5003    0.2128    0.2060   -0.1439   -0.0617   -0.0219   -0.0691
          29    0.3108    0.0314   -0.1170   -0.0479    0.2129    0.0729   -0.1041    0.2475
          30    0.4179    0.2050    0.0024    0.1494   -0.1439   -0.1072   -0.0047   -0.2195
          31    0.0372   -0.0938    0.0421    0.0827    0.0957   -0.0457    0.1244   -0.0537
          32   -0.0256   -0.0669   -0.1209    0.0822    0.0441   -0.0389   -0.0052   -0.0489
          33   -0.0436   -0.0101    0.0623    0.0264   -0.0459    0.0266    0.1254    0.0182
          34    0.0138   -0.0606   -0.0264   -0.0057    0.1071   -0.0520    0.0278   -0.0584
          35   -0.0775   -0.0582   -0.0013   -0.0131   -0.1362   -0.1401   -0.0342    0.0374
          36   -0.0845    0.0159   -0.0464   -0.0962   -0.0370   -0.0073   -0.0088    0.0526
          37    0.0073   -0.0305    0.0424   -0.0201   -0.0519   -0.0705   -0.0659    0.0132
          38   -0.0242   -0.0583   -0.0348   -0.0041    0.0346    0.0176    0.0863   -0.0762
          39   -0.0243   -0.0394   -0.1316    0.3020    0.0387   -0.2160   -0.1799    0.1720
          40    0.0965    0.0239   -0.2483    0.0433   -0.1208    0.0613    0.2003    0.0742
          41   -0.0353    0.0790    0.1940   -0.0169    0.1385   -0.0054   -0.1490    0.0725
          42   -0.1364   -0.0901    0.2939   -0.0187    0.1449   -0.0164    0.0294    0.0129
          43    0.0461   -0.0952    0.0309   -0.0469   -0.1886    0.2500   -0.1413   -0.0787
          44    0.0434    0.0058    0.0429    0.0181   -0.0745    0.1082    0.0080   -0.0266
          45   -0.1545    0.0032   -0.1029   -0.0913    0.0697   -0.2281    0.0277    0.0180
[...]
 TRAVEL      0.0911         C  2 -- C  6         +11.8% ( 51.6%)     22.1%
 RED. MASS   1.2125         C  2 -- C  3          +9.7% ( 46.8%)      9.5%
 EFF. MASS   6.8890

 VIBRATION   34   34A         ATOM PAIR      ENERGY CONTRIBUTION    RADIAL
 FREQ.      1195.49         C  6 -- H 14         +22.6% ( 59.6%)      0.9%
 T-DIPOLE    0.0933         C  1 -- H 12          +8.2% ( 35.9%)      0.4%
 TRAVEL      0.1359         C  5 -- H 15          +6.9% ( 32.9%)      0.2%
 RED. MASS   0.2487         C  2 -- C  3          +5.7% ( 30.0%)     90.5%
 EFF. MASS   3.0529

 VIBRATION   35   35A         ATOM PAIR      ENERGY CONTRIBUTION    RADIAL
 FREQ.      1208.29         C  6 -- H 14         +10.4% ( 45.0%)      8.4%
 T-DIPOLE    0.1115         C  4 -- H 13          +9.5% ( 43.0%)      4.9%
 TRAVEL      0.0994         C  1 -- C  4          +8.4% ( 40.4%)     87.4%
 RED. MASS   0.4305         C  2 -- C  4          +7.4% ( 38.0%)     92.6%
 EFF. MASS   5.6430

 VIBRATION   36   36A         ATOM PAIR      ENERGY CONTRIBUTION    RADIAL
 FREQ.      1308.54         C 10 -- H 19         +21.4% ( 53.1%)      0.2%
 T-DIPOLE    0.0758         C 10 -- H 20         +19.2% ( 50.3%)      0.6%
 TRAVEL      0.1279         C  2 -- C  4          +9.2% ( 34.8%)     82.2%
 RED. MASS   0.4208         C  2 -- C  6          +8.8% ( 33.9%)     47.2%
 EFF. MASS   3.1497

 VIBRATION   37   37A         ATOM PAIR      ENERGY CONTRIBUTION    RADIAL
 FREQ.      1347.16         C  1 -- C  3         +15.5% ( 61.6%)     98.7%
 T-DIPOLE    0.0702         C  8 -- C  9          +8.8% ( 46.3%)     99.7%
 TRAVEL      0.0758         C  3 -- C  7          +7.3% ( 42.1%)      8.7%
 RED. MASS   1.2128         C  3 -- C  4          +6.9% ( 41.0%)      6.0%
 EFF. MASS   8.7065

 VIBRATION   38   38A         ATOM PAIR      ENERGY CONTRIBUTION    RADIAL
 FREQ.      1382.20         C  3 -- C  7         +12.5% ( 59.9%)     79.1%
 T-DIPOLE    0.2780         C  1 -- C  4         +11.3% ( 56.9%)     68.5%
 TRAVEL      0.0680         C  1 -- C  5          +9.4% ( 52.0%)     95.7%
 RED. MASS   1.4824         C  3 -- C  4          +8.9% ( 50.5%)     35.1%
 EFF. MASS  10.5493

 VIBRATION   39   39A         ATOM PAIR      ENERGY CONTRIBUTION    RADIAL
 FREQ.      1407.99         C  2 -- C  6         +17.3% ( 69.1%)     94.3%
 T-DIPOLE    0.2953         C  2 -- C  4         +11.9% ( 57.4%)     60.7%
 TRAVEL      0.0697         C  2 -- H 11         +11.7% ( 56.7%)      0.0%
 RED. MASS   2.0709         C  1 -- C  2         +10.4% ( 53.6%)     20.5%
 EFF. MASS   9.8562         C  2 -- C  3         +10.2% ( 53.0%)     76.7%

 VIBRATION   40   40A         ATOM PAIR      ENERGY CONTRIBUTION    RADIAL
 FREQ.      1470.06         C  1 -- C  5         +13.8% ( 63.1%)     93.3%
 T-DIPOLE    0.0876         C  1 -- C  2         +11.0% ( 56.2%)     58.9%
 TRAVEL      0.0643         C  1 -- C  3         +10.7% ( 55.5%)     61.6%
 RED. MASS   1.7887         C  1 -- C  4          +8.0% ( 48.0%)     62.8%
 EFF. MASS  11.1094

 VIBRATION   41   41A         ATOM PAIR      ENERGY CONTRIBUTION    RADIAL
 FREQ.      1788.68         C  7 -- C  9         +39.4% ( 94.0%)     99.4%
 T-DIPOLE    0.1918         C  8 -- C  9         +16.5% ( 60.9%)     70.4%
 TRAVEL      0.0562         C  9 -- H 17         +13.6% ( 55.3%)      3.9%
 RED. MASS   4.5420         C  3 -- C  7         +10.1% ( 47.7%)     10.8%
 EFF. MASS  11.9249

 VIBRATION   42   42A         ATOM PAIR      ENERGY CONTRIBUTION    RADIAL
 FREQ.      1822.11         C  5 -- C  8         +40.5% ( 94.6%)     99.9%
 T-DIPOLE    0.4001         C  8 -- C  9         +13.5% ( 54.5%)     28.8%
 TRAVEL      0.0559         C  1 -- C  5         +13.2% ( 53.9%)     50.5%
 RED. MASS   4.6662         C  8 -- H 16         +12.2% ( 52.0%)      5.6%
 EFF. MASS  11.8429         C  5 -- H 15         +11.9% ( 51.2%)      5.1%

 VIBRATION   43   43A         ATOM PAIR      ENERGY CONTRIBUTION    RADIAL
 FREQ.      1862.72         C  6 -- C 10         +43.6% ( 98.1%)     98.7%
 T-DIPOLE    0.1891         C  2 -- C  6         +16.6% ( 60.5%)     58.1%
 TRAVEL      0.0553         C  6 -- H 14         +15.1% ( 57.7%)      3.7%
 RED. MASS   5.0947         C 10 -- H 19         +10.5% ( 48.0%)     10.7%
 EFF. MASS  11.8287         C 10 -- H 20         +10.2% ( 47.5%)     13.0%

 VIBRATION   44   44A         ATOM PAIR      ENERGY CONTRIBUTION    RADIAL
 FREQ.      1916.34         C  3 -- C  4         +28.8% ( 89.3%)     96.9%
 T-DIPOLE    0.2468         C  3 -- C  7         +19.8% ( 74.0%)     88.1%
 TRAVEL      0.0543         C  2 -- C  3         +15.0% ( 64.5%)     78.5%
 RED. MASS   4.9235         C  1 -- C  3         +14.7% ( 63.8%)      7.0%
 EFF. MASS  11.9413

 VIBRATION   45   45A         ATOM PAIR      ENERGY CONTRIBUTION    RADIAL
 FREQ.      2935.85         C  1 -- H 12         +83.0% ( 93.1%)    100.0%
 T-DIPOLE    0.1437         C  2 -- H 11         +12.9% ( 36.8%)    100.0%
 TRAVEL      0.1265         C  1 -- C  2          +1.1% ( 10.6%)     15.0%
 RED. MASS   0.7134         C  1 -- C  4          +0.9% (  9.5%)     27.8%
 EFF. MASS   1.4361

 VIBRATION   46   46A         ATOM PAIR      ENERGY CONTRIBUTION    RADIAL
 FREQ.      2946.41         C  2 -- H 11         +83.3% ( 93.0%)    100.0%
 T-DIPOLE    0.2110         C  1 -- H 12         +12.9% ( 36.5%)     99.9%
 TRAVEL      0.1265         C  1 -- C  2          +0.9% (  9.6%)      9.7%
 RED. MASS   0.7136         C  2 -- C  3          +0.9% (  9.4%)     26.5%
 EFF. MASS   1.4298

 VIBRATION   47   47A         ATOM PAIR      ENERGY CONTRIBUTION    RADIAL
 FREQ.      3041.30         C  6 -- H 14         +96.3% ( 99.5%)    100.0%
 T-DIPOLE    0.2617         C  6 -- C 10          +1.4% ( 12.1%)     30.8%
 TRAVEL      0.1214         C  2 -- C  6          +1.4% ( 11.8%)     13.5%
 RED. MASS   0.9134         C 10 -- H 20          +0.9% (  9.6%)     95.3%
 EFF. MASS   1.5043

 VIBRATION   48   48A         ATOM PAIR      ENERGY CONTRIBUTION    RADIAL
 FREQ.      3052.81         C  8 -- H 16         +73.3% ( 87.0%)    100.0%
 T-DIPOLE    0.1561         C  9 -- H 17         +13.4% ( 37.2%)    100.0%
 TRAVEL      0.1217         C  5 -- H 15         +10.1% ( 32.3%)     99.9%
 RED. MASS   0.5576         C  8 -- C  9          +1.3% ( 11.4%)      3.4%
 EFF. MASS   1.4915

 VIBRATION   49   49A         ATOM PAIR      ENERGY CONTRIBUTION    RADIAL
 FREQ.      3064.10         C  9 -- H 17         +70.7% ( 85.3%)    100.0%
 T-DIPOLE    0.4004         C  7 -- H 18         +11.1% ( 33.8%)     99.9%
 TRAVEL      0.1219         C  8 -- H 16          +8.0% ( 28.7%)     99.9%
 RED. MASS   0.5153         C  5 -- H 15          +7.5% ( 27.9%)    100.0%
 EFF. MASS   1.4805

 VIBRATION   50   50A         ATOM PAIR      ENERGY CONTRIBUTION    RADIAL
 FREQ.      3080.42         C  5 -- H 15         +77.7% ( 89.5%)    100.0%
 T-DIPOLE    0.4118         C  8 -- H 16         +13.9% ( 37.8%)     99.7%
 TRAVEL      0.1183         C  7 -- H 18          +4.4% ( 21.3%)    100.0%
 RED. MASS   0.6217         C  5 -- C  8          +1.8% ( 13.5%)     80.1%
 EFF. MASS   1.5639

 VIBRATION   51   51A         ATOM PAIR      ENERGY CONTRIBUTION    RADIAL
 FREQ.      3090.85         C  7 -- H 18         +80.9% ( 91.3%)    100.0%
 T-DIPOLE    0.3370         C  9 -- H 17         +12.3% ( 35.6%)     99.7%
 TRAVEL      0.1174         C  7 -- C  9          +1.9% ( 13.9%)     77.8%
 RED. MASS   0.6685         C  5 -- H 15          +1.6% ( 13.0%)     99.9%
 EFF. MASS   1.5821

 VIBRATION   52   52A         ATOM PAIR      ENERGY CONTRIBUTION    RADIAL
 FREQ.      3134.87         C 10 -- H 19         +94.5% ( 98.8%)    100.0%
 T-DIPOLE    0.1873         C 10 -- H 20          +4.1% ( 20.6%)     59.1%
 TRAVEL      0.1187         C  6 -- C 10          +1.3% ( 11.8%)     27.8%
 RED. MASS   0.8925
 EFF. MASS   1.5254

 VIBRATION   53   53A         ATOM PAIR      ENERGY CONTRIBUTION    RADIAL
 FREQ.      3147.42         C 10 -- H 20         +94.3% ( 97.9%)     99.8%
 T-DIPOLE    0.2646         C 10 -- H 19          +3.3% ( 18.4%)     18.3%
 TRAVEL      0.1204         C  6 -- C 10          +1.6% ( 12.6%)     66.5%
 RED. MASS   0.8629         C  6 -- H 14          +0.8% (  8.9%)     95.0%
 EFF. MASS   1.4782

 VIBRATION   54   54A         ATOM PAIR      ENERGY CONTRIBUTION    RADIAL
 FREQ.      3207.37         C  4 -- H 13         +94.2% ( 99.9%)    100.0%
 T-DIPOLE    0.5008         C  3 -- C  4          +2.0% ( 14.7%)     65.7%
 TRAVEL      0.1146         C  1 -- C  4          +1.9% ( 14.0%)     99.2%
 RED. MASS   0.9304         C  2 -- C  4          +1.8% ( 14.0%)     37.0%
 EFF. MASS   1.5994

      SYMMETRY NUMBER FOR POINT-GROUP C1  =  1


          SYSTEM IS A GROUND STATE



 InChI=1S/C10H10/c1-2-8-7-9-5-3-4-6-10(8)9/h2-8,10H,1H2


          MOLECULE IS NOT LINEAR

          THERE ARE 54 GENUINE VIBRATIONS IN THIS SYSTEM
          THIS THERMODYNAMICS CALCULATION IS LIMITED TO
          MOLECULES WHICH HAVE NO INTERNAL ROTATIONS




                    CALCULATED THERMODYNAMIC PROPERTIES
                                          *
   TEMP. (K)   PARTITION FUNCTION   H.O.F.    ENTHALPY  HEAT CAPACITY ENTROPY
                                   KCAL/MOL   CAL/MOLE    CAL/K/MOL  CAL/K/MOL


 298.00  VIB.     0.4711D+02                  3424.7304    27.2927    19.1482
         ROT.     0.5503D+06                   888.2813     2.9808    29.2480
         INT.     0.2592D+08                  4313.0117    30.2735    48.3962
         TRA.     0.1436D+28                  1480.4688     4.9680    40.5022
         TOT.                       94.927    5793.4805    35.2415    88.8983

 200.00  VIB.     0.7980D+01                  1331.0189    15.6866    10.7825
         ROT.     0.3025D+06                   596.1620     2.9808    28.0593
         INT.     0.2414D+07                  1927.1809    18.6674    38.8418
         TRA.     0.7896D+27                   993.6033     4.9680    38.5210
         TOT.                       92.054    2920.7841    23.6354    77.3628

 210.00  VIB.     0.9449D+01                  1493.3334    16.7814    11.5742
         ROT.     0.3255D+06                   625.9700     2.9808    28.2047
         INT.     0.3076D+07                  2119.3035    19.7622    39.7789
         TRA.     0.8496D+27                  1043.2834     4.9680    38.7634
         TOT.                       92.296    3162.5869    24.7302    78.5423

 220.00  VIB.     0.1122D+02                  1666.7445    17.9055    12.3807
         ROT.     0.3490D+06                   655.7781     2.9808    28.3434
         INT.     0.3916D+07                  2322.5226    20.8863    40.7241
         TRA.     0.9110D+27                  1092.9636     4.9680    38.9945
         TOT.                       92.549    3415.4862    25.8543    79.7186

 230.00  VIB.     0.1336D+02                  1851.5304    19.0558    13.2019
         ROT.     0.3731D+06                   685.5862     2.9808    28.4759
         INT.     0.4986D+07                  2537.1167    22.0366    41.6778
         TRA.     0.9738D+27                  1142.6437     4.9680    39.2154
         TOT.                       92.813    3679.7604    27.0047    80.8932

 240.00  VIB.     0.1596D+02                  2047.9375    20.2291    14.0377
         ROT.     0.3977D+06                   715.3943     2.9808    28.6028
         INT.     0.6347D+07                  2763.3319    23.2099    42.6404
         TRA.     0.1038D+28                  1192.3239     4.9680    39.4268
         TOT.                       93.089    3955.6558    28.1779    82.0672

 250.00  VIB.     0.1911D+02                  2256.1763    21.4215    14.8876
         ROT.     0.4228D+06                   745.2024     2.9808    28.7244
         INT.     0.8081D+07                  3001.3787    24.4024    43.6120
         TRA.     0.1103D+28                  1242.0041     4.9680    39.6296
         TOT.                       93.377    4243.3828    29.3704    83.2416

 260.00  VIB.     0.2295D+02                  2476.4196    22.6294    15.7512
         ROT.     0.4484D+06                   775.0105     2.9808    28.8413
         INT.     0.1029D+08                  3251.4301    25.6102    44.5926
         TRA.     0.1170D+28                  1291.6842     4.9680    39.8245
         TOT.                       93.677    4543.1143    30.5782    84.4170

 270.00  VIB.     0.2763D+02                  2708.8018    23.8487    16.6281
         ROT.     0.4745D+06                   804.8186     2.9808    28.9538
         INT.     0.1311D+08                  3513.6204    26.8295    45.5819
         TRA.     0.1239D+28                  1341.3644     4.9680    40.0120
         TOT.                       93.988    4854.9848    31.7975    85.5939

 280.00  VIB.     0.3336D+02                  2953.4193    25.0758    17.5176
         ROT.     0.5012D+06                   834.6267     2.9808    29.0622
         INT.     0.1672D+08                  3788.0460    28.0566    46.5798
         TRA.     0.1308D+28                  1391.0445     4.9680    40.1926
         TOT.                       94.312    5179.0906    33.0246    86.7724

 290.00  VIB.     0.4037D+02                  3210.3313    26.3070    18.4190
         ROT.     0.5282D+06                   864.4348     2.9808    29.1668
         INT.     0.2133D+08                  4074.7662    29.2878    47.5858
         TRA.     0.1379D+28                  1440.7247     4.9680    40.3670
         TOT.                       94.649    5515.4909    34.2558    87.9528

 300.00  VIB.     0.4898D+02                  3479.5621    27.5390    19.3316
         ROT.     0.5558D+06                   894.2429     2.9808    29.2679
         INT.     0.2722D+08                  4373.8050    30.5198    48.5995
         TRA.     0.1451D+28                  1490.4049     4.9680    40.5354
         TOT.                       94.998    5864.2099    35.4878    89.1349

 310.00  VIB.     0.5957D+02                  3761.1029    28.7685    20.2547
         ROT.     0.5838D+06                   924.0510     2.9808    29.3656
         INT.     0.3478D+08                  4685.1539    31.7493    49.6203
         TRA.     0.1524D+28                  1540.0850     4.9680    40.6983
         TOT.                       95.359    6225.2390    36.7174    90.3186

 320.00  VIB.     0.7262D+02                  4054.9149    29.9928    21.1874
         ROT.     0.6123D+06                   953.8591     2.9808    29.4603
         INT.     0.4447D+08                  5008.7740    32.9736    50.6476
         TRA.     0.1598D+28                  1589.7652     4.9680    40.8560
         TOT.                       95.732    6598.5392    37.9416    91.5037

 330.00  VIB.     0.8874D+02                  4360.9318    31.2091    22.1289
         ROT.     0.6412D+06                   983.6672     2.9808    29.5520
         INT.     0.5690D+08                  5344.5990    34.1899    51.6809
         TRA.     0.1674D+28                  1639.4454     4.9680    41.0089
         TOT.                       96.117    6984.0444    39.1579    92.6898

 340.00  VIB.     0.1087D+03                  4679.0628    32.4152    23.0786
         ROT.     0.6706D+06                  1013.4753     2.9808    29.6410
         INT.     0.7287D+08                  5692.5382    35.3960    52.7195
         TRA.     0.1750D+28                  1689.1255     4.9680    41.1572
         TOT.                       96.515    7381.6637    40.3640    93.8768

 350.00  VIB.     0.1334D+03                  5009.1954    33.6091    24.0354
         ROT.     0.7004D+06                  1043.2834     2.9808    29.7274
         INT.     0.9340D+08                  6052.4789    36.5899    53.7628
         TRA.     0.1828D+28                  1738.8057     4.9680    41.3012
         TOT.                       96.925    7791.2845    41.5579    95.0641

 360.00  VIB.     0.1640D+03                  5351.1983    34.7890    24.9988
         ROT.     0.7306D+06                  1073.0915     2.9808    29.8114
         INT.     0.1198D+09                  6424.2898    37.7698    54.8102
         TRA.     0.1907D+28                  1788.4859     4.9680    41.4412
         TOT.                       97.346    8212.7756    42.7378    96.2514

 370.00  VIB.     0.2021D+03                  5704.9236    35.9534    25.9679
         ROT.     0.7613D+06                  1102.8996     2.9808    29.8930
         INT.     0.1538D+09                  6807.8232    38.9342    55.8610
         TRA.     0.1987D+28                  1838.1660     4.9680    41.5773
         TOT.                       97.779    8645.9893    43.9022    97.4383

 380.00  VIB.     0.2494D+03                  6070.2102    37.1010    26.9420
         ROT.     0.7923D+06                  1132.7077     2.9808    29.9725
         INT.     0.1976D+09                  7202.9179    40.0819    56.9145
         TRA.     0.2068D+28                  1887.8462     4.9680    41.7098
         TOT.                       98.224    9090.7641    45.0499    98.6243

 390.00  VIB.     0.3085D+03                  6446.8852    38.2309    27.9204
         ROT.     0.8238D+06                  1162.5158     2.9808    30.0500
         INT.     0.2541D+09                  7609.4010    41.2117    57.9703
         TRA.     0.2150D+28                  1937.5263     4.9680    41.8388
         TOT.                       98.680    9546.9274    46.1798    99.8092

 400.00  VIB.     0.3821D+03                  6834.7667    39.3422    28.9023
         ROT.     0.8557D+06                  1192.3239     2.9808    30.1254
         INT.     0.3270D+09                  8027.0906    42.3230    59.0278
         TRA.     0.2233D+28                  1987.2065     4.9680    41.9646
         TOT.                       99.148   10014.2971    47.2910   100.9924

   *: NOTE: HEATS OF FORMATION ARE RELATIVE TO THE
            ELEMENTS IN THEIR STANDARD STATE AT 298K
              (=  Standard Enthalpy of Formation).

            Hvib:  Zero-point energy is not included.
                   frequencies of less than zero cm-1 are not included.
            Hrot = (3/2)RT
            Htra = (3/2)RT + pV = (5/2)RT

            Heat capacity is Cp, not Cv

          For more information, see: HTTP://OpenMOPAC.net/Manual/thermochemistry.html


           FORCE CONSTANT IN CARTESIAN COORDINATES (Millidynes/A)

    ATOM   CHEMICAL       X               Y               Z
   NUMBER   SYMBOL  FORCE CONSTANT  FORCE CONSTANT  FORCE CONSTANT

      1       C        7.820848        8.290415        8.700403
      2       C        7.365709        8.333071        8.717358
      3       C       16.252258        9.073409        3.293638
      4       C       14.871655        8.739630        2.300155
      5       C        8.055865       11.472919        7.503897
      6       C        7.198690       12.958845        7.212036
      7       C        9.759627       11.055773        6.786245
      8       C        8.442906       11.012638        7.702029
      9       C        9.896675        9.909045        7.286152
     10       C        6.875982       12.711169        6.909668
     11       H        1.300929        1.013384        3.747775
     12       H        1.296321        1.287715        3.485437
     13       H        3.201860        3.025291        0.347310
     14       H        3.250303        1.729620        1.207768
     15       H        0.587565        4.636326        1.047742
     16       H        2.022183        1.100231        3.125221
     17       H        3.346550        1.852976        1.067263
     18       H        0.625325        4.746678        0.915802
     19       H        3.413764        1.900507        1.143225
     20       H        1.706115        1.549977        3.227224

 **********************
 *                    *
 * JOB ENDED NORMALLY *
 *                    *
 **********************



 TOTAL JOB TIME:             8.19 SECONDS

 == MOPAC DONE ==
