 *******************************************************************************
 ** Site#: 14399        For non-commercial use only    Version 18.184L 64BITS **
 *******************************************************************************
 ** Cite this program as: MOPAC2016, Version: 18.184L, James J. P. Stewart,   **
 ** Stewart Computational Chemistry, web: HTTP://OpenMOPAC.net. Days left:  20**
 *******************************************************************************
 **                                                                           **
 **                                MOPAC2016                                  **
 **                                                                           **
 *******************************************************************************

                              PM3 CALCULATION RESULTS

 *******************************************************************************
 *  CALCULATION DONE:                                Thu Jun 13 15:53:00 2019  *
 *  PM3        - The PM3 Hamiltonian to be used
 *  PRECISE    - CRITERIA TO BE INCREASED BY 100 TIMES
 *  NOSYM      - POINT-GROUP SYMMETRY SET TO C1
 *  THREADS=1  - MULTI-THREADING NOT USED
 *  T=         - A TIME OF 172800.0 SECONDS REQUESTED
 *  DUMP=N     - RESTART FILE WRITTEN EVERY  7200.000 SECONDS
 *******************************************************************************
pm3  precise nosym THREADS=1
 InChI=1S/C10H10/c1-8-6-7-9-4-2-3-5-10(8)9/h2,4-5,7H,1,3,6H2

   ATOM   CHEMICAL          X               Y               Z
  NUMBER   SYMBOL      (ANGSTROMS)     (ANGSTROMS)     (ANGSTROMS)
 
     1       C         -2.11360000  *  -0.99920000  *   0.00700000  *
     2       C          2.22510000  *   1.05760000  *  -0.00760000  *
     3       C         -1.61230000  *   0.41460000  *  -0.05390000  *
     4       C         -0.15700000  *   0.37750000  *  -0.02220000  *
     5       C          0.22710000  *  -1.00310000  *   0.05510000  *
     6       C         -0.83660000  *  -1.79550000  *   0.07320000  *
     7       C          0.73910000  *   1.36600000  *  -0.05360000  *
     8       C          2.56910000  *  -0.42540000  *   0.07400000  *
     9       C          1.63690000  *  -1.38850000  *   0.10340000  *
    10       C         -2.38320000  *   1.49850000  *  -0.12420000  *
    11       H         -2.72360000  *  -1.16490000  *   0.92020000  *
    12       H         -2.68610000  *  -1.25700000  *  -0.90910000  *
    13       H          2.69910000  *   1.47840000  *  -0.91890000  *
    14       H          2.66240000  *   1.56860000  *   0.87540000  *
    15       H         -0.78840000  *  -2.87540000  *   0.12850000  *
    16       H          0.41840000  *   2.39750000  *  -0.11210000  *
    17       H          3.61360000  *  -0.70810000  *   0.10960000  *
    18       H          1.92390000  *  -2.43100000  *   0.16170000  *
    19       H         -1.95270000  *   2.48980000  *  -0.16530000  *
    20       H         -3.46090000  *   1.39960000  *  -0.14130000  *
 


          CARTESIAN COORDINATES 

    NO.       ATOM           X           Y           Z

     1         C         -2.1136     -0.9992      0.0070
     2         C          2.2251      1.0576     -0.0076
     3         C         -1.6123      0.4146     -0.0539
     4         C         -0.1570      0.3775     -0.0222
     5         C          0.2271     -1.0031      0.0551
     6         C         -0.8366     -1.7955      0.0732
     7         C          0.7391      1.3660     -0.0536
     8         C          2.5691     -0.4254      0.0740
     9         C          1.6369     -1.3885      0.1034
    10         C         -2.3832      1.4985     -0.1242
    11         H         -2.7236     -1.1649      0.9202
    12         H         -2.6861     -1.2570     -0.9091
    13         H          2.6991      1.4784     -0.9189
    14         H          2.6624      1.5686      0.8754
    15         H         -0.7884     -2.8754      0.1285
    16         H          0.4184      2.3975     -0.1121
    17         H          3.6136     -0.7081      0.1096
    18         H          1.9239     -2.4310      0.1617
    19         H         -1.9527      2.4898     -0.1653
    20         H         -3.4609      1.3996     -0.1413

  H: (PM3): J. J. P. STEWART, J. COMP. CHEM. 10, 209 (1989).
  C: (PM3): J. J. P. STEWART, J. COMP. CHEM. 10, 209 (1989).

           Empirical Formula: C10 H10  =    20 atoms



      MOLECULAR POINT GROUP   :   C1  


      RHF CALCULATION, NO. OF DOUBLY OCCUPIED LEVELS = 25


          Geometry optimization using EF

          DIAGONAL MATRIX USED AS START HESSIAN

 CYCLE:     1 TIME:   0.023 TIME LEFT:  2.00D  GRAD.:   102.432 HEAT:  58.79275
 CYCLE:     2 TIME:   0.047 TIME LEFT:  2.00D  GRAD.:    48.372 HEAT:  56.77210
 CYCLE:     3 TIME:   0.031 TIME LEFT:  2.00D  GRAD.:    35.801 HEAT:  56.20931
 CYCLE:     4 TIME:   0.023 TIME LEFT:  2.00D  GRAD.:    34.212 HEAT:  55.75982
 CYCLE:     5 TIME:   0.020 TIME LEFT:  2.00D  GRAD.:    46.327 HEAT:  55.49912
 CYCLE:     6 TIME:   0.031 TIME LEFT:  2.00D  GRAD.:    37.575 HEAT:  55.29631
 CYCLE:     7 TIME:   0.023 TIME LEFT:  2.00D  GRAD.:    29.873 HEAT:  55.14464
 CYCLE:     8 TIME:   0.027 TIME LEFT:  2.00D  GRAD.:    20.056 HEAT:  54.99450
 CYCLE:     9 TIME:   0.031 TIME LEFT:  2.00D  GRAD.:     9.629 HEAT:  54.91826
 CYCLE:    10 TIME:   0.020 TIME LEFT:  2.00D  GRAD.:     9.267 HEAT:  54.86916
 CYCLE:    11 TIME:   0.023 TIME LEFT:  2.00D  GRAD.:    15.497 HEAT:  54.85774
 CYCLE:    12 TIME:   0.023 TIME LEFT:  2.00D  GRAD.:     9.098 HEAT:  54.81444
 CYCLE:    13 TIME:   0.031 TIME LEFT:  2.00D  GRAD.:     5.343 HEAT:  54.78851
 CYCLE:    14 TIME:   0.027 TIME LEFT:  2.00D  GRAD.:     4.227 HEAT:  54.78051
 CYCLE:    15 TIME:   0.020 TIME LEFT:  2.00D  GRAD.:     6.147 HEAT:  54.77849
 CYCLE:    16 TIME:   0.023 TIME LEFT:  2.00D  GRAD.:     3.268 HEAT:  54.76698
 CYCLE:    17 TIME:   0.023 TIME LEFT:  2.00D  GRAD.:     3.249 HEAT:  54.76356
 CYCLE:    18 TIME:   0.023 TIME LEFT:  2.00D  GRAD.:     2.557 HEAT:  54.76023
 CYCLE:    19 TIME:   0.031 TIME LEFT:  2.00D  GRAD.:     3.144 HEAT:  54.76029
 CYCLE:    20 TIME:   0.020 TIME LEFT:  2.00D  GRAD.:     2.180 HEAT:  54.75800
 CYCLE:    21 TIME:   0.023 TIME LEFT:  2.00D  GRAD.:     2.590 HEAT:  54.75771
 CYCLE:    22 TIME:   0.023 TIME LEFT:  2.00D  GRAD.:     1.065 HEAT:  54.75588
 CYCLE:    23 TIME:   0.023 TIME LEFT:  2.00D  GRAD.:     1.235 HEAT:  54.75550
 CYCLE:    24 TIME:   0.020 TIME LEFT:  2.00D  GRAD.:     0.557 HEAT:  54.75472
 CYCLE:    25 TIME:   0.031 TIME LEFT:  2.00D  GRAD.:     0.758 HEAT:  54.75429
 CYCLE:    26 TIME:   0.023 TIME LEFT:  2.00D  GRAD.:     0.665 HEAT:  54.75405
 CYCLE:    27 TIME:   0.020 TIME LEFT:  2.00D  GRAD.:     0.552 HEAT:  54.75390
 CYCLE:    28 TIME:   0.023 TIME LEFT:  2.00D  GRAD.:     0.323 HEAT:  54.75372
 CYCLE:    29 TIME:   0.023 TIME LEFT:  2.00D  GRAD.:     0.321 HEAT:  54.75362
 CYCLE:    30 TIME:   0.023 TIME LEFT:  2.00D  GRAD.:     0.284 HEAT:  54.75354
 CYCLE:    31 TIME:   0.023 TIME LEFT:  2.00D  GRAD.:     0.193 HEAT:  54.75349
 CYCLE:    32 TIME:   0.023 TIME LEFT:  2.00D  GRAD.:     0.221 HEAT:  54.75344
 CYCLE:    33 TIME:   0.020 TIME LEFT:  2.00D  GRAD.:     0.270 HEAT:  54.75335
 CYCLE:    34 TIME:   0.023 TIME LEFT:  2.00D  GRAD.:     0.209 HEAT:  54.75330
 CYCLE:    35 TIME:   0.023 TIME LEFT:  2.00D  GRAD.:     0.176 HEAT:  54.75326
 CYCLE:    36 TIME:   0.023 TIME LEFT:  2.00D  GRAD.:     0.177 HEAT:  54.75323
 CYCLE:    37 TIME:   0.023 TIME LEFT:  2.00D  GRAD.:     0.136 HEAT:  54.75320
 CYCLE:    38 TIME:   0.023 TIME LEFT:  2.00D  GRAD.:     0.091 HEAT:  54.75319
 CYCLE:    39 TIME:   0.035 TIME LEFT:  2.00D  GRAD.:     0.055 HEAT:  54.75318
 CYCLE:    40 TIME:   0.020 TIME LEFT:  2.00D  GRAD.:     0.033 HEAT:  54.75318

     GRADIENT =  0.03286  IS LESS THAN CUTOFF =  0.05000



 -------------------------------------------------------------------------------
 pm3  precise nosym THREADS=1
 InChI=1S/C10H10/c1-8-6-7-9-4-2-3-5-10(8)9/h2,4-5,7H,1,3,6H2



     GEOMETRY OPTIMISED USING EIGENVECTOR FOLLOWING (EF).     
     SCF FIELD WAS ACHIEVED                                   


                              PM3 CALCULATION
                                                       MOPAC2016 (Version: 18.184L)
                                                       Thu Jun 13 15:53:01 2019
                                                       No. of days remaining =  20




          FINAL HEAT OF FORMATION =         54.75318 KCAL/MOL =     229.08731 KJ/MOL


          TOTAL ENERGY            =      -1337.35662 EV
          ELECTRONIC ENERGY       =      -7048.36488 EV  POINT GROUP:     C1  
          CORE-CORE REPULSION     =       5711.00826 EV
          COSMO AREA              =        173.31 SQUARE ANGSTROMS
          COSMO VOLUME            =        172.61 CUBIC ANGSTROMS

          GRADIENT NORM           =          0.03286 = 0.00735 PER ATOM
          IONIZATION POTENTIAL    =          8.346026 EV
          HOMO LUMO ENERGIES (EV) =         -8.346 -0.174
          NO. OF FILLED LEVELS    =         25
          MOLECULAR WEIGHT        =        130.1890

          MOLECULAR DIMENSIONS (Angstroms)

            Atom       Atom       Distance
            H    20    H    17     7.39625
            H    16    H    15     5.50266
            H    11    H    12     1.77506


          SCF CALCULATIONS        =         50
 
          WALL-CLOCK TIME         =          1.051 SECONDS
          COMPUTATION TIME        =          0.426 SECONDS




   ATOM   CHEMICAL          X               Y               Z
  NUMBER   SYMBOL      (ANGSTROMS)     (ANGSTROMS)     (ANGSTROMS)
 
     1       C         -2.10711383  *  -1.00541218  *   0.00751439  *
     2       C          2.21671915  *   1.05377322  *  -0.00755143  *
     3       C         -1.61314351  *   0.42175864  *  -0.05428428  *
     4       C         -0.14624395  *   0.37544151  *  -0.02189480  *
     5       C          0.23875472  *  -1.04463006  *   0.05742533  *
     6       C         -0.85503705  *  -1.83338452  *   0.07474104  *
     7       C          0.76074735  *   1.35874912  *  -0.05275126  *
     8       C          2.55962211  *  -0.39345307  *   0.07219915  *
     9       C          1.64582054  *  -1.37347236  *   0.10274157  *
    10       C         -2.37929194  *   1.50639574  *  -0.12463782  *
    11       H         -2.74884228  *  -1.17547920  *   0.89184863  *
    12       H         -2.71273188  *  -1.26475523  *  -0.88059708  *
    13       H          2.70163828  *   1.48773499  *  -0.90670594  *
    14       H          2.66536119  *   1.57670302  *   0.86263908  *
    15       H         -0.88253076  *  -2.92027202  *   0.12891536  *
    16       H          0.46836637  *   2.41282938  *  -0.11171001  *
    17       H          3.62970807  *  -0.62719289  *   0.10586361  *
    18       H          1.92567831  *  -2.43023072  *   0.16154815  *
    19       H         -1.96825894  *   2.51081791  *  -0.16682718  *
    20       H         -3.46324882  *   1.45415332  *  -0.14422088  *

                             CARTESIAN COORDINATES

   1    C       -2.107113834    -1.005412181     0.007514395
   2    C        2.216719151     1.053773215    -0.007551432
   3    C       -1.613143510     0.421758641    -0.054284280
   4    C       -0.146243953     0.375441515    -0.021894797
   5    C        0.238754723    -1.044630058     0.057425328
   6    C       -0.855037052    -1.833384517     0.074741035
   7    C        0.760747348     1.358749121    -0.052751264
   8    C        2.559622111    -0.393453067     0.072199148
   9    C        1.645820543    -1.373472364     0.102741570
  10    C       -2.379291936     1.506395741    -0.124637820
  11    H       -2.748842276    -1.175479205     0.891848626
  12    H       -2.712731878    -1.264755234    -0.880597085
  13    H        2.701638281     1.487734989    -0.906705941
  14    H        2.665361186     1.576703023     0.862639082
  15    H       -0.882530756    -2.920272018     0.128915361
  16    H        0.468366373     2.412829376    -0.111710014
  17    H        3.629708069    -0.627192888     0.105863606
  18    H        1.925678307    -2.430230718     0.161548149
  19    H       -1.968258945     2.510817912    -0.166827185
  20    H       -3.463248819     1.454153318    -0.144220880


           Empirical Formula: C10 H10  =    20 atoms



      MOLECULAR POINT GROUP   :   C1  


                  EIGENVALUES  
 -41.12408 -35.72445 -31.75609 -28.54468 -27.42965 -23.34475 -21.79471 -19.99768
 -18.88183 -17.15808 -16.20896 -16.05594 -15.24743 -15.03377 -14.60408 -14.32396
 -13.99239 -13.34939 -13.19419 -12.33422 -11.74451 -11.69414 -11.09457  -9.68117
  -8.34603  -0.17437   0.48923   1.69126   2.69758   3.09475   3.21451   3.31368
   3.42972   3.58215   3.70556   3.87255   3.98216   4.06691   4.23317   4.38087
   4.50545   4.51857   4.90715   5.09819   5.17359   5.33561   5.61809   6.07271
   6.24837   6.48720


              NET ATOMIC CHARGES AND DIPOLE CONTRIBUTIONS

  ATOM NO.   TYPE          CHARGE      No. of ELECS.   s-Pop       p-Pop       
    1          C          -0.025683        4.0257     1.14225     2.88344
    2          C          -0.021839        4.0218     1.13267     2.88916
    3          C          -0.066565        4.0666     1.18625     2.88031
    4          C          -0.052874        4.0529     1.17175     2.88112
    5          C          -0.059688        4.0597     1.17151     2.88818
    6          C          -0.136715        4.1367     1.20104     2.93567
    7          C          -0.116256        4.1163     1.18858     2.92767
    8          C          -0.133337        4.1333     1.19620     2.93714
    9          C          -0.082271        4.0823     1.16988     2.91239
   10          C          -0.155869        4.1559     1.17571     2.98016
   11          H           0.065814        0.9342     0.93419
   12          H           0.065814        0.9342     0.93419
   13          H           0.063772        0.9362     0.93623
   14          H           0.063776        0.9362     0.93622
   15          H           0.115445        0.8846     0.88455
   16          H           0.105252        0.8947     0.89475
   17          H           0.097318        0.9027     0.90268
   18          H           0.103593        0.8964     0.89641
   19          H           0.085525        0.9145     0.91447
   20          H           0.084786        0.9152     0.91521
 DIPOLE           X         Y         Z       TOTAL
 POINT-CHG.     0.241     0.084     0.001     0.255
 HYBRID        -0.000     0.045    -0.002     0.045
 SUM            0.241     0.129    -0.001     0.273


          ATOMIC ORBITAL ELECTRON POPULATIONS

     Atom    s        px        py        pz   
    1  C   1.14225   0.95769   0.91656   1.00919
    2  C   1.13267   0.94067   0.94290   1.00560
    3  C   1.18625   0.93072   0.95483   0.99476
    4  C   1.17175   0.92739   0.94052   1.01321
    5  C   1.17151   0.93738   0.93730   1.01349
    6  C   1.20104   0.94549   0.97812   1.01207
    7  C   1.18858   0.94733   0.97786   1.00248
    8  C   1.19620   0.98260   0.95296   1.00158
    9  C   1.16988   0.92401   0.97626   1.01212
   10  C   1.17571   0.98947   0.96936   1.02134
   11  H   0.93419
   12  H   0.93419
   13  H   0.93623
   14  H   0.93622
   15  H   0.88455
   16  H   0.89475
   17  H   0.90268
   18  H   0.89641
   19  H   0.91447
   20  H   0.91521
 *******************************************************************************
 ** Site#: 14399        For non-commercial use only    Version 18.184L 64BITS **
 *******************************************************************************
 ** Cite this program as: MOPAC2016, Version: 18.184L, James J. P. Stewart,   **
 ** Stewart Computational Chemistry, web: HTTP://OpenMOPAC.net. Days left:  20**
 *******************************************************************************
 **                                                                           **
 **                                MOPAC2016                                  **
 **                                                                           **
 *******************************************************************************

                              PM3 CALCULATION RESULTS

 *******************************************************************************
 *  CALCULATION DONE:                                Thu Jun 13 15:53:01 2019  *
 *  PM3        - The PM3 Hamiltonian to be used
 *  OLDGEO     - PREVIOUS GEOMETRY TO BE USED
 *  PRECISE    - CRITERIA TO BE INCREASED BY 100 TIMES
 *  NOSYM      - POINT-GROUP SYMMETRY SET TO C1
 *  THREADS=1  - MULTI-THREADING NOT USED
 *  T=         - A TIME OF 172800.0 SECONDS REQUESTED
 *  DUMP=N     - RESTART FILE WRITTEN EVERY  7200.000 SECONDS
 *  THERMO     - THERMODYNAMIC QUANTITIES TO BE CALCULATED
 *******************************************************************************
oldgeo thermo nosym precise THREADS=1  pm3
 InChI=1S/C10H10/c1-8-6-7-9-4-2-3-5-10(8)9/h2,4-5,7H,1,3,6H2

   ATOM   CHEMICAL          X               Y               Z
  NUMBER   SYMBOL      (ANGSTROMS)     (ANGSTROMS)     (ANGSTROMS)
 
     1       C         -2.10711383  *  -1.00541218  *   0.00751439  *
     2       C          2.21671915  *   1.05377322  *  -0.00755143  *
     3       C         -1.61314351  *   0.42175864  *  -0.05428428  *
     4       C         -0.14624395  *   0.37544151  *  -0.02189480  *
     5       C          0.23875472  *  -1.04463006  *   0.05742533  *
     6       C         -0.85503705  *  -1.83338452  *   0.07474104  *
     7       C          0.76074735  *   1.35874912  *  -0.05275126  *
     8       C          2.55962211  *  -0.39345307  *   0.07219915  *
     9       C          1.64582054  *  -1.37347236  *   0.10274157  *
    10       C         -2.37929194  *   1.50639574  *  -0.12463782  *
    11       H         -2.74884228  *  -1.17547920  *   0.89184863  *
    12       H         -2.71273188  *  -1.26475523  *  -0.88059708  *
    13       H          2.70163828  *   1.48773499  *  -0.90670594  *
    14       H          2.66536119  *   1.57670302  *   0.86263908  *
    15       H         -0.88253076  *  -2.92027202  *   0.12891536  *
    16       H          0.46836637  *   2.41282938  *  -0.11171001  *
    17       H          3.62970807  *  -0.62719289  *   0.10586361  *
    18       H          1.92567831  *  -2.43023072  *   0.16154815  *
    19       H         -1.96825894  *   2.51081791  *  -0.16682718  *
    20       H         -3.46324882  *   1.45415332  *  -0.14422088  *
 


          CARTESIAN COORDINATES 

    NO.       ATOM           X           Y           Z

     1         C         -2.1071     -1.0054      0.0075
     2         C          2.2167      1.0538     -0.0076
     3         C         -1.6131      0.4218     -0.0543
     4         C         -0.1462      0.3754     -0.0219
     5         C          0.2388     -1.0446      0.0574
     6         C         -0.8550     -1.8334      0.0747
     7         C          0.7607      1.3587     -0.0528
     8         C          2.5596     -0.3935      0.0722
     9         C          1.6458     -1.3735      0.1027
    10         C         -2.3793      1.5064     -0.1246
    11         H         -2.7488     -1.1755      0.8918
    12         H         -2.7127     -1.2648     -0.8806
    13         H          2.7016      1.4877     -0.9067
    14         H          2.6654      1.5767      0.8626
    15         H         -0.8825     -2.9203      0.1289
    16         H          0.4684      2.4128     -0.1117
    17         H          3.6297     -0.6272      0.1059
    18         H          1.9257     -2.4302      0.1615
    19         H         -1.9683      2.5108     -0.1668
    20         H         -3.4632      1.4542     -0.1442

  H: (PM3): J. J. P. STEWART, J. COMP. CHEM. 10, 209 (1989).
  C: (PM3): J. J. P. STEWART, J. COMP. CHEM. 10, 209 (1989).

           Empirical Formula: C10 H10  =    20 atoms



      MOLECULAR POINT GROUP   :   C1  


      RHF CALCULATION, NO. OF DOUBLY OCCUPIED LEVELS = 25



          HEAT OF FORMATION =      54.753181 KCALS/MOLE


          CARTESIAN COORDINATE DERIVATIVES

   NUMBER  ATOM         X            Y            Z

     1       C      0.009713     0.002121    -0.002985
     2       C     -0.005001     0.005574    -0.008383
     3       C     -0.000199     0.000968    -0.007381
     4       C     -0.005242    -0.003397    -0.000157
     5       C     -0.001742    -0.005586     0.012968
     6       C      0.002335    -0.005943    -0.006308
     7       C      0.008005    -0.010061     0.009245
     8       C      0.007940    -0.005166    -0.004190
     9       C     -0.008179     0.002536    -0.005406
    10       C     -0.002328     0.001537     0.000661
    11       H      0.007841    -0.000882     0.005545
    12       H      0.005908     0.001872    -0.002354
    13       H     -0.003310     0.002587     0.002027
    14       H     -0.002800     0.009309     0.002491
    15       H     -0.002722     0.003952     0.002911
    16       H      0.000996     0.001400    -0.001299
    17       H      0.000587     0.000356     0.002852
    18       H     -0.009099     0.001431    -0.000748
    19       H     -0.000055    -0.000387    -0.000600
    20       H     -0.002647    -0.002221     0.001111
 


          GRADIENT NORM =   0.03852


          TIME FOR SCF CALCULATION =    0.02

          TIME FOR DERIVATIVES     =    0.01

          MOLECULAR WEIGHT =  130.19



          ROTATIONAL CONSTANTS IN CM(-1)

          A =    0.08585522   B =    0.04145961   C =    0.02825556



           PRINCIPAL MOMENTS OF INERTIA IN UNITS OF 10**(-40)*GRAM-CM**2

          A =      326.0463   B =      675.1817   C =      990.6996


          ORIENTATION OF MOLECULE IN FORCE CALCULATION

    NO.       ATOM         X         Y         Z

     1          C      -2.3251    0.0805    0.0001
     2          C       2.4641    0.0805    0.0001
     3          C      -1.2653    1.1582    0.0001
     4          C       0.0391    0.4847    0.0001
     5          C      -0.2242   -0.9651   -0.0001
     6          C      -1.5509   -1.2073   -0.0001
     7          C       1.2808    0.9832    0.0002
     8          C       2.1512   -1.3757   -0.0002
     9          C       0.9047   -1.8683   -0.0002
    10          C      -1.4904    2.4688    0.0001
    11          H      -2.9804    0.1548    0.8877
    12          H      -2.9806    0.1550   -0.8874
    13          H       3.0913    0.3122   -0.8859
    14          H       3.0912    0.3120    0.8861
    15          H      -2.0432   -2.1782   -0.0001
    16          H       1.4703    2.0621    0.0003
    17          H       3.0167   -2.0478   -0.0002
    18          H       0.7028   -2.9443   -0.0004
    19          H      -0.6873    3.2000    0.0001
    20          H      -2.4914    2.8883    0.0001


    FIRST DERIVATIVES WILL BE USED IN THE CALCULATION OF SECOND DERIVATIVES

          ESTIMATED TIME TO COMPLETE CALCULATION =        8.44 SECONDS

    FOR POINT-GROUP C1   THERE ARE   1 UNIQUE SYMMETRY FUNCTIONS.

 STEP:   1 TIME =     0.05 SECS, INTEGRAL =      0.05 TIME LEFT: 172799.91
 STEP:   2 TIME =     0.05 SECS, INTEGRAL =      0.10 TIME LEFT: 172799.87
 STEP:   3 TIME =     0.05 SECS, INTEGRAL =      0.14 TIME LEFT: 172799.82
 STEP:   4 TIME =     0.04 SECS, INTEGRAL =      0.19 TIME LEFT: 172799.78
 STEP:   5 TIME =     0.05 SECS, INTEGRAL =      0.23 TIME LEFT: 172799.73
 STEP:   6 TIME =     0.04 SECS, INTEGRAL =      0.28 TIME LEFT: 172799.69
 STEP:   7 TIME =     0.05 SECS, INTEGRAL =      0.32 TIME LEFT: 172799.64
 STEP:   8 TIME =     0.05 SECS, INTEGRAL =      0.37 TIME LEFT: 172799.59
 STEP:   9 TIME =     0.05 SECS, INTEGRAL =      0.42 TIME LEFT: 172799.55
 STEP:  10 TIME =     0.05 SECS, INTEGRAL =      0.46 TIME LEFT: 172799.50
 STEP:  11 TIME =     0.04 SECS, INTEGRAL =      0.51 TIME LEFT: 172799.46
 STEP:  12 TIME =     0.05 SECS, INTEGRAL =      0.56 TIME LEFT: 172799.41
 STEP:  13 TIME =     0.05 SECS, INTEGRAL =      0.61 TIME LEFT: 172799.36
 STEP:  14 TIME =     0.04 SECS, INTEGRAL =      0.65 TIME LEFT: 172799.32
 STEP:  15 TIME =     0.05 SECS, INTEGRAL =      0.70 TIME LEFT: 172799.27
 STEP:  16 TIME =     0.05 SECS, INTEGRAL =      0.74 TIME LEFT: 172799.22
 STEP:  17 TIME =     0.04 SECS, INTEGRAL =      0.79 TIME LEFT: 172799.18
 STEP:  18 TIME =     0.05 SECS, INTEGRAL =      0.83 TIME LEFT: 172799.13
 STEP:  19 TIME =     0.05 SECS, INTEGRAL =      0.88 TIME LEFT: 172799.09
 STEP:  20 TIME =     0.04 SECS, INTEGRAL =      0.92 TIME LEFT: 172799.04
 STEP:  21 TIME =     0.05 SECS, INTEGRAL =      0.97 TIME LEFT: 172798.99
 STEP:  22 TIME =     0.04 SECS, INTEGRAL =      1.02 TIME LEFT: 172798.95
 STEP:  23 TIME =     0.05 SECS, INTEGRAL =      1.06 TIME LEFT: 172798.90
 STEP:  24 TIME =     0.05 SECS, INTEGRAL =      1.11 TIME LEFT: 172798.86
 STEP:  25 TIME =     0.05 SECS, INTEGRAL =      1.16 TIME LEFT: 172798.81
 STEP:  26 TIME =     0.04 SECS, INTEGRAL =      1.20 TIME LEFT: 172798.77
 STEP:  27 TIME =     0.05 SECS, INTEGRAL =      1.25 TIME LEFT: 172798.72
 STEP:  28 TIME =     0.04 SECS, INTEGRAL =      1.29 TIME LEFT: 172798.68
 STEP:  29 TIME =     0.04 SECS, INTEGRAL =      1.33 TIME LEFT: 172798.63
 STEP:  30 TIME =     0.05 SECS, INTEGRAL =      1.38 TIME LEFT: 172798.59
 STEP:  31 TIME =     0.04 SECS, INTEGRAL =      1.42 TIME LEFT: 172798.54
 STEP:  32 TIME =     0.05 SECS, INTEGRAL =      1.47 TIME LEFT: 172798.50
 STEP:  33 TIME =     0.05 SECS, INTEGRAL =      1.52 TIME LEFT: 172798.45
 STEP:  34 TIME =     0.04 SECS, INTEGRAL =      1.56 TIME LEFT: 172798.41
 STEP:  35 TIME =     0.05 SECS, INTEGRAL =      1.61 TIME LEFT: 172798.36
 STEP:  36 TIME =     0.05 SECS, INTEGRAL =      1.65 TIME LEFT: 172798.31
 STEP:  37 TIME =     0.05 SECS, INTEGRAL =      1.70 TIME LEFT: 172798.27
 STEP:  38 TIME =     0.05 SECS, INTEGRAL =      1.75 TIME LEFT: 172798.22
 STEP:  39 TIME =     0.04 SECS, INTEGRAL =      1.79 TIME LEFT: 172798.18
 STEP:  40 TIME =     0.05 SECS, INTEGRAL =      1.84 TIME LEFT: 172798.13
 STEP:  41 TIME =     0.05 SECS, INTEGRAL =      1.88 TIME LEFT: 172798.08
 STEP:  42 TIME =     0.04 SECS, INTEGRAL =      1.93 TIME LEFT: 172798.04
 STEP:  43 TIME =     0.05 SECS, INTEGRAL =      1.97 TIME LEFT: 172797.99
 STEP:  44 TIME =     0.04 SECS, INTEGRAL =      2.02 TIME LEFT: 172797.95
 STEP:  45 TIME =     0.05 SECS, INTEGRAL =      2.06 TIME LEFT: 172797.90
 STEP:  46 TIME =     0.04 SECS, INTEGRAL =      2.11 TIME LEFT: 172797.86
 STEP:  47 TIME =     0.05 SECS, INTEGRAL =      2.15 TIME LEFT: 172797.81
 STEP:  48 TIME =     0.05 SECS, INTEGRAL =      2.20 TIME LEFT: 172797.77
 STEP:  49 TIME =     0.05 SECS, INTEGRAL =      2.25 TIME LEFT: 172797.72
 STEP:  50 TIME =     0.05 SECS, INTEGRAL =      2.29 TIME LEFT: 172797.67
 STEP:  51 TIME =     0.05 SECS, INTEGRAL =      2.34 TIME LEFT: 172797.62
 STEP:  52 TIME =     0.05 SECS, INTEGRAL =      2.39 TIME LEFT: 172797.57
 STEP:  53 TIME =     0.04 SECS, INTEGRAL =      2.43 TIME LEFT: 172797.53
 STEP:  54 TIME =     0.05 SECS, INTEGRAL =      2.48 TIME LEFT: 172797.48
 STEP:  55 TIME =     0.05 SECS, INTEGRAL =      2.53 TIME LEFT: 172797.44
 STEP:  56 TIME =     0.05 SECS, INTEGRAL =      2.57 TIME LEFT: 172797.39
 STEP:  57 TIME =     0.05 SECS, INTEGRAL =      2.62 TIME LEFT: 172797.34
 STEP:  58 TIME =     0.05 SECS, INTEGRAL =      2.67 TIME LEFT: 172797.30
 STEP:  59 TIME =     0.05 SECS, INTEGRAL =      2.71 TIME LEFT: 172797.25
 STEP:  60 TIME =     0.05 SECS, INTEGRAL =      2.76 TIME LEFT: 172797.20

(To convert to Hartree/Bohr^2, multiply by (10^(-21) x N x a0^2)/(4.184 x 627.51) =  0.0642)


           FORCE MATRIX IN MILLIDYNES/ANGSTROM


                  C  1       C  2       C  3       C  4       C  5       C  6
 ------------------------------------------------------------------------------
     C    1  14.794041
     C    2   0.004972  14.946927
     C    3   4.184748   0.137125  19.272086
     C    4   0.878581   0.897836   5.005127  19.860906
     C    5   1.212807   0.191585   1.024231   4.944961  19.901698
     C    6   4.464445   0.030655   0.975928   1.380676   9.722914  17.983184
     C    7   0.055580   4.898842   0.771152  10.156999   0.966762   0.107086
     C    8   0.018515   4.872146   0.006529   0.067790   1.176545   0.119938
     C    9   0.127900   0.812129   0.051338   0.676515   5.877058   0.843741
     C   10   0.686888   0.013957  10.720809   0.865184   0.051148   0.053944
     H   11   4.498631   0.000943   0.431635   0.031132   0.035479   0.425658
     H   12   4.498587   0.000907   0.431717   0.031088   0.035503   0.425668
     H   13   0.001683   4.367927   0.018191   0.037914   0.014982   0.004434
     H   14   0.001687   4.367711   0.018198   0.037947   0.015000   0.004427
     H   15   0.404970   0.003081   0.043243   0.105166   0.456022   5.052122
     H   16   0.007945   0.423036   0.071059   0.459337   0.115861   0.009823
     H   17   0.009315   0.422158   0.001786   0.004808   0.126586   0.007702
     H   18   0.002946   0.120422   0.006850   0.039394   0.441998   0.012683
     H   19   0.122291   0.007728   0.477749   0.092416   0.004826   0.006547
     H   20   0.084860   0.007120   0.475212   0.130484   0.008335   0.002252


                  C  7       C  8       C  9       C 10       H 11       H 12
 ------------------------------------------------------------------------------
     C    7  18.047261
     C    8   0.690528  17.962568
     C    9   0.045238  10.270887  18.565747
     C   10   0.104538   0.003379   0.010352  17.979529
     H   11   0.004125   0.002028   0.018855   0.019487   5.098913
     H   12   0.004122   0.002039   0.018869   0.019486   0.553553   5.099042
     H   13   0.413437   0.416104   0.038002   0.001646   0.000304   0.000541
     H   14   0.413378   0.416115   0.037989   0.001660   0.000548   0.000309
     H   15   0.008533   0.006208   0.054002   0.007484   0.012027   0.012048
     H   16   4.830222   0.045402   0.005523   0.012816   0.000641   0.000635
     H   17   0.046262   4.825064   0.438954   0.000718   0.001588   0.001586
     H   18   0.004101   0.444647   4.853941   0.001705   0.000756   0.000758
     H   19   0.014894   0.000877   0.001087   5.086257   0.012013   0.012012
     H   20   0.007363   0.000381   0.001781   5.114896   0.010001   0.009993


                  H 13       H 14       H 15       H 16       H 17       H 18
 ------------------------------------------------------------------------------
     H   13   4.955167
     H   14   0.565182   4.954957
     H   15   0.001048   0.001044   5.449677
     H   16   0.026163   0.026165   0.007569   5.213790
     H   17   0.028985   0.028978   0.003565   0.006385   5.198387
     H   18   0.015494   0.015477   0.006434   0.001207   0.066502   5.223671
     H   19   0.000992   0.000992   0.001367   0.020534   0.000227   0.000170
     H   20   0.001213   0.001222   0.001029   0.006738   0.000143   0.000379


                  H 19       H 20
 ------------------------------
     H   19   5.466203
     H   20   0.405991   5.488932


          HEAT OF FORMATION =      54.753181 KCALS/MOLE

          ZERO POINT ENERGY     105.055 KCAL/MOL


           NORMAL COORDINATE ANALYSIS (Total motion = 1 Angstrom)


   Root No.       1         2         3         4         5         6         7         8

                 1 A       2 A       3 A       4 A       5 A       6 A       7 A       8 A   

                  90.1     177.8     204.8     276.4     299.3     396.4     469.2     509.3
  
           1   -0.0000   -0.0000   -0.0000   -0.0129    0.0000    0.0000   -0.0046    0.0000
           2   -0.0000    0.0000    0.0000   -0.0046    0.0000   -0.0000   -0.0412    0.0000
           3   -0.0449   -0.0170   -0.0468    0.0000   -0.0091    0.0097    0.0000    0.0022
           4    0.0000    0.0000   -0.0000   -0.0168    0.0000   -0.0000   -0.0259   -0.0000
           5    0.0000    0.0000    0.0000    0.0377   -0.0000    0.0000   -0.0205   -0.0000
           6   -0.0388   -0.0440    0.0170   -0.0000   -0.0123    0.0044   -0.0000   -0.0014
           7   -0.0000   -0.0000   -0.0000   -0.0037   -0.0000   -0.0000   -0.0354   -0.0000
           8   -0.0000   -0.0000   -0.0000   -0.0164    0.0000    0.0000   -0.0004    0.0000
           9    0.0023    0.0182   -0.0139   -0.0000   -0.0255   -0.0416   -0.0000    0.0737
          10   -0.0000   -0.0000   -0.0000   -0.0172    0.0000   -0.0000   -0.0085   -0.0000
          11    0.0000   -0.0000   -0.0000   -0.0303    0.0000    0.0000    0.0425    0.0000
          12   -0.0055    0.0572    0.0094   -0.0000   -0.0378   -0.0380    0.0000   -0.0188
          13    0.0000    0.0000   -0.0000   -0.0157    0.0000    0.0000    0.0259    0.0000
          14   -0.0000   -0.0000   -0.0000   -0.0277    0.0000    0.0000    0.0399    0.0000
          15    0.0081    0.0256    0.0436   -0.0000   -0.0357   -0.0015    0.0000   -0.0541
          16    0.0000    0.0000   -0.0000   -0.0195    0.0000    0.0000    0.0403    0.0000
          17    0.0000    0.0000   -0.0000   -0.0159    0.0000   -0.0000   -0.0105    0.0000
          18   -0.0186   -0.0174    0.0500    0.0000    0.0484   -0.0185   -0.0000    0.0022
          19   -0.0000    0.0000   -0.0000   -0.0335    0.0000   -0.0000   -0.0003   -0.0000
          20    0.0000   -0.0000   -0.0000    0.0060   -0.0000    0.0000    0.0235   -0.0000
          21   -0.0309    0.0545   -0.0034    0.0000    0.0487    0.0288   -0.0000   -0.0061
          22    0.0000    0.0000    0.0000   -0.0009    0.0000   -0.0000   -0.0112    0.0000
          23   -0.0000   -0.0000    0.0000    0.0343   -0.0000    0.0000   -0.0246   -0.0000
          24    0.0265   -0.0257   -0.0495    0.0000    0.0198   -0.0434    0.0000   -0.0167
          25    0.0000   -0.0000    0.0000    0.0098   -0.0000   -0.0000   -0.0153    0.0000
          26   -0.0000   -0.0000    0.0000    0.0023   -0.0000   -0.0000   -0.0015   -0.0000
          27    0.0456    0.0158   -0.0044   -0.0000   -0.0198    0.0577   -0.0000    0.0258
          28    0.0000    0.0000    0.0000    0.0947   -0.0000    0.0000    0.0231    0.0000
          29   -0.0000   -0.0000   -0.0000    0.0004    0.0000    0.0000    0.0102    0.0000
          30    0.0595   -0.0367    0.0098   -0.0000    0.0089    0.0119   -0.0000   -0.0133
          31   -0.0381   -0.0195   -0.0737   -0.0119   -0.0259    0.0699   -0.0070   -0.0965
          32   -0.0038   -0.0116    0.0375   -0.0004    0.0372   -0.0019   -0.0726   -0.0287
          33   -0.0729   -0.0304   -0.1053    0.0001   -0.0320    0.0630    0.0004   -0.0693
          34    0.0381    0.0195    0.0737   -0.0119    0.0259   -0.0698   -0.0071    0.0965
          35    0.0038    0.0116   -0.0375   -0.0004   -0.0372    0.0018   -0.0726    0.0286
          36   -0.0729   -0.0305   -0.1053   -0.0001   -0.0320    0.0630   -0.0003   -0.0694
          37   -0.0323   -0.0825    0.0470   -0.0214   -0.0743    0.0137   -0.0237    0.0534
          38   -0.0339    0.0045    0.0375    0.0496   -0.0139    0.0493   -0.0306    0.0286
          39   -0.0706   -0.1020    0.0607   -0.0001   -0.0698    0.0277   -0.0009    0.0457
          40    0.0323    0.0826   -0.0470   -0.0212    0.0744   -0.0137   -0.0237   -0.0534
          41    0.0340   -0.0044   -0.0375    0.0496    0.0138   -0.0493   -0.0305   -0.0286
          42   -0.0706   -0.1020    0.0607   -0.0000   -0.0698    0.0277    0.0009    0.0457
          43    0.0000    0.0000    0.0000   -0.0314    0.0000    0.0000    0.0935    0.0000
          44    0.0000    0.0000   -0.0000   -0.0098   -0.0000   -0.0000   -0.0375    0.0000
          45   -0.0207   -0.0530    0.0892    0.0001    0.1403   -0.0169   -0.0000    0.0680
          46   -0.0000   -0.0000   -0.0000   -0.0641    0.0000   -0.0000    0.0419   -0.0000
          47    0.0000   -0.0000    0.0000    0.0117   -0.0000    0.0000    0.0159   -0.0000
          48   -0.0480    0.0907   -0.0277    0.0001    0.1419    0.0870   -0.0000    0.0550
          49    0.0000    0.0000    0.0000    0.0120   -0.0000    0.0000   -0.0133    0.0000
          50   -0.0000    0.0000    0.0000    0.0504   -0.0000    0.0000   -0.0262    0.0000
          51    0.0558   -0.0482   -0.1242    0.0001    0.0627   -0.1118    0.0000   -0.0008
          52    0.0000   -0.0000    0.0000    0.0431   -0.0000   -0.0000   -0.0613    0.0000
          53   -0.0000   -0.0000    0.0000   -0.0038   -0.0000   -0.0000    0.0073   -0.0000
          54    0.0903    0.0342   -0.0293   -0.0000   -0.0205    0.1442   -0.0000    0.1336
          55    0.0000   -0.0000    0.0001    0.1605   -0.0001    0.0000    0.0822    0.0000
          56   -0.0000    0.0000   -0.0000   -0.0700    0.0000   -0.0000   -0.0522    0.0000
          57    0.0980   -0.0249    0.0425    0.0000    0.0122    0.0122    0.0001   -0.1111
          58    0.0000    0.0000    0.0000    0.1344   -0.0001    0.0000    0.0589    0.0000
          59    0.0000   -0.0000    0.0000    0.0923   -0.0000    0.0000    0.0919    0.0000
          60    0.0722   -0.0983   -0.0006   -0.0000    0.0396    0.0678   -0.0000   -0.0209


   Root No.       9        10        11        12        13        14        15        16

                 9 A      10 A      11 A      12 A      13 A      14 A      15 A      16 A   

                 532.6     538.4     604.4     683.8     717.9     767.7     799.4     816.4
  
           1   -0.0505   -0.0289    0.0000   -0.0605    0.0000    0.0000    0.0263   -0.0000
           2   -0.0179    0.0116    0.0000    0.0366   -0.0000   -0.0000    0.0041    0.0000
           3    0.0000    0.0000   -0.0005    0.0000   -0.0064    0.0100   -0.0000   -0.0273
           4    0.0697    0.0154   -0.0000   -0.0274    0.0000   -0.0000   -0.0528    0.0000
           5   -0.0044   -0.0261    0.0000   -0.0053    0.0000    0.0000   -0.0231    0.0000
           6   -0.0000   -0.0000   -0.0059   -0.0000   -0.0146   -0.0262   -0.0000   -0.0259
           7   -0.0216   -0.0548    0.0000   -0.0113   -0.0000    0.0000    0.0334   -0.0000
           8   -0.0337    0.0410    0.0000   -0.0446    0.0000    0.0000   -0.0144    0.0000
           9    0.0000   -0.0000   -0.0037   -0.0000   -0.0314   -0.0020    0.0000    0.0104
          10    0.0125   -0.0550    0.0000    0.0138   -0.0000   -0.0000   -0.0095    0.0000
          11    0.0132   -0.0021   -0.0000    0.0023   -0.0000   -0.0000    0.0023    0.0000
          12   -0.0000    0.0000    0.0169    0.0000    0.0613   -0.0223    0.0000    0.0070
          13   -0.0313    0.0099   -0.0000    0.0291   -0.0000   -0.0000   -0.0176    0.0000
          14    0.0321   -0.0105   -0.0000    0.0042    0.0000   -0.0000    0.0272   -0.0000
          15   -0.0000    0.0000   -0.0335   -0.0000   -0.0297    0.0358    0.0000    0.0168
          16   -0.0300    0.0023   -0.0000    0.0058   -0.0000   -0.0000   -0.0118    0.0000
          17    0.0005    0.0112   -0.0000    0.0770   -0.0000   -0.0000   -0.0179    0.0000
          18   -0.0000   -0.0000    0.0086    0.0000    0.0072    0.0106   -0.0000   -0.0166
          19    0.0403   -0.0295    0.0000   -0.0010   -0.0000   -0.0000   -0.0235    0.0000
          20   -0.0255   -0.0704    0.0000    0.0347   -0.0000   -0.0000    0.0021    0.0000
          21    0.0000   -0.0000   -0.0070    0.0000    0.0073   -0.0010   -0.0000   -0.0105
          22    0.0066    0.0844   -0.0000    0.0280    0.0000    0.0000    0.0426   -0.0000
          23    0.0151   -0.0332    0.0000   -0.0251    0.0000   -0.0000   -0.0318    0.0000
          24   -0.0000    0.0000   -0.0054   -0.0000   -0.0129   -0.0068    0.0000    0.0100
          25   -0.0144    0.0619   -0.0000    0.0271   -0.0000   -0.0000    0.0054    0.0000
          26    0.0651    0.0164   -0.0000   -0.0305    0.0000    0.0000    0.0765   -0.0000
          27    0.0000   -0.0000    0.0032   -0.0000   -0.0137   -0.0205    0.0000    0.0056
          28    0.0089   -0.0140   -0.0000    0.0034    0.0000    0.0000    0.0225   -0.0000
          29   -0.0335    0.0560   -0.0000   -0.0546    0.0000   -0.0000   -0.0263    0.0000
          30   -0.0000    0.0000    0.0019   -0.0000    0.0008   -0.0004    0.0000    0.0012
          31   -0.0532   -0.0332    0.0437   -0.0685    0.0228   -0.0328    0.0365    0.0812
          32   -0.0154   -0.0112    0.0148    0.0493    0.0302    0.0169    0.0401   -0.0491
          33   -0.0017   -0.0011    0.0322   -0.0048    0.0084   -0.0168    0.0034    0.0400
          34   -0.0531   -0.0334   -0.0436   -0.0685   -0.0228    0.0328    0.0363   -0.0813
          35   -0.0154   -0.0113   -0.0148    0.0492   -0.0302   -0.0169    0.0402    0.0491
          36    0.0017    0.0012    0.0322    0.0048    0.0084   -0.0168   -0.0033    0.0400
          37    0.0770    0.0016    0.0361   -0.0317    0.0477    0.0782   -0.0748    0.0771
          38   -0.0126    0.0134    0.0127   -0.0027    0.0332    0.0351    0.0035    0.0030
          39    0.0025    0.0003    0.0242   -0.0018    0.0299    0.0412   -0.0067    0.0317
          40    0.0770    0.0016   -0.0361   -0.0318   -0.0476   -0.0782   -0.0749   -0.0770
          41   -0.0126    0.0134   -0.0127   -0.0027   -0.0332   -0.0350    0.0035   -0.0030
          42   -0.0025   -0.0004    0.0242    0.0019    0.0299    0.0412    0.0067    0.0317
          43   -0.0010   -0.0102   -0.0000   -0.0002   -0.0000   -0.0000   -0.0072   -0.0000
          44   -0.0145    0.0173   -0.0000    0.0805   -0.0000   -0.0000   -0.0195    0.0000
          45    0.0001   -0.0000    0.0742   -0.0001    0.0489   -0.1630    0.0003    0.1747
          46    0.0541   -0.0174   -0.0000    0.0144   -0.0000   -0.0000   -0.0117    0.0000
          47   -0.0273   -0.0719    0.0000    0.0318    0.0000   -0.0000   -0.0004    0.0000
          48    0.0001   -0.0000    0.0031   -0.0000   -0.0813    0.1456    0.0001    0.1385
          49   -0.0341    0.0871   -0.0000    0.0562    0.0000   -0.0000    0.0295   -0.0000
          50   -0.0373   -0.0299    0.0000    0.0104   -0.0000   -0.0000   -0.0471    0.0000
          51   -0.0000    0.0000    0.0336    0.0001    0.1370    0.1809   -0.0000    0.0178
          52   -0.0232    0.0625   -0.0000    0.0195   -0.0000   -0.0000   -0.0577    0.0000
          53    0.0663    0.0157   -0.0000   -0.0289   -0.0000    0.0000    0.0892   -0.0000
          54    0.0001   -0.0001    0.0694    0.0001    0.1356    0.0556   -0.0001   -0.0997
          55    0.0448    0.0266   -0.0000    0.0205   -0.0000   -0.0000   -0.0348    0.0000
          56   -0.0723    0.0137    0.0000   -0.0753    0.0000    0.0000    0.0330   -0.0000
          57    0.0000    0.0002    0.2702    0.0001   -0.0698    0.0256   -0.0001   -0.0455
          58    0.0284    0.0135   -0.0000    0.0074    0.0000   -0.0000   -0.0189    0.0000
          59    0.0101    0.1220   -0.0000   -0.0481    0.0000   -0.0000   -0.1250    0.0001
          60   -0.0000   -0.0001   -0.2600   -0.0000    0.1340   -0.0224    0.0000    0.0199


   Root No.      17        18        19        20        21        22        23        24

                17 A      18 A      19 A      20 A      21 A      22 A      23 A      24 A   

                 865.7     887.6     920.9     942.0     963.5     998.9    1007.1    1013.2
  
           1   -0.0000   -0.0048   -0.0552    0.0000   -0.0000   -0.0043   -0.0000    0.0000
           2    0.0000   -0.0086   -0.0228    0.0000   -0.0000   -0.0014    0.0000   -0.0000
           3   -0.0186    0.0000   -0.0000   -0.0237    0.0366   -0.0000    0.0055   -0.0241
           4    0.0000   -0.0074    0.0049   -0.0000   -0.0000   -0.0442    0.0000    0.0000
           5   -0.0000   -0.0107    0.0016   -0.0000    0.0000   -0.0331    0.0000    0.0000
           6    0.0229   -0.0000    0.0000    0.0256    0.0149    0.0000    0.0302    0.0107
           7   -0.0000   -0.0052    0.0085   -0.0000    0.0000    0.0016   -0.0000    0.0000
           8   -0.0000    0.0098    0.0142   -0.0000    0.0000   -0.0003    0.0000    0.0000
           9    0.0200   -0.0000    0.0000    0.0068   -0.0172    0.0000   -0.0057    0.0234
          10    0.0000    0.0258    0.0049   -0.0000   -0.0000    0.0013    0.0000    0.0000
          11    0.0000    0.0213    0.0011    0.0000   -0.0000    0.0123   -0.0000   -0.0000
          12   -0.0273    0.0000    0.0000    0.0157    0.0104    0.0000    0.0146    0.0006
          13   -0.0000   -0.0340   -0.0030   -0.0000    0.0000   -0.0000    0.0000    0.0000
          14   -0.0000   -0.0279   -0.0019    0.0000   -0.0000   -0.0017    0.0000    0.0000
          15    0.0314   -0.0000   -0.0000   -0.0022    0.0169   -0.0000   -0.0100   -0.0151
          16   -0.0000   -0.0500   -0.0061   -0.0000    0.0000    0.0015    0.0000    0.0000
          17   -0.0000   -0.0458   -0.0083   -0.0000    0.0000    0.0027   -0.0000    0.0000
          18   -0.0108    0.0000    0.0000    0.0189   -0.0355    0.0000   -0.0077    0.0310
          19    0.0000    0.0277    0.0059   -0.0000   -0.0000    0.0182   -0.0000   -0.0000
          20    0.0000    0.0760    0.0161    0.0000    0.0000   -0.0317    0.0000    0.0000
          21    0.0111    0.0000   -0.0000   -0.0359   -0.0201   -0.0000   -0.0309   -0.0083
          22    0.0000    0.0331    0.0052    0.0000    0.0000   -0.0194   -0.0000    0.0000
          23    0.0000   -0.0268   -0.0066   -0.0000   -0.0000    0.0557   -0.0000   -0.0000
          24   -0.0234   -0.0000    0.0000    0.0063   -0.0047   -0.0000   -0.0406   -0.0157
          25    0.0000    0.0213    0.0049    0.0000    0.0000    0.0147   -0.0000   -0.0000
          26   -0.0000   -0.0075   -0.0132    0.0000    0.0000    0.0130   -0.0000   -0.0000
          27   -0.0237    0.0000   -0.0000   -0.0265   -0.0128    0.0000    0.0328    0.0172
          28   -0.0000   -0.0185    0.0491   -0.0000   -0.0000    0.0030    0.0000   -0.0000
          29    0.0000    0.0174    0.0317   -0.0000    0.0000   -0.0016    0.0000    0.0000
          30    0.0041   -0.0000    0.0000    0.0051   -0.0230   -0.0000    0.0149   -0.0433
          31    0.0478   -0.0058   -0.0728    0.0633   -0.0954   -0.0065   -0.0037    0.0478
          32   -0.0584    0.0136   -0.0639    0.0228   -0.0374   -0.0061    0.0808   -0.0765
          33    0.0236   -0.0020   -0.0088    0.0231   -0.0336   -0.0010   -0.0044    0.0196
          34   -0.0478   -0.0057   -0.0729   -0.0633    0.0954   -0.0065    0.0036   -0.0478
          35    0.0584    0.0135   -0.0638   -0.0227    0.0375   -0.0061   -0.0808    0.0764
          36    0.0237    0.0020    0.0088    0.0231   -0.0336    0.0010   -0.0045    0.0196
          37   -0.0681    0.0042    0.0099   -0.0343   -0.0219   -0.0404   -0.0734   -0.0311
          38    0.0162   -0.0474   -0.0067   -0.0768   -0.0376   -0.0985    0.0072    0.0169
          39   -0.0228   -0.0009    0.0012   -0.0203   -0.0113   -0.0148   -0.0213   -0.0073
          40    0.0681    0.0042    0.0099    0.0343    0.0218   -0.0404    0.0735    0.0311
          41   -0.0162   -0.0474   -0.0067    0.0768    0.0377   -0.0984   -0.0072   -0.0169
          42   -0.0228    0.0009   -0.0013   -0.0203   -0.0113    0.0147   -0.0213   -0.0073
          43   -0.0000   -0.1275    0.0554   -0.0000    0.0000    0.0032    0.0000   -0.0000
          44   -0.0000   -0.0099   -0.0409    0.0000   -0.0000    0.0021   -0.0000    0.0000
          45    0.0948   -0.0001   -0.0000   -0.0611    0.1299   -0.0000    0.0097   -0.0845
          46    0.0000    0.1014   -0.0024   -0.0000   -0.0000    0.1908   -0.0001   -0.0000
          47    0.0000    0.0653    0.0178   -0.0000   -0.0000   -0.0628    0.0000    0.0000
          48   -0.0977    0.0000    0.0001    0.1576    0.0912    0.0001    0.0903    0.0099
          49    0.0000    0.0519    0.0132   -0.0000   -0.0000    0.0456   -0.0000   -0.0000
          50   -0.0000   -0.0063    0.0027   -0.0000   -0.0000    0.1382   -0.0000   -0.0000
          51    0.1299    0.0000   -0.0001   -0.0921    0.0017    0.0001    0.1528    0.0601
          52   -0.0000    0.0704    0.0140   -0.0000   -0.0000    0.1916   -0.0000   -0.0000
          53   -0.0000   -0.0174   -0.0154   -0.0000   -0.0000   -0.0171    0.0000    0.0000
          54    0.1108   -0.0000    0.0001    0.1582    0.0631   -0.0000   -0.1243   -0.0653
          55    0.0000    0.0311   -0.1325    0.0000    0.0000   -0.0030   -0.0000    0.0000
          56   -0.0000   -0.0336    0.2274   -0.0001   -0.0000    0.0041    0.0000   -0.0000
          57   -0.0245    0.0000   -0.0000   -0.0464    0.1214    0.0000   -0.0639    0.1614
          58    0.0000    0.0181   -0.0497    0.0000   -0.0000   -0.0053   -0.0000    0.0000
          59    0.0000    0.1040   -0.1922    0.0001   -0.0000   -0.0217   -0.0000   -0.0000
          60   -0.0433    0.0000   -0.0000   -0.0027    0.0949    0.0000   -0.0506    0.1727


   Root No.      25        26        27        28        29        30        31        32

                25 A      26 A      27 A      28 A      29 A      30 A      31 A      32 A   

                1050.4    1055.6    1060.6    1072.2    1096.8    1142.2    1186.2    1217.5
  
           1   -0.0277   -0.0000   -0.0000   -0.0026    0.0216   -0.0003   -0.0123    0.0197
           2    0.0215    0.0000   -0.0000   -0.0082    0.0072    0.0023    0.0062    0.0189
           3   -0.0000   -0.0061    0.0026   -0.0000    0.0000   -0.0000   -0.0000    0.0000
           4    0.0002   -0.0000   -0.0000   -0.0100    0.0246   -0.0017   -0.0088    0.0102
           5    0.0027   -0.0000    0.0000    0.0157    0.0053   -0.0006    0.0109    0.0101
           6   -0.0000   -0.0051   -0.0010    0.0000    0.0000    0.0000    0.0000    0.0000
           7    0.0067   -0.0000    0.0000    0.0073   -0.0363    0.0017   -0.0046    0.0000
           8    0.0010   -0.0000    0.0000    0.0018   -0.0124    0.0004    0.0000    0.0033
           9    0.0000    0.0363   -0.0111    0.0000   -0.0000   -0.0000    0.0000   -0.0000
          10    0.0009   -0.0000    0.0000    0.0103   -0.0397    0.0010   -0.0012   -0.0192
          11    0.0005   -0.0000    0.0000    0.0158    0.0476    0.0032   -0.0276   -0.0029
          12   -0.0000   -0.0130    0.0110   -0.0000    0.0000    0.0000   -0.0000    0.0000
          13   -0.0002   -0.0000   -0.0000   -0.0079    0.0051   -0.0002    0.0203   -0.0207
          14    0.0067   -0.0000    0.0000    0.0076    0.0070   -0.0085   -0.0291   -0.0103
          15   -0.0000    0.0123   -0.0009    0.0000   -0.0000    0.0000   -0.0000   -0.0000
          16    0.0039    0.0000   -0.0000   -0.0118    0.0034    0.0038    0.0193   -0.0224
          17   -0.0444   -0.0000   -0.0000   -0.0034   -0.0207    0.0067   -0.0084    0.0230
          18    0.0000   -0.0248    0.0043   -0.0000    0.0000    0.0000   -0.0000    0.0000
          19    0.0031   -0.0000    0.0000    0.0234   -0.0153   -0.0016   -0.0077   -0.0212
          20   -0.0034    0.0000   -0.0000   -0.0276    0.0009    0.0049    0.0085    0.0140
          21    0.0000    0.0026   -0.0320    0.0000    0.0000    0.0000   -0.0000    0.0000
          22   -0.0009    0.0000    0.0000    0.0050   -0.0029   -0.0066    0.0014    0.0089
          23   -0.0003   -0.0000   -0.0000   -0.0116   -0.0007   -0.0072    0.0222   -0.0086
          24    0.0000    0.0125    0.0339   -0.0000   -0.0000   -0.0000    0.0000   -0.0000
          25    0.0014    0.0000   -0.0000   -0.0076    0.0026   -0.0019    0.0130   -0.0014
          26   -0.0119    0.0000   -0.0000   -0.0209   -0.0246    0.0094    0.0123   -0.0067
          27   -0.0000   -0.0085   -0.0108    0.0000    0.0000   -0.0000    0.0000   -0.0000
          28   -0.0089    0.0000   -0.0000   -0.0013    0.0267   -0.0004   -0.0021    0.0011
          29    0.0022   -0.0000   -0.0000    0.0003   -0.0157   -0.0005    0.0082   -0.0066
          30   -0.0000   -0.0235    0.0068   -0.0000   -0.0000    0.0000    0.0000   -0.0000
          31   -0.0203    0.0432   -0.0134   -0.0053    0.0437   -0.0013   -0.0286    0.0432
          32    0.2089    0.2246   -0.0574   -0.0207    0.1019   -0.0087    0.0278   -0.0948
          33   -0.0102    0.0076   -0.0028   -0.0008    0.0076    0.0001   -0.0119    0.0232
          34   -0.0204   -0.0432    0.0134   -0.0054    0.0437   -0.0013   -0.0286    0.0432
          35    0.2090   -0.2246    0.0574   -0.0209    0.1019   -0.0087    0.0278   -0.0948
          36    0.0102    0.0075   -0.0028    0.0008   -0.0076   -0.0001    0.0119   -0.0232
          37   -0.0030   -0.0103   -0.0994   -0.0745    0.0478   -0.0477    0.0031    0.0536
          38    0.0148    0.0591    0.2753    0.1934   -0.0008    0.1061   -0.0369   -0.0200
          39    0.0005    0.0033    0.0008   -0.0007    0.0122   -0.0025   -0.0038    0.0191
          40   -0.0031    0.0103    0.0993   -0.0746    0.0478   -0.0477    0.0031    0.0536
          41    0.0148   -0.0592   -0.2749    0.1938   -0.0008    0.1061   -0.0369   -0.0200
          42   -0.0005    0.0033    0.0007    0.0008   -0.0122    0.0025    0.0038   -0.0191
          43    0.2600    0.0000   -0.0000   -0.0347   -0.1206    0.0470   -0.0446    0.1712
          44   -0.1736   -0.0000   -0.0000    0.0070    0.0419   -0.0144    0.0238   -0.0741
          45   -0.0000    0.0462   -0.0013    0.0000   -0.0000   -0.0000    0.0000    0.0000
          46    0.0105   -0.0000    0.0002    0.1524    0.0792    0.0690    0.2099    0.1414
          47   -0.0046    0.0000   -0.0001   -0.0480   -0.0149   -0.0060   -0.0289   -0.0135
          48   -0.0000   -0.0198    0.0561   -0.0000   -0.0000   -0.0000    0.0000   -0.0000
          49    0.0201   -0.0000    0.0001    0.0684   -0.0085   -0.1977   -0.1035    0.0303
          50    0.0264   -0.0000    0.0001    0.0717   -0.0089   -0.2494   -0.1088    0.0165
          51    0.0000   -0.0270   -0.0590    0.0000    0.0000   -0.0000   -0.0000    0.0000
          52   -0.0019    0.0000   -0.0001   -0.0880    0.0256    0.2515   -0.2030   -0.0155
          53   -0.0119   -0.0000   -0.0000   -0.0072   -0.0302   -0.0382    0.0527   -0.0052
          54   -0.0000    0.0232    0.0207   -0.0000   -0.0000    0.0000   -0.0000    0.0000
          55    0.0098   -0.0000    0.0000    0.0050   -0.0136    0.0027   -0.0144    0.0334
          56   -0.0174    0.0000   -0.0000   -0.0066    0.0227   -0.0041    0.0224   -0.0454
          57    0.0000    0.0740   -0.0225    0.0000    0.0000   -0.0000   -0.0000   -0.0000
          58    0.0052   -0.0000    0.0000   -0.0002   -0.0237   -0.0012   -0.0000   -0.0174
          59    0.0364   -0.0000    0.0000    0.0020   -0.1384   -0.0027    0.0168   -0.0564
          60    0.0000    0.0874   -0.0229    0.0000    0.0000   -0.0000   -0.0000   -0.0000


   Root No.      33        34        35        36        37        38        39        40

                33 A      34 A      35 A      36 A      37 A      38 A      39 A      40 A   

                1298.9    1322.4    1336.4    1346.6    1372.9    1388.7    1426.9    1533.1
  
           1    0.0087   -0.0035    0.0116    0.0043    0.0239    0.0520    0.0216    0.0255
           2   -0.0352    0.0008    0.0815    0.0390   -0.0133   -0.0156    0.0175    0.0058
           3   -0.0000   -0.0000    0.0000    0.0000   -0.0000   -0.0000    0.0000   -0.0000
           4    0.0018   -0.0055    0.0153   -0.0015    0.0427   -0.0179   -0.0565    0.0125
           5   -0.0039   -0.0040   -0.0376    0.0150    0.0186   -0.0219    0.1081   -0.0471
           6   -0.0000    0.0000   -0.0000    0.0000    0.0000   -0.0000    0.0000   -0.0000
           7   -0.0245    0.0261   -0.0675    0.0233    0.0035   -0.0261   -0.0573   -0.0308
           8   -0.0208    0.0017   -0.0160   -0.0182   -0.0001   -0.0055   -0.0075   -0.0041
           9   -0.0000    0.0000   -0.0000   -0.0000   -0.0000   -0.0000   -0.0000    0.0000
          10    0.0046   -0.0092    0.0146   -0.0135   -0.0103    0.0049    0.0394    0.0258
          11   -0.0201   -0.0153   -0.0258    0.0335   -0.0127    0.0150   -0.0293   -0.1059
          12   -0.0000   -0.0000   -0.0000    0.0000   -0.0000    0.0000   -0.0000   -0.0000
          13   -0.0040    0.0093    0.0096   -0.0043   -0.0010   -0.0105   -0.0051   -0.0061
          14   -0.0061    0.0093   -0.0257    0.0162    0.0020   -0.0198    0.0262    0.1578
          15   -0.0000    0.0000   -0.0000    0.0000    0.0000   -0.0000    0.0000    0.0000
          16   -0.0069    0.0204    0.0287   -0.0082    0.0050   -0.0213    0.0019   -0.0417
          17    0.0347   -0.0099   -0.0347   -0.0210    0.0100    0.0239   -0.0102   -0.0210
          18    0.0000   -0.0000   -0.0000   -0.0000    0.0000    0.0000    0.0000    0.0000
          19   -0.0019   -0.0243    0.0190   -0.0059   -0.0195    0.0160    0.0437   -0.0327
          20    0.0089    0.0082    0.0227   -0.0146    0.0096   -0.0013   -0.0409    0.0228
          21    0.0000   -0.0000    0.0000   -0.0000    0.0000   -0.0000   -0.0000   -0.0000
          22   -0.0005   -0.0081   -0.0169    0.0067   -0.0022    0.0037    0.0147    0.0171
          23   -0.0078   -0.0206   -0.0049    0.0072   -0.0205    0.0192   -0.0465    0.0462
          24   -0.0000   -0.0000    0.0000    0.0000   -0.0000    0.0000   -0.0000    0.0000
          25   -0.0095   -0.0201   -0.0180    0.0128   -0.0193    0.0147   -0.0216    0.0383
          26    0.0098    0.0146    0.0306   -0.0204    0.0063   -0.0030    0.0016   -0.0607
          27    0.0000    0.0000    0.0000   -0.0000   -0.0000   -0.0000   -0.0000   -0.0000
          28    0.0076   -0.0057    0.0106    0.0025   -0.0003    0.0065    0.0058   -0.0011
          29   -0.0036   -0.0027   -0.0034   -0.0343   -0.0003   -0.0010    0.0110    0.0142
          30   -0.0000    0.0000   -0.0000   -0.0000    0.0000   -0.0000   -0.0000   -0.0000
          31    0.0945   -0.0754   -0.0037   -0.0377   -0.0963   -0.1301   -0.0183   -0.0060
          32    0.0709    0.0040   -0.0758   -0.0770    0.0258    0.0279    0.0012   -0.0130
          33    0.0483   -0.0472    0.0022   -0.0192   -0.0808   -0.1204   -0.0239   -0.0194
          34    0.0945   -0.0754   -0.0037   -0.0377   -0.0963   -0.1300   -0.0183   -0.0060
          35    0.0709    0.0040   -0.0758   -0.0770    0.0258    0.0279    0.0012   -0.0130
          36   -0.0483    0.0473   -0.0022    0.0192    0.0809    0.1205    0.0239    0.0194
          37    0.0151    0.1204   -0.0447   -0.0057   -0.1226    0.0410    0.0570   -0.0104
          38    0.0188    0.0424    0.0752   -0.0374   -0.0530    0.0370   -0.1090    0.0302
          39    0.0130    0.0869   -0.0112   -0.0144   -0.1169    0.0491    0.0205    0.0035
          40    0.0151    0.1204   -0.0447   -0.0057   -0.1226    0.0410    0.0570   -0.0104
          41    0.0188    0.0424    0.0752   -0.0374   -0.0530    0.0370   -0.1090    0.0302
          42   -0.0130   -0.0869    0.0112    0.0144    0.1169   -0.0491   -0.0205   -0.0035
          43    0.0387   -0.0514    0.0090   -0.0006    0.0045    0.0673   -0.0094   -0.0576
          44    0.0136    0.0272   -0.0239   -0.0262    0.0118   -0.0203   -0.0040   -0.0159
          45    0.0000    0.0000   -0.0000   -0.0000   -0.0000   -0.0000   -0.0000   -0.0000
          46    0.0511    0.0727   -0.0211   -0.0095    0.0690   -0.0557    0.0165    0.0724
          47   -0.0001   -0.0091    0.0314   -0.0149   -0.0050    0.0114   -0.0375    0.0019
          48    0.0000    0.0000   -0.0000   -0.0000    0.0000   -0.0000    0.0000    0.0000
          49    0.0302    0.0514    0.0516   -0.0320    0.0499   -0.0295    0.0127   -0.0533
          50    0.0310    0.0553    0.0849   -0.0430    0.0436   -0.0220   -0.0520   -0.0460
          51    0.0000    0.0000    0.0000   -0.0000    0.0000   -0.0000   -0.0000   -0.0000
          52    0.0229    0.0791    0.0178   -0.0185    0.0482   -0.0552    0.0823    0.0022
          53    0.0044   -0.0025    0.0265   -0.0163   -0.0064    0.0098   -0.0187   -0.0568
          54    0.0000   -0.0000    0.0000   -0.0000    0.0000    0.0000   -0.0000   -0.0000
          55   -0.1309   -0.0101   -0.0456   -0.1322   -0.0065   -0.0138    0.0008    0.0066
          56    0.1562    0.0040    0.0566    0.1212    0.0071    0.0210    0.0144    0.0052
          57    0.0000    0.0000    0.0000    0.0000    0.0000    0.0000    0.0000    0.0000
          58    0.0606    0.0137    0.0026    0.0868    0.0041    0.0017   -0.0195   -0.0168
          59    0.1400    0.0449   -0.0161    0.1784    0.0109   -0.0113   -0.0461   -0.0185
          60    0.0000   -0.0000    0.0000    0.0000   -0.0000    0.0000    0.0000    0.0000


   Root No.      41        42        43        44        45        46        47        48

                41 A      42 A      43 A      44 A      45 A      46 A      47 A      48 A   

                1829.0    1879.2    1905.7    1933.5    2925.9    2973.6    3004.7    3045.5
  
           1   -0.0080    0.0048   -0.0008   -0.0092    0.0000    0.0000   -0.0000   -0.0416
           2    0.0001    0.0117   -0.0110   -0.0116   -0.0000    0.0000    0.0000    0.0048
           3   -0.0000    0.0000   -0.0000    0.0000    0.0000   -0.0611   -0.0000   -0.0000
           4   -0.0099    0.0018   -0.0128    0.0125   -0.0000   -0.0000    0.0366   -0.0000
           5   -0.0247   -0.0103   -0.0019   -0.0055    0.0000    0.0000    0.0135   -0.0000
           6   -0.0000    0.0000    0.0000   -0.0000   -0.0610    0.0000   -0.0000   -0.0000
           7   -0.0046    0.0112   -0.0049   -0.0521   -0.0000   -0.0000    0.0001   -0.0006
           8    0.0175   -0.0942    0.1036    0.1381    0.0000   -0.0000   -0.0001   -0.0006
           9   -0.0000   -0.0000    0.0000    0.0000   -0.0001   -0.0001   -0.0000   -0.0000
          10    0.0142    0.0411   -0.0911    0.1651    0.0000    0.0000   -0.0006    0.0006
          11    0.0011    0.0361   -0.0450    0.0421   -0.0000    0.0000    0.0000    0.0002
          12   -0.0000    0.0000   -0.0000    0.0000   -0.0003   -0.0001   -0.0000    0.0000
          13   -0.1175    0.1087    0.1034    0.0312   -0.0000   -0.0000    0.0003    0.0009
          14   -0.0118   -0.0152    0.0005   -0.0216    0.0000   -0.0000    0.0000   -0.0004
          15    0.0000   -0.0000   -0.0000   -0.0000    0.0001   -0.0003    0.0000   -0.0000
          16    0.1111   -0.0759   -0.0640   -0.0301    0.0000    0.0000   -0.0001   -0.0002
          17    0.0044   -0.0072   -0.0058   -0.0112    0.0000    0.0000    0.0001    0.0015
          18    0.0000   -0.0000   -0.0000   -0.0000   -0.0000   -0.0002    0.0000   -0.0000
          19   -0.0047   -0.0493    0.0845   -0.1290    0.0000   -0.0000   -0.0000    0.0000
          20    0.0052   -0.0151    0.0200   -0.0304    0.0000   -0.0000   -0.0037    0.0004
          21    0.0000   -0.0000    0.0000   -0.0000   -0.0001   -0.0000   -0.0000    0.0000
          22    0.1412    0.0595    0.0446   -0.0036    0.0000   -0.0000   -0.0031   -0.0006
          23    0.0818    0.0350    0.0247   -0.0004   -0.0000   -0.0000    0.0031    0.0004
          24    0.0000    0.0000    0.0000   -0.0000   -0.0000    0.0000    0.0000    0.0000
          25   -0.1266   -0.0929   -0.0716   -0.0068    0.0000   -0.0000   -0.0002   -0.0002
          26   -0.0490   -0.0002    0.0001    0.0084   -0.0000    0.0000   -0.0001   -0.0004
          27   -0.0000    0.0000    0.0000    0.0000   -0.0003   -0.0001    0.0000   -0.0000
          28    0.0027   -0.0124    0.0123    0.0192   -0.0000    0.0000   -0.0001   -0.0000
          29   -0.0157    0.0760   -0.0796   -0.0966   -0.0000    0.0000   -0.0000    0.0001
          30    0.0000    0.0000   -0.0000   -0.0000    0.0000   -0.0001   -0.0000   -0.0000
          31   -0.0041    0.0029    0.0014   -0.0000   -0.0001   -0.2837    0.0001    0.2486
          32    0.0177   -0.0191   -0.0001    0.0090   -0.0000    0.0324   -0.0000   -0.0282
          33   -0.0018    0.0055    0.0008    0.0064    0.0001    0.3704   -0.0001   -0.3841
          34   -0.0041    0.0029    0.0014   -0.0000    0.0000    0.2836    0.0001    0.2488
          35    0.0177   -0.0191   -0.0001    0.0090    0.0000   -0.0324   -0.0000   -0.0283
          36    0.0018   -0.0055   -0.0008   -0.0065    0.0000    0.3701    0.0001    0.3842
          37   -0.0030    0.0031   -0.0090    0.0102   -0.2688    0.0000   -0.2196    0.0002
          38   -0.0172   -0.0126    0.0005   -0.0082   -0.0994    0.0000   -0.0812    0.0001
          39    0.0034   -0.0008   -0.0009    0.0021    0.3684   -0.0001    0.3605   -0.0003
          40   -0.0030    0.0031   -0.0090    0.0102    0.2690   -0.0000   -0.2193    0.0002
          41   -0.0172   -0.0126    0.0005   -0.0081    0.0994   -0.0000   -0.0810    0.0001
          42   -0.0034    0.0008    0.0009   -0.0021    0.3688   -0.0001   -0.3602    0.0003
          43    0.0056   -0.0076   -0.0090   -0.0100    0.0000   -0.0000   -0.0004   -0.0074
          44    0.0805   -0.0602   -0.0500   -0.0362    0.0000   -0.0000   -0.0008   -0.0112
          45    0.0000   -0.0000   -0.0000   -0.0000   -0.0000   -0.0012   -0.0000   -0.0000
          46   -0.0054   -0.0039   -0.0151    0.0193   -0.0000    0.0000    0.0096   -0.0009
          47    0.0057   -0.0338    0.0526   -0.0823   -0.0000    0.0000    0.0386   -0.0052
          48    0.0000    0.0000    0.0000   -0.0000   -0.0015   -0.0001    0.0000   -0.0000
          49    0.0401    0.0238    0.0145    0.0031   -0.0000    0.0000    0.0390    0.0066
          50   -0.0906   -0.0276   -0.0261    0.0098    0.0000   -0.0000   -0.0265   -0.0052
          51   -0.0000   -0.0000    0.0000    0.0000   -0.0017    0.0000   -0.0000   -0.0000
          52   -0.0022    0.0213    0.0233   -0.0023    0.0000    0.0000   -0.0009    0.0010
          53   -0.0986   -0.0298   -0.0237    0.0097    0.0000   -0.0000   -0.0024    0.0056
          54   -0.0000   -0.0000   -0.0000    0.0000   -0.0008   -0.0000   -0.0000    0.0000
          55   -0.0113    0.0550   -0.0562   -0.0697   -0.0000   -0.0000    0.0008    0.0004
          56   -0.0036    0.0200   -0.0244   -0.0241    0.0000   -0.0000    0.0008    0.0002
          57   -0.0000    0.0000   -0.0000   -0.0000   -0.0000   -0.0009    0.0000   -0.0000
          58    0.0116   -0.0584    0.0617    0.0721    0.0000   -0.0000   -0.0003   -0.0015
          59    0.0001   -0.0022    0.0032   -0.0141   -0.0000    0.0000    0.0001    0.0001
          60    0.0000   -0.0000   -0.0000    0.0000    0.0000    0.0005    0.0000    0.0000


   Root No.      49        50        51        52        53        54

                49 A      50 A      51 A      52 A      53 A      54 A   

                3049.8    3060.6    3071.2    3135.4    3136.8    3145.6
  
           1    0.0006   -0.0004    0.0001   -0.0017   -0.0000   -0.0000
           2   -0.0001    0.0001   -0.0000    0.0002    0.0003    0.0004
           3    0.0000   -0.0000   -0.0000   -0.0000   -0.0000   -0.0000
           4   -0.0022   -0.0032    0.0022    0.0001   -0.0000    0.0000
           5   -0.0006   -0.0013    0.0009    0.0000   -0.0000    0.0000
           6    0.0000    0.0000    0.0000    0.0000   -0.0000    0.0000
           7    0.0000   -0.0004    0.0001   -0.0000   -0.0013    0.0002
           8    0.0000   -0.0001   -0.0000    0.0006    0.0060   -0.0039
           9   -0.0000    0.0000   -0.0000    0.0000    0.0000   -0.0000
          10   -0.0003    0.0051   -0.0007    0.0013   -0.0002    0.0002
          11    0.0001    0.0016    0.0003    0.0010   -0.0002   -0.0005
          12    0.0000    0.0000   -0.0000    0.0000    0.0000   -0.0000
          13    0.0001    0.0005   -0.0013    0.0062    0.0005   -0.0001
          14    0.0001    0.0004    0.0002    0.0002   -0.0001    0.0001
          15    0.0000   -0.0000    0.0000   -0.0000   -0.0000    0.0000
          16   -0.0000   -0.0002    0.0003   -0.0359   -0.0026    0.0004
          17   -0.0002   -0.0000   -0.0003   -0.0613   -0.0045    0.0006
          18   -0.0000   -0.0000   -0.0000   -0.0000   -0.0000   -0.0000
          19    0.0010   -0.0152    0.0010   -0.0005    0.0006    0.0001
          20    0.0034   -0.0618    0.0043   -0.0004    0.0016    0.0004
          21    0.0000   -0.0000    0.0000   -0.0000    0.0000    0.0000
          22   -0.0346   -0.0008    0.0258   -0.0002   -0.0000    0.0000
          23    0.0255    0.0013   -0.0141   -0.0000   -0.0000   -0.0000
          24    0.0000    0.0000   -0.0000   -0.0000    0.0000   -0.0000
          25   -0.0031   -0.0014   -0.0123   -0.0001   -0.0000   -0.0000
          26   -0.0252   -0.0065   -0.0447    0.0004    0.0000   -0.0000
          27   -0.0000   -0.0000   -0.0000   -0.0000   -0.0000   -0.0000
          28    0.0001   -0.0012    0.0001    0.0018   -0.0258   -0.0673
          29    0.0001   -0.0011    0.0001    0.0046   -0.0481    0.0158
          30   -0.0000    0.0000    0.0000    0.0000   -0.0000    0.0000
          31   -0.0038    0.0019   -0.0002    0.0064    0.0001    0.0005
          32    0.0004   -0.0003    0.0001   -0.0028    0.0001    0.0004
          33    0.0058   -0.0030    0.0004   -0.0096   -0.0002   -0.0006
          34   -0.0038    0.0019   -0.0002    0.0064    0.0001    0.0005
          35    0.0004   -0.0003    0.0001   -0.0028    0.0001    0.0004
          36   -0.0058    0.0030   -0.0004    0.0097    0.0002    0.0006
          37    0.0126    0.0197   -0.0108   -0.0003   -0.0001   -0.0001
          38    0.0075    0.0039   -0.0052   -0.0001    0.0002   -0.0001
          39   -0.0215   -0.0294    0.0177    0.0006   -0.0000    0.0002
          40    0.0126    0.0197   -0.0107   -0.0003   -0.0001   -0.0001
          41    0.0075    0.0039   -0.0052   -0.0001    0.0002   -0.0001
          42    0.0215    0.0293   -0.0177   -0.0006    0.0000   -0.0002
          43    0.0007   -0.0004    0.0015    0.3573    0.0256   -0.0034
          44    0.0008   -0.0009    0.0020    0.7088    0.0506   -0.0067
          45    0.0000   -0.0000    0.0000    0.0000    0.0000   -0.0000
          46   -0.0075    0.1228   -0.0080    0.0004   -0.0026   -0.0005
          47   -0.0437    0.7152   -0.0459    0.0024   -0.0177   -0.0052
          48   -0.0000    0.0001   -0.0000    0.0000   -0.0000   -0.0000
          49    0.3952    0.0099   -0.2462    0.0003    0.0001   -0.0002
          50   -0.3130   -0.0082    0.1900   -0.0002   -0.0001    0.0001
          51   -0.0000   -0.0000    0.0000    0.0000    0.0000   -0.0000
          52    0.0532    0.0140    0.0941   -0.0011   -0.0001    0.0001
          53    0.3029    0.0764    0.5008   -0.0028   -0.0003    0.0002
          54    0.0001    0.0000    0.0001   -0.0000    0.0000   -0.0000
          55   -0.0009    0.0143   -0.0009   -0.0464    0.4992    0.1279
          56   -0.0008    0.0137   -0.0009   -0.0411    0.4443    0.1353
          57    0.0000    0.0000    0.0000    0.0000   -0.0000    0.0000
          58    0.0001   -0.0008   -0.0002    0.0244   -0.1779    0.6673
          59    0.0000   -0.0004    0.0001   -0.0087    0.0582   -0.2787
          60   -0.0000    0.0000   -0.0000   -0.0000    0.0000   -0.0000


           MASS-WEIGHTED COORDINATE ANALYSIS (NORMAL COORDINATES)


   Root No.       1         2         3         4         5         6         7         8

                 1 A       2 A       3 A       4 A       5 A       6 A       7 A       8 A   

                  90.1     177.8     204.8     276.4     299.3     396.4     469.2     509.3
  
           1   -0.0001   -0.0000   -0.0001   -0.0860    0.0001    0.0001   -0.0356    0.0000
           2   -0.0000    0.0000    0.0000   -0.0308    0.0000   -0.0000   -0.3214    0.0000
           3   -0.3550   -0.1292   -0.3677    0.0001   -0.0735    0.0770    0.0000    0.0170
           4    0.0000    0.0000   -0.0000   -0.1120    0.0000   -0.0001   -0.2017   -0.0002
           5    0.0001    0.0000    0.0000    0.2510   -0.0001    0.0000   -0.1595   -0.0001
           6   -0.3065   -0.3354    0.1337   -0.0001   -0.0997    0.0351   -0.0000   -0.0112
           7   -0.0000   -0.0000   -0.0001   -0.0247   -0.0000   -0.0000   -0.2761   -0.0001
           8   -0.0000   -0.0000   -0.0000   -0.1092    0.0001    0.0000   -0.0034    0.0001
           9    0.0183    0.1390   -0.1091   -0.0000   -0.2059   -0.3316   -0.0001    0.5725
          10   -0.0000   -0.0000   -0.0001   -0.1147    0.0001   -0.0000   -0.0662   -0.0001
          11    0.0000   -0.0000   -0.0000   -0.2014    0.0001    0.0000    0.3311    0.0001
          12   -0.0436    0.4359    0.0738   -0.0002   -0.3058   -0.3033    0.0001   -0.1459
          13    0.0000    0.0000   -0.0000   -0.1047    0.0001    0.0000    0.2021    0.0001
          14   -0.0000   -0.0000   -0.0001   -0.1841    0.0001    0.0000    0.3112    0.0000
          15    0.0640    0.1949    0.3421   -0.0003   -0.2886   -0.0121    0.0001   -0.4203
          16    0.0000    0.0000   -0.0000   -0.1294    0.0001    0.0000    0.3144    0.0002
          17    0.0000    0.0000   -0.0001   -0.1059    0.0000   -0.0000   -0.0818    0.0000
          18   -0.1472   -0.1329    0.3924    0.0001    0.3909   -0.1473   -0.0000    0.0174
          19   -0.0000    0.0000   -0.0001   -0.2231    0.0001   -0.0001   -0.0020   -0.0002
          20    0.0000   -0.0000   -0.0000    0.0397   -0.0000    0.0000    0.1831   -0.0000
          21   -0.2440    0.4151   -0.0267    0.0002    0.3936    0.2299   -0.0000   -0.0471
          22    0.0000    0.0000    0.0000   -0.0058    0.0000   -0.0000   -0.0875    0.0001
          23   -0.0000   -0.0000    0.0001    0.2281   -0.0002    0.0000   -0.1918   -0.0001
          24    0.2095   -0.1955   -0.3887    0.0003    0.1599   -0.3463    0.0001   -0.1294
          25    0.0000   -0.0000    0.0000    0.0655   -0.0000   -0.0000   -0.1193    0.0001
          26   -0.0001   -0.0000    0.0000    0.0155   -0.0000   -0.0001   -0.0116   -0.0002
          27    0.3606    0.1205   -0.0347   -0.0002   -0.1598    0.4603   -0.0001    0.2007
          28    0.0001    0.0000    0.0002    0.6300   -0.0003    0.0001    0.1800    0.0000
          29   -0.0000   -0.0000   -0.0000    0.0028    0.0000    0.0001    0.0796    0.0002
          30    0.4700   -0.2796    0.0767   -0.0000    0.0718    0.0947   -0.0000   -0.1037
          31   -0.0873   -0.0429   -0.1677   -0.0230   -0.0607    0.1614   -0.0159   -0.2171
          32   -0.0088   -0.0256    0.0853   -0.0008    0.0871   -0.0043   -0.1640   -0.0645
          33   -0.1669   -0.0672   -0.2394    0.0003   -0.0749    0.1455    0.0009   -0.1561
          34    0.0873    0.0429    0.1676   -0.0230    0.0607   -0.1613   -0.0160    0.2171
          35    0.0088    0.0256   -0.0853   -0.0008   -0.0871    0.0043   -0.1641    0.0645
          36   -0.1669   -0.0672   -0.2395   -0.0002   -0.0749    0.1456   -0.0008   -0.1561
          37   -0.0739   -0.1821    0.1068   -0.0412   -0.1741    0.0315   -0.0536    0.1201
          38   -0.0777    0.0099    0.0853    0.0956   -0.0324    0.1139   -0.0690    0.0645
          39   -0.1617   -0.2250    0.1380   -0.0002   -0.1635    0.0641   -0.0020    0.1029
          40    0.0739    0.1821   -0.1068   -0.0409    0.1741   -0.0316   -0.0536   -0.1203
          41    0.0778   -0.0098   -0.0853    0.0957    0.0324   -0.1139   -0.0690   -0.0645
          42   -0.1617   -0.2250    0.1380   -0.0000   -0.1635    0.0640    0.0020    0.1029
          43    0.0000    0.0000    0.0000   -0.0605    0.0001    0.0000    0.2113    0.0000
          44    0.0000    0.0000   -0.0000   -0.0189   -0.0000   -0.0000   -0.0846    0.0000
          45   -0.0474   -0.1168    0.2028    0.0001    0.3286   -0.0391   -0.0001    0.1530
          46   -0.0000   -0.0000   -0.0000   -0.1236    0.0000   -0.0000    0.0947   -0.0000
          47    0.0000   -0.0000    0.0000    0.0225   -0.0000    0.0000    0.0359   -0.0000
          48   -0.1099    0.2002   -0.0630    0.0002    0.3322    0.2009   -0.0001    0.1239
          49    0.0000    0.0000    0.0000    0.0231   -0.0000    0.0000   -0.0300    0.0001
          50   -0.0000    0.0000    0.0001    0.0972   -0.0001    0.0000   -0.0593    0.0000
          51    0.1278   -0.1064   -0.2825    0.0002    0.1467   -0.2581    0.0001   -0.0018
          52    0.0000   -0.0000    0.0000    0.0832   -0.0000   -0.0000   -0.1385    0.0000
          53   -0.0000   -0.0000    0.0000   -0.0073   -0.0000   -0.0001    0.0164   -0.0001
          54    0.2068    0.0755   -0.0665   -0.0001   -0.0480    0.3331   -0.0001    0.3007
          55    0.0000   -0.0000    0.0001    0.3094   -0.0002    0.0001    0.1856    0.0000
          56   -0.0000    0.0000   -0.0001   -0.1349    0.0001   -0.0000   -0.1179    0.0000
          57    0.2244   -0.0549    0.0966    0.0000    0.0286    0.0283    0.0001   -0.2501
          58    0.0000    0.0000    0.0001    0.2591   -0.0001    0.0000    0.1330    0.0000
          59    0.0000   -0.0000    0.0001    0.1780   -0.0001    0.0001    0.2077    0.0001
          60    0.1653   -0.2169   -0.0013   -0.0000    0.0927    0.1566   -0.0001   -0.0470


   Root No.       9        10        11        12        13        14        15        16

                 9 A      10 A      11 A      12 A      13 A      14 A      15 A      16 A   

                 532.6     538.4     604.4     683.8     717.9     767.7     799.4     816.4
  
           1   -0.3262   -0.1554    0.0002   -0.3803    0.0000    0.0001    0.1789   -0.0002
           2   -0.1159    0.0625    0.0000    0.2301   -0.0000   -0.0000    0.0280    0.0000
           3    0.0000    0.0001   -0.0041    0.0001   -0.0559    0.0911   -0.0002   -0.2656
           4    0.4502    0.0831   -0.0000   -0.1724    0.0001   -0.0000   -0.3588    0.0003
           5   -0.0285   -0.1406    0.0001   -0.0333    0.0000    0.0000   -0.1573    0.0001
           6   -0.0000   -0.0000   -0.0480   -0.0000   -0.1272   -0.2383   -0.0001   -0.2523
           7   -0.1392   -0.2946    0.0001   -0.0712   -0.0000    0.0001    0.2270   -0.0002
           8   -0.2178    0.2205    0.0000   -0.2802    0.0001    0.0000   -0.0981    0.0000
           9    0.0001   -0.0001   -0.0303   -0.0002   -0.2745   -0.0178    0.0000    0.1009
          10    0.0809   -0.2959    0.0001    0.0865   -0.0000   -0.0000   -0.0648    0.0001
          11    0.0854   -0.0112   -0.0000    0.0143   -0.0001   -0.0000    0.0156    0.0000
          12   -0.0001    0.0000    0.1371    0.0001    0.5357   -0.2033    0.0001    0.0684
          13   -0.2023    0.0531   -0.0000    0.1831   -0.0000   -0.0001   -0.1198    0.0001
          14    0.2075   -0.0562   -0.0000    0.0264    0.0000   -0.0000    0.1846   -0.0002
          15   -0.0002    0.0001   -0.2711   -0.0001   -0.2592    0.3262    0.0000    0.1635
          16   -0.1941    0.0124   -0.0000    0.0367   -0.0000   -0.0000   -0.0801    0.0000
          17    0.0034    0.0605   -0.0001    0.4843   -0.0001   -0.0001   -0.1220    0.0001
          18   -0.0000   -0.0000    0.0696    0.0001    0.0632    0.0967   -0.0002   -0.1612
          19    0.2602   -0.1590    0.0000   -0.0065   -0.0000   -0.0001   -0.1598    0.0001
          20   -0.1648   -0.3787    0.0001    0.2182   -0.0001   -0.0001    0.0143    0.0002
          21    0.0000   -0.0000   -0.0564    0.0000    0.0642   -0.0091   -0.0001   -0.1021
          22    0.0426    0.4541   -0.0001    0.1757    0.0000    0.0000    0.2892   -0.0002
          23    0.0978   -0.1785    0.0001   -0.1580    0.0001   -0.0000   -0.2161    0.0001
          24   -0.0000    0.0000   -0.0437   -0.0001   -0.1124   -0.0619    0.0000    0.0973
          25   -0.0932    0.3330   -0.0001    0.1705   -0.0000   -0.0000    0.0365    0.0000
          26    0.4203    0.0885   -0.0001   -0.1919    0.0001    0.0002    0.5198   -0.0005
          27    0.0002   -0.0000    0.0256   -0.0001   -0.1201   -0.1870    0.0002    0.0543
[...]
 T-DIPOLE    0.0956         C 10 -- H 19         +14.3% ( 44.4%)      0.0%
 TRAVEL      0.1064         C  1 -- H 12         +10.7% ( 38.4%)      0.4%
 RED. MASS   0.4208         C  1 -- H 11         +10.7% ( 38.4%)      0.4%
 EFF. MASS   4.5858

 VIBRATION   34   34A         ATOM PAIR      ENERGY CONTRIBUTION    RADIAL
 FREQ.      1322.42         C  2 -- H 14          +9.0% ( 34.8%)      1.5%
 T-DIPOLE    0.0650         C  2 -- H 13          +9.0% ( 34.8%)      1.5%
 TRAVEL      0.1100         C  7 -- H 16          +8.0% ( 32.8%)      0.4%
 RED. MASS   0.2802         C  9 -- H 18          +7.6% ( 31.8%)      2.4%
 EFF. MASS   4.2136

 VIBRATION   35   35A         ATOM PAIR      ENERGY CONTRIBUTION    RADIAL
 FREQ.      1336.35         C  1 -- C  3         +17.0% ( 64.0%)     99.1%
 T-DIPOLE    0.0943         C  1 -- C  6         +13.5% ( 57.1%)     85.2%
 TRAVEL      0.0709         C  1 -- H 11          +9.1% ( 46.9%)      0.0%
 RED. MASS   1.7686         C  1 -- H 12          +9.1% ( 46.9%)      0.0%
 EFF. MASS  10.0498

 VIBRATION   36   36A         ATOM PAIR      ENERGY CONTRIBUTION    RADIAL
 FREQ.      1346.62         C 10 -- H 20         +15.6% ( 51.4%)      1.9%
 T-DIPOLE    0.1099         C 10 -- H 19         +13.5% ( 47.8%)      4.2%
 TRAVEL      0.0924         C  3 -- C  4         +10.1% ( 41.4%)     79.1%
 RED. MASS   0.4739         C  1 -- C  3          +7.7% ( 36.1%)     20.7%
 EFF. MASS   5.8699

 VIBRATION   37   37A         ATOM PAIR      ENERGY CONTRIBUTION    RADIAL
 FREQ.      1372.86         C  2 -- H 14         +16.8% ( 48.9%)      7.0%
 T-DIPOLE    0.1221         C  2 -- H 13         +16.8% ( 48.9%)      7.0%
 TRAVEL      0.1046         C  2 -- C  7         +11.3% ( 40.2%)     49.1%
 RED. MASS   0.4777         C  2 -- C  8         +10.9% ( 39.5%)     64.1%
 EFF. MASS   4.4855

 VIBRATION   38   38A         ATOM PAIR      ENERGY CONTRIBUTION    RADIAL
 FREQ.      1388.75         C  1 -- H 11         +15.8% ( 52.3%)      7.3%
 T-DIPOLE    0.0320         C  1 -- H 12         +15.8% ( 52.3%)      7.3%
 TRAVEL      0.0885         C  1 -- C  6         +14.4% ( 50.0%)     74.0%
 RED. MASS   0.7199         C  1 -- C  3         +11.9% ( 45.4%)     36.5%
 EFF. MASS   6.2024

 VIBRATION   39   39A         ATOM PAIR      ENERGY CONTRIBUTION    RADIAL
 FREQ.      1426.91         C  2 -- C  7         +20.5% ( 71.0%)     89.7%
 T-DIPOLE    0.0604         C  2 -- C  8         +17.5% ( 65.5%)     64.0%
 TRAVEL      0.0669         C  2 -- H 14         +14.3% ( 59.3%)      0.2%
 RED. MASS   2.8905         C  2 -- H 13         +14.3% ( 59.3%)      0.2%
 EFF. MASS  10.5727

 VIBRATION   40   40A         ATOM PAIR      ENERGY CONTRIBUTION    RADIAL
 FREQ.      1533.14         C  4 -- C  5         +26.4% ( 77.3%)     91.3%
 T-DIPOLE    0.1390         C  5 -- C  9         +20.5% ( 68.1%)     58.9%
 TRAVEL      0.0612         C  5 -- C  6         +16.1% ( 60.3%)     13.5%
 RED. MASS   3.3179         C  3 -- C  4          +6.9% ( 39.4%)     69.4%
 EFF. MASS  11.7342

 VIBRATION   41   41A         ATOM PAIR      ENERGY CONTRIBUTION    RADIAL
 FREQ.      1828.97         C  8 -- C  9         +28.4% ( 79.1%)     99.4%
 T-DIPOLE    0.5192         C  5 -- C  6         +16.5% ( 60.3%)     98.8%
 TRAVEL      0.0557         C  2 -- C  8         +10.9% ( 49.0%)     54.0%
 RED. MASS   2.9600         C  5 -- C  9         +10.9% ( 49.0%)     17.6%
 EFF. MASS  11.9043         C  8 -- H 17         +10.0% ( 47.0%)      4.6%

 VIBRATION   42   42A         ATOM PAIR      ENERGY CONTRIBUTION    RADIAL
 FREQ.      1879.18         C  5 -- C  6         +14.6% ( 57.1%)     95.1%
 T-DIPOLE    0.1382         C  5 -- C  9         +13.5% ( 55.0%)     68.1%
 TRAVEL      0.0549         C  3 -- C 10         +13.3% ( 54.6%)     99.9%
 RED. MASS   1.7193         C  8 -- C  9         +10.5% ( 48.4%)     97.8%
 EFF. MASS  11.9096

 VIBRATION   43   43A         ATOM PAIR      ENERGY CONTRIBUTION    RADIAL
 FREQ.      1905.72         C  4 -- C  7         +13.7% ( 55.0%)     99.9%
 T-DIPOLE    0.3863         C  3 -- C 10         +13.5% ( 54.7%)     99.4%
 TRAVEL      0.0545         C  4 -- C  5         +11.2% ( 49.7%)     15.9%
 RED. MASS   1.6629         C  5 -- C  6         +10.7% ( 48.7%)     98.0%
 EFF. MASS  11.9220         C  3 -- C  4         +10.3% ( 47.6%)      0.2%

 VIBRATION   44   44A         ATOM PAIR      ENERGY CONTRIBUTION    RADIAL
 FREQ.      1933.46         C  4 -- C  7         +24.9% ( 74.0%)     98.1%
 T-DIPOLE    0.5537         C  3 -- C  4         +20.0% ( 66.4%)     99.6%
 TRAVEL      0.0541         C  3 -- C 10         +17.0% ( 61.1%)     98.5%
 RED. MASS   3.0208         C  4 -- C  5         +10.8% ( 48.6%)     34.1%
 EFF. MASS  11.9308

 VIBRATION   45   45A         ATOM PAIR      ENERGY CONTRIBUTION    RADIAL
 FREQ.      2925.86         C  2 -- H 14         +49.0% ( 72.6%)     96.6%
 T-DIPOLE    0.0582         C  2 -- H 13         +48.9% ( 72.5%)     96.5%
 TRAVEL      0.1226         C  2 -- C  8          +1.1% ( 10.8%)      0.0%
 RED. MASS   0.5174         C  2 -- C  7          +1.1% ( 10.8%)      0.0%
 EFF. MASS   1.5340

 VIBRATION   46   46A         ATOM PAIR      ENERGY CONTRIBUTION    RADIAL
 FREQ.      2973.63         C  1 -- H 11         +48.9% ( 72.5%)     96.7%
 T-DIPOLE    0.0674         C  1 -- H 12         +48.9% ( 72.5%)     96.7%
 TRAVEL      0.1215         C  1 -- C  3          +1.1% ( 10.8%)      0.0%
 RED. MASS   0.5177         C  1 -- C  6          +1.1% ( 10.8%)      0.0%
 EFF. MASS   1.5352

 VIBRATION   47   47A         ATOM PAIR      ENERGY CONTRIBUTION    RADIAL
 FREQ.      3004.69         C  2 -- H 13         +48.8% ( 68.9%)     97.8%
 T-DIPOLE    0.1393         C  2 -- H 14         +48.7% ( 68.8%)     97.8%
 TRAVEL      0.1324         C  2 -- C  8          +0.7% (  8.0%)     20.3%
 RED. MASS   0.4739         C  8 -- H 17          +0.7% (  8.0%)    100.0%
 EFF. MASS   1.2806

 VIBRATION   48   48A         ATOM PAIR      ENERGY CONTRIBUTION    RADIAL
 FREQ.      3045.46         C  1 -- H 12         +49.3% ( 69.3%)     97.5%
 T-DIPOLE    0.1525         C  1 -- H 11         +49.2% ( 69.3%)     97.5%
 TRAVEL      0.1313         C  1 -- C  3          +0.7% (  8.3%)     36.4%
 RED. MASS   0.4835         C  1 -- C  6          +0.7% (  8.3%)     33.8%
 EFF. MASS   1.2847

 VIBRATION   49   49A         ATOM PAIR      ENERGY CONTRIBUTION    RADIAL
 FREQ.      3049.80         C  8 -- H 17         +70.4% ( 85.1%)    100.0%
 T-DIPOLE    0.2897         C  9 -- H 18         +26.2% ( 52.0%)     99.9%
 TRAVEL      0.1228         C  8 -- C  9          +1.1% ( 10.9%)      3.2%
 RED. MASS   0.5525         C  2 -- C  8          +1.0% ( 10.0%)     20.2%
 EFF. MASS   1.4657

 VIBRATION   50   50A         ATOM PAIR      ENERGY CONTRIBUTION    RADIAL
 FREQ.      3060.65         C  7 -- H 16         +95.3% ( 99.1%)    100.0%
 T-DIPOLE    0.3434         C  4 -- C  7          +1.6% ( 12.7%)     40.7%
 TRAVEL      0.1202         C  2 -- C  7          +1.4% ( 12.1%)     19.4%
 RED. MASS   0.8983         C  9 -- H 18          +1.1% ( 10.6%)    100.0%
 EFF. MASS   1.5237

 VIBRATION   51   51A         ATOM PAIR      ENERGY CONTRIBUTION    RADIAL
 FREQ.      3071.25         C  9 -- H 18         +69.6% ( 84.7%)    100.0%
 T-DIPOLE    0.3001         C  8 -- H 17         +25.9% ( 51.7%)     99.8%
 TRAVEL      0.1176         C  8 -- C  9          +2.0% ( 14.3%)     91.3%
 RED. MASS   0.5527         C  5 -- C  9          +1.2% ( 10.9%)     17.7%
 EFF. MASS   1.5873

 VIBRATION   52   52A         ATOM PAIR      ENERGY CONTRIBUTION    RADIAL
 FREQ.      3135.43         C  6 -- H 15         +95.9% ( 99.6%)    100.0%
 T-DIPOLE    0.4556         C  5 -- C  6          +1.8% ( 13.5%)     49.6%
 TRAVEL      0.1177         C  1 -- C  6          +1.6% ( 13.0%)     24.7%
 RED. MASS   0.9162         C 10 -- H 19          +0.6% (  7.7%)     99.3%
 EFF. MASS   1.5531

 VIBRATION   53   53A         ATOM PAIR      ENERGY CONTRIBUTION    RADIAL
 FREQ.      3136.83         C 10 -- H 19         +90.7% ( 95.8%)     99.6%
 T-DIPOLE    0.2902         C 10 -- H 20          +7.0% ( 26.7%)     48.8%
 TRAVEL      0.1221         C  3 -- C 10          +1.5% ( 12.1%)     68.4%
 RED. MASS   0.7995         C  6 -- H 15          +0.7% (  8.2%)    100.0%
 EFF. MASS   1.4421

 VIBRATION   54   54A         ATOM PAIR      ENERGY CONTRIBUTION    RADIAL
 FREQ.      3145.57         C 10 -- H 20         +90.4% ( 96.9%)     99.8%
 T-DIPOLE    0.2588         C 10 -- H 19          +8.2% ( 29.2%)     75.5%
 TRAVEL      0.1175         C  3 -- C 10          +1.4% ( 11.9%)     19.3%
 RED. MASS   0.8353
 EFF. MASS   1.5521

      SYMMETRY NUMBER FOR POINT-GROUP C1  =  1


          SYSTEM IS A GROUND STATE



 InChI=1S/C10H10/c1-8-6-7-9-4-2-3-5-10(8)9/h2,4-5,7H,1,3,6H2


          MOLECULE IS NOT LINEAR

          THERE ARE 54 GENUINE VIBRATIONS IN THIS SYSTEM
          THIS THERMODYNAMICS CALCULATION IS LIMITED TO
          MOLECULES WHICH HAVE NO INTERNAL ROTATIONS




                    CALCULATED THERMODYNAMIC PROPERTIES
                                          *
   TEMP. (K)   PARTITION FUNCTION   H.O.F.    ENTHALPY  HEAT CAPACITY ENTROPY
                                   KCAL/MOL   CAL/MOLE    CAL/K/MOL  CAL/K/MOL


 298.00  VIB.     0.3228D+02                  3263.2006    26.7845    17.8548
         ROT.     0.5268D+06                   888.2813     2.9808    29.1615
         INT.     0.1701D+08                  4151.4819    29.7653    47.0163
         TRA.     0.1436D+28                  1480.4688     4.9680    40.5022
         TOT.                       54.753    5631.9508    34.7333    87.5185

 200.00  VIB.     0.6108D+01                  1219.2015    15.1261     9.6921
         ROT.     0.2897D+06                   596.1620     2.9808    27.9728
         INT.     0.1769D+07                  1815.3635    18.1069    37.6649
         TRA.     0.7896D+27                   993.6033     4.9680    38.5210
         TOT.                       51.930    2808.9667    23.0750    76.1859

 210.00  VIB.     0.7134D+01                  1376.0226    16.2425    10.4570
         ROT.     0.3116D+06                   625.9700     2.9808    28.1182
         INT.     0.2223D+07                  2001.9926    19.2233    38.5752
         TRA.     0.8496D+27                  1043.2834     4.9680    38.7634
         TOT.                       52.167    3045.2760    24.1914    77.3386

 220.00  VIB.     0.8361D+01                  1544.1361    17.3841    11.2388
         ROT.     0.3342D+06                   655.7781     2.9808    28.2569
         INT.     0.2794D+07                  2199.9142    20.3649    39.4957
         TRA.     0.9110D+27                  1092.9636     4.9680    38.9945
         TOT.                       52.414    3292.8778    25.3330    78.4903

 230.00  VIB.     0.9834D+01                  1723.7791    18.5479    12.0372
         ROT.     0.3572D+06                   685.5862     2.9808    28.3894
         INT.     0.3513D+07                  2409.3654    21.5287    40.4266
         TRA.     0.9738D+27                  1142.6437     4.9680    39.2154
         TOT.                       52.673    3552.0091    26.4967    79.6420

 240.00  VIB.     0.1161D+02                  1915.1569    19.7305    12.8515
         ROT.     0.3808D+06                   715.3943     2.9808    28.5163
         INT.     0.4419D+07                  2630.5513    22.7113    41.3678
         TRA.     0.1038D+28                  1192.3239     4.9680    39.4268
         TOT.                       52.944    3822.8752    27.6793    80.7946

 250.00  VIB.     0.1374D+02                  2118.4407    20.9285    13.6812
         ROT.     0.4048D+06                   745.2024     2.9808    28.6380
         INT.     0.5563D+07                  2863.6431    23.9093    42.3191
         TRA.     0.1103D+28                  1242.0041     4.9680    39.6296
         TOT.                       53.227    4105.6472    28.8773    81.9487

 260.00  VIB.     0.1632D+02                  2333.7667    22.1384    14.5255
         ROT.     0.4293D+06                   775.0105     2.9808    28.7549
         INT.     0.7008D+07                  3108.7772    25.1192    43.2804
         TRA.     0.1170D+28                  1291.6842     4.9680    39.8245
         TOT.                       53.522    4400.4614    30.0872    83.1049

 270.00  VIB.     0.1945D+02                  2561.2362    23.3566    15.3839
         ROT.     0.4543D+06                   804.8186     2.9808    28.8674
         INT.     0.8837D+07                  3366.0548    26.3375    44.2512
         TRA.     0.1239D+28                  1341.3644     4.9680    40.0120
         TOT.                       53.829    4707.4192    31.3055    84.2632

 280.00  VIB.     0.2325D+02                  2800.9163    24.5799    16.2554
         ROT.     0.4798D+06                   834.6267     2.9808    28.9758
         INT.     0.1115D+08                  3635.5430    27.5608    45.2312
         TRA.     0.1308D+28                  1391.0445     4.9680    40.1926
         TOT.                       54.148    5026.5876    32.5288    85.4238

 290.00  VIB.     0.2787D+02                  3052.8412    25.8051    17.1393
         ROT.     0.5057D+06                   864.4348     2.9808    29.0804
         INT.     0.1409D+08                  3917.2760    28.7859    46.2197
         TRA.     0.1379D+28                  1440.7247     4.9680    40.3670
         TOT.                       54.479    5358.0008    33.7539    86.5867

 300.00  VIB.     0.3350D+02                  3317.0142    27.0291    18.0348
         ROT.     0.5321D+06                   894.2429     2.9808    29.1814
         INT.     0.1783D+08                  4211.2572    30.0099    47.2162
         TRA.     0.1451D+28                  1490.4049     4.9680    40.5354
         TOT.                       54.823    5701.6620    34.9779    87.7516

 310.00  VIB.     0.4038D+02                  3593.4098    28.2492    18.9410
         ROT.     0.5590D+06                   924.0510     2.9808    29.2792
         INT.     0.2257D+08                  4517.4609    31.2300    48.2201
         TRA.     0.1524D+28                  1540.0850     4.9680    40.6983
         TOT.                       55.179    6057.5459    36.1980    88.9184

 320.00  VIB.     0.4880D+02                  3881.9761    29.4628    19.8570
         ROT.     0.5862D+06                   953.8591     2.9808    29.3738
         INT.     0.2861D+08                  4835.8352    32.4436    49.2308
         TRA.     0.1598D+28                  1589.7652     4.9680    40.8560
         TOT.                       55.547    6425.6004    37.4116    90.0869

 330.00  VIB.     0.5914D+02                  4182.6372    30.6678    20.7821
         ROT.     0.6139D+06                   983.6672     2.9808    29.4655
         INT.     0.3630D+08                  5166.3044    33.6486    50.2476
         TRA.     0.1674D+28                  1639.4454     4.9680    41.0089
         TOT.                       55.927    6805.7498    38.6166    91.2565

 340.00  VIB.     0.7183D+02                  4495.2959    31.8620    21.7154
         ROT.     0.6420D+06                  1013.4753     2.9808    29.5545
         INT.     0.4612D+08                  5508.7713    34.8428    51.2699
         TRA.     0.1750D+28                  1689.1255     4.9680    41.1572
         TOT.                       56.319    7197.8968    39.8109    92.4271

 350.00  VIB.     0.8746D+02                  4819.8363    33.0438    22.6561
         ROT.     0.6706D+06                  1043.2834     2.9808    29.6409
         INT.     0.5865D+08                  5863.1198    36.0246    52.2970
         TRA.     0.1828D+28                  1738.8057     4.9680    41.3012
         TOT.                       56.723    7601.9254    40.9927    93.5982

 360.00  VIB.     0.1067D+03                  5156.1260    34.2116    23.6034
         ROT.     0.6995D+06                  1073.0915     2.9808    29.7249
         INT.     0.7466D+08                  6229.2175    37.1925    53.3283
         TRA.     0.1907D+28                  1788.4859     4.9680    41.4412
         TOT.                       57.139    8017.7033    42.1605    94.7694

 370.00  VIB.     0.1305D+03                  5504.0182    35.3642    24.5565
         ROT.     0.7289D+06                  1102.8996     2.9808    29.8066
         INT.     0.9513D+08                  6606.9178    38.3450    54.3630
         TRA.     0.1987D+28                  1838.1660     4.9680    41.5773
         TOT.                       57.566    8445.0838    43.3130    95.9403

 380.00  VIB.     0.1600D+03                  5863.3547    36.5003    25.5147
         ROT.     0.7586D+06                  1132.7077     2.9808    29.8861
         INT.     0.1213D+09                  6996.0624    39.4811    55.4008
         TRA.     0.2068D+28                  1887.8462     4.9680    41.7098
         TOT.                       58.005    8883.9086    44.4491    97.1105

 390.00  VIB.     0.1964D+03                  6233.9669    37.6192    26.4773
         ROT.     0.7887D+06                  1162.5158     2.9808    29.9635
         INT.     0.1549D+09                  7396.4827    40.6000    56.4408
         TRA.     0.2150D+28                  1937.5263     4.9680    41.8388
         TOT.                       58.455    9334.0091    45.5680    98.2796

 400.00  VIB.     0.2416D+03                  6615.6785    38.7201    27.4437
         ROT.     0.8193D+06                  1192.3239     2.9808    30.0389
         INT.     0.1979D+09                  7808.0024    41.7009    57.4826
         TRA.     0.2233D+28                  1987.2065     4.9680    41.9646
         TOT.                       58.916    9795.2089    46.6689    99.4472

   *: NOTE: HEATS OF FORMATION ARE RELATIVE TO THE
            ELEMENTS IN THEIR STANDARD STATE AT 298K
              (=  Standard Enthalpy of Formation).

            Hvib:  Zero-point energy is not included.
                   frequencies of less than zero cm-1 are not included.
            Hrot = (3/2)RT
            Htra = (3/2)RT + pV = (5/2)RT

            Heat capacity is Cp, not Cv

          For more information, see: HTTP://OpenMOPAC.net/Manual/thermochemistry.html


           FORCE CONSTANT IN CARTESIAN COORDINATES (Millidynes/A)

    ATOM   CHEMICAL       X               Y               Z
   NUMBER   SYMBOL  FORCE CONSTANT  FORCE CONSTANT  FORCE CONSTANT

      1       C        9.679887        7.941699        7.858406
      2       C        8.964412        9.217320        7.617943
      3       C        9.008384       16.644830        2.621745
      4       C       16.322203       10.577289        2.384762
      5       C       16.525876       10.770105        2.368051
      6       C       13.931917       10.640439        2.296288
      7       C       14.119813       10.576622        2.349042
      8       C       14.538673       10.003252        2.387717
      9       C       14.461770       11.220434        2.233178
     10       C        9.347902       15.158819        1.950842
     11       H        2.096153        0.663516        3.544359
     12       H        2.097149        0.663630        3.543347
     13       H        1.884814        0.832256        3.434481
     14       H        1.884478        0.831946        3.434944
     15       H        1.648280        4.442870        0.336003
     16       H        0.878013        5.022116        0.348145
     17       H        3.463918        2.434721        0.349047
     18       H        0.882448        5.013911        0.348973
     19       H        3.286608        2.814087        0.332784
     20       H        4.740085        1.366944        0.330570

 **********************
 *                    *
 * JOB ENDED NORMALLY *
 *                    *
 **********************



 TOTAL JOB TIME:             5.57 SECONDS

 == MOPAC DONE ==
