 *******************************************************************************
 ** Site#: 14399        For non-commercial use only    Version 18.184L 64BITS **
 *******************************************************************************
 ** Cite this program as: MOPAC2016, Version: 18.184L, James J. P. Stewart,   **
 ** Stewart Computational Chemistry, web: HTTP://OpenMOPAC.net. Days left:  20**
 *******************************************************************************
 **                                                                           **
 **                                MOPAC2016                                  **
 **                                                                           **
 *******************************************************************************

                              PM3 CALCULATION RESULTS

 *******************************************************************************
 *  CALCULATION DONE:                                Thu Jun 13 16:12:31 2019  *
 *  PM3        - The PM3 Hamiltonian to be used
 *  PRECISE    - CRITERIA TO BE INCREASED BY 100 TIMES
 *  NOSYM      - POINT-GROUP SYMMETRY SET TO C1
 *  THREADS=1  - MULTI-THREADING NOT USED
 *  T=         - A TIME OF 172800.0 SECONDS REQUESTED
 *  DUMP=N     - RESTART FILE WRITTEN EVERY  7200.000 SECONDS
 *******************************************************************************
pm3  precise nosym THREADS=1
 InChI=1S/C7H12/c1-2-7-5-3-4-6-7/h3-4,7H,2,5-6H2,1H3

   ATOM   CHEMICAL          X               Y               Z
  NUMBER   SYMBOL      (ANGSTROMS)     (ANGSTROMS)     (ANGSTROMS)
 
     1       C          0.03820000  *  -0.00970000  *   0.55050000  *
     2       C          1.19450000  *   0.80340000  *  -0.06520000  *
     3       C         -1.18050000  *   0.87520000  *   0.87320000  *
     4       C         -0.48970000  *  -1.11590000  *  -0.38440000  *
     5       C          2.46630000  *  -0.03070000  *  -0.21470000  *
     6       C         -2.33630000  *   0.13160000  *   0.30940000  *
     7       C         -1.96450000  *  -0.94070000  *  -0.36640000  *
     8       H          0.38840000  *  -0.47740000  *   1.49920000  *
     9       H          1.42360000  *   1.66770000  *   0.59600000  *
    10       H          0.89620000  *   1.20380000  *  -1.05900000  *
    11       H         -1.30380000  *   0.99610000  *   1.97090000  *
    12       H         -1.12210000  *   1.87530000  *   0.39100000  *
    13       H         -0.12670000  *  -1.00330000  *  -1.42880000  *
    14       H         -0.21920000  *  -2.12230000  *   0.00100000  *
    15       H          2.78980000  *  -0.42140000  *   0.77350000  *
    16       H          2.29930000  *  -0.88150000  *  -0.90780000  *
    17       H          3.27870000  *   0.60390000  *  -0.62730000  *
    18       H         -3.37020000  *   0.44430000  *   0.41280000  *
    19       H         -2.66180000  *  -1.59840000  *  -0.87500000  *
 


          CARTESIAN COORDINATES 

    NO.       ATOM           X           Y           Z

     1         C          0.0382     -0.0097      0.5505
     2         C          1.1945      0.8034     -0.0652
     3         C         -1.1805      0.8752      0.8732
     4         C         -0.4897     -1.1159     -0.3844
     5         C          2.4663     -0.0307     -0.2147
     6         C         -2.3363      0.1316      0.3094
     7         C         -1.9645     -0.9407     -0.3664
     8         H          0.3884     -0.4774      1.4992
     9         H          1.4236      1.6677      0.5960
    10         H          0.8962      1.2038     -1.0590
    11         H         -1.3038      0.9961      1.9709
    12         H         -1.1221      1.8753      0.3910
    13         H         -0.1267     -1.0033     -1.4288
    14         H         -0.2192     -2.1223      0.0010
    15         H          2.7898     -0.4214      0.7735
    16         H          2.2993     -0.8815     -0.9078
    17         H          3.2787      0.6039     -0.6273
    18         H         -3.3702      0.4443      0.4128
    19         H         -2.6618     -1.5984     -0.8750

  H: (PM3): J. J. P. STEWART, J. COMP. CHEM. 10, 209 (1989).
  C: (PM3): J. J. P. STEWART, J. COMP. CHEM. 10, 209 (1989).

           Empirical Formula: C7 H12  =    19 atoms



      MOLECULAR POINT GROUP   :   C1  


      RHF CALCULATION, NO. OF DOUBLY OCCUPIED LEVELS = 20


          Geometry optimization using EF

          DIAGONAL MATRIX USED AS START HESSIAN

 CYCLE:     1 TIME:   0.020 TIME LEFT:  2.00D  GRAD.:    52.832 HEAT: -5.843457
 CYCLE:     2 TIME:   0.039 TIME LEFT:  2.00D  GRAD.:    62.602 HEAT: -6.323449
 CYCLE:     3 TIME:   0.023 TIME LEFT:  2.00D  GRAD.:    30.605 HEAT: -7.077611
 CYCLE:     4 TIME:   0.031 TIME LEFT:  2.00D  GRAD.:    25.311 HEAT: -7.301924
 CYCLE:     5 TIME:   0.020 TIME LEFT:  2.00D  GRAD.:    20.832 HEAT: -7.516269
 CYCLE:     6 TIME:   0.031 TIME LEFT:  2.00D  GRAD.:    15.613 HEAT: -7.662808
 CYCLE:     7 TIME:   0.020 TIME LEFT:  2.00D  GRAD.:    20.639 HEAT: -7.696510
 CYCLE:     8 TIME:   0.023 TIME LEFT:  2.00D  GRAD.:    17.745 HEAT: -7.787850
 CYCLE:     9 TIME:   0.031 TIME LEFT:  2.00D  GRAD.:     9.539 HEAT: -7.848498
 CYCLE:    10 TIME:   0.027 TIME LEFT:  2.00D  GRAD.:     7.907 HEAT: -7.865409
 CYCLE:    11 TIME:   0.023 TIME LEFT:  2.00D  GRAD.:     7.700 HEAT: -7.871619
 CYCLE:    12 TIME:   0.023 TIME LEFT:  2.00D  GRAD.:     8.438 HEAT: -7.877827
 CYCLE:    13 TIME:   0.027 TIME LEFT:  2.00D  GRAD.:     3.169 HEAT: -7.893768
 CYCLE:    14 TIME:   0.023 TIME LEFT:  2.00D  GRAD.:     6.248 HEAT: -7.891534
 CYCLE:    15 TIME:   0.023 TIME LEFT:  2.00D  GRAD.:     4.159 HEAT: -7.901126
 CYCLE:    16 TIME:   0.023 TIME LEFT:  2.00D  GRAD.:     5.729 HEAT: -7.901672
 CYCLE:    17 TIME:   0.020 TIME LEFT:  2.00D  GRAD.:     2.912 HEAT: -7.909611
 CYCLE:    18 TIME:   0.023 TIME LEFT:  2.00D  GRAD.:     5.904 HEAT: -7.904922
 CYCLE:    19 TIME:   0.023 TIME LEFT:  2.00D  GRAD.:     2.470 HEAT: -7.915034
 CYCLE:    20 TIME:   0.023 TIME LEFT:  2.00D  GRAD.:     2.763 HEAT: -7.916161
 CYCLE:    21 TIME:   0.023 TIME LEFT:  2.00D  GRAD.:     1.587 HEAT: -7.919286
 CYCLE:    22 TIME:   0.023 TIME LEFT:  2.00D  GRAD.:     2.395 HEAT: -7.920644
 CYCLE:    23 TIME:   0.023 TIME LEFT:  2.00D  GRAD.:     1.361 HEAT: -7.923077
 CYCLE:    24 TIME:   0.125 TIME LEFT:  2.00D  GRAD.:     1.882 HEAT: -7.924295
 CYCLE:    25 TIME:   0.023 TIME LEFT:  2.00D  GRAD.:     1.177 HEAT: -7.926020
 CYCLE:    26 TIME:   0.023 TIME LEFT:  2.00D  GRAD.:     1.183 HEAT: -7.927537
 CYCLE:    27 TIME:   0.020 TIME LEFT:  2.00D  GRAD.:     1.235 HEAT: -7.929140
 CYCLE:    28 TIME:   0.023 TIME LEFT:  2.00D  GRAD.:     1.026 HEAT: -7.930842
 CYCLE:    29 TIME:   0.023 TIME LEFT:  2.00D  GRAD.:     1.085 HEAT: -7.932980
 CYCLE:    30 TIME:   0.023 TIME LEFT:  2.00D  GRAD.:     1.589 HEAT: -7.935292
 CYCLE:    31 TIME:   0.023 TIME LEFT:  2.00D  GRAD.:     1.769 HEAT: -7.939041
 CYCLE:    32 TIME:   0.023 TIME LEFT:  2.00D  GRAD.:     1.632 HEAT: -7.943512
 CYCLE:    33 TIME:   0.023 TIME LEFT:  2.00D  GRAD.:     1.801 HEAT: -7.947885
 CYCLE:    34 TIME:   0.020 TIME LEFT:  2.00D  GRAD.:     1.824 HEAT: -7.951434
 CYCLE:    35 TIME:   0.023 TIME LEFT:  2.00D  GRAD.:     1.142 HEAT: -7.954316
 CYCLE:    36 TIME:   0.023 TIME LEFT:  2.00D  GRAD.:     0.899 HEAT: -7.957078
 CYCLE:    37 TIME:   0.023 TIME LEFT:  2.00D  GRAD.:     1.044 HEAT: -7.958705
 CYCLE:    38 TIME:   0.023 TIME LEFT:  2.00D  GRAD.:     0.979 HEAT: -7.961075
 CYCLE:    39 TIME:   0.023 TIME LEFT:  2.00D  GRAD.:     0.750 HEAT: -7.962812
 CYCLE:    40 TIME:   0.020 TIME LEFT:  2.00D  GRAD.:     0.753 HEAT: -7.964190
 CYCLE:    41 TIME:   0.023 TIME LEFT:  2.00D  GRAD.:     0.988 HEAT: -7.965978
 CYCLE:    42 TIME:   0.023 TIME LEFT:  2.00D  GRAD.:     0.939 HEAT: -7.967630
 CYCLE:    43 TIME:   0.023 TIME LEFT:  2.00D  GRAD.:     0.755 HEAT: -7.968927
 CYCLE:    44 TIME:   0.023 TIME LEFT:  2.00D  GRAD.:     0.504 HEAT: -7.969526
 CYCLE:    45 TIME:   0.023 TIME LEFT:  2.00D  GRAD.:     0.446 HEAT: -7.970136
 CYCLE:    46 TIME:   0.023 TIME LEFT:  2.00D  GRAD.:     0.357 HEAT: -7.970558
 CYCLE:    47 TIME:   0.020 TIME LEFT:  2.00D  GRAD.:     0.207 HEAT: -7.970803
 CYCLE:    48 TIME:   0.023 TIME LEFT:  2.00D  GRAD.:     0.137 HEAT: -7.970880
 CYCLE:    49 TIME:   0.023 TIME LEFT:  2.00D  GRAD.:     0.132 HEAT: -7.970929
 CYCLE:    50 TIME:   0.023 TIME LEFT:  2.00D  GRAD.:     0.108 HEAT: -7.970961
 CYCLE:    51 TIME:   0.023 TIME LEFT:  2.00D  GRAD.:     0.101 HEAT: -7.970997
 CYCLE:    52 TIME:   0.023 TIME LEFT:  2.00D  GRAD.:     0.073 HEAT: -7.971011
 CYCLE:    53 TIME:   0.023 TIME LEFT:  2.00D  GRAD.:     0.077 HEAT: -7.971024
 CYCLE:    54 TIME:   0.020 TIME LEFT:  2.00D  GRAD.:     0.065 HEAT: -7.971036
 CYCLE:    55 TIME:   0.023 TIME LEFT:  2.00D  GRAD.:     0.074 HEAT: -7.971055
 CYCLE:    56 TIME:   0.023 TIME LEFT:  2.00D  GRAD.:     0.082 HEAT: -7.971079
 CYCLE:    57 TIME:   0.023 TIME LEFT:  2.00D  GRAD.:     0.074 HEAT: -7.971106
 CYCLE:    58 TIME:   0.055 TIME LEFT:  2.00D  GRAD.:     0.088 HEAT: -7.971132
 CYCLE:    59 TIME:   0.031 TIME LEFT:  2.00D  GRAD.:     0.072 HEAT: -7.971141
 CYCLE:    60 TIME:   0.023 TIME LEFT:  2.00D  GRAD.:     0.082 HEAT: -7.971173
 CYCLE:    61 TIME:   0.023 TIME LEFT:  2.00D  GRAD.:     0.059 HEAT: -7.971194
 CYCLE:    62 TIME:   0.020 TIME LEFT:  2.00D  GRAD.:     0.053 HEAT: -7.971227
 CYCLE:    63 TIME:   0.023 TIME LEFT:  2.00D  GRAD.:     0.071 HEAT: -7.971246
 CYCLE:    64 TIME:   0.023 TIME LEFT:  2.00D  GRAD.:     0.052 HEAT: -7.971255
 CYCLE:    65 TIME:   0.023 TIME LEFT:  2.00D  GRAD.:     0.034 HEAT: -7.971269

     GRADIENT =  0.03387  IS LESS THAN CUTOFF =  0.05000



 -------------------------------------------------------------------------------
 pm3  precise nosym THREADS=1
 InChI=1S/C7H12/c1-2-7-5-3-4-6-7/h3-4,7H,2,5-6H2,1H3



     GEOMETRY OPTIMISED USING EIGENVECTOR FOLLOWING (EF).     
     SCF FIELD WAS ACHIEVED                                   


                              PM3 CALCULATION
                                                       MOPAC2016 (Version: 18.184L)
                                                       Thu Jun 13 16:12:33 2019
                                                       No. of days remaining =  20




          FINAL HEAT OF FORMATION =         -7.97127 KCAL/MOL =     -33.35179 KJ/MOL


          TOTAL ENERGY            =      -1014.82072 EV
          ELECTRONIC ENERGY       =      -4931.88490 EV  POINT GROUP:     C1  
          CORE-CORE REPULSION     =       3917.06418 EV
          COSMO AREA              =        149.50 SQUARE ANGSTROMS
          COSMO VOLUME            =        145.05 CUBIC ANGSTROMS

          GRADIENT NORM           =          0.03387 = 0.00777 PER ATOM
          IONIZATION POTENTIAL    =          9.532942 EV
          HOMO LUMO ENERGIES (EV) =         -9.533  1.148
          NO. OF FILLED LEVELS    =         20
          MOLECULAR WEIGHT        =         96.1718

          MOLECULAR DIMENSIONS (Angstroms)

            Atom       Atom       Distance
            H    18    H    17     6.67636
            H    14    H    12     4.05281
            H    13    H    11     2.93750


          SCF CALCULATIONS        =         73
 
          WALL-CLOCK TIME         =          1.723 SECONDS
          COMPUTATION TIME        =          0.476 SECONDS




   ATOM   CHEMICAL          X               Y               Z
  NUMBER   SYMBOL      (ANGSTROMS)     (ANGSTROMS)     (ANGSTROMS)
 
     1       C          0.05318661  *  -0.02648990  *   0.56590300  *
     2       C          1.16646107  *   0.78755940  *  -0.08244144  *
     3       C         -1.17005145  *   0.85200422  *   0.91126100  *
     4       C         -0.49075770  *  -1.14114705  *  -0.35507607  *
     5       C          2.44880379  *  -0.00278661  *  -0.22017242  *
     6       C         -2.33712273  *   0.16601912  *   0.27883437  *
     7       C         -1.96729554  *  -0.91867157  *  -0.41058735  *
     8       H          0.45323089  *  -0.48464260  *   1.50063508  *
     9       H          1.35526389  *   1.69543759  *   0.52515766  *
    10       H          0.83844850  *   1.15668340  *  -1.07490522  *
    11       H         -1.31120449  *   0.94834153  *   2.00319037  *
    12       H         -1.07116442  *   1.88350942  *   0.52226413  *
    13       H         -0.05371245  *  -1.09767697  *  -1.37133493  *
    14       H         -0.25616428  *  -2.14796442  *   0.03597579  *
    15       H          2.82680092  *  -0.33719423  *   0.75526751  *
    16       H          2.30868298  *  -0.89929340  *  -0.83945793  *
    17       H          3.23760966  *   0.59938871  *  -0.68879494  *
    18       H         -3.34997438  *   0.55011805  *   0.39519733  *
    19       H         -2.62008824  *  -1.59125616  *  -0.96602206  *

                             CARTESIAN COORDINATES

   1    C        0.053186613    -0.026489902     0.565902996
   2    C        1.166461068     0.787559399    -0.082441444
   3    C       -1.170051453     0.852004217     0.911260999
   4    C       -0.490757697    -1.141147049    -0.355076071
   5    C        2.448803789    -0.002786609    -0.220172415
   6    C       -2.337122732     0.166019118     0.278834373
   7    C       -1.967295545    -0.918671569    -0.410587346
   8    H        0.453230893    -0.484642600     1.500635076
   9    H        1.355263894     1.695437591     0.525157664
  10    H        0.838448504     1.156683404    -1.074905220
  11    H       -1.311204489     0.948341530     2.003190366
  12    H       -1.071164417     1.883509416     0.522264127
  13    H       -0.053712453    -1.097676969    -1.371334928
  14    H       -0.256164283    -2.147964423     0.035975787
  15    H        2.826800920    -0.337194231     0.755267510
  16    H        2.308682979    -0.899293396    -0.839457933
  17    H        3.237609655     0.599388710    -0.688794941
  18    H       -3.349974379     0.550118053     0.395197326
  19    H       -2.620088242    -1.591256161    -0.966022065


           Empirical Formula: C7 H12  =    19 atoms



      MOLECULAR POINT GROUP   :   C1  


                  EIGENVALUES  
 -40.91399 -33.71956 -28.22806 -26.75446 -22.26239 -19.64520 -18.55148 -17.51236
 -16.11182 -14.93080 -14.52918 -13.73400 -13.46214 -13.33115 -12.67593 -12.54222
 -12.20469 -11.96197 -11.49326  -9.53294   1.14760   3.38863   3.44835   3.72397
   3.78195   3.84272   3.96371   3.97326   4.12521   4.22333   4.32586   4.37652
   4.55911   4.62407   4.78926   4.93906   5.24948   5.32107   5.62989   6.01650


              NET ATOMIC CHARGES AND DIPOLE CONTRIBUTIONS

  ATOM NO.   TYPE          CHARGE      No. of ELECS.   s-Pop       p-Pop       
    1          C          -0.081395        4.0814     1.18600     2.89539
    2          C          -0.094863        4.0949     1.16110     2.93376
    3          C          -0.067083        4.0671     1.15756     2.90953
    4          C          -0.067871        4.0679     1.15741     2.91046
    5          C          -0.111784        4.1118     1.13879     2.97299
    6          C          -0.156315        4.1563     1.20191     2.95440
    7          C          -0.154509        4.1545     1.20198     2.95253
    8          H           0.064760        0.9352     0.93524
    9          H           0.048717        0.9513     0.95128
   10          H           0.053132        0.9469     0.94687
   11          H           0.055192        0.9448     0.94481
   12          H           0.059453        0.9405     0.94055
   13          H           0.061693        0.9383     0.93831
   14          H           0.055397        0.9446     0.94460
   15          H           0.038034        0.9620     0.96197
   16          H           0.039348        0.9607     0.96065
   17          H           0.037429        0.9626     0.96257
   18          H           0.110424        0.8896     0.88958
   19          H           0.110241        0.8898     0.88976
 DIPOLE           X         Y         Z       TOTAL
 POINT-CHG.     0.190     0.067     0.004     0.201
 HYBRID        -0.010    -0.009    -0.012     0.018
 SUM            0.179     0.058    -0.007     0.189


          ATOMIC ORBITAL ELECTRON POPULATIONS

     Atom    s        px        py        pz   
    1  C   1.18600   0.95141   0.95837   0.98561
    2  C   1.16110   0.95029   0.97629   1.00718
    3  C   1.15756   0.93363   0.98040   0.99549
    4  C   1.15741   0.93961   0.97779   0.99306
    5  C   1.13879   0.96679   0.99689   1.00931
    6  C   1.20191   0.98063   0.97642   0.99735
    7  C   1.20198   0.96813   0.98314   1.00125
    8  H   0.93524
    9  H   0.95128
   10  H   0.94687
   11  H   0.94481
   12  H   0.94055
   13  H   0.93831
   14  H   0.94460
   15  H   0.96197
   16  H   0.96065
   17  H   0.96257
   18  H   0.88958
   19  H   0.88976
 *******************************************************************************
 ** Site#: 14399        For non-commercial use only    Version 18.184L 64BITS **
 *******************************************************************************
 ** Cite this program as: MOPAC2016, Version: 18.184L, James J. P. Stewart,   **
 ** Stewart Computational Chemistry, web: HTTP://OpenMOPAC.net. Days left:  20**
 *******************************************************************************
 **                                                                           **
 **                                MOPAC2016                                  **
 **                                                                           **
 *******************************************************************************

                              PM3 CALCULATION RESULTS

 *******************************************************************************
 *  CALCULATION DONE:                                Thu Jun 13 16:12:33 2019  *
 *  PM3        - The PM3 Hamiltonian to be used
 *  OLDGEO     - PREVIOUS GEOMETRY TO BE USED
 *  PRECISE    - CRITERIA TO BE INCREASED BY 100 TIMES
 *  NOSYM      - POINT-GROUP SYMMETRY SET TO C1
 *  THREADS=1  - MULTI-THREADING NOT USED
 *  T=         - A TIME OF 172800.0 SECONDS REQUESTED
 *  DUMP=N     - RESTART FILE WRITTEN EVERY  7200.000 SECONDS
 *  THERMO     - THERMODYNAMIC QUANTITIES TO BE CALCULATED
 *******************************************************************************
oldgeo thermo nosym precise THREADS=1  pm3
 InChI=1S/C7H12/c1-2-7-5-3-4-6-7/h3-4,7H,2,5-6H2,1H3

   ATOM   CHEMICAL          X               Y               Z
  NUMBER   SYMBOL      (ANGSTROMS)     (ANGSTROMS)     (ANGSTROMS)
 
     1       C          0.05318661  *  -0.02648990  *   0.56590300  *
     2       C          1.16646107  *   0.78755940  *  -0.08244144  *
     3       C         -1.17005145  *   0.85200422  *   0.91126100  *
     4       C         -0.49075770  *  -1.14114705  *  -0.35507607  *
     5       C          2.44880379  *  -0.00278661  *  -0.22017242  *
     6       C         -2.33712273  *   0.16601912  *   0.27883437  *
     7       C         -1.96729554  *  -0.91867157  *  -0.41058735  *
     8       H          0.45323089  *  -0.48464260  *   1.50063508  *
     9       H          1.35526389  *   1.69543759  *   0.52515766  *
    10       H          0.83844850  *   1.15668340  *  -1.07490522  *
    11       H         -1.31120449  *   0.94834153  *   2.00319037  *
    12       H         -1.07116442  *   1.88350942  *   0.52226413  *
    13       H         -0.05371245  *  -1.09767697  *  -1.37133493  *
    14       H         -0.25616428  *  -2.14796442  *   0.03597579  *
    15       H          2.82680092  *  -0.33719423  *   0.75526751  *
    16       H          2.30868298  *  -0.89929340  *  -0.83945793  *
    17       H          3.23760966  *   0.59938871  *  -0.68879494  *
    18       H         -3.34997438  *   0.55011805  *   0.39519733  *
    19       H         -2.62008824  *  -1.59125616  *  -0.96602206  *
 


          CARTESIAN COORDINATES 

    NO.       ATOM           X           Y           Z

     1         C          0.0532     -0.0265      0.5659
     2         C          1.1665      0.7876     -0.0824
     3         C         -1.1701      0.8520      0.9113
     4         C         -0.4908     -1.1411     -0.3551
     5         C          2.4488     -0.0028     -0.2202
     6         C         -2.3371      0.1660      0.2788
     7         C         -1.9673     -0.9187     -0.4106
     8         H          0.4532     -0.4846      1.5006
     9         H          1.3553      1.6954      0.5252
    10         H          0.8384      1.1567     -1.0749
    11         H         -1.3112      0.9483      2.0032
    12         H         -1.0712      1.8835      0.5223
    13         H         -0.0537     -1.0977     -1.3713
    14         H         -0.2562     -2.1480      0.0360
    15         H          2.8268     -0.3372      0.7553
    16         H          2.3087     -0.8993     -0.8395
    17         H          3.2376      0.5994     -0.6888
    18         H         -3.3500      0.5501      0.3952
    19         H         -2.6201     -1.5913     -0.9660

  H: (PM3): J. J. P. STEWART, J. COMP. CHEM. 10, 209 (1989).
  C: (PM3): J. J. P. STEWART, J. COMP. CHEM. 10, 209 (1989).

           Empirical Formula: C7 H12  =    19 atoms



      MOLECULAR POINT GROUP   :   C1  


      RHF CALCULATION, NO. OF DOUBLY OCCUPIED LEVELS = 20



          HEAT OF FORMATION =      -7.971270 KCALS/MOLE


          CARTESIAN COORDINATE DERIVATIVES

   NUMBER  ATOM         X            Y            Z

     1       C     -0.001626    -0.002481    -0.001135
     2       C      0.000552     0.000169    -0.003537
     3       C     -0.003901    -0.000115     0.000002
     4       C     -0.001854     0.002074     0.000288
     5       C     -0.001135     0.003792     0.001181
     6       C      0.000170    -0.000600    -0.005314
     7       C     -0.003200    -0.005680     0.001302
     8       H      0.000275    -0.003979    -0.000079
     9       H     -0.005586     0.002633    -0.001211
    10       H      0.001102    -0.006876    -0.000288
    11       H     -0.007717     0.005500    -0.003300
    12       H      0.005488     0.000021     0.004184
    13       H      0.002450     0.005846    -0.001721
    14       H      0.010243     0.000136     0.003077
    15       H      0.004877     0.000406     0.001126
    16       H      0.004630    -0.005048     0.002678
    17       H     -0.001763    -0.001093     0.000671
    18       H      0.010945    -0.002785     0.004768
    19       H     -0.013949     0.008080    -0.002692
 


          GRADIENT NORM =   0.03236


          TIME FOR SCF CALCULATION =    0.02

          TIME FOR DERIVATIVES     =    0.01

          MOLECULAR WEIGHT =   96.17



          ROTATIONAL CONSTANTS IN CM(-1)

          A =    0.19064756   B =    0.06024646   C =    0.04984357



           PRINCIPAL MOMENTS OF INERTIA IN UNITS OF 10**(-40)*GRAM-CM**2

          A =      146.8300   B =      464.6377   C =      561.6125


          ORIENTATION OF MOLECULE IN FORCE CALCULATION

    NO.       ATOM         X         Y         Z

     1          C       0.0329   -0.1384    0.5493
     2          C       1.5569   -0.1384    0.5493
     3          C      -0.5384    1.2972    0.5493
     4          C      -0.5681   -0.8177   -0.7013
     5          C       2.1300   -1.5197    0.7760
     6          C      -1.4883    1.3417   -0.6032
     7          C      -1.5042    0.1906   -1.2840
     8          H      -0.3173   -0.6741    1.4625
     9          H       1.9212    0.5474    1.3404
    10          H       1.9366    0.2793   -0.4047
    11          H      -1.0546    1.5337    1.4975
    12          H       0.2504    2.0644    0.4294
    13          H       0.2068   -1.0997   -1.4401
    14          H      -1.1009   -1.7517   -0.4453
    15          H       1.8126   -1.9381    1.7406
    16          H       1.8123   -2.2244   -0.0046
    17          H       3.2273   -1.4995    0.7724
    18          H      -2.0725    2.2353   -0.8203
    19          H      -2.1041   -0.0370   -2.1645


    FIRST DERIVATIVES WILL BE USED IN THE CALCULATION OF SECOND DERIVATIVES

          ESTIMATED TIME TO COMPLETE CALCULATION =        6.23 SECONDS

    FOR POINT-GROUP C1   THERE ARE   1 UNIQUE SYMMETRY FUNCTIONS.

 STEP:   1 TIME =     0.03 SECS, INTEGRAL =      0.03 TIME LEFT: 172799.94
 STEP:   2 TIME =     0.04 SECS, INTEGRAL =      0.07 TIME LEFT: 172799.91
 STEP:   3 TIME =     0.04 SECS, INTEGRAL =      0.10 TIME LEFT: 172799.87
 STEP:   4 TIME =     0.03 SECS, INTEGRAL =      0.13 TIME LEFT: 172799.84
 STEP:   5 TIME =     0.04 SECS, INTEGRAL =      0.17 TIME LEFT: 172799.80
 STEP:   6 TIME =     0.04 SECS, INTEGRAL =      0.20 TIME LEFT: 172799.77
 STEP:   7 TIME =     0.04 SECS, INTEGRAL =      0.24 TIME LEFT: 172799.73
 STEP:   8 TIME =     0.04 SECS, INTEGRAL =      0.27 TIME LEFT: 172799.70
 STEP:   9 TIME =     0.04 SECS, INTEGRAL =      0.31 TIME LEFT: 172799.66
 STEP:  10 TIME =     0.04 SECS, INTEGRAL =      0.34 TIME LEFT: 172799.63
 STEP:  11 TIME =     0.03 SECS, INTEGRAL =      0.38 TIME LEFT: 172799.60
 STEP:  12 TIME =     0.04 SECS, INTEGRAL =      0.41 TIME LEFT: 172799.56
 STEP:  13 TIME =     0.04 SECS, INTEGRAL =      0.45 TIME LEFT: 172799.53
 STEP:  14 TIME =     0.04 SECS, INTEGRAL =      0.48 TIME LEFT: 172799.49
 STEP:  15 TIME =     0.04 SECS, INTEGRAL =      0.52 TIME LEFT: 172799.46
 STEP:  16 TIME =     0.04 SECS, INTEGRAL =      0.55 TIME LEFT: 172799.42
 STEP:  17 TIME =     0.04 SECS, INTEGRAL =      0.59 TIME LEFT: 172799.39
 STEP:  18 TIME =     0.04 SECS, INTEGRAL =      0.62 TIME LEFT: 172799.35
 STEP:  19 TIME =     0.04 SECS, INTEGRAL =      0.66 TIME LEFT: 172799.32
 STEP:  20 TIME =     0.04 SECS, INTEGRAL =      0.69 TIME LEFT: 172799.28
 STEP:  21 TIME =     0.03 SECS, INTEGRAL =      0.72 TIME LEFT: 172799.25
 STEP:  22 TIME =     0.04 SECS, INTEGRAL =      0.76 TIME LEFT: 172799.21
 STEP:  23 TIME =     0.04 SECS, INTEGRAL =      0.79 TIME LEFT: 172799.18
 STEP:  24 TIME =     0.04 SECS, INTEGRAL =      0.83 TIME LEFT: 172799.14
 STEP:  25 TIME =     0.04 SECS, INTEGRAL =      0.86 TIME LEFT: 172799.11
 STEP:  26 TIME =     0.04 SECS, INTEGRAL =      0.90 TIME LEFT: 172799.07
 STEP:  27 TIME =     0.04 SECS, INTEGRAL =      0.93 TIME LEFT: 172799.04
 STEP:  28 TIME =     0.04 SECS, INTEGRAL =      0.97 TIME LEFT: 172799.00
 STEP:  29 TIME =     0.04 SECS, INTEGRAL =      1.00 TIME LEFT: 172798.97
 STEP:  30 TIME =     0.04 SECS, INTEGRAL =      1.04 TIME LEFT: 172798.93
 STEP:  31 TIME =     0.03 SECS, INTEGRAL =      1.07 TIME LEFT: 172798.90
 STEP:  32 TIME =     0.04 SECS, INTEGRAL =      1.11 TIME LEFT: 172798.87
 STEP:  33 TIME =     0.04 SECS, INTEGRAL =      1.14 TIME LEFT: 172798.83
 STEP:  34 TIME =     0.04 SECS, INTEGRAL =      1.18 TIME LEFT: 172798.80
 STEP:  35 TIME =     0.04 SECS, INTEGRAL =      1.21 TIME LEFT: 172798.76
 STEP:  36 TIME =     0.04 SECS, INTEGRAL =      1.25 TIME LEFT: 172798.73
 STEP:  37 TIME =     0.04 SECS, INTEGRAL =      1.28 TIME LEFT: 172798.69
 STEP:  38 TIME =     0.04 SECS, INTEGRAL =      1.32 TIME LEFT: 172798.66
 STEP:  39 TIME =     0.04 SECS, INTEGRAL =      1.35 TIME LEFT: 172798.62
 STEP:  40 TIME =     0.04 SECS, INTEGRAL =      1.39 TIME LEFT: 172798.59
 STEP:  41 TIME =     0.03 SECS, INTEGRAL =      1.42 TIME LEFT: 172798.55
 STEP:  42 TIME =     0.04 SECS, INTEGRAL =      1.45 TIME LEFT: 172798.52
 STEP:  43 TIME =     0.04 SECS, INTEGRAL =      1.49 TIME LEFT: 172798.48
 STEP:  44 TIME =     0.04 SECS, INTEGRAL =      1.52 TIME LEFT: 172798.45
 STEP:  45 TIME =     0.03 SECS, INTEGRAL =      1.55 TIME LEFT: 172798.42
 STEP:  46 TIME =     0.04 SECS, INTEGRAL =      1.59 TIME LEFT: 172798.38
 STEP:  47 TIME =     0.04 SECS, INTEGRAL =      1.62 TIME LEFT: 172798.35
 STEP:  48 TIME =     0.03 SECS, INTEGRAL =      1.66 TIME LEFT: 172798.32
 STEP:  49 TIME =     0.04 SECS, INTEGRAL =      1.69 TIME LEFT: 172798.28
 STEP:  50 TIME =     0.04 SECS, INTEGRAL =      1.73 TIME LEFT: 172798.25
 STEP:  51 TIME =     0.04 SECS, INTEGRAL =      1.76 TIME LEFT: 172798.21
 STEP:  52 TIME =     0.04 SECS, INTEGRAL =      1.80 TIME LEFT: 172798.18
 STEP:  53 TIME =     0.03 SECS, INTEGRAL =      1.83 TIME LEFT: 172798.14
 STEP:  54 TIME =     0.04 SECS, INTEGRAL =      1.86 TIME LEFT: 172798.11
 STEP:  55 TIME =     0.04 SECS, INTEGRAL =      1.90 TIME LEFT: 172798.07
 STEP:  56 TIME =     0.04 SECS, INTEGRAL =      1.93 TIME LEFT: 172798.04
 STEP:  57 TIME =     0.04 SECS, INTEGRAL =      1.97 TIME LEFT: 172798.00

(To convert to Hartree/Bohr^2, multiply by (10^(-21) x N x a0^2)/(4.184 x 627.51) =  0.0642)


           FORCE MATRIX IN MILLIDYNES/ANGSTROM


                  C  1       C  2       C  3       C  4       C  5       C  6
 ------------------------------------------------------------------------------
     C    1  14.194921
     C    2   4.037806  14.388051
     C    3   3.480614   0.593116  14.626510
     C    4   3.484682   0.574668   0.724785  14.614567
     C    5   0.634664   4.451374   0.049508   0.043859  14.351691
     C    6   0.857285   0.032787   4.761527   1.186940   0.006844  18.399678
     C    7   0.859195   0.035322   1.187847   4.758216   0.002901  10.594109
     H    8   4.290730   0.430675   0.422879   0.423915   0.037768   0.023563
     H    9   0.434996   4.440645   0.039627   0.046401   0.436124   0.001947
     H   10   0.448239   4.445382   0.017712   0.026832   0.437648   0.001452
     H   11   0.435840   0.025475   4.531758   0.031106   0.004008   0.431956
     H   12   0.446663   0.064651   4.474811   0.024055   0.002392   0.426270
     H   13   0.446766   0.054127   0.024327   4.466845   0.013459   0.036625
     H   14   0.434553   0.025008   0.030989   4.529525   0.001981   0.039424
     H   15   0.023855   0.463815   0.001766   0.002442   4.721289   0.000616
     H   16   0.018857   0.464339   0.001641   0.012544   4.707424   0.000876
     H   17   0.051084   0.449973   0.008468   0.002539   4.752476   0.001131
     H   18   0.042305   0.004069   0.412034   0.114107   0.001251   5.022867
     H   19   0.042322   0.004504   0.113552   0.411614   0.000756   0.450865


                  C  7       H  8       H  9       H 10       H 11       H 12
 ------------------------------------------------------------------------------
     C    7  18.400023
     H    8   0.023766   4.748056
     H    9   0.005072   0.023978   5.055393
     H   10   0.001663   0.043828   0.568970   5.064909
     H   11   0.039409   0.028866   0.001867   0.001146   5.135666
     H   12   0.036989   0.028362   0.031250   0.016655   0.571283   5.097228
     H   13   0.426567   0.027873   0.002695   0.030278   0.003618   0.001356
     H   14   0.431643   0.028992   0.004049   0.001504   0.001093   0.003513
     H   15   0.000518   0.024854   0.025766   0.047698   0.000241   0.000429
     H   16   0.000648   0.002107   0.048424   0.023704   0.000344   0.000435
     H   17   0.000415   0.002089   0.030729   0.030683   0.000810   0.000600
     H   18   0.450366   0.002442   0.000542   0.000464   0.015374   0.014202
     H   19   5.022166   0.002487   0.001118   0.000544   0.014888   0.015383


                  H 13       H 14       H 15       H 16       H 17       H 18
 ------------------------------------------------------------------------------
     H   13   5.089672
     H   14   0.571560   5.134602
     H   15   0.000490   0.000452   5.465363
     H   16   0.023611   0.002274   0.575988   5.451858
     H   17   0.000674   0.000461   0.573618   0.573097   5.489054
     H   18   0.015239   0.015143   0.000202   0.000179   0.000350   5.419896
     H   19   0.014219   0.015384   0.000217   0.000336   0.000176   0.046722


                  H 19
 ------------------
     H   19   5.419039


          HEAT OF FORMATION =      -7.971270 KCALS/MOLE

          ZERO POINT ENERGY     107.598 KCAL/MOL


           NORMAL COORDINATE ANALYSIS (Total motion = 1 Angstrom)


   Root No.       1         2         3         4         5         6         7         8

                 1 A       2 A       3 A       4 A       5 A       6 A       7 A       8 A   

                  91.5     118.1     191.0     263.1     370.2     421.7     439.8     662.3
  
           1   -0.0128    0.0032   -0.0003   -0.0201    0.0049    0.0202   -0.0318    0.0091
           2   -0.0077   -0.0150   -0.0079   -0.0249   -0.0034    0.0276    0.0023   -0.0281
           3    0.0214   -0.0165   -0.0081   -0.0049   -0.0066   -0.0069    0.0374    0.0479
           4   -0.0121    0.0038    0.0001   -0.0193    0.0041    0.0304   -0.0325    0.0311
           5    0.0074   -0.0063   -0.0049   -0.0117    0.0108   -0.0325   -0.0316    0.0167
           6   -0.0112   -0.0435   -0.0153    0.0344   -0.0001    0.0130   -0.0226    0.0063
           7   -0.0197   -0.0054    0.0077    0.0238   -0.0070   -0.0422   -0.0079   -0.0041
           8   -0.0099   -0.0186   -0.0042   -0.0048   -0.0100    0.0122    0.0194   -0.0470
           9    0.0212    0.0176   -0.0011   -0.0184    0.0116   -0.0041    0.0022   -0.0169
          10   -0.0278   -0.0134   -0.0196   -0.0279    0.0091   -0.0097    0.0290   -0.0115
          11   -0.0195    0.0016   -0.0046   -0.0041    0.0012    0.0230    0.0157    0.0335
          12    0.0349   -0.0178    0.0001   -0.0131   -0.0112    0.0122    0.0049    0.0201
          13    0.0110    0.0116    0.0170    0.0481   -0.0116    0.0452    0.0191   -0.0008
          14    0.0142    0.0123    0.0076    0.0142    0.0053   -0.0389   -0.0091    0.0034
          15   -0.0288    0.0494    0.0151    0.0058    0.0008    0.0082   -0.0054   -0.0004
          16    0.0351    0.0018    0.0040    0.0109    0.0443   -0.0277    0.0009   -0.0149
          17    0.0100    0.0073    0.0062    0.0135    0.0158    0.0134    0.0040    0.0040
          18   -0.0228    0.0130    0.0029   -0.0057   -0.0291   -0.0232   -0.0075   -0.0173
          19    0.0304   -0.0015   -0.0108   -0.0248   -0.0406   -0.0184    0.0094   -0.0241
          20    0.0054    0.0192    0.0063    0.0101   -0.0196    0.0060   -0.0051    0.0119
          21   -0.0147   -0.0071    0.0032    0.0012    0.0328   -0.0085    0.0075   -0.0225
          22    0.0115    0.0222    0.0044   -0.0428    0.0085    0.0278   -0.0472    0.0473
          23   -0.0050   -0.0310   -0.0056   -0.0222   -0.0176    0.0333    0.0150   -0.0406
          24    0.0319   -0.0186   -0.0046   -0.0129   -0.0130    0.0004    0.0362    0.0541
          25   -0.0020    0.0169   -0.0064   -0.0601   -0.0009    0.0307    0.0171    0.0675
          26    0.0083    0.0510    0.0130   -0.0234    0.0073   -0.0448    0.0051    0.0369
          27   -0.0165   -0.0990   -0.0272    0.0646    0.0053    0.0231   -0.0782   -0.0293
          28   -0.0382   -0.0139   -0.0014   -0.0111    0.0108    0.0533   -0.0871   -0.0076
          29    0.0153   -0.0728   -0.0204    0.0297    0.0147   -0.0337   -0.0730   -0.0074
          30   -0.0181   -0.0796   -0.0225    0.0553    0.0045    0.0224   -0.0649   -0.0201
          31   -0.0709   -0.0144    0.0126    0.0492   -0.0874   -0.0971   -0.0066    0.0305
          32   -0.0334   -0.0484   -0.0050    0.0294   -0.0665   -0.0462    0.0616    0.0225
          33   -0.0006    0.0202    0.0018   -0.0136   -0.0165   -0.0183   -0.0082   -0.0178
          34   -0.0182   -0.0101    0.0110    0.0466   -0.0111   -0.0695    0.0100    0.0191
          35   -0.0025   -0.0096   -0.0074   -0.0314    0.0082    0.0464   -0.0021   -0.0798
          36    0.0795    0.0448   -0.0011   -0.0460    0.1142    0.0573   -0.0193   -0.0890
          37   -0.0315   -0.0211   -0.0282   -0.0287    0.0082   -0.0227    0.0656    0.0088
          38   -0.0872   -0.0105   -0.0223    0.0037    0.0868   -0.0038    0.1000    0.1022
          39    0.0571   -0.0211   -0.0017   -0.0164   -0.0466    0.0097    0.0076    0.0141
          40   -0.0821   -0.0294   -0.0336   -0.0324    0.0834   -0.0178    0.0859    0.0138
          41    0.0180    0.0100    0.0058   -0.0048   -0.0463    0.0358   -0.0324    0.0068
          42    0.0599   -0.0196    0.0095   -0.0257   -0.0352    0.0440   -0.0580   -0.0340
          43    0.0330    0.0490   -0.1635    0.1215   -0.0224    0.0625    0.0368   -0.0314
          44    0.0045    0.0930   -0.0713    0.0017    0.0085   -0.0475   -0.0127    0.0038
          45   -0.0258    0.0968   -0.0782    0.0239   -0.0011    0.0097   -0.0017   -0.0099
          46    0.0097   -0.0213    0.2148    0.0371   -0.0199    0.0507    0.0629   -0.0358
          47    0.0127   -0.0510    0.0440   -0.0002    0.0118   -0.0416   -0.0361    0.0327
          48   -0.0269    0.1201   -0.0978    0.0237   -0.0018    0.0090    0.0017   -0.0138
          49    0.0107    0.0115    0.0169    0.0475   -0.0116    0.0457    0.0188   -0.0007
          50    0.0306    0.0103    0.0613    0.0660   -0.0111   -0.0227    0.0503   -0.0574
          51   -0.0468    0.0049    0.2467   -0.0561    0.0060   -0.0019    0.0000    0.0073
          52    0.0699    0.0081    0.0129    0.0294    0.1084   -0.0259   -0.0019    0.0446
          53    0.0250    0.0145    0.0126    0.0267    0.0461    0.0116   -0.0021    0.0434
          54   -0.0547    0.0257    0.0054   -0.0014   -0.0771   -0.0359   -0.0249   -0.0141
          55    0.0601    0.0021   -0.0172   -0.0464   -0.1050   -0.0106    0.0107    0.0245
          56    0.0162    0.0389    0.0128    0.0174   -0.0446   -0.0153   -0.0222    0.0041
          57   -0.0378   -0.0147    0.0059    0.0140    0.0831   -0.0085    0.0111   -0.0533


   Root No.       9        10        11        12        13        14        15        16

                 9 A      10 A      11 A      12 A      13 A      14 A      15 A      16 A   

                 752.3     771.1     831.2     869.3     874.3     960.5     992.6    1000.6
  
           1   -0.0000    0.0018    0.0005    0.0022    0.0171   -0.0056   -0.0066    0.0098
           2    0.0043   -0.0460    0.0005   -0.0003    0.0086   -0.0069   -0.0141    0.0072
           3   -0.0189   -0.0136    0.0024   -0.0018   -0.0141    0.0174   -0.0110    0.0097
           4    0.0042   -0.0006   -0.0085   -0.0020   -0.0300    0.0039   -0.0026    0.0043
           5   -0.0007    0.0005   -0.0086   -0.0010   -0.0116    0.0011   -0.0021    0.0038
           6   -0.0076   -0.0104   -0.0348    0.0056    0.0070    0.0061   -0.0056    0.0074
           7   -0.0163   -0.0261    0.0093    0.0265    0.0189    0.0152    0.0011   -0.0181
           8    0.0094   -0.0244   -0.0090    0.0032   -0.0286    0.0079    0.0108   -0.0094
           9    0.0095   -0.0494   -0.0003   -0.0258   -0.0154   -0.0159    0.0178    0.0020
          10   -0.0083    0.0348   -0.0020   -0.0222    0.0264    0.0159    0.0053    0.0103
          11   -0.0201   -0.0300    0.0201   -0.0157    0.0326    0.0026    0.0277   -0.0119
          12    0.0028    0.0201    0.0214    0.0164    0.0135   -0.0190    0.0061   -0.0174
          13    0.0035   -0.0041   -0.0047   -0.0016   -0.0205    0.0116    0.0114   -0.0165
          14   -0.0036    0.0023   -0.0003    0.0040    0.0066    0.0011    0.0028   -0.0042
          15    0.0007   -0.0021   -0.0088    0.0025    0.0015   -0.0106    0.0036   -0.0054
          16   -0.0155   -0.0434    0.0041    0.0006   -0.0125   -0.0135    0.0121    0.0202
          17    0.0020    0.0828   -0.0065    0.0035   -0.0035   -0.0052    0.0065    0.0099
          18    0.0132   -0.0201   -0.0030    0.0006    0.0050    0.0103   -0.0208   -0.0108
          19   -0.0032    0.0487   -0.0037   -0.0038   -0.0115   -0.0134   -0.0132   -0.0193
          20   -0.0059    0.0302   -0.0012    0.0013   -0.0031   -0.0043   -0.0163   -0.0023
          21    0.0236    0.0686   -0.0114    0.0045    0.0042    0.0110    0.0171    0.0131
          22    0.0085    0.0166    0.0326   -0.0011    0.0027   -0.0734   -0.0260    0.0307
          23    0.0061   -0.0340    0.0064    0.0515    0.0032    0.0088   -0.1008   -0.0036
          24   -0.0146   -0.0001    0.0199    0.0276   -0.0191   -0.0003   -0.0688    0.0107
          25   -0.0257   -0.0431   -0.0771   -0.0010   -0.0268    0.0537   -0.0520    0.0783
          26   -0.0214   -0.0106   -0.1217    0.0198    0.0160   -0.0202    0.0187   -0.0314
          27    0.0250    0.0192    0.1009   -0.0131   -0.0184    0.0013   -0.0022    0.0050
          28    0.0387    0.0137    0.0513   -0.0048   -0.0318   -0.0789    0.0071   -0.0177
          29    0.0245    0.0350    0.1407   -0.0225   -0.0516    0.0425   -0.0039    0.0056
          30    0.0183    0.0114    0.0590   -0.0059   -0.0136   -0.0081   -0.0020   -0.0010
          31    0.0583   -0.0174   -0.0013   -0.0675    0.0233   -0.0618    0.0180   -0.0361
          32    0.0392   -0.0520   -0.0178   -0.0976   -0.1080   -0.0255    0.0458    0.0824
          33    0.0406   -0.0402   -0.0037   -0.0484    0.0074   -0.0476    0.0170   -0.0319
          34   -0.0179   -0.0006    0.0109   -0.0002   -0.0111    0.0086    0.0485    0.0131
          35    0.0006   -0.0514   -0.0084    0.0466    0.0055    0.0246   -0.0353   -0.0470
          36   -0.0714   -0.0368    0.0155    0.1042    0.0138    0.0643    0.0256   -0.0442
          37   -0.0106    0.0203    0.0247   -0.0041   -0.0117    0.0053   -0.0425   -0.0276
          38    0.0533   -0.0526    0.0529    0.1042   -0.0415   -0.0768   -0.0028   -0.0510
          39   -0.0307    0.0114    0.0358   -0.0144    0.0039    0.0031   -0.0311   -0.0402
          40    0.0610   -0.0060    0.0224    0.0673    0.0096   -0.0566   -0.0105    0.0245
          41   -0.0636   -0.0182    0.0038   -0.0796    0.0675    0.0471    0.0487   -0.0017
          42   -0.0170   -0.0125    0.0079   -0.0420    0.1111   -0.0009    0.0572    0.0517
          43   -0.0017   -0.0195   -0.0325    0.0080    0.0483   -0.0557   -0.0202    0.0264
          44    0.0110    0.0264    0.1118   -0.0216   -0.0496    0.0850   -0.0026    0.0074
          45    0.0057    0.0042    0.0343   -0.0063   -0.0024    0.0062   -0.0089    0.0138
          46    0.0050   -0.0064    0.0484   -0.0114    0.0267   -0.0060   -0.0389    0.0550
          47   -0.0139   -0.0107   -0.1049    0.0270    0.0042   -0.0326    0.0426   -0.0623
          48    0.0099    0.0107    0.0690   -0.0151   -0.0154    0.0282   -0.0138    0.0211
          49    0.0036   -0.0045   -0.0049   -0.0017   -0.0213    0.0116    0.0113   -0.0164
          50   -0.0068   -0.0114    0.0327    0.0055    0.1171   -0.0694   -0.0718    0.1014
          51    0.0073    0.0095    0.0455   -0.0113   -0.0334    0.0350    0.0036   -0.0013
          52    0.1442   -0.1004   -0.0175   -0.0857    0.0815    0.0441   -0.1059   -0.0569
          53    0.0690    0.0493   -0.0117   -0.0322    0.0510    0.0214   -0.0665   -0.0163
          54   -0.1408   -0.0065    0.0358    0.0852   -0.0203   -0.0366    0.0011    0.0849
          55    0.1603    0.0150    0.0034    0.1049    0.0556    0.0395    0.1203    0.0388
          56    0.0777   -0.0523   -0.0252    0.0595   -0.0264    0.0374   -0.0542    0.0976
          57   -0.1094    0.1137   -0.0097   -0.0843   -0.0346   -0.0359   -0.0648   -0.0518


   Root No.      17        18        19        20        21        22        23        24

                17 A      18 A      19 A      20 A      21 A      22 A      23 A      24 A   

                1019.7    1040.7    1072.6    1079.2    1102.1    1113.0    1119.9    1139.4
  
           1   -0.0143    0.0102   -0.0221   -0.0027   -0.0024   -0.0001   -0.0014   -0.0118
           2    0.0191   -0.0001    0.0170   -0.0028   -0.0083    0.0139   -0.0008    0.0227
           3   -0.0147   -0.0010   -0.0164   -0.0046    0.0101    0.0091   -0.0091   -0.0175
           4   -0.0072    0.0032    0.0163    0.0053   -0.0029   -0.0016    0.0088   -0.0044
           5   -0.0008    0.0010    0.0082   -0.0058    0.0016   -0.0255   -0.0163    0.0340
           6    0.0046    0.0210    0.0057    0.0001   -0.0066   -0.0089    0.0138   -0.0089
           7   -0.0114    0.0049    0.0047    0.0073    0.0105   -0.0034   -0.0066   -0.0011
           8   -0.0221    0.0029   -0.0081    0.0025    0.0089   -0.0200   -0.0118   -0.0287
           9    0.0004    0.0097    0.0108    0.0010    0.0068    0.0079   -0.0078   -0.0095
          10    0.0083   -0.0165   -0.0004   -0.0070    0.0122    0.0020   -0.0034   -0.0084
          11   -0.0085   -0.0016   -0.0082   -0.0029   -0.0095    0.0018    0.0151    0.0162
          12    0.0099    0.0016    0.0041    0.0041   -0.0024   -0.0195    0.0163    0.0066
          13    0.0229   -0.0062   -0.0057   -0.0034    0.0003    0.0025   -0.0042    0.0068
          14   -0.0011   -0.0002   -0.0001    0.0090   -0.0013    0.0251    0.0178   -0.0317
          15   -0.0046   -0.0126   -0.0054    0.0005    0.0064    0.0070   -0.0206    0.0142
          16    0.0122   -0.0049   -0.0114   -0.0255   -0.0138    0.0015    0.0130    0.0098
          17    0.0075    0.0065    0.0105   -0.0058    0.0088    0.0034   -0.0112   -0.0104
          18   -0.0027   -0.0122   -0.0077    0.0149   -0.0120   -0.0067    0.0080    0.0105
          19   -0.0042    0.0123   -0.0129    0.0193   -0.0164    0.0029    0.0096    0.0174
          20    0.0066    0.0007   -0.0038    0.0105    0.0063   -0.0044   -0.0010   -0.0044
          21   -0.0109   -0.0043   -0.0023   -0.0176   -0.0136    0.0104    0.0107    0.0171
          22   -0.0888   -0.0348   -0.0697   -0.0162    0.0609   -0.0040   -0.0996   -0.0415
          23    0.0650   -0.0267    0.0203   -0.0247   -0.0214    0.1880   -0.0089    0.0450
          24   -0.0150   -0.0335   -0.0341   -0.0228    0.0281    0.1101   -0.0508   -0.0176
          25   -0.0083    0.1059    0.0796    0.0393   -0.0125    0.0239   -0.0145    0.0194
          26    0.0132   -0.0194   -0.0062   -0.0348   -0.0052   -0.0834    0.0225    0.0253
          27   -0.0089   -0.0086   -0.0109    0.0100    0.0043    0.0304   -0.0099   -0.0119
          28   -0.0481   -0.0943    0.0647    0.0156   -0.0082    0.0335    0.1058   -0.0853
          29    0.0051    0.0100   -0.0415   -0.0137    0.0236   -0.0168   -0.1192    0.1059
          30   -0.0089   -0.0146    0.0017    0.0009    0.0011    0.0099    0.0069   -0.0109
          31    0.0464    0.0918    0.0428   -0.0921    0.0764    0.0445   -0.0344   -0.0221
          32   -0.0292   -0.0720   -0.0007    0.1016   -0.0522   -0.0214   -0.0032   -0.0048
          33    0.0341    0.0756    0.0315   -0.0775    0.0586    0.0355   -0.0269   -0.0282
          34   -0.0235   -0.0234    0.0941    0.1203    0.0440    0.0352   -0.0189    0.0460
          35   -0.0159    0.0296   -0.0868   -0.0973   -0.0155   -0.0581   -0.0075   -0.0757
          36   -0.0490   -0.0040    0.0774    0.0951    0.0644    0.0138   -0.0421   -0.0029
          37   -0.0022   -0.0611    0.1037   -0.0826    0.0576   -0.0521    0.0158   -0.0098
          38   -0.0149    0.0453   -0.0280    0.0251   -0.0537   -0.0016    0.0365    0.0503
          39    0.0006   -0.0632    0.1181   -0.0853    0.0608   -0.0728    0.0298   -0.0056
          40    0.1167    0.0174   -0.0211    0.1036    0.0763   -0.0515   -0.0151   -0.0395
          41   -0.0395   -0.0209   -0.0160   -0.0352   -0.0259    0.0323    0.0185    0.0291
          42    0.1247    0.0005   -0.0616    0.1182    0.0744   -0.0267    0.0003   -0.0194
          43   -0.0494   -0.0167    0.0135   -0.0005    0.0088   -0.0168   -0.0375    0.0456
          44    0.0477    0.0621    0.0049    0.0078   -0.0289    0.0093    0.0912   -0.0868
          45   -0.0058    0.0125    0.0024    0.0007   -0.0028   -0.0073    0.0002    0.0030
          46   -0.0333    0.0343    0.0291   -0.0047   -0.0084   -0.0465    0.0042    0.0270
          47    0.0111   -0.0613   -0.0294    0.0160    0.0171    0.0826   -0.0192   -0.0324
          48    0.0060    0.0294    0.0076   -0.0046   -0.0078   -0.0256    0.0106    0.0058
          49    0.0231   -0.0065   -0.0044   -0.0034    0.0003    0.0023   -0.0042    0.0077
          50   -0.1167    0.0401    0.0378    0.0207   -0.0108   -0.0097    0.0239   -0.0248
          51    0.0238    0.0193   -0.0059   -0.0020   -0.0057   -0.0095    0.0084   -0.0040
          52    0.0198   -0.0489    0.0056    0.0340   -0.0737   -0.0397   -0.0396   -0.0337
          53    0.0412   -0.0347    0.0307    0.0183   -0.0579   -0.0352   -0.0692   -0.0643
          54    0.1125   -0.0599    0.0287   -0.0466   -0.1280   -0.0490   -0.0817   -0.0815
          55   -0.0258    0.0018    0.0381   -0.0346   -0.0732    0.0232   -0.0504   -0.0134
          56    0.0230   -0.0626   -0.0692   -0.0402    0.1523   -0.0195    0.1331    0.0609
          57    0.0008    0.0180   -0.0212    0.0320   -0.0131   -0.0002    0.0194    0.0234


   Root No.      25        26        27        28        29        30        31        32

                25 A      26 A      27 A      28 A      29 A      30 A      31 A      32 A   

                1144.6    1174.3    1225.5    1246.3    1271.9    1339.0    1371.4    1381.5
  
           1    0.0024    0.0153    0.0356    0.0186    0.0419   -0.0179   -0.0027    0.0323
           2    0.0020    0.0194   -0.0377    0.0003    0.0638    0.0086   -0.0034   -0.0100
           3   -0.0019   -0.0302   -0.0278    0.0007    0.0424    0.0090   -0.0056    0.0123
           4   -0.0147   -0.0259    0.0171    0.0044   -0.0037    0.0375   -0.0062   -0.0040
           5    0.0177   -0.0223   -0.0155   -0.0063   -0.0158   -0.0253   -0.0033    0.0117
           6    0.0244    0.0198    0.0063   -0.0006   -0.0093    0.0042    0.0020   -0.0035
           7    0.0036   -0.0055   -0.0049   -0.0140    0.0240   -0.0165    0.0287   -0.0198
           8   -0.0035   -0.0038    0.0039    0.0144   -0.0357    0.0107   -0.0273    0.0102
           9    0.0057   -0.0007    0.0197   -0.0023    0.0174   -0.0187    0.0214   -0.0148
          10    0.0008   -0.0049    0.0020    0.0160   -0.0136   -0.0244   -0.0181   -0.0273
          11   -0.0012    0.0015    0.0017   -0.0048   -0.0230    0.0120    0.0010    0.0116
          12   -0.0114    0.0095    0.0127    0.0239   -0.0154   -0.0289   -0.0234   -0.0241
          13    0.0069    0.0091   -0.0096   -0.0019    0.0026   -0.0033    0.0004   -0.0071
          14   -0.0198    0.0169    0.0002   -0.0021   -0.0009   -0.0090    0.0001    0.0243
          15   -0.0252   -0.0032    0.0017   -0.0003    0.0005    0.0009    0.0003   -0.0020
          16   -0.0046    0.0022    0.0034   -0.0146   -0.0162    0.0076   -0.0282    0.0040
          17    0.0023   -0.0030    0.0042   -0.0072    0.0155   -0.0061    0.0063   -0.0049
          18   -0.0004    0.0029    0.0040   -0.0211   -0.0108    0.0066   -0.0325    0.0018
          19   -0.0010    0.0022   -0.0167    0.0060   -0.0031    0.0162    0.0235    0.0122
          20    0.0008   -0.0025    0.0124   -0.0180    0.0081   -0.0105   -0.0237   -0.0076
          21   -0.0012    0.0041   -0.0116   -0.0044   -0.0004    0.0149    0.0164    0.0108
          22    0.1152    0.1797   -0.0945   -0.0468   -0.0894    0.0396    0.0057   -0.0479
          23    0.0797   -0.0576    0.1441   -0.0029   -0.0939   -0.0258    0.0189    0.0153
          24    0.0878   -0.0132    0.0272   -0.0266   -0.1002    0.0098    0.0109   -0.0043
          25   -0.1252    0.0601   -0.0615   -0.0620   -0.1607   -0.0683    0.0373   -0.0476
          26    0.1462   -0.0570    0.0513    0.0277    0.0395    0.0685    0.0193   -0.0624
          27   -0.0344    0.0085   -0.0154    0.0004    0.0146   -0.0249   -0.0329    0.0706
          28    0.0308   -0.1230   -0.1317   -0.0412   -0.0379   -0.0573    0.0244   -0.0363
          29   -0.0740   -0.0200    0.0668    0.0167    0.0095    0.0661    0.0286   -0.0837
          30    0.0031   -0.0174   -0.0191   -0.0086   -0.0104    0.0043    0.0240   -0.0500
          31    0.0088   -0.0276   -0.0389    0.0691   -0.0429    0.0232    0.0237    0.0360
          32    0.0200    0.0371    0.1030    0.0080    0.0286   -0.0659    0.1410   -0.0050
          33    0.0035   -0.0249   -0.0224    0.0471   -0.0357    0.0202   -0.0137    0.0205
          34    0.0495    0.0384   -0.0138    0.0679   -0.0020    0.0400   -0.0888    0.0294
          35   -0.0426   -0.0485    0.0098   -0.0516   -0.0148   -0.0454    0.1108   -0.0308
          36    0.0400   -0.0053   -0.0063    0.0838   -0.0283    0.0051    0.0644    0.0356
          37   -0.0221    0.0614    0.0573   -0.0578    0.0021    0.0452    0.0700    0.0504
          38   -0.0014    0.0216   -0.0060    0.0415   -0.0575    0.0134    0.1078    0.0098
          39   -0.0348    0.0686    0.0699   -0.0687    0.0105    0.0459    0.0393    0.0585
          40   -0.0049   -0.0241    0.0178   -0.0778    0.0175    0.0290   -0.0369    0.0316
          41    0.0071   -0.0048   -0.0145    0.0243   -0.0615    0.0114    0.0574   -0.0023
          42    0.0029   -0.0577   -0.0110   -0.0709   -0.0785    0.0730    0.1089    0.0433
          43   -0.0264   -0.0438   -0.0109   -0.0062   -0.0176   -0.0326   -0.0002    0.0277
          44    0.0711    0.0494    0.0074    0.0088    0.0130    0.0614    0.0041   -0.0932
          45    0.0054   -0.0045    0.0023    0.0021   -0.0015    0.0161    0.0014   -0.0334
          46    0.0391   -0.0372   -0.0087   -0.0064   -0.0214   -0.0351    0.0031    0.0458
          47   -0.1065    0.0371    0.0142    0.0048    0.0197    0.0527    0.0031   -0.0792
          48    0.0410   -0.0027   -0.0102   -0.0036   -0.0079   -0.0345   -0.0034    0.0571
          49    0.0070    0.0084   -0.0131   -0.0036   -0.0001   -0.0104    0.0007    0.0005
          50   -0.0319   -0.0517    0.0563    0.0214    0.0098    0.1015   -0.0053   -0.0913
          51    0.0328    0.0155   -0.0174   -0.0023   -0.0044   -0.0136   -0.0021   -0.0026
          52   -0.0109    0.0042   -0.0271    0.0475   -0.0378    0.0203    0.0081    0.0152
          53   -0.0079   -0.0022   -0.0263    0.0625   -0.0070    0.0060    0.0485    0.0070
          54   -0.0243    0.0027   -0.0429    0.0942   -0.0493    0.0274    0.0384    0.0235
          55    0.0171   -0.0064    0.0055   -0.0563    0.0100    0.0176   -0.0137    0.0111
          56   -0.0396    0.0241   -0.0388    0.1209   -0.0285   -0.0094    0.0647   -0.0042
          57   -0.0040    0.0040   -0.0145    0.0021   -0.0015    0.0151    0.0196    0.0117


   Root No.      33        34        35        36        37        38        39        40

                33 A      34 A      35 A      36 A      37 A      38 A      39 A      40 A   

                1404.9    1406.8    1408.1    1411.6    1412.8    1431.6    1830.5    2896.2
  
           1    0.0110   -0.0273    0.0200    0.0094   -0.0135   -0.0214   -0.0074    0.0178
           2   -0.0017    0.0014    0.0014   -0.0050    0.0092    0.0140    0.0031    0.0278
           3    0.0028   -0.0094    0.0086    0.0000    0.0010   -0.0025   -0.0050   -0.0473
           4   -0.0071    0.0310   -0.0211   -0.0070    0.0194    0.0251    0.0016    0.0003
           5   -0.0019    0.0067   -0.0024   -0.0057    0.0057   -0.0443   -0.0002    0.0005
           6   -0.0009    0.0008   -0.0025    0.0005   -0.0013    0.0074    0.0000    0.0051
           7    0.0099    0.0176   -0.0181    0.0024   -0.0051   -0.0005    0.0074   -0.0037
           8    0.0245   -0.0027   -0.0017    0.0069   -0.0100   -0.0078    0.0099   -0.0007
           9    0.0268    0.0171   -0.0210    0.0086   -0.0139   -0.0059    0.0148    0.0029
          10    0.0081    0.0044    0.0021   -0.0095    0.0158    0.0111    0.0070   -0.0038
          11   -0.0325    0.0050   -0.0150    0.0125   -0.0251   -0.0072   -0.0179   -0.0022
          12   -0.0082    0.0047   -0.0036   -0.0034    0.0033    0.0075   -0.0015    0.0021
          13   -0.0002    0.0023    0.0110   -0.0235   -0.0119   -0.0209   -0.0000    0.0002
          14    0.0052    0.0058   -0.0058   -0.0022   -0.0035    0.0489   -0.0001   -0.0001
          15    0.0004   -0.0174   -0.0146   -0.0131    0.0014   -0.0074   -0.0000   -0.0005
          16   -0.0079   -0.0094    0.0123   -0.0054    0.0093    0.0045   -0.0203    0.0002
          17    0.0059    0.0021   -0.0006   -0.0012    0.0027    0.0008   -0.1889   -0.0002
          18   -0.0062   -0.0105    0.0148   -0.0075    0.0132    0.0063   -0.1332    0.0001
          19   -0.0067    0.0037   -0.0084    0.0069   -0.0123   -0.0055   -0.0144    0.0002
          20    0.0011   -0.0070    0.0118   -0.0078    0.0137    0.0060    0.2083    0.0000
          21   -0.0077    0.0011   -0.0038    0.0041   -0.0072   -0.0036    0.1012    0.0002
          22   -0.0241    0.0280   -0.0283   -0.0148    0.0143    0.0352    0.0034   -0.2204
          23    0.0056    0.0094   -0.0141    0.0172   -0.0247   -0.0234    0.0020   -0.3340
          24   -0.0066    0.0162   -0.0193    0.0032   -0.0084   -0.0030   -0.0035    0.5706
          25    0.0057   -0.0633    0.0407    0.0152   -0.0622   -0.0075   -0.0009   -0.0094
          26    0.0135   -0.0486    0.0234    0.0200   -0.0466    0.0936    0.0011   -0.0211
          27   -0.0174    0.0786   -0.0460   -0.0280    0.0697   -0.0846   -0.0001   -0.0251
          28    0.0110   -0.0784    0.0508    0.0134   -0.0615   -0.0055   -0.0011    0.0114
          29    0.0164   -0.0710    0.0377    0.0285   -0.0665    0.1135    0.0003    0.0172
          30    0.0110   -0.0662    0.0368    0.0200   -0.0558    0.0547   -0.0009   -0.0378
          31   -0.1125   -0.0403    0.0541   -0.0277    0.0418    0.0161    0.0246    0.0156
          32   -0.1414   -0.0179    0.0372   -0.0330    0.0465    0.0186   -0.0102   -0.0043
          33   -0.0146   -0.0137    0.0141   -0.0021    0.0040   -0.0003    0.0243   -0.0327
          34    0.0721   -0.0136   -0.0007    0.0213   -0.0292   -0.0160    0.0224    0.0247
          35   -0.0871    0.0146    0.0015   -0.0249    0.0333    0.0160   -0.0108    0.0208
          36   -0.1528   -0.0462    0.0654   -0.0370    0.0549    0.0213    0.0212   -0.0034
          37    0.0667   -0.0170    0.0330   -0.0056    0.0253   -0.0225    0.0220    0.0248
          38    0.1612   -0.0167    0.0558   -0.0430    0.0929    0.0038   -0.0143   -0.0078
          39   -0.0017   -0.0120    0.0093    0.0162   -0.0201   -0.0302    0.0194   -0.0208
          40   -0.1008    0.0046   -0.0341    0.0343   -0.0687   -0.0160    0.0245    0.0162
          41    0.0767   -0.0018    0.0228   -0.0219    0.0463    0.0042   -0.0170    0.0307
          42    0.1083   -0.0125    0.0378   -0.0223    0.0541   -0.0087    0.0205   -0.0123
          43   -0.0046    0.0575    0.0449    0.2241    0.0580    0.0546    0.0002   -0.0004
          44   -0.0221   -0.0762   -0.0320    0.0794    0.0556   -0.1180    0.0000   -0.0023
          45   -0.0115   -0.0198   -0.0039    0.1063    0.0453   -0.0418    0.0000    0.0045
          46    0.0079   -0.1330   -0.1442    0.0603    0.0686    0.0649   -0.0003    0.0010
          47   -0.0189   -0.0280    0.0128    0.0769    0.0357   -0.1025    0.0003    0.0013
          48    0.0153    0.0752    0.0430   -0.1007   -0.0621    0.0771   -0.0002    0.0016
          49    0.0005   -0.0022    0.0046   -0.0049   -0.0042   -0.0088   -0.0000    0.0015
          50   -0.0183    0.0644    0.0567   -0.0996   -0.0343   -0.1095    0.0006   -0.0001
          51   -0.0084    0.1520    0.1492    0.1528   -0.0033    0.0104    0.0000   -0.0001
          52   -0.0028    0.0005   -0.0054    0.0070   -0.0120   -0.0057    0.1092    0.0012
          53    0.0141    0.0135   -0.0207    0.0127   -0.0212   -0.0111   -0.1065   -0.0016
          54    0.0045    0.0078   -0.0182    0.0160   -0.0273   -0.0136    0.0743    0.0007
          55   -0.0045   -0.0088    0.0111   -0.0036    0.0071    0.0014    0.1099    0.0012
          56   -0.0065    0.0236   -0.0341    0.0165   -0.0311   -0.0103   -0.0165    0.0001
          57   -0.0094    0.0018   -0.0054    0.0051   -0.0094   -0.0041    0.1281    0.0017


   Root No.      41        42        43        44        45        46        47        48

                41 A      42 A      43 A      44 A      45 A      46 A      47 A      48 A   

                2950.6    2969.6    2971.8    3030.1    3049.8    3051.1    3075.6    3083.6
  
           1    0.0011   -0.0006   -0.0012    0.0008   -0.0002    0.0005   -0.0000    0.0002
           2    0.0016   -0.0008   -0.0019    0.0002   -0.0007   -0.0002   -0.0001   -0.0003
           3   -0.0031    0.0017    0.0031   -0.0003   -0.0003   -0.0003    0.0001    0.0000
           4    0.0001   -0.0001    0.0002    0.0205   -0.0004    0.0007   -0.0003   -0.0016
           5   -0.0086    0.0000   -0.0002    0.0305   -0.0007    0.0010   -0.0009   -0.0023
           6   -0.0521    0.0013    0.0012   -0.0053    0.0002   -0.0003   -0.0026    0.0008
           7   -0.0009    0.0110   -0.0323    0.0002   -0.0014   -0.0030   -0.0000    0.0000
           8   -0.0003    0.0051   -0.0151    0.0007   -0.0091   -0.0195   -0.0000    0.0001
           9    0.0006   -0.0083    0.0242    0.0008   -0.0091   -0.0196   -0.0000    0.0000
          10   -0.0010   -0.0329   -0.0107   -0.0006    0.0020   -0.0009   -0.0004   -0.0001
          11   -0.0007   -0.0131   -0.0042   -0.0017   -0.0271    0.0126    0.0010    0.0002
          12    0.0011    0.0257    0.0084   -0.0000   -0.0075    0.0035    0.0006    0.0002
          13    0.0000    0.0002    0.0000   -0.0040   -0.0003   -0.0001   -0.0070   -0.0435
          14    0.0004    0.0002    0.0001   -0.0011   -0.0004    0.0002   -0.0116   -0.0177
          15    0.0027    0.0003    0.0001    0.0000   -0.0011    0.0005   -0.0495    0.0104
          16    0.0000   -0.0001   -0.0002    0.0000   -0.0002   -0.0008   -0.0000    0.0000
          17   -0.0000   -0.0001   -0.0001   -0.0000    0.0003    0.0009    0.0000   -0.0000
          18    0.0000    0.0001   -0.0000    0.0000   -0.0001   -0.0006   -0.0000    0.0000
          19   -0.0000   -0.0001   -0.0002    0.0000    0.0007   -0.0005   -0.0001   -0.0000
          20    0.0000    0.0001   -0.0000   -0.0000   -0.0000    0.0001   -0.0000    0.0000
          21    0.0000   -0.0000    0.0001    0.0000    0.0009   -0.0006   -0.0001   -0.0000
          22   -0.0168    0.0063    0.0118   -0.0022    0.0009   -0.0021   -0.0002    0.0009
          23   -0.0209    0.0087    0.0233   -0.0014    0.0004   -0.0040    0.0013   -0.0006
          24    0.0340   -0.0214   -0.0364    0.0035   -0.0033    0.0059   -0.0019    0.0000
          25    0.1379   -0.0013   -0.0018   -0.1212    0.0025   -0.0034    0.0072    0.0063
          26    0.2558   -0.0022   -0.0048   -0.2336    0.0043   -0.0078    0.0193    0.0160
          27    0.2893   -0.0023   -0.0043   -0.3079    0.0059   -0.0098    0.0177    0.0201
          28   -0.1391    0.0047    0.0043   -0.1317    0.0028   -0.0045   -0.0044    0.0087
          29   -0.1536    0.0050    0.0034   -0.1363    0.0026   -0.0049   -0.0087    0.0127
          30    0.3369   -0.0100   -0.0083    0.3730   -0.0083    0.0131    0.0118   -0.0295
          31    0.0037   -0.0458    0.1331    0.0065   -0.0788   -0.1650   -0.0000    0.0003
          32   -0.0016    0.0236   -0.0693   -0.0024    0.0264    0.0551   -0.0000   -0.0001
          33   -0.0074    0.0874   -0.2545   -0.0111    0.1330    0.2789   -0.0000   -0.0005
          34    0.0057   -0.0864    0.2546   -0.0054    0.0950    0.1983   -0.0000   -0.0007
          35    0.0060   -0.0858    0.2528   -0.0077    0.0870    0.1809    0.0000   -0.0004
          36   -0.0017    0.0125   -0.0363    0.0017   -0.0224   -0.0468   -0.0000    0.0001
          37    0.0106    0.2568    0.0837   -0.0056   -0.1972    0.0893    0.0116    0.0023
          38   -0.0027   -0.0976   -0.0319    0.0016    0.0505   -0.0227   -0.0034   -0.0008
          39   -0.0080   -0.2484   -0.0809    0.0059    0.1852   -0.0836   -0.0106   -0.0021
          40    0.0067    0.1380    0.0443    0.0115    0.1752   -0.0794   -0.0059   -0.0007
          41    0.0123    0.2545    0.0819    0.0188    0.2764   -0.1253   -0.0093   -0.0013
          42   -0.0033   -0.0634   -0.0202   -0.0059   -0.0907    0.0412    0.0033    0.0005
          43    0.0084    0.0002   -0.0000    0.0037   -0.0022    0.0012   -0.1172    0.0687
          44    0.0048    0.0004    0.0002    0.0048   -0.0026    0.0014   -0.1418    0.0996
          45   -0.0190   -0.0003   -0.0001   -0.0144    0.0053   -0.0032    0.3075   -0.2621
          46   -0.0084   -0.0012   -0.0003    0.0044    0.0035   -0.0015    0.1370    0.0321
          47   -0.0111   -0.0032   -0.0008    0.0108    0.0082   -0.0033    0.2846    0.1033
          48   -0.0167   -0.0031   -0.0007    0.0138    0.0088   -0.0035    0.3107    0.1357
          49   -0.0000   -0.0010   -0.0003    0.0378    0.0016    0.0009    0.0635    0.4188
          50    0.0001    0.0001    0.0000    0.0046   -0.0002    0.0002   -0.0032    0.0100
          51    0.0005    0.0002    0.0001   -0.0008   -0.0006    0.0003   -0.0264    0.0021
          52    0.0000    0.0001   -0.0008   -0.0003   -0.0010    0.0083    0.0003   -0.0001
          53   -0.0001   -0.0004   -0.0004    0.0005    0.0010   -0.0141   -0.0005    0.0002
          54    0.0001    0.0002    0.0006   -0.0001   -0.0006    0.0022    0.0001   -0.0000
          55    0.0001   -0.0007   -0.0005   -0.0005   -0.0049    0.0073    0.0005   -0.0000
          56    0.0000   -0.0003   -0.0002   -0.0003   -0.0031    0.0036    0.0003    0.0000
          57    0.0003    0.0003    0.0007   -0.0008   -0.0078    0.0111    0.0008    0.0000


   Root No.      49        50        51

                49 A      50 A      51 A   

                3116.1    3135.3    3179.6
  
           1    0.0000   -0.0006    0.0000
           2    0.0001    0.0004   -0.0001
           3    0.0001   -0.0007    0.0001
           4    0.0000    0.0000   -0.0004
           5    0.0000    0.0000    0.0003
           6    0.0000   -0.0000   -0.0001
           7    0.0001   -0.0005    0.0000
           8   -0.0002   -0.0015   -0.0000
           9   -0.0001   -0.0016    0.0000
          10   -0.0001   -0.0004    0.0001
          11   -0.0002    0.0021   -0.0001
          12   -0.0001    0.0005   -0.0001
          13    0.0000    0.0000   -0.0115
          14    0.0000    0.0000    0.0214
          15    0.0000   -0.0000   -0.0042
          16    0.0203    0.0197   -0.0000
          17   -0.0309   -0.0357    0.0000
          18    0.0076    0.0041   -0.0000
          19   -0.0211    0.0201   -0.0000
          20   -0.0080    0.0131   -0.0000
          21   -0.0310    0.0326   -0.0000
          22    0.0000   -0.0007    0.0001
          23    0.0002   -0.0010    0.0011
          24    0.0001    0.0017   -0.0014
          25   -0.0001    0.0000    0.0005
          26   -0.0002   -0.0000    0.0030
          27   -0.0002   -0.0001    0.0023
          28   -0.0000   -0.0001    0.0005
          29    0.0000   -0.0001    0.0018
          30    0.0000    0.0003   -0.0028
          31   -0.0014   -0.0068    0.0000
          32    0.0001    0.0021   -0.0000
          33    0.0051    0.0139   -0.0000
          34    0.0036    0.0104    0.0000
          35    0.0017    0.0082    0.0000
          36    0.0001   -0.0015    0.0000
          37   -0.0038    0.0100   -0.0022
          38    0.0011   -0.0028    0.0008
          39    0.0017   -0.0079    0.0021
          40    0.0017   -0.0070    0.0005
          41    0.0049   -0.0130    0.0008
          42   -0.0025    0.0049   -0.0003
          43    0.0000   -0.0002   -0.1012
          44    0.0000   -0.0002   -0.1052
          45   -0.0000    0.0005    0.2802
          46   -0.0000    0.0000   -0.0980
          47   -0.0001    0.0000   -0.1823
          48   -0.0001    0.0000   -0.2243
          49   -0.0001    0.0002    0.3389
          50   -0.0000    0.0000    0.0246
          51    0.0000   -0.0000   -0.0045
          52   -0.2417   -0.2303    0.0001
          53    0.3663    0.3519   -0.0001
          54   -0.0919   -0.0860    0.0000
          55    0.2517   -0.2330    0.0001
          56    0.0921   -0.0880    0.0000
          57    0.3675   -0.3419    0.0001


           MASS-WEIGHTED COORDINATE ANALYSIS (NORMAL COORDINATES)


   Root No.       1         2         3         4         5         6         7         8

                 1 A       2 A       3 A       4 A       5 A       6 A       7 A       8 A   

                  91.5     118.1     191.0     263.1     370.2     421.7     439.8     662.3
  
           1   -0.1102    0.0276   -0.0024   -0.1755    0.0410    0.1596   -0.2781    0.0738
           2   -0.0663   -0.1300   -0.0633   -0.2181   -0.0287    0.2183    0.0205   -0.2280
           3    0.1852   -0.1435   -0.0646   -0.0428   -0.0548   -0.0549    0.3280    0.3883
           4   -0.1044    0.0329    0.0008   -0.1684    0.0343    0.2403   -0.2846    0.2526
           5    0.0635   -0.0544   -0.0388   -0.1023    0.0903   -0.2570   -0.2769    0.1355
           6   -0.0968   -0.3778   -0.1222    0.3007   -0.0008    0.1026   -0.1980    0.0514
           7   -0.1700   -0.0472    0.0620    0.2081   -0.0585   -0.3335   -0.0694   -0.0336
           8   -0.0859   -0.1616   -0.0334   -0.0421   -0.0833    0.0967    0.1698   -0.3814
           9    0.1827    0.1523   -0.0089   -0.1612    0.0963   -0.0324    0.0193   -0.1367
          10   -0.2405   -0.1165   -0.1569   -0.2437    0.0762   -0.0767    0.2537   -0.0931
          11   -0.1684    0.0135   -0.0372   -0.0360    0.0102    0.1816    0.1375    0.2718
          12    0.3013   -0.1546    0.0011   -0.1146   -0.0935    0.0965    0.0430    0.1633
          13    0.0947    0.1007    0.1360    0.4206   -0.0964    0.3572    0.1670   -0.0066
          14    0.1227    0.1068    0.0610    0.1240    0.0444   -0.3078   -0.0797    0.0276
          15   -0.2489    0.4289    0.1208    0.0506    0.0071    0.0651   -0.0470   -0.0035
          16    0.3029    0.0153    0.0323    0.0952    0.3690   -0.2192    0.0077   -0.1208
          17    0.0861    0.0631    0.0498    0.1181    0.1320    0.1061    0.0352    0.0322
          18   -0.1972    0.1130    0.0235   -0.0501   -0.2426   -0.1830   -0.0654   -0.1402
          19    0.2622   -0.0126   -0.0867   -0.2169   -0.3383   -0.1457    0.0823   -0.1953
          20    0.0466    0.1668    0.0500    0.0883   -0.1631    0.0472   -0.0443    0.0964
          21   -0.1270   -0.0619    0.0259    0.0103    0.2730   -0.0674    0.0659   -0.1823
          22    0.0287    0.0558    0.0103   -0.1085    0.0206    0.0636   -0.1198    0.1113
          23   -0.0126   -0.0778   -0.0129   -0.0562   -0.0424    0.0764    0.0379   -0.0955
          24    0.0798   -0.0468   -0.0106   -0.0326   -0.0315    0.0009    0.0920    0.1271
          25   -0.0051    0.0424   -0.0147   -0.1521   -0.0023    0.0702    0.0435    0.1586
          26    0.0208    0.1283    0.0302   -0.0592    0.0177   -0.1026    0.0130    0.0867
          27   -0.0413   -0.2488   -0.0630    0.1637    0.0128    0.0528   -0.1984   -0.0690
          28   -0.0956   -0.0349   -0.0033   -0.0282    0.0260    0.1220   -0.2210   -0.0179
          29    0.0382   -0.1831   -0.0472    0.0753    0.0354   -0.0772   -0.1852   -0.0173
          30   -0.0453   -0.2000   -0.0521    0.1400    0.0109    0.0512   -0.1647   -0.0472
          31   -0.1773   -0.0362    0.0292    0.1246   -0.2109   -0.2224   -0.0168    0.0716
          32   -0.0836   -0.1215   -0.0116    0.0745   -0.1605   -0.1058    0.1562    0.0528
          33   -0.0015    0.0509    0.0041   -0.0344   -0.0397   -0.0419   -0.0209   -0.0419
          34   -0.0456   -0.0255    0.0255    0.1179   -0.0267   -0.1592    0.0254    0.0448
          35   -0.0063   -0.0242   -0.0172   -0.0796    0.0198    0.1063   -0.0054   -0.1875
          36    0.1990    0.1125   -0.0025   -0.1165    0.2757    0.1313   -0.0489   -0.2092
          37   -0.0789   -0.0531   -0.0653   -0.0726    0.0198   -0.0520    0.1666    0.0207
          38   -0.2182   -0.0265   -0.0517    0.0093    0.2094   -0.0086    0.2537    0.2403
          39    0.1428   -0.0530   -0.0040   -0.0415   -0.1125    0.0223    0.0193    0.0331
          40   -0.2053   -0.0739   -0.0780   -0.0822    0.2012   -0.0408    0.2180    0.0324
          41    0.0451    0.0251    0.0134   -0.0122   -0.1117    0.0821   -0.0823    0.0161
          42    0.1498   -0.0494    0.0220   -0.0652   -0.0850    0.1007   -0.1471   -0.0800
          43    0.0826    0.1231   -0.3790    0.3078   -0.0540    0.1432    0.0934   -0.0738
          44    0.0112    0.2338   -0.1653    0.0044    0.0204   -0.1089   -0.0322    0.0089
          45   -0.0645    0.2432   -0.1811    0.0606   -0.0027    0.0221   -0.0044   -0.0232
          46    0.0243   -0.0534    0.4978    0.0940   -0.0481    0.1161    0.1595   -0.0841
          47    0.0317   -0.1281    0.1021   -0.0005    0.0285   -0.0952   -0.0916    0.0769
          48   -0.0674    0.3018   -0.2266    0.0601   -0.0042    0.0205    0.0044   -0.0325
          49    0.0267    0.0288    0.0393    0.1203   -0.0279    0.1047    0.0478   -0.0016
          50    0.0766    0.0258    0.1421    0.1671   -0.0269   -0.0520    0.1278   -0.1349
          51   -0.1171    0.0124    0.5718   -0.1420    0.0144   -0.0042    0.0001    0.0171
          52    0.1749    0.0203    0.0298    0.0746    0.2617   -0.0593   -0.0049    0.1048
          53    0.0625    0.0364    0.0292    0.0677    0.1113    0.0266   -0.0053    0.1019
          54   -0.1369    0.0645    0.0125   -0.0037   -0.1862   -0.0822   -0.0632   -0.0331
          55    0.1505    0.0054   -0.0398   -0.1174   -0.2533   -0.0243    0.0272    0.0576
          56    0.0406    0.0978    0.0297    0.0440   -0.1077   -0.0350   -0.0564    0.0096
          57   -0.0946   -0.0369    0.0136    0.0355    0.2006   -0.0195    0.0281   -0.1254


   Root No.       9        10        11        12        13        14        15        16

                 9 A      10 A      11 A      12 A      13 A      14 A      15 A      16 A   

                 752.3     771.1     831.2     869.3     874.3     960.5     992.6    1000.6
  
           1   -0.0003    0.0107    0.0048    0.0218    0.1566   -0.0621   -0.0658    0.1038
           2    0.0385   -0.2666    0.0046   -0.0032    0.0789   -0.0770   -0.1410    0.0759
           3   -0.1701   -0.0788    0.0226   -0.0177   -0.1294    0.1943   -0.1101    0.1021
           4    0.0376   -0.0032   -0.0801   -0.0190   -0.2745    0.0435   -0.0258    0.0450
           5   -0.0061    0.0026   -0.0809   -0.0101   -0.1060    0.0127   -0.0215    0.0405
           6   -0.0686   -0.0605   -0.3264    0.0543    0.0645    0.0675   -0.0564    0.0780
           7   -0.1466   -0.1513    0.0870    0.2568    0.1727    0.1700    0.0114   -0.1912
           8    0.0843   -0.1413   -0.0842    0.0313   -0.2618    0.0880    0.1083   -0.0990
           9    0.0854   -0.2861   -0.0033   -0.2501   -0.1408   -0.1777    0.1785    0.0215
          10   -0.0743    0.2014   -0.0188   -0.2154    0.2418    0.1777    0.0536    0.1084
          11   -0.1814   -0.1737    0.1891   -0.1525    0.2987    0.0293    0.2772   -0.1261
          12    0.0251    0.1161    0.2012    0.1587    0.1233   -0.2114    0.0611   -0.1838
          13    0.0313   -0.0238   -0.0445   -0.0151   -0.1880    0.1295    0.1142   -0.1747
          14   -0.0324    0.0135   -0.0025    0.0385    0.0602    0.0125    0.0285   -0.0439
          15    0.0063   -0.0122   -0.0826    0.0243    0.0137   -0.1188    0.0366   -0.0571
          16   -0.1392   -0.2515    0.0388    0.0055   -0.1148   -0.1508    0.1215    0.2134
          17    0.0177    0.4794   -0.0608    0.0339   -0.0321   -0.0577    0.0647    0.1045
          18    0.1186   -0.1167   -0.0281    0.0058    0.0460    0.1151   -0.2081   -0.1139
          19   -0.0287    0.2821   -0.0348   -0.0368   -0.1053   -0.1490   -0.1326   -0.2041
          20   -0.0535    0.1747   -0.0115    0.0127   -0.0282   -0.0474   -0.1632   -0.0238
          21    0.2127    0.3973   -0.1066    0.0440    0.0388    0.1228    0.1718    0.1383
          22    0.0223    0.0279    0.0888   -0.0031    0.0072   -0.2372   -0.0754    0.0940
          23    0.0159   -0.0571    0.0174    0.1448    0.0085    0.0283   -0.2927   -0.0110
          24   -0.0382   -0.0002    0.0541    0.0774   -0.0508   -0.0009   -0.1997    0.0327
          25   -0.0669   -0.0723   -0.2098   -0.0027   -0.0711    0.1735   -0.1511    0.2396
          26   -0.0559   -0.0178   -0.3312    0.0557    0.0425   -0.0651    0.0543   -0.0961
          27    0.0651    0.0322    0.2744   -0.0368   -0.0487    0.0041   -0.0064    0.0154
          28    0.1009    0.0229    0.1396   -0.0136   -0.0842   -0.2548    0.0206   -0.0543
          29    0.0639    0.0587    0.3828   -0.0633   -0.1368    0.1373   -0.0112    0.0171
          30    0.0478    0.0191    0.1606   -0.0166   -0.0362   -0.0261   -0.0058   -0.0029
          31    0.1521   -0.0292   -0.0036   -0.1896    0.0618   -0.1997    0.0522   -0.1104
          32    0.1023   -0.0873   -0.0483   -0.2743   -0.2867   -0.0823    0.1329    0.2521
          33    0.1058   -0.0674   -0.0099   -0.1360    0.0197   -0.1538    0.0492   -0.0977
          34   -0.0466   -0.0010    0.0297   -0.0005   -0.0294    0.0279    0.1408    0.0402
          35    0.0016   -0.0862   -0.0228    0.1309    0.0146    0.0794   -0.1024   -0.1437
          36   -0.1864   -0.0617    0.0420    0.2928    0.0367    0.2076    0.0745   -0.1352
          37   -0.0277    0.0340    0.0672   -0.0114   -0.0311    0.0171   -0.1235   -0.0844
          38    0.1389   -0.0882    0.1439    0.2929   -0.1101   -0.2481   -0.0081   -0.1561
          39   -0.0802    0.0192    0.0975   -0.0404    0.0103    0.0099   -0.0902   -0.1229
          40    0.1592   -0.0100    0.0611    0.1890    0.0255   -0.1829   -0.0306    0.0750
          41   -0.1659   -0.0306    0.0104   -0.2237    0.1790    0.1521    0.1416   -0.0051
          42   -0.0442   -0.0210    0.0216   -0.1179    0.2949   -0.0028    0.1662    0.1583
          43   -0.0046   -0.0327   -0.0884    0.0226    0.1281   -0.1801   -0.0586    0.0809
          44    0.0286    0.0442    0.3042   -0.0608   -0.1315    0.2746   -0.0075    0.0225
          45    0.0149    0.0071    0.0932   -0.0178   -0.0063    0.0201   -0.0258    0.0422
          46    0.0131   -0.0107    0.1315   -0.0320    0.0707   -0.0194   -0.1131    0.1681
          47   -0.0362   -0.0180   -0.2854    0.0758    0.0112   -0.1052    0.1237   -0.1907
          48    0.0260    0.0180    0.1876   -0.0425   -0.0410    0.0911   -0.0400    0.0646
          49    0.0094   -0.0075   -0.0133   -0.0048   -0.0564    0.0376    0.0327   -0.0503
          50   -0.0177   -0.0192    0.0891    0.0155    0.3106   -0.2241   -0.2085    0.3102
          51    0.0191    0.0159    0.1239   -0.0316   -0.0886    0.1130    0.0104   -0.0040
          52    0.3762   -0.1684   -0.0476   -0.2407    0.2162    0.1425   -0.3076   -0.1740
          53    0.1801    0.0827   -0.0319   -0.0904    0.1352    0.0691   -0.1931   -0.0498
          54   -0.3672   -0.0109    0.0972    0.2396   -0.0538   -0.1183    0.0032    0.2598
          55    0.4182    0.0251    0.0091    0.2947    0.1474    0.1275    0.3494    0.1188
          56    0.2028   -0.0877   -0.0685    0.1673   -0.0700    0.1208   -0.1574    0.2987
          57   -0.2854    0.1908   -0.0263   -0.2370   -0.0919   -0.1159   -0.1883   -0.1586


   Root No.      17        18        19        20        21        22        23        24

                17 A      18 A      19 A      20 A      21 A      22 A      23 A      24 A   

                1019.7    1040.7    1072.6    1079.2    1102.1    1113.0    1119.9    1139.4
  
           1   -0.1419    0.1125   -0.2276   -0.0256   -0.0236   -0.0006   -0.0138   -0.1106
           2    0.1891   -0.0011    0.1745   -0.0264   -0.0821    0.1343   -0.0081    0.2134
           3   -0.1453   -0.0106   -0.1682   -0.0433    0.1001    0.0879   -0.0894   -0.1646
[...]
 TRAVEL      0.0897         C  1 -- C  2         +10.2% ( 43.5%)     72.3%
 RED. MASS   0.8229         C  4 -- C  7         +10.0% ( 43.2%)     81.7%
 EFF. MASS   6.2626

 VIBRATION   31   31A         ATOM PAIR      ENERGY CONTRIBUTION    RADIAL
 FREQ.      1371.38         C  3 -- C  6         +16.5% ( 50.5%)     85.3%
 T-DIPOLE    0.0653         C  3 -- H 12         +13.5% ( 45.6%)      0.1%
 TRAVEL      0.0932         C  3 -- H 11         +11.9% ( 42.8%)      0.2%
 RED. MASS   0.6825         C  6 -- C  7         +11.4% ( 41.9%)      0.0%
 EFF. MASS   5.6640

 VIBRATION   32   32A         ATOM PAIR      ENERGY CONTRIBUTION    RADIAL
 FREQ.      1381.47         C  1 -- C  4         +11.7% ( 44.1%)     34.9%
 T-DIPOLE    0.0333         C  1 -- C  3          +8.7% ( 38.0%)     37.5%
 TRAVEL      0.0951         C  4 -- C  7          +8.7% ( 37.9%)     83.7%
 RED. MASS   0.5687         C  4 -- H 13          +8.2% ( 36.9%)      0.5%
 EFF. MASS   5.3980

 VIBRATION   33   33A         ATOM PAIR      ENERGY CONTRIBUTION    RADIAL
 FREQ.      1404.90         C  3 -- H 12         +19.4% ( 47.4%)      4.7%
 T-DIPOLE    0.0592         C  3 -- H 11         +17.7% ( 45.1%)      6.1%
 TRAVEL      0.1220         C  4 -- H 13         +16.4% ( 43.5%)      4.7%
 RED. MASS   0.3584         C  4 -- H 14         +14.9% ( 41.5%)      6.1%
 EFF. MASS   3.2249

 VIBRATION   34   34A         ATOM PAIR      ENERGY CONTRIBUTION    RADIAL
 FREQ.      1406.81         C  5 -- H 17         +12.3% ( 39.0%)      0.2%
 T-DIPOLE    0.0352         C  2 -- H 10         +11.6% ( 37.9%)      3.3%
 TRAVEL      0.1118         C  1 -- C  2         +11.1% ( 37.1%)     96.2%
 RED. MASS   0.3170         C  5 -- H 16         +10.8% ( 36.6%)      1.5%
 EFF. MASS   3.8359

 VIBRATION   35   35A         ATOM PAIR      ENERGY CONTRIBUTION    RADIAL
 FREQ.      1408.11         C  5 -- H 17         +13.0% ( 41.0%)      2.3%
 T-DIPOLE    0.0538         C  5 -- H 16         +12.0% ( 39.5%)      2.8%
 TRAVEL      0.1079         C  3 -- C  6          +8.8% ( 33.7%)     99.7%
 RED. MASS   0.2796         C  1 -- C  3          +7.1% ( 30.2%)      5.3%
 EFF. MASS   4.1156

 VIBRATION   36   36A         ATOM PAIR      ENERGY CONTRIBUTION    RADIAL
 FREQ.      1411.64         C  5 -- H 15         +38.5% ( 58.1%)      0.1%
 T-DIPOLE    0.0428         C  5 -- H 17         +19.0% ( 40.8%)     10.2%
 TRAVEL      0.1493         C  5 -- H 16         +12.3% ( 32.8%)     10.3%
 RED. MASS   0.3169         C  2 -- C  5          +4.2% ( 19.1%)     28.1%
 EFF. MASS   2.1440

 VIBRATION   37   37A         ATOM PAIR      ENERGY CONTRIBUTION    RADIAL
 FREQ.      1412.81         C  4 -- C  7         +10.5% ( 37.1%)     95.3%
 T-DIPOLE    0.0277         C  4 -- H 14         +10.2% ( 36.6%)      5.3%
 TRAVEL      0.1071         C  4 -- H 13         +10.1% ( 36.4%)      6.0%
 RED. MASS   0.2701         C  2 -- H 10          +7.9% ( 32.4%)      4.0%
 EFF. MASS   4.1585

 VIBRATION   38   38A         ATOM PAIR      ENERGY CONTRIBUTION    RADIAL
 FREQ.      1431.58         C  2 -- C  5         +19.6% ( 58.0%)     99.6%
 T-DIPOLE    0.0259         C  5 -- H 16         +13.2% ( 47.7%)      3.7%
 TRAVEL      0.0896         C  5 -- H 15         +12.7% ( 46.7%)      3.4%
 RED. MASS   1.0048         C  2 -- H  9         +11.2% ( 43.8%)      2.3%
 EFF. MASS   5.8723         C  2 -- H 10         +11.1% ( 43.6%)      2.4%
                            C  5 -- H 17         +10.8% ( 43.1%)      4.1%

 VIBRATION   39   39A         ATOM PAIR      ENERGY CONTRIBUTION    RADIAL
 FREQ.      1830.48         C  6 -- C  7         +45.8% (100.0%)    100.0%
 T-DIPOLE    0.0877         C  4 -- C  7         +13.9% ( 55.1%)     25.5%
 TRAVEL      0.0557         C  3 -- C  6         +13.9% ( 55.1%)     25.5%
 RED. MASS   5.3833         C  7 -- H 19         +13.0% ( 53.2%)      9.7%
 EFF. MASS  11.8688         C  6 -- H 18         +13.0% ( 53.2%)      9.7%

 VIBRATION   40   40A         ATOM PAIR      ENERGY CONTRIBUTION    RADIAL
 FREQ.      2896.23         C  1 -- H  8         +95.0% ( 99.2%)    100.0%
 T-DIPOLE    0.0461         C  1 -- C  2          +1.1% ( 10.5%)      8.0%
 TRAVEL      0.1266         C  1 -- C  4          +1.1% ( 10.5%)      8.9%
 RED. MASS   0.8996         C  1 -- C  3          +1.1% ( 10.5%)      9.0%
 EFF. MASS   1.4532

 VIBRATION   41   41A         ATOM PAIR      ENERGY CONTRIBUTION    RADIAL
 FREQ.      2950.62         C  2 -- H  9         +50.0% ( 73.4%)     96.7%
 T-DIPOLE    0.0075         C  2 -- H 10         +46.8% ( 71.0%)     96.3%
 TRAVEL      0.1217         C  2 -- C  5          +1.2% ( 11.2%)      0.0%
 RED. MASS   0.5086         C  1 -- C  2          +1.1% ( 11.1%)      0.0%
 EFF. MASS   1.5428

 VIBRATION   42   42A         ATOM PAIR      ENERGY CONTRIBUTION    RADIAL
 FREQ.      2969.55         C  4 -- H 13         +52.6% ( 75.3%)     97.6%
 T-DIPOLE    0.0352         C  4 -- H 14         +35.0% ( 61.4%)     95.3%
 TRAVEL      0.1216         C  3 -- H 12          +5.8% ( 24.9%)     97.5%
 RED. MASS   0.4370         C  3 -- H 11          +4.1% ( 21.0%)     95.5%
 EFF. MASS   1.5356

 VIBRATION   43   43A         ATOM PAIR      ENERGY CONTRIBUTION    RADIAL
 FREQ.      2971.76         C  3 -- H 12         +51.7% ( 74.5%)     97.6%
 T-DIPOLE    0.0505         C  3 -- H 11         +35.8% ( 62.0%)     95.4%
 TRAVEL      0.1216         C  4 -- H 13          +5.8% ( 24.9%)     97.7%
 RED. MASS   0.4316         C  4 -- H 14          +3.7% ( 20.0%)     95.2%
 EFF. MASS   1.5336

 VIBRATION   44   44A         ATOM PAIR      ENERGY CONTRIBUTION    RADIAL
 FREQ.      3030.07         C  2 -- H 10         +50.6% ( 70.1%)     97.9%
 T-DIPOLE    0.0237         C  2 -- H  9         +47.2% ( 67.7%)     97.6%
 TRAVEL      0.1321         C  2 -- C  5          +0.6% (  7.8%)     25.5%
 RED. MASS   0.4761         C  1 -- C  2          +0.6% (  7.6%)     29.2%
 EFF. MASS   1.2746

 VIBRATION   45   45A         ATOM PAIR      ENERGY CONTRIBUTION    RADIAL
 FREQ.      3049.78         C  4 -- H 14         +49.3% ( 69.3%)     98.6%
 T-DIPOLE    0.1073         C  4 -- H 13         +31.6% ( 55.4%)     96.0%
 TRAVEL      0.1315         C  3 -- H 11         +10.5% ( 31.9%)     98.6%
 RED. MASS   0.3543         C  3 -- H 12          +7.1% ( 26.3%)     96.3%
 EFF. MASS   1.2792

 VIBRATION   46   46A         ATOM PAIR      ENERGY CONTRIBUTION    RADIAL
 FREQ.      3051.07         C  3 -- H 11         +48.3% ( 68.6%)     98.5%
 T-DIPOLE    0.0612         C  3 -- H 12         +32.5% ( 56.2%)     96.1%
 TRAVEL      0.1309         C  4 -- H 14         +10.6% ( 32.2%)     98.5%
 RED. MASS   0.3514         C  4 -- H 13          +6.8% ( 25.7%)     95.8%
 EFF. MASS   1.2903

 VIBRATION   47   47A         ATOM PAIR      ENERGY CONTRIBUTION    RADIAL
 FREQ.      3075.59         C  5 -- H 16         +58.0% ( 78.6%)     98.1%
 T-DIPOLE    0.0085         C  5 -- H 15         +38.5% ( 64.0%)     95.2%
 TRAVEL      0.1209         C  5 -- H 17          +2.1% ( 15.1%)     25.8%
 RED. MASS   0.5126         C  2 -- C  5          +1.0% ( 10.2%)      0.0%
 EFF. MASS   1.5005

 VIBRATION   48   48A         ATOM PAIR      ENERGY CONTRIBUTION    RADIAL
 FREQ.      3083.57         C  5 -- H 17         +59.6% ( 79.6%)     98.6%
 T-DIPOLE    0.0045         C  5 -- H 15         +28.3% ( 54.8%)     91.7%
 TRAVEL      0.1206         C  5 -- H 16         +10.6% ( 33.6%)     74.8%
 RED. MASS   0.4744         C  2 -- C  5          +1.0% ( 10.3%)      0.0%
 EFF. MASS   1.5030

 VIBRATION   49   49A         ATOM PAIR      ENERGY CONTRIBUTION    RADIAL
 FREQ.      3116.13         C  7 -- H 19         +49.4% ( 71.4%)    100.0%
 T-DIPOLE    0.3714         C  6 -- H 18         +48.0% ( 70.4%)    100.0%
 TRAVEL      0.1217         C  6 -- C  7          +1.1% ( 10.7%)      0.0%
 RED. MASS   0.4648         C  4 -- C  7          +0.7% (  8.7%)     27.5%
 EFF. MASS   1.4620

 VIBRATION   50   50A         ATOM PAIR      ENERGY CONTRIBUTION    RADIAL
 FREQ.      3135.31         C  6 -- H 18         +48.4% ( 70.9%)     99.9%
 T-DIPOLE    0.3413         C  7 -- H 19         +47.0% ( 69.8%)     99.9%
 TRAVEL      0.1141         C  6 -- C  7          +2.5% ( 16.1%)    100.0%
 RED. MASS   0.4656         C  3 -- C  6          +1.0% ( 10.0%)     20.6%
 EFF. MASS   1.6518

 VIBRATION   51   51A         ATOM PAIR      ENERGY CONTRIBUTION    RADIAL
 FREQ.      3179.58         C  5 -- H 17         +37.7% ( 59.1%)     97.7%
 T-DIPOLE    0.0148         C  5 -- H 15         +32.2% ( 54.6%)     96.9%
 TRAVEL      0.1366         C  5 -- H 16         +29.8% ( 52.5%)     96.5%
 RED. MASS   0.3296         C  2 -- C  5          +0.3% (  5.1%)     99.2%
 EFF. MASS   1.1372

      SYMMETRY NUMBER FOR POINT-GROUP C1  =  1


          SYSTEM IS A GROUND STATE



 InChI=1S/C7H12/c1-2-7-5-3-4-6-7/h3-4,7H,2,5-6H2,1H3


          MOLECULE IS NOT LINEAR

          THERE ARE 51 GENUINE VIBRATIONS IN THIS SYSTEM
          THIS THERMODYNAMICS CALCULATION IS LIMITED TO
          MOLECULES WHICH HAVE NO INTERNAL ROTATIONS




                    CALCULATED THERMODYNAMIC PROPERTIES
                                          *
   TEMP. (K)   PARTITION FUNCTION   H.O.F.    ENTHALPY  HEAT CAPACITY ENTROPY
                                   KCAL/MOL   CAL/MOLE    CAL/K/MOL  CAL/K/MOL


 298.00  VIB.     0.2957D+02                  2743.2629    21.3450    15.9358
         ROT.     0.2208D+06                   888.2813     2.9808    27.4335
         INT.     0.6529D+07                  3631.5442    24.3258    43.3693
         TRA.     0.9118D+27                  1480.4688     4.9680    39.5994
         TOT.                       -7.971    5112.0130    29.2938    82.9687

 200.00  VIB.     0.6946D+01                  1119.5869    12.2334     9.4493
         ROT.     0.1214D+06                   596.1620     2.9808    26.2448
         INT.     0.8432D+06                  1715.7489    15.2142    35.6942
         TRA.     0.5013D+27                   993.6033     4.9680    37.6183
         TOT.                      -10.374    2709.3521    20.1822    73.3125

 210.00  VIB.     0.8001D+01                  1245.8593    13.0271    10.0653
         ROT.     0.1306D+06                   625.9700     2.9808    26.3903
         INT.     0.1045D+07                  1871.8294    16.0079    36.4555
         TRA.     0.5394D+27                  1043.2834     4.9680    37.8607
         TOT.                      -10.168    2915.1128    20.9759    74.3162

 220.00  VIB.     0.9230D+01                  1380.2495    13.8569    10.6903
         ROT.     0.1401D+06                   655.7781     2.9808    26.5289
         INT.     0.1293D+07                  2036.0277    16.8377    37.2192
         TRA.     0.5784D+27                  1092.9636     4.9680    38.0918
         TOT.                       -9.954    3128.9912    21.8057    75.3110

 230.00  VIB.     0.1066D+02                  1523.1149    14.7219    11.3252
         ROT.     0.1497D+06                   685.5862     2.9808    26.6614
         INT.     0.1596D+07                  2208.7012    17.7027    37.9867
         TRA.     0.6182D+27                  1142.6437     4.9680    38.3126
         TOT.                       -9.732    3351.3449    22.6708    76.2993

 240.00  VIB.     0.1233D+02                  1674.7998    15.6204    11.9706
         ROT.     0.1596D+06                   715.3943     2.9808    26.7883
         INT.     0.1968D+07                  2390.1941    18.6013    38.7590
         TRA.     0.6590D+27                  1192.3239     4.9680    38.5241
         TOT.                       -9.501    3582.5180    23.5693    77.2830

 250.00  VIB.     0.1429D+02                  1835.6275    16.5500    12.6270
         ROT.     0.1697D+06                   745.2024     2.9808    26.9100
         INT.     0.2424D+07                  2580.8299    19.5309    39.5370
         TRA.     0.7006D+27                  1242.0041     4.9680    38.7269
         TOT.                       -9.260    3822.8340    24.4989    78.2639

 260.00  VIB.     0.1657D+02                  2005.8947    17.5078    13.2947
         ROT.     0.1800D+06                   775.0105     2.9808    27.0269
         INT.     0.2983D+07                  2780.9052    20.4886    40.3216
         TRA.     0.7431D+27                  1291.6842     4.9680    38.9217
         TOT.                       -9.011    4072.5895    25.4567    79.2433

 270.00  VIB.     0.1926D+02                  2185.8673    18.4905    13.9738
         ROT.     0.1904D+06                   804.8186     2.9808    27.1394
         INT.     0.3667D+07                  2990.6859    21.4714    41.1132
         TRA.     0.7864D+27                  1341.3644     4.9680    39.1092
         TOT.                       -8.751    4332.0503    26.4394    80.2224

 280.00  VIB.     0.2241D+02                  2375.7772    19.4947    14.6644
         ROT.     0.2011D+06                   834.6267     2.9808    27.2478
         INT.     0.4507D+07                  3210.4039    22.4755    41.9122
         TRA.     0.8304D+27                  1391.0445     4.9680    39.2899
         TOT.                       -8.482    4601.4485    27.4435    81.2021

 290.00  VIB.     0.2613D+02                  2575.8213    20.5168    15.3663
         ROT.     0.2120D+06                   864.4348     2.9808    27.3524
         INT.     0.5538D+07                  3440.2562    23.4976    42.7187
         TRA.     0.8753D+27                  1440.7247     4.9680    39.4642
         TOT.                       -8.202    4880.9809    28.4656    82.1829

 300.00  VIB.     0.3050D+02                  2786.1610    21.5532    16.0792
         ROT.     0.2230D+06                   894.2429     2.9808    27.4535
         INT.     0.6804D+07                  3680.4039    24.5340    43.5327
         TRA.     0.9210D+27                  1490.4049     4.9680    39.6326
         TOT.                       -7.912    5170.8088    29.5021    83.1653

 310.00  VIB.     0.3568D+02                  3006.9223    22.6006    16.8030
         ROT.     0.2343D+06                   924.0510     2.9808    27.5512
         INT.     0.8358D+07                  3930.9734    25.5814    44.3542
         TRA.     0.9674D+27                  1540.0850     4.9680    39.7955
         TOT.                       -7.612    5471.0584    30.5494    84.1498

 320.00  VIB.     0.4180D+02                  3238.1975    23.6555    17.5372
         ROT.     0.2457D+06                   953.8591     2.9808    27.6458
         INT.     0.1027D+08                  4192.0566    26.6363    45.1830
         TRA.     0.1015D+28                  1589.7652     4.9680    39.9533
         TOT.                       -7.301    5781.8218    31.6043    85.1363

 330.00  VIB.     0.4905D+02                  3480.0464    24.7148    18.2813
         ROT.     0.2573D+06                   983.6672     2.9808    27.7376
         INT.     0.1262D+08                  4463.7136    27.6956    46.0189
         TRA.     0.1063D+28                  1639.4454     4.9680    40.1062
         TOT.                       -6.980    6103.1590    32.6636    86.1250

 340.00  VIB.     0.5765D+02                  3732.4987    25.7757    19.0349
         ROT.     0.2691D+06                  1013.4753     2.9808    27.8265
         INT.     0.1551D+08                  4745.9740    28.7565    46.8614
         TRA.     0.1111D+28                  1689.1255     4.9680    40.2545
         TOT.                       -6.648    6435.0996    33.7245    87.1159

 350.00  VIB.     0.6788D+02                  3995.5563    26.8354    19.7974
         ROT.     0.2811D+06                  1043.2834     2.9808    27.9130
         INT.     0.1908D+08                  5038.8397    29.8162    47.7103
         TRA.     0.1161D+28                  1738.8057     4.9680    40.3985
         TOT.                       -6.306    6777.6454    34.7843    88.1088

 360.00  VIB.     0.8005D+02                  4269.1955    27.8916    20.5681
         ROT.     0.2932D+06                  1073.0915     2.9808    27.9969
         INT.     0.2347D+08                  5342.2870    30.8724    48.5651
         TRA.     0.1211D+28                  1788.4859     4.9680    40.5384
         TOT.                       -5.953    7130.7728    35.8405    89.1035

 370.00  VIB.     0.9456D+02                  4553.3698    28.9421    21.3467
         ROT.     0.3055D+06                  1102.8996     2.9808    28.0786
         INT.     0.2889D+08                  5656.2694    31.9229    49.4253
         TRA.     0.1261D+28                  1838.1660     4.9680    40.6745
         TOT.                       -5.589    7494.4354    36.8909    90.0998

 380.00  VIB.     0.1119D+03                  4848.0123    29.9850    22.1324
         ROT.     0.3180D+06                  1132.7077     2.9808    28.1581
         INT.     0.3557D+08                  5980.7200    32.9658    50.2905
         TRA.     0.1313D+28                  1887.8462     4.9680    40.8070
         TOT.                       -5.215    7868.5662    37.9338    91.0975

 390.00  VIB.     0.1326D+03                  5153.0382    31.0185    22.9247
         ROT.     0.3306D+06                  1162.5158     2.9808    28.2355
         INT.     0.4383D+08                  6315.5540    33.9993    51.1602
         TRA.     0.1365D+28                  1937.5263     4.9680    40.9361
         TOT.                       -4.830    8253.0803    38.9674    92.0963

 400.00  VIB.     0.1573D+03                  5468.3471    32.0413    23.7229
         ROT.     0.3434D+06                  1192.3239     2.9808    28.3110
         INT.     0.5403D+08                  6660.6710    35.0222    52.0339
         TRA.     0.1418D+28                  1987.2065     4.9680    41.0619
         TOT.                       -4.435    8647.8775    39.9902    93.0957

   *: NOTE: HEATS OF FORMATION ARE RELATIVE TO THE
            ELEMENTS IN THEIR STANDARD STATE AT 298K
              (=  Standard Enthalpy of Formation).

            Hvib:  Zero-point energy is not included.
                   frequencies of less than zero cm-1 are not included.
            Hrot = (3/2)RT
            Htra = (3/2)RT + pV = (5/2)RT

            Heat capacity is Cp, not Cv

          For more information, see: HTTP://OpenMOPAC.net/Manual/thermochemistry.html


           FORCE CONSTANT IN CARTESIAN COORDINATES (Millidynes/A)

    ATOM   CHEMICAL       X               Y               Z
   NUMBER   SYMBOL  FORCE CONSTANT  FORCE CONSTANT  FORCE CONSTANT

      1       C        8.588425        7.612010        8.275311
      2       C        8.103315        8.525321        8.286410
      3       C        8.197669        8.020626        8.960397
      4       C        8.155797        9.433071        7.567579
      5       C        8.444324        8.221275        8.189744
      6       C        5.837837       13.861937        7.800866
      7       C        5.879137       12.058516        9.562848
      8       H        1.126327        1.616921        3.341407
      9       H        1.165521        2.266923        2.968146
     10       H        1.204791        1.261467        3.943917
     11       H        1.659259        0.876503        3.863449
     12       H        2.925294        2.768755        0.715777
     13       H        2.846597        0.907421        2.648950
     14       H        1.721465        3.703756        0.970912
     15       H        1.112328        1.333619        4.336038
     16       H        1.105063        2.544762        3.113439
     17       H        5.392187        0.732362        0.668761
     18       H        1.865537        3.786363        0.777699
     19       H        1.939093        0.866427        3.624840

 **********************
 *                    *
 * JOB ENDED NORMALLY *
 *                    *
 **********************



 TOTAL JOB TIME:             6.15 SECONDS

 == MOPAC DONE ==
